Membrane in water
40347
    1TMC1    C1    1   1.261   3.473  12.034  0.0416 -0.4478 -0.2668
    1TMC1    C2    2   1.155   3.524  12.106 -0.4868 -0.1157 -0.3096
    1TMC1    C3    3   1.147   3.658  12.115 -0.0307 -0.0714  1.2362
    1TMC1    C4    4   1.339   3.548  11.952  0.2400  0.8592  0.4918
    1TMC1    C5    5   1.327   3.688  11.973 -0.0107 -0.1866  0.5806
    1TMC1    C6    6   1.236   3.747  12.059 -0.2343 -0.1369  0.1737
    1TMC1     C    7   1.246   3.330  11.995  0.2166  0.1496  0.1133
    1TMC1     O    8   1.170   3.259  12.066  0.3471 -0.2103  0.1564
    1TMC1     H    9   1.093   3.465  12.172  1.9375 -1.0312  1.1434
    1TMC1    H1   10   1.436   3.505  11.929  0.3229  2.3053 -1.8676
    1TMC1    H2   11   1.229   3.855  12.065  2.6048  0.0550  0.2288
    1TMC1    C7   12   1.450   3.755  11.947  0.3636 -0.0394 -1.1684
    1TMC1    C8   13   1.077   3.707  12.238 -0.1725 -0.5139 -0.2347
    1TMC1    O1   14   1.476   3.856  12.013 -0.2848  0.1123 -0.4631
    1TMC1    O2   15   1.037   3.635  12.328  0.1445 -0.0288  0.0143
    1TMC1    O3   16   1.521   3.708  11.842 -0.3608  0.4484 -0.1094
    1TMC1    H3   17   1.485   3.633  11.790 -0.4992 -0.3115  1.0683
    1TMC1    O5   18   1.057   3.840  12.230 -0.1081 -0.1728 -0.1696
    1TMC1    H5   19   1.050   3.873  12.138 -1.1090  0.3797  0.1073
    2MPD2     C   20   1.349   2.924  11.718  0.2620  0.5009  0.3495
    2MPD2    C1   21   1.236   2.948  11.800  0.2070 -0.2252  0.3821
    2MPD2    C2   22   1.231   3.072  11.860  0.7009  0.2438  0.4190
    2MPD2    C3   23   1.321   3.172  11.823  0.3220 -0.1218  0.0654
    2MPD2    C4   24   1.415   3.153  11.722  0.1305 -0.5050  0.5863
    2MPD2    C5   25   1.438   3.023  11.672  0.2229  0.0264  0.0353
    2MPD2     H   26   1.156   3.090  11.935  0.8670  0.6095  0.4953
    2MPD2    H1   27   1.489   3.230  11.701 -0.3097  0.5261  2.9385
    2MPD2    H2   28   1.370   2.820  11.696 -0.3702  0.5376 -0.4439
    2MPD2    H3   29   1.526   2.987  11.621  1.2996  2.2463  0.2986
    2MPD2     N   30   1.323   3.300  11.886  0.0742  0.0792  0.0661
    2MPD2    H5   31   1.358   3.374  11.827  1.4035  1.6964  2.9075
    2MPD2    N1   32   1.139   2.854  11.846  0.2907  0.5496 -0.4423
    2MPD2    H7   33   1.061   2.890  11.899  0.6412 -0.3964  0.7095
    3TMC1    C1   34   0.459   3.054  11.001 -0.5504 -0.1590 -0.3446
    3TMC1    C2   35   0.567   3.127  10.964 -0.1828  0.8805 -0.2689
    3TMC1    C3   36   0.662   3.078  10.877 -0.0199  0.0251 -0.6753
    3TMC1    C4   37   0.464   2.920  10.957 -0.1993 -0.3977 -0.1695
    3TMC1    C5   38   0.563   2.865  10.882 -0.9139 -0.0758 -0.0056
    3TMC1    C6   39   0.662   2.944  10.834 -0.3008 -0.2384 -0.4741
    3TMC1     C   40   0.349   3.099  11.086  0.3442 -0.1554  0.0259
    3TMC1     O   41   0.267   3.010  11.118 -0.1893  0.0137  0.2398
    3TMC1     H   42   0.577   3.230  10.997 -2.7244  1.4204 -1.1580
    3TMC1    H1   43   0.397   2.849  11.004 -1.3278  0.6939 -0.1544
    3TMC1    H2   44   0.732   2.905  10.761 -0.3676  1.6645 -1.5526
    3TMC1    C7   45   0.537   2.735  10.831 -0.0045 -0.1143  0.0054
    3TMC1    C8   46   0.771   3.154  10.827 -0.6596 -0.2577 -0.3155
    3TMC1    O1   47   0.422   2.691  10.832  0.0903  0.2702 -0.8822
    3TMC1    O2   48   0.868   3.096  10.780  0.8883  0.0279  0.3588
    3TMC1    O3   49   0.643   2.688  10.763 -0.4738  0.2310 -0.0207
    3TMC1    H3   50   0.727   2.725  10.800  0.6486 -3.3816  1.0365
    3TMC1    O5   51   0.726   3.284  10.803  0.6100  0.2924 -0.6583
    3TMC1    H5   52   0.628   3.288  10.812  0.5697 -0.3573 -0.8571
    4MPD2     C   53   0.085   3.454  11.345 -0.4330  0.3003 -0.8412
    4MPD2    C1   54   0.177   3.518  11.257  0.0724  0.2298 -0.2030
    4MPD2    C2   55   0.260   3.435  11.191 -0.7243 -0.0708  0.2766
    4MPD2    C3   56   0.255   3.299  11.202 -0.0421  0.0716 -0.5333
    4MPD2    C4   57   0.161   3.237  11.288 -0.0027  0.5548  0.0857
    4MPD2    C5   58   0.086   3.317  11.361 -0.3789 -0.5353  0.0163
    4MPD2     H   59   0.338   3.479  11.129 -0.6147 -0.0826  0.4057
    4MPD2    H1   60   0.143   3.130  11.292  0.3695  0.5223  0.7929
    4MPD2    H2   61   0.027   3.504  11.421 -0.8627  0.2116 -1.1090
    4MPD2    H3   62   0.010   3.274  11.426 -0.8000 -0.1558 -0.2195
    4MPD2     N   63   0.351   3.230  11.121  0.7809  0.2497  0.2348
    4MPD2    H5   64   0.425   3.287  11.082  1.3799  0.1354  1.2126
    4MPD2    N1   65   0.184   3.656  11.228  0.1216  0.2306  0.2455
    4MPD2    H7   66   0.249   3.692  11.159  0.9256 -0.0351  0.8700
    5TCq1    O1   67   0.196   0.343  11.783 -0.9169  0.3456  0.3604
    5TCq1    C1   68   0.240   0.376  11.910  0.6785 -0.8242 -0.5492
    5TCq1    O2   69   0.184   0.341  12.012 -0.4710 -0.0987  0.2721
    5TCq1    C2   70   0.340   0.485  11.897  0.4667  0.5554 -0.0013
    5TCq1    C3   71   0.338   0.579  11.999 -0.2020 -0.3997 -0.0206
    5TCq1    C4   72   0.448   0.663  12.006  0.0389 -0.1611  0.2338
    5TCq1    C5   73   0.553   0.654  11.921  0.3969  0.6730  0.1643
    5TCq1    C6   74   0.529   0.574  11.813  0.2783 -0.1784 -0.3143
    5TCq1    C7   75   0.429   0.479  11.798  0.2584  0.1664  0.2101
    5TCq1    C8   76   0.621   0.583  11.697 -0.1421 -0.1005 -0.2195
    5TCq1    O4   77   0.643   0.480  11.632 -0.1385  0.4400  0.3673
    5TCq1    C9   78   0.450   0.754  12.115  0.3863  0.7804  0.2931
    5TCq1    O5   79   0.369   0.752  12.209  0.2099 -0.2312  0.3995
    5TCq1    O6   80   0.521   0.851  12.088 -0.7184  0.9093  0.0223
    5TCq1    H1   81   0.230   0.404  11.714 -0.5882  1.2339  1.3104
    5TCq1    H2   82   0.261   0.579  12.076 -2.7666 -0.7441 -2.5978
    5TCq1    H3   83   0.640   0.714  11.946 -0.5271  2.5714 -1.2141
    5TCq1    H4   84   0.429   0.404  11.720 -0.4605  2.5734 -2.0703
    6MPD2     C   85   0.838   0.870  11.577  0.0049  0.3364  0.5794
    6MPD2    C1   86   0.764   0.749  11.571  0.7018 -0.8489  0.1438
    6MPD2    C2   87   0.780   0.662  11.460 -0.3790 -0.0896 -0.0427
    6MPD2    C3   88   0.891   0.691  11.376  0.6100 -0.0494  0.6201
    6MPD2    C4   89   0.971   0.806  11.385 -0.3267 -0.2371  1.1548
    6MPD2    C5   90   0.939   0.895  11.489  0.1569  1.5356  0.2378
    6MPD2     H   91   0.727   0.569  11.443  2.2467 -1.6190  0.2134
    6MPD2    H1   92   1.060   0.832  11.329 -1.9778  1.0277 -0.8592
    6MPD2    H2   93   0.827   0.940  11.659  0.5126  2.0880 -0.8643
    6MPD2    H3   94   0.998   0.986  11.494  1.3706  0.7708 -0.1548
    6MPD2     N   95   0.935   0.579  11.293 -0.9605 -0.0991 -0.7471
    6MPD2    H5   96   0.887   0.491  11.305 -0.4196 -0.1802  0.8479
    6MPD2    N1   97   0.682   0.710  11.679  0.6385 -0.0588  0.0024
    6MPD2    H7   98   0.671   0.784  11.747 -1.1601  1.4174 -1.8966
    7TCq1    O1   99   2.806   0.020  13.532  0.7394  0.0448  0.3940
    7TCq1    C1  100   2.715   0.008  13.430 -0.3338 -0.5203 -0.0043
    7TCq1    O2  101   2.626   0.090  13.418 -0.5984 -0.2353  0.2319
    7TCq1    C2  102   2.797   4.709  13.320  0.1952  0.1171 -0.2393
    7TCq1    C3  103   2.771   0.037  13.198  0.5060  0.7241  0.4534
    7TCq1    C4  104   2.831   4.724  13.086  0.6776 -0.0275 -0.2186
    7TCq1    C5  105   2.903   4.609  13.092  0.4372  0.5561 -0.0851
    7TCq1    C6  106   2.916   4.545  13.214 -0.6706 -0.3515 -0.1985
    7TCq1    C7  107   2.870   4.598  13.331 -0.3534  0.4412  0.6948
    7TCq1    C8  108   3.035   4.458  13.229 -0.2694  0.3858  0.4333
    7TCq1    O4  109   3.052   4.374  13.146 -0.3680 -0.3388  0.1213
    7TCq1    C9  110   2.827   0.057  12.961 -0.4012 -0.5425  0.2466
    7TCq1    O5  111   2.885   4.733  12.868 -0.6471 -0.1737  0.1280
    7TCq1    O6  112   2.783   0.177  12.958  0.0765  0.2798 -0.0017
    7TCq1    H1  113   2.893   4.722  13.507  0.8580 -0.0426  0.9414
    7TCq1    H2  114   2.717   0.132  13.195  0.0133  0.4559  0.7326
    7TCq1    H3  115   2.955   4.566  13.007  0.3045 -1.8322  1.0513
    7TCq1    H4  116   2.853   4.538  13.420 -2.5533 -1.6504 -1.1145
    8MPD2     C  117   3.381   4.215  13.537 -0.2391  0.0594  0.1052
    8MPD2    C1  118   3.324   4.177  13.424 -0.2248  0.3148 -0.2575
    8MPD2    C2  119   3.230   4.256  13.359  0.5749 -0.4683 -0.0388
    8MPD2    C3  120   3.197   4.381  13.413  0.2516  0.1393 -0.0193
    8MPD2    C4  121   3.245   4.409  13.542 -0.1939 -0.0280 -0.0047
    8MPD2    C5  122   3.348   4.328  13.597  0.0715  0.2011  0.8392
    8MPD2     H  123   3.205   4.227  13.257  0.0672  0.7198 -0.2499
    8MPD2    H1  124   3.212   4.500  13.591  0.5758  1.0816 -1.5420
    8MPD2    H2  125   3.444   4.146  13.592  1.3756  0.5531 -1.1167
    8MPD2    H3  126   3.387   4.343  13.697  0.2255  0.8132  0.6861
    8MPD2     N  127   3.094   4.464  13.361  0.1072  0.0405  0.1622
    8MPD2    H5  128   3.054   4.536  13.420  0.5555  0.3023  0.1470
    8MPD2    N1  129   3.361   4.044  13.380 -0.5086 -0.0794 -0.0339
    8MPD2    H7  130   3.432   3.999  13.437  1.1114  1.6567 -0.6621
    9TMC1    C1  131   0.857   3.751  11.686  0.1842 -0.4809  0.5371
    9TMC1    C2  132   0.823   3.623  11.647  0.2293  0.0890 -0.3492
    9TMC1    C3  133   0.879   3.574  11.527  0.3335 -0.0317  0.5100
    9TMC1    C4  134   0.954   3.819  11.614  0.6000  0.1609 -0.2934
    9TMC1    C5  135   0.999   3.766  11.493  0.4006 -0.8255  0.0155
    9TMC1    C6  136   0.960   3.647  11.448 -0.6768 -0.3166  0.6891
    9TMC1     C  137   0.841   3.791  11.824 -0.5004  0.1773 -0.2510
    9TMC1     O  138   0.893   3.901  11.847 -0.2078 -0.6146  0.1850
    9TMC1     H  139   0.752   3.560  11.699  0.4120  1.5295  1.6082
    9TMC1    H1  140   0.980   3.920  11.644 -1.5142  0.0010  2.0424
    9TMC1    H2  141   0.997   3.596  11.359 -0.9066  2.7203 -1.1655
    9TMC1    C7  142   1.103   3.820  11.413  0.4000 -0.5593  0.2703
    9TMC1    C8  143   0.805   3.462  11.469  0.0908  0.4328  0.1386
    9TMC1    O1  144   1.152   3.769  11.311 -0.4215  0.3701  0.3908
    9TMC1    O2  145   0.744   3.368  11.518 -0.4778  0.3284  0.2856
    9TMC1    O3  146   1.112   3.950  11.449 -0.5259  0.5496  0.0638
    9TMC1    H3  147   1.089   3.966  11.543  1.4954 -1.8932  0.9567
    9TMC1    O5  148   0.808   3.479  11.335  0.3770 -0.0502  0.3666
    9TMC1    H5  149   0.835   3.570  11.309  1.1152 -0.6930 -1.1297
   10MPD2     C  150   0.735   3.847  12.099 -0.0906 -0.0938 -0.9872
   10MPD2    C1  151   0.699   3.737  12.029 -0.2545  0.0012  0.2147
   10MPD2    C2  152   0.611   3.645  12.089  0.3796 -0.3355  0.0806
   10MPD2    C3  153   0.577   3.659  12.228 -0.2317 -0.7259  0.8179
   10MPD2    C4  154   0.623   3.773  12.290  0.7205  0.2966 -0.0537
   10MPD2    C5  155   0.696   3.860  12.224 -0.4845  0.2096 -0.0787
   10MPD2     H  156   0.579   3.560  12.031 -0.1437 -0.4683  0.5683
   10MPD2    H1  157   0.598   3.793  12.394  1.5624  0.9717  0.0162
   10MPD2    H2  158   0.801   3.922  12.059 -0.7641 -0.5039 -2.8817
   10MPD2    H3  159   0.744   3.940  12.278  0.0089  1.1894 -1.9630
   10MPD2     N  160   0.502   3.563  12.294  0.5007 -0.1748  0.1554
   10MPD2    H5  161   0.492   3.585  12.392 -0.5796  1.3477 -0.2937
   10MPD2    N1  162   0.756   3.710  11.898  0.4042  0.2663 -0.4499
   10MPD2    H7  163   0.731   3.619  11.860 -0.3710 -0.1520  1.0648
   11TCq1    O1  164   2.035   2.911  14.720 -0.0583  0.4843 -0.0234
   11TCq1    C1  165   2.120   3.015  14.739 -0.0752 -0.1578 -0.2265
   11TCq1    O2  166   2.215   3.013  14.816 -0.0668  0.2086 -0.2664
   11TCq1    C2  167   2.110   3.096  14.616 -0.0845  0.3735 -0.1301
   11TCq1    C3  168   2.228   3.170  14.592 -0.4419 -0.3349 -0.9263
   11TCq1    C4  169   2.238   3.239  14.470  0.0838 -0.1590  0.3298
   11TCq1    C5  170   2.143   3.228  14.367 -0.2504  0.4894  0.8079
   11TCq1    C6  171   2.031   3.160  14.401  0.2749 -0.4092 -0.2816
   11TCq1    C7  172   2.012   3.090  14.521  0.5255 -0.0917 -0.3841
   11TCq1    C8  173   1.922   3.180  14.307 -0.2372  0.5928 -0.3414
   11TCq1    O4  174   1.937   3.274  14.230 -0.1928  0.4057 -0.2454
   11TCq1    C9  175   2.356   3.318  14.456 -0.0633 -0.2618  0.0398
   11TCq1    O5  176   2.427   3.344  14.559 -0.2341  0.9421 -0.3521
   11TCq1    O6  177   2.384   3.364  14.340  0.0374  0.1752 -0.0370
   11TCq1    H1  178   1.988   2.906  14.633  0.2994  0.0488 -0.1946
   11TCq1    H2  179   2.311   3.172  14.662 -0.4022  0.3466 -0.9921
   11TCq1    H3  180   2.159   3.269  14.268  1.2518 -0.2463  0.7329
   11TCq1    H4  181   1.914   3.059  14.555  0.2648  0.3814 -0.7081
   12MPD2     C  182   1.691   3.145  14.126 -0.3496 -0.0903 -0.1629
   12MPD2    C1  183   1.750   3.042  14.197  0.1640 -0.6308 -0.5287
   12MPD2    C2  184   1.698   2.918  14.168  0.1500  0.5268  0.2102
   12MPD2    C3  185   1.599   2.888  14.082 -0.6671  0.5292 -0.6007
   12MPD2    C4  186   1.541   2.997  14.017  0.2867  0.4205 -0.0321
   12MPD2    C5  187   1.596   3.123  14.025 -0.1149 -0.0896  0.2318
   12MPD2     H  188   1.754   2.840  14.220 -1.8512  1.0563  3.1591
   12MPD2    H1  189   1.452   2.982  13.957 -0.1603 -0.5601  0.8593
   12MPD2    H2  190   1.726   3.247  14.137 -2.6350  0.4864  1.8311
   12MPD2    H3  191   1.554   3.209  13.973  3.2750  0.9023 -0.8715
   12MPD2     N  192   1.545   2.759  14.063  0.3602 -0.4894 -0.4930
   12MPD2    H5  193   1.461   2.753  14.006  0.0619 -0.4858 -0.0536
   12MPD2    N1  194   1.843   3.066  14.298 -0.3440  0.0676  0.1109
   12MPD2    H7  195   1.874   2.985  14.352  1.8581  1.4226  0.9092
   13TCq1    O1  196   1.602   3.401  11.054 -0.5377 -0.5203  0.1381
   13TCq1    C1  197   1.609   3.345  11.178 -0.2211  0.1376 -0.1047
   13TCq1    O2  198   1.713   3.298  11.224 -0.2529 -0.5230  0.1615
   13TCq1    C2  199   1.511   3.404  11.258  1.2487  0.2279 -0.9222
   13TCq1    C3  200   1.558   3.454  11.375 -0.2759 -0.5852 -0.4232
   13TCq1    C4  201   1.476   3.455  11.486  0.0646  0.3876  0.5721
   13TCq1    C5  202   1.355   3.396  11.491  0.5637  0.6124 -0.0833
   13TCq1    C6  203   1.313   3.343  11.366  0.3706  0.2493 -0.7059
   13TCq1    C7  204   1.387   3.348  11.252 -0.2173  0.4082 -0.0672
   13TCq1    C8  205   1.182   3.286  11.365 -1.2563  0.4475  1.2997
   13TCq1    O4  206   1.109   3.326  11.455  0.1620  0.3559  0.5599
   13TCq1    C9  207   1.526   3.498  11.614 -0.1715  0.0246 -0.2458
   13TCq1    O5  208   1.446   3.508  11.708 -0.5470  0.3418 -0.3544
   13TCq1    O6  209   1.647   3.461  11.632  0.0223  0.1006 -0.5288
   13TCq1    H1  210   1.514   3.444  11.047 -0.2157  0.3223  1.1666
   13TCq1    H2  211   1.657   3.496  11.380 -0.2184 -0.6793 -0.7995
   13TCq1    H3  212   1.292   3.384  11.579  1.4665 -2.0876  0.2133
   13TCq1    H4  213   1.342   3.318  11.158  2.4932  0.6472 -1.4336
   14MPD2     C  214   1.022   3.016  11.155  0.2811  0.1839 -0.1354
   14MPD2    C1  215   1.030   3.122  11.241 -0.5836 -0.9042  0.6756
   14MPD2    C2  216   0.912   3.157  11.306  0.4498 -0.0108 -0.4512
   14MPD2    C3  217   0.795   3.086  11.293  0.2093  0.4209 -0.0544
   14MPD2    C4  218   0.790   2.977  11.207  0.1542 -0.1065  0.7872
   14MPD2    C5  219   0.904   2.948  11.137  0.2451 -0.3896  0.1764
   14MPD2     H  220   0.911   3.243  11.372 -0.4928 -1.8073  1.8561
   14MPD2    H1  221   0.709   2.905  11.201 -0.1136  0.2222  0.4440
   14MPD2    H2  222   1.101   2.968  11.099 -0.7113 -1.5528 -0.0519
   14MPD2    H3  223   0.907   2.868  11.063 -0.4574  0.7353 -1.0658
   14MPD2     N  224   0.682   3.127  11.365  0.5955  0.2176  0.2470
   14MPD2    H5  225   0.696   3.205  11.428 -1.0142  0.3369  0.4522
   14MPD2    N1  226   1.155   3.187  11.268 -0.2832  0.1697 -0.0299
   14MPD2    H7  227   1.238   3.166  11.213  0.6902  2.5198  0.5193
   15TCq1    O1  228   4.126   1.491   2.511 -0.3183  0.1039  0.2505
   15TCq1    C1  229   4.185   1.499   2.393 -0.2191 -1.0290 -0.4352
   15TCq1    O2  230   4.285   1.432   2.364 -0.2276 -0.6882 -0.2962
   15TCq1    C2  231   4.082   1.532   2.301 -0.4126 -0.9476 -0.0649
   15TCq1    C3  232   4.006   1.636   2.342 -0.4237  0.2517 -0.5202
   15TCq1    C4  233   3.901   1.673   2.264  0.1948 -0.8009  0.2825
   15TCq1    C5  234   3.877   1.598   2.154 -0.4839 -0.3848  0.2226
   15TCq1    C6  235   3.963   1.498   2.113  0.1227  1.3493  0.1926
   15TCq1    C7  236   4.072   1.464   2.185  0.3124  0.4910  0.4489
   15TCq1    C8  237   3.956   1.436   1.983  0.0559  0.2150  0.1418
   15TCq1    O4  238   4.040   1.354   1.946  0.1129 -0.7956 -0.5755
   15TCq1    C9  239   3.823   1.778   2.307  0.5305 -0.7014  0.2919
   15TCq1    O5  240   3.864   1.854   2.401 -0.1801 -0.3773 -0.1284
   15TCq1    O6  241   3.705   1.775   2.256 -0.1248 -0.2482 -0.7705
   15TCq1    H1  242   4.033   1.521   2.509 -0.9235 -1.8810 -1.3148
   15TCq1    H2  243   4.030   1.706   2.422 -1.0657 -0.9266  0.6959
   15TCq1    H3  244   3.791   1.620   2.092  0.0184 -3.0762 -1.4335
   15TCq1    H4  245   4.155   1.402   2.153 -0.3248  0.2036 -0.6342
   16MPD2     C  246   3.722   1.522   1.707  0.4988 -0.2935 -0.4269
   16MPD2    C1  247   3.819   1.454   1.777 -0.6798  0.3433  0.4814
   16MPD2    C2  248   3.864   1.338   1.720  0.3341 -0.0471 -0.6107
   16MPD2    C3  249   3.819   1.298   1.597 -0.1531 -0.1931 -1.1139
   16MPD2    C4  250   3.728   1.372   1.523  0.0094 -0.8427  0.3584
   16MPD2    C5  251   3.682   1.487   1.580 -0.5357 -0.1721 -0.4337
   16MPD2     H  252   3.949   1.283   1.760 -1.7818 -1.4509  1.9288
   16MPD2    H1  253   3.696   1.349   1.422  0.2203 -0.2013  0.1475
   16MPD2    H2  254   3.671   1.607   1.750  1.9393  0.9546 -1.2108
   16MPD2    H3  255   3.607   1.545   1.528  0.0455  2.2383  1.4467
   16MPD2     N  256   3.892   1.191   1.532 -0.0458  0.0330  0.4973
   16MPD2    H5  257   3.975   1.151   1.576  0.6915  2.4790  1.3375
   16MPD2    N1  258   3.861   1.498   1.900 -0.2008 -0.3250  0.0782
   16MPD2    H7  259   3.811   1.574   1.946 -1.1525 -1.3090  0.6390
   17TMC1    C1  260   0.454   2.717  11.713 -0.6358  0.3289 -0.6821
   17TMC1    C2  261   0.365   2.706  11.816 -0.0621 -0.0981 -0.3644
   17TMC1    C3  262   0.271   2.610  11.811 -0.1828 -0.2347 -0.0597
   17TMC1    C4  263   0.436   2.649  11.593 -0.9033  0.2089  0.3424
   17TMC1    C5  264   0.342   2.548  11.593  0.0050 -0.0777 -0.9199
   17TMC1    C6  265   0.264   2.528  11.701 -0.4528  0.0595 -0.1070
   17TMC1     C  266   0.552   2.825  11.717  0.7019  0.3581  0.7470
   17TMC1     O  267   0.512   2.923  11.780 -0.5085 -0.0140  0.3985
   17TMC1     H  268   0.370   2.769  11.905 -0.4633  0.1175 -0.4950
   17TMC1    H1  269   0.505   2.659  11.511 -1.9945 -0.8234 -0.7113
   17TMC1    H2  270   0.188   2.451  11.699  0.4084 -0.8644  2.2613
   17TMC1    C7  271   0.356   2.448  11.493 -1.0958  0.6345  0.5689
   17TMC1    C8  272   0.216   2.561  11.929 -0.8742  0.0840  0.3972
   17TMC1    O1  273   0.347   2.325  11.508  0.0943 -0.1069 -0.0922
   17TMC1    O2  274   0.103   2.584  11.968  0.1965 -0.1627  0.3635
   17TMC1    O3  275   0.317   2.513  11.381 -0.4717 -0.4132  0.0719
   17TMC1    H3  276   0.306   2.610  11.384 -0.1301 -0.3894  0.4682
   17TMC1    O5  277   0.275   2.437  11.933 -0.4166 -0.1711  0.0716
   17TMC1    H5  278   0.356   2.423  11.879 -0.5727 -1.0432  0.0506
   18MPD2     C  279   0.765   3.016  11.680 -0.1840 -0.6247 -0.2911
   18MPD2    C1  280   0.773   2.886  11.633 -0.3180 -0.0627 -0.5053
   18MPD2    C2  281   0.890   2.840  11.573  0.3067  0.1683 -0.1875
   18MPD2    C3  282   1.006   2.917  11.554  0.4388 -0.8399 -0.9675
   18MPD2    C4  283   0.995   3.046  11.594  0.1521 -0.0786  0.4617
   18MPD2    C5  284   0.880   3.091  11.660 -0.1653  0.8788 -0.2945
   18MPD2     H  285   0.887   2.751  11.513  1.7853  0.8878 -1.3237
   18MPD2    H1  286   1.082   3.110  11.589 -0.3518  0.8375  2.9449
   18MPD2    H2  287   0.676   3.058  11.724 -0.2787 -0.7374 -0.3723
   18MPD2    H3  288   0.881   3.189  11.706  1.6806  2.1918 -3.0985
   18MPD2     N  289   1.123   2.873  11.487 -0.0172 -0.3528 -0.0302
   18MPD2    H5  290   1.204   2.934  11.499 -0.0121 -0.2183 -0.7751
   18MPD2    N1  291   0.663   2.801  11.644  0.0413  0.3720  0.1429
   18MPD2    H7  292   0.672   2.707  11.607  1.9266  0.3315  0.7362
   19TMC2    C1  293   2.911   2.775  14.406 -0.1589  0.1155 -0.2281
   19TMC2    C2  294   2.870   2.900  14.369 -0.1185 -0.8381 -0.8419
   19TMC2    C3  295   2.747   2.923  14.311  0.3814 -0.7307 -0.0126
   19TMC2    C4  296   2.816   2.674  14.400  0.4229  1.2441 -0.7756
   19TMC2    C5  297   2.686   2.701  14.360  0.7697  0.2836 -0.6518
   19TMC2    C6  298   2.656   2.826  14.308  0.4071 -0.5709 -0.3631
   19TMC2     C  299   3.054   2.751  14.434 -0.4391  0.1941 -0.1478
   19TMC2     O  300   3.122   2.852  14.422  0.3384  0.2294 -0.7290
   19TMC2     H  301   2.927   2.991  14.368 -0.9281 -0.3305 -0.6655
   19TMC2    H1  302   2.846   2.575  14.432 -0.8035  1.1779  0.1795
   19TMC2    H2  303   2.556   2.849  14.272  0.6138 -0.5677 -0.9250
   19TMC2    C7  304   2.592   2.588  14.363  0.0857 -1.2949  0.2517
   19TMC2    C8  305   2.707   3.060  14.291  0.6969 -0.6995 -0.0026
   19TMC2    O1  306   2.625   2.489  14.426 -0.2209  0.4187 -0.5147
   19TMC2    O2  307   2.779   3.155  14.272  0.3639  0.3174  0.4583
   19TMC2    O5  308   2.580   3.080  14.330 -0.5134  0.2665 -0.8081
   19TMC2    H5  309   2.533   3.008  14.378 -2.7143  3.8992  2.4881
   20MPD2     C  310   3.328   2.650  14.458 -0.0710 -0.4538  0.3050
   20MPD2    C1  311   3.217   2.580  14.486 -0.7610  0.8787  0.1885
   20MPD2    C2  312   3.233   2.456  14.549 -0.1267  0.2747  0.1886
   20MPD2    C3  313   3.356   2.403  14.583 -0.5548  0.2436  0.3633
   20MPD2    C4  314   3.471   2.488  14.567  1.3808 -0.0672  0.0721
   20MPD2    C5  315   3.446   2.607  14.500  0.1496  0.0430  0.3605
   20MPD2     H  316   3.138   2.407  14.567 -1.4265  1.7445 -2.6507
   20MPD2    H1  317   3.569   2.456  14.598  1.2571 -1.7708 -1.2938
   20MPD2    H2  318   3.337   2.746  14.409 -0.7776 -0.8235 -0.5411
   20MPD2    H3  319   3.525   2.679  14.483  2.1997 -2.7927 -2.2563
   20MPD2     N  320   3.371   2.282  14.649  0.5857  0.0911  0.6802
   20MPD2    H5  321   3.469   2.267  14.674  0.8537 -2.1105 -1.5750
   20MPD2    N1  322   3.086   2.623  14.462 -0.1974  0.0782  0.2537
   20MPD2    H7  323   3.004   2.576  14.499 -0.8104  2.0090  1.3478
   21TMC2    C1  324   0.608   2.883  14.812  0.0957 -0.5723  0.1128
   21TMC2    C2  325   0.654   2.759  14.845 -0.4716 -0.3704 -0.6057
   21TMC2    C3  326   0.569   2.689  14.935 -0.0302  0.6606 -0.6949
   21TMC2    C4  327   0.494   2.939  14.870 -0.2491  0.2546  0.1534
   21TMC2    C5  328   0.429   2.873  14.970  0.1415  0.4330  0.5385
   21TMC2    C6  329   0.457   2.743  15.000 -0.3593 -0.4992  0.3707
   21TMC2     C  330   0.696   2.958  14.725  0.2320 -0.5957 -0.3804
   21TMC2     O  331   0.795   2.898  14.681  0.9875  0.4895 -0.4462
   21TMC2     H  332   0.749   2.716  14.814 -0.2653  0.2877 -0.8876
   21TMC2    H1  333   0.461   3.040  14.849  1.8002  0.3918 -2.3677
   21TMC2    H2  334   0.408   2.681  15.075  0.5700 -2.2115 -0.4296
   21TMC2    C7  335   0.329   2.945  15.052 -0.8054  0.8083  0.3615
   21TMC2    C8  336   0.631   2.573  14.995 -0.3384  0.9062  0.1997
   21TMC2    O1  337   0.324   2.909  15.167 -0.6764 -0.1182  0.3908
   21TMC2    O2  338   0.751   2.560  15.006  0.2604 -0.9430 -0.6359
   21TMC2    O5  339   0.542   2.477  14.966  0.2566 -0.3794  0.4378
   21TMC2    H5  340   0.458   2.520  14.939  1.2271  1.3079  0.0725
   22MPD2     C  341   0.853   3.386  14.511 -0.0489  0.5514  0.4511
   22MPD2    C1  342   0.898   3.254  14.492  0.0890 -0.4316 -0.1585
   22MPD2    C2  343   0.836   3.155  14.561 -1.0794 -0.0522 -0.4566
   22MPD2    C3  344   0.737   3.183  14.653 -0.0551  0.4569 -0.0705
   22MPD2    C4  345   0.695   3.314  14.673  0.1555 -0.3121 -0.6187
   22MPD2    C5  346   0.751   3.414  14.595 -1.0175 -0.1449 -0.0139
   22MPD2     H  347   0.880   3.058  14.540  1.2169 -0.0887  4.3503
   22MPD2    H1  348   0.629   3.356  14.747  2.1169 -0.5452  1.2593
   22MPD2    H2  349   0.898   3.475  14.469  0.1033  0.9028  1.3522
   22MPD2    H3  350   0.716   3.516  14.604 -1.0257 -0.2049  0.6222
   22MPD2     N  351   0.663   3.087  14.717 -0.0247  0.1131  0.0250
   22MPD2    H5  352   0.591   3.123  14.778 -0.4258  0.1727 -0.4773
   22MPD2    N1  353   1.011   3.219  14.417 -0.4555 -0.7779 -0.8813
   22MPD2    H7  354   1.044   3.127  14.443  2.2892  0.3391 -0.4303
   23TMC2    C1  355   1.631   4.135  14.670 -0.2477 -0.6255  0.5962
   23TMC2    C2  356   1.619   4.126  14.532 -0.4029  0.1559  0.5957
   23TMC2    C3  357   1.487   4.133  14.483 -0.1118 -0.0593  0.2899
   23TMC2    C4  358   1.529   4.175  14.749 -0.1055 -0.0469  0.5493
   23TMC2    C5  359   1.402   4.190  14.689  0.3335  0.4536 -0.4734
   23TMC2    C6  360   1.379   4.166  14.556  0.5060  0.1699  0.2869
   23TMC2     C  361   1.751   4.089  14.736  0.5513  0.6936  0.0502
   23TMC2     O  362   1.748   4.083  14.857  0.3093 -0.0457 -0.2082
   23TMC2     H  363   1.701   4.090  14.472 -1.5150 -1.6058  0.1568
   23TMC2    H1  364   1.545   4.184  14.855  1.2340  1.5212  0.2142
   23TMC2    H2  365   1.279   4.151  14.516  0.7549 -0.3357 -0.1399
   23TMC2    C7  366   1.302   4.173  14.784 -0.6745  0.3733  0.6560
   23TMC2    C8  367   1.461   4.125  14.336  0.3683 -0.4039  0.1369
   23TMC2    O1  368   1.339   4.127  14.888 -0.7980 -0.3989  0.3577
   23TMC2    O2  369   1.357   4.167  14.298  0.5749 -0.4583  0.6488
   23TMC2    O5  370   1.491   3.995  14.319  0.3435 -0.2651 -0.0546
   23TMC2    H5  371   1.553   3.964  14.389 -0.4686  0.0178  0.7887
   24MPD2     C  372   2.210   3.865  14.755  0.6701  0.7697  0.0535
   24MPD2    C1  373   2.099   3.865  14.839 -0.3931  0.4159  0.1081
   24MPD2    C2  374   1.980   3.927  14.805  0.1761  0.1128  0.0724
   24MPD2    C3  375   1.970   4.001  14.688  0.0145  0.5166  0.3307
   24MPD2    C4  376   2.077   3.996  14.607 -0.8388 -0.3525  0.2462
   24MPD2    C5  377   2.193   3.925  14.635  0.2818 -0.7843 -0.7604
   24MPD2     H  378   1.901   3.919  14.878 -1.0649 -1.6198 -1.4629
   24MPD2    H1  379   2.073   4.040  14.508 -1.3139 -1.6669 -0.3164
   24MPD2    H2  380   2.298   3.803  14.765  1.4769  2.0280  0.8090
   24MPD2    H3  381   2.255   3.903  14.549 -1.0626 -0.2494 -1.8703
   24MPD2     N  382   1.859   4.079  14.652 -0.2281  0.6529  0.2931
   24MPD2    H5  383   1.870   4.116  14.558  2.3519  1.4721  0.9111
   24MPD2    N1  384   2.100   3.788  14.963 -0.0224 -0.2919 -0.1819
   24MPD2    H7  385   2.014   3.797  15.016  0.4344  1.1786  0.3286
   25TMC2    C1  386   0.335   2.003  11.995 -0.4079  0.5384 -0.5295
   25TMC2    C2  387   0.429   2.079  12.044 -0.1254 -0.3603  0.1253
   25TMC2    C3  388   0.399   2.166  12.137  0.0127  0.0791 -0.8312
   25TMC2    C4  389   0.202   2.020  12.035 -0.2280 -0.2136  0.1534
   25TMC2    C5  390   0.175   2.109  12.139 -0.3899 -0.7367  0.4317
   25TMC2    C6  391   0.274   2.186  12.184  0.2106 -0.1370  0.1513
   25TMC2     C  392   0.377   1.861  11.982  0.1871  0.3768  0.0260
   25TMC2     O  393   0.488   1.830  12.027 -0.0160  0.1712 -0.0573
   25TMC2     H  394   0.530   2.068  12.005  0.6868  1.5098  1.6970
   25TMC2    H1  395   0.129   1.954  11.990 -0.8655  0.7085 -0.1502
   25TMC2    H2  396   0.240   2.266  12.249 -2.8544 -0.0826 -1.5300
   25TMC2    C7  397   0.080   2.060  12.241 -0.4239 -0.5763  0.8038
   25TMC2    C8  398   0.523   2.225  12.190  1.0891  0.8929  0.3546
   25TMC2    O1  399   0.111   2.086  12.355 -0.2496  0.1268  0.6945
   25TMC2    O2  400   0.599   2.281  12.110  0.0918  0.4187  0.3839
   25TMC2    O5  401   0.513   2.263  12.313  0.1155  0.8155  0.7534
   25TMC2    H5  402   0.461   2.202  12.369  0.3437  0.5220  0.6486
   26MPD2     C  403   0.258   1.360  11.905 -0.9629  0.2701  0.3750
   26MPD2    C1  404   0.155   1.440  11.854 -0.3159  0.0240 -0.6504
   26MPD2    C2  405   0.171   1.575  11.860 -0.2006  0.4496  0.4973
   26MPD2    C3  406   0.276   1.639  11.922  0.3692 -0.0185  0.8585
   26MPD2    C4  407   0.379   1.565  11.976 -0.9808  0.1160 -0.1897
   26MPD2    C5  408   0.364   1.428  11.967  0.5628  0.0308 -0.3977
   26MPD2     H  409   0.094   1.638  11.817 -1.5591 -0.5925  1.3784
   26MPD2    H1  410   0.465   1.605  12.029 -1.0860 -0.1719  0.1982
   26MPD2    H2  411   0.269   1.253  11.898  0.6651  0.6181 -2.4775
   26MPD2    H3  412   0.440   1.366  12.014 -2.0616 -1.0835  2.4122
   26MPD2     N  413   0.279   1.785  11.922 -0.2639  0.5276  0.2070
   26MPD2    H5  414   0.200   1.833  11.881  1.1618  0.5645 -2.5276
   26MPD2    N1  415   0.050   1.366  11.793 -1.0076 -0.5629 -0.4953
   26MPD2    H7  416   0.060   1.265  11.789  0.6838 -0.3882 -0.9055
   27TMC2    C1  417   4.369   4.271  12.320 -0.2690  0.0153  0.6697
   27TMC2    C2  418   4.470   4.343  12.265  0.6723  0.0604 -0.8382
   27TMC2    C3  419   4.576   4.381  12.341 -0.2383 -0.3799 -0.0558
   27TMC2    C4  420   4.379   4.248  12.451 -1.0587  0.7329 -0.4100
   27TMC2    C5  421   4.478   4.300  12.533  0.3045 -0.0067 -0.1656
   27TMC2    C6  422   4.579   4.367  12.478  0.1333  0.6773  0.4744
   27TMC2     C  423   4.286   4.181  12.243  0.4539  0.1810  0.0390
   27TMC2     O  424   4.269   4.217  12.128 -0.4149 -0.1437 -0.4057
   27TMC2     H  425   4.469   4.376  12.162 -0.5483  0.0027 -0.8344
   27TMC2    H1  426   4.293   4.206  12.502 -0.3461 -0.5047 -0.2301
   27TMC2    H2  427   4.660   4.400  12.541  0.2213  0.6452  0.3782
   27TMC2    C7  428   4.485   4.254  12.674  0.6951 -0.2090 -0.2214
   27TMC2    C8  429   4.663   4.484  12.280  0.3442 -0.0539 -0.4820
   27TMC2    O1  430   4.384   4.203  12.722 -0.3074 -0.2257  0.1397
   27TMC2    O2  431   4.626   4.551  12.181  0.1978  0.6313 -0.0170
   27TMC2    O5  432   0.050   4.471  12.322  0.3289  0.1582  0.1973
   27TMC2    H5  433   0.059   4.394  12.382 -0.8030  0.7212  1.0959
   28MPD2     C  434   3.981   3.767  12.211 -0.6388  0.0424  0.0078
   28MPD2    C1  435   4.036   3.763  12.337  0.7878  0.6122 -0.4066
   28MPD2    C2  436   4.123   3.866  12.365 -0.1542  0.1113 -0.6634
   28MPD2    C3  437   4.165   3.962  12.268  0.0521 -0.3590 -0.2653
   28MPD2    C4  438   4.102   3.965  12.141  0.3965 -0.0720  0.2247
   28MPD2    C5  439   4.005   3.870  12.119 -0.1954  1.3187 -0.3120
   28MPD2     H  440   4.170   3.877  12.462 -1.8322  0.0828  0.1414
   28MPD2    H1  441   4.123   4.031  12.059  0.3008 -0.0105  0.2493
   28MPD2    H2  442   3.897   3.702  12.188  0.2801 -0.9596 -0.5039
   28MPD2    H3  443   3.944   3.864  12.029  1.7366 -0.8389 -1.4685
   28MPD2     N  444   4.257   4.063  12.306  0.3063  0.0298  0.5998
   28MPD2    H5  445   4.303   4.044  12.395  1.3023  1.3006  0.3571
   28MPD2    N1  446   3.999   3.662  12.433  0.8659 -0.9791  0.0632
   28MPD2    H7  447   3.916   3.608  12.410 -0.6267  0.9557  0.8027
   29TMC2    C1  448   4.032   1.413  14.600 -0.6336  0.1442 -0.2954
   29TMC2    C2  449   3.914   1.459  14.646  0.0492  0.0840  0.0422
   29TMC2    C3  450   3.906   1.588  14.675 -0.3793  0.0530 -0.1247
   29TMC2    C4  451   4.138   1.491  14.565  0.1199 -0.1938  0.3086
   29TMC2    C5  452   4.126   1.624  14.609 -0.3401  0.5930  0.3376
   29TMC2    C6  453   4.007   1.674  14.656 -0.1989 -1.0325  0.5452
   29TMC2     C  454   4.044   1.276  14.548 -0.0737  0.2506  0.3232
   29TMC2     O  455   4.151   1.224  14.531 -0.4415 -0.2185  0.8157
   29TMC2     H  456   3.833   1.389  14.666  0.5890  0.0242  1.9624
   29TMC2    H1  457   4.231   1.456  14.521  0.0284  0.1216 -0.1303
   29TMC2    H2  458   4.001   1.767  14.712  0.6450 -1.4953  1.4053
   29TMC2    C7  459   4.228   1.719  14.587  0.3711 -0.3134  0.2911
   29TMC2    C8  460   3.771   1.638  14.680  1.0307 -0.2893  0.9444
   29TMC2    O1  461   4.223   1.820  14.660  0.4224 -0.5435 -0.4588
   29TMC2    O2  462   3.684   1.553  14.699  0.1147 -0.1434 -0.1520
   29TMC2    O5  463   3.764   1.741  14.592 -0.3975 -0.0811  0.1531
   29TMC2    H5  464   3.851   1.785  14.584  1.4902 -3.9304 -0.0580
   30MPD2     C  465   3.815   0.865  14.349 -0.3626  0.2664 -0.0064
   30MPD2    C1  466   3.945   0.888  14.375  0.2077 -0.8902 -0.3313
   30MPD2    C2  467   3.982   1.007  14.439 -0.2285 -0.1106 -0.6140
   30MPD2    C3  468   3.883   1.108  14.455 -0.4615  0.4520 -0.7925
   30MPD2    C4  469   3.755   1.086  14.427  0.5180  0.2423  0.9353
   30MPD2    C5  470   3.721   0.963  14.380 -0.0653 -0.5149  0.4783
   30MPD2     H  471   4.085   1.025  14.468 -0.0770 -1.7828 -0.1260
   30MPD2    H1  472   3.673   1.156  14.438 -0.1734 -0.6032  1.1300
   30MPD2    H2  473   3.782   0.776  14.296  2.1143 -1.0296  0.6360
   30MPD2    H3  474   3.615   0.942  14.372 -0.4311  1.1125  1.3225
   30MPD2     N  475   3.917   1.232  14.507 -0.4928  0.0202  0.0672
   30MPD2    H5  476   3.844   1.303  14.503  1.8074  2.4243  0.7914
   30MPD2    N1  477   4.047   0.798  14.351 -0.3666 -0.1159 -0.1193
   30MPD2    H7  478   4.138   0.806  14.395 -0.5484  1.0732  0.0294
   31TMC2    C1  479   1.787   4.592  15.347  0.0476  0.1974 -0.3180
   31TMC2    C2  480   1.677   4.535  15.295  0.8906  0.1594  0.2934
   31TMC2    C3  481   1.593   4.475  15.385 -0.5937  0.1114  0.5817
   31TMC2    C4  482   1.812   4.585  15.481  0.6221  1.1054  0.2712
   31TMC2    C5  483   1.724   4.528  15.564  0.3157  0.1104 -0.1124
   31TMC2    C6  484   1.607   4.478  15.517  0.3409  0.4175 -0.5321
   31TMC2     C  485   1.826   4.712  15.273 -0.0476  0.3788 -0.5443
   31TMC2     O  486   1.789   4.716  15.157  0.3139  0.0061 -0.1318
   31TMC2     H  487   1.651   4.526  15.190  2.3401 -1.6537  0.0943
   31TMC2    H1  488   1.906   4.621  15.524  1.7102 -2.0566  0.5326
   31TMC2    H2  489   1.539   4.428  15.585  0.2096  2.5397  0.8855
   31TMC2    C7  490   1.767   4.501  15.701  0.1430 -0.5686  0.2962
   31TMC2    C8  491   1.467   4.458  15.321  0.2827 -0.3988 -0.9034
   31TMC2    O1  492   1.884   4.463  15.708 -0.9963  0.1919 -0.2379
   31TMC2    O2  493   1.417   4.538  15.243 -0.4686 -0.1920  0.1399
   31TMC2    O5  494   1.399   4.348  15.368 -0.2874 -0.6744  0.1833
   31TMC2    H5  495   1.464   4.292  15.416 -1.1128 -0.9718  0.9418
   32MPD2     C  496   2.049   0.424  15.215  0.6583 -0.4077  0.2363
   32MPD2    C1  497   1.963   0.360  15.128  0.8930  0.5441  0.0450
   32MPD2    C2  498   1.914   0.231  15.169  0.3704 -0.7102 -0.2211
   32MPD2    C3  499   1.955   0.175  15.287  0.0484 -0.3576 -0.5137
   32MPD2    C4  500   2.046   0.240  15.367 -0.0971 -0.1588 -0.0363
   32MPD2    C5  501   2.093   0.361  15.328 -0.5089  0.1793  0.0304
   32MPD2     H  502   1.850   0.175  15.102  2.6630  0.0735 -3.0473
   32MPD2    H1  503   2.073   0.200  15.464 -0.1578  1.9864  0.8744
   32MPD2    H2  504   2.095   0.519  15.192 -1.9367  0.0715 -2.9155
   32MPD2    H3  505   2.161   0.405  15.402  0.7950  0.5962 -1.4127
   32MPD2     N  506   1.913   0.052  15.346  0.5781 -0.3815 -0.0633
   32MPD2    H5  507   1.962   0.014  15.426 -1.0369 -2.0978  0.1075
   32MPD2    N1  508   1.941   0.420  15.005  0.0137  0.1408  0.0025
   32MPD2    H7  509   1.999   0.498  14.979  3.4596 -1.3352  3.2144
   33TMC2    C1  510   1.170   3.416  10.732 -0.0476  0.2846 -0.2538
   33TMC2    C2  511   1.041   3.445  10.769 -0.6052  0.0017  0.3093
   33TMC2    C3  512   0.977   3.542  10.694 -0.2519  0.2057 -0.3887
   33TMC2    C4  513   1.236   3.489  10.635  0.3644 -0.7581  0.2278
   33TMC2    C5  514   1.166   3.595  10.575  0.1377 -0.2440 -0.0944
   33TMC2    C6  515   1.035   3.632  10.610 -0.5786 -0.0801  0.3125
   33TMC2     C  516   1.235   3.306  10.798  0.0323  0.3857 -0.1981
   33TMC2     O  517   1.189   3.263  10.904 -0.1219  0.0695  0.0640
   33TMC2     H  518   0.987   3.365  10.819  0.1265  0.8624  2.4601
   33TMC2    H1  519   1.342   3.479  10.613  0.6728 -2.4443  2.4710
   33TMC2    H2  520   0.976   3.712  10.569  0.7484  0.6301 -0.2153
   33TMC2    C7  521   1.242   3.666  10.473  0.2467 -0.4814 -0.2441
   33TMC2    C8  522   0.842   3.580  10.730  0.1355  0.5635 -0.4511
   33TMC2    O1  523   1.352   3.621  10.445  0.3080 -0.2822 -0.1827
   33TMC2    O2  524   0.781   3.653  10.654 -0.0594 -0.7809  0.5179
   33TMC2    O5  525   0.842   3.602  10.865 -0.0629 -0.3360 -0.6087
   33TMC2    H5  526   0.900   3.533  10.904 -1.0072 -0.4848  0.5191
   34MPD2     C  527   1.676   3.035  10.855 -0.5781 -0.0989 -0.8178
   34MPD2    C1  528   1.560   3.033  10.936 -0.0065 -0.5421  0.0279
   34MPD2    C2  529   1.451   3.113  10.899 -0.0192 -0.4534 -0.0749
   34MPD2    C3  530   1.454   3.186  10.778  0.0865 -0.1475 -0.3526
   34MPD2    C4  531   1.567   3.174  10.700  0.3190  0.1709  0.2195
   34MPD2    C5  532   1.678   3.104  10.736 -0.1301  0.0033  0.4465
   34MPD2     H  533   1.369   3.132  10.967 -0.3293  3.2828 -1.4386
   34MPD2    H1  534   1.576   3.246  10.618 -1.4364 -0.0246 -0.1466
   34MPD2    H2  535   1.764   2.975  10.875 -0.9734 -0.5625 -0.4466
   34MPD2    H3  536   1.763   3.101  10.669 -1.6439  1.0085 -1.5097
   34MPD2     N  537   1.356   3.275  10.739  0.2978  0.2294 -0.4570
   34MPD2    H5  538   1.381   3.325  10.654  0.2406 -0.6610 -1.0045
   34MPD2    N1  539   1.554   2.948  11.050 -0.6462  0.0398 -0.1750
   34MPD2    H7  540   1.626   2.876  11.053 -1.7827 -1.1402 -1.3619
   35TMC2    C1  541   2.390   4.195  11.644 -0.1031 -0.2402  0.0335
   35TMC2    C2  542   2.303   4.225  11.540 -0.0767  0.5431 -0.1263
   35TMC2    C3  543   2.172   4.194  11.556  0.6001  0.5861  0.1587
   35TMC2    C4  544   2.351   4.129  11.760  0.4781  0.0408 -1.0257
   35TMC2    C5  545   2.221   4.091  11.766 -0.4223 -0.8939 -0.3029
   35TMC2    C6  546   2.133   4.114  11.660  0.4614  0.4305  0.1373
   35TMC2     C  547   2.526   4.185  11.596 -0.2928  0.0792  0.2419
   35TMC2     O  548   2.550   4.264  11.505 -0.6100 -0.3937 -0.2342
   35TMC2     H  549   2.328   4.285  11.454  1.7793  0.3512  0.2933
   35TMC2    H1  550   2.419   4.114  11.843 -0.5187  0.9246 -0.0539
   35TMC2    H2  551   2.032   4.076  11.653  1.3425 -2.1209  1.4080
   35TMC2    C7  552   2.209   3.961  11.823  0.5198 -0.6442  0.2894
   35TMC2    C8  553   2.084   4.187  11.442  0.8996  0.4033  0.2999
   35TMC2    O1  554   2.318   3.915  11.857 -0.4304 -0.2289 -0.5155
   35TMC2    O2  555   1.963   4.181  11.458 -0.4902 -0.1581  0.1978
   35TMC2    O5  556   2.147   4.102  11.360 -0.3447  0.0290 -0.0922
   35TMC2    H5  557   2.244   4.107  11.369 -0.2282 -0.4919 -1.1509
   36MPD2     C  558   3.035   4.087  11.656 -0.0855  0.4445  0.9200
   36MPD2    C1  559   2.964   4.011  11.743 -0.5664 -0.3158 -0.0866
   36MPD2    C2  560   2.826   4.023  11.751 -0.4148 -0.1572 -0.5644
   36MPD2    C3  561   2.760   4.106  11.663 -0.1358  0.1317 -0.2157
   36MPD2    C4  562   2.834   4.186  11.577 -0.7902 -0.2228 -0.3883
   36MPD2    C5  563   2.969   4.174  11.575 -0.0736 -0.7220  0.3764
   36MPD2     H  564   2.764   3.956  11.811 -0.4609 -0.7106 -1.2283
   36MPD2    H1  565   2.786   4.258  11.511 -1.6861  0.8172  1.4201
   36MPD2    H2  566   3.144   4.085  11.658 -0.0799  0.4263  0.5443
   36MPD2    H3  567   3.029   4.237  11.510  1.4440 -0.7618  1.7268
   36MPD2     N  568   2.614   4.111  11.677  0.4058 -0.3338 -0.0367
   36MPD2    H5  569   2.569   4.054  11.748  1.4606 -0.5311  0.4783
   36MPD2    N1  570   3.048   3.940  11.830  0.4860  0.3468  0.4454
   36MPD2    H7  571   3.145   3.930  11.800 -0.1392 -1.4467 -0.9894
   37TMC2    C1  572   4.195   4.714  12.247 -0.6312 -0.6230 -0.4106
   37TMC2    C2  573   4.060   4.712  12.225 -0.5223  0.0830  0.6300
   37TMC2    C3  574   4.021   4.714  12.092 -0.6000 -0.7363  0.9114
   37TMC2    C4  575   4.299   4.699  12.157 -0.4633 -0.0720 -0.4624
   37TMC2    C5  576   4.250   4.714  12.035 -0.1436  0.1334  0.2195
   37TMC2    C6  577   4.118   4.716  11.991  0.5724 -0.7050 -0.1112
   37TMC2     C  578   4.231   4.694  12.385  0.8590  0.9872 -0.0506
   37TMC2     O  579   4.155   4.640  12.465 -0.6620 -0.0330  0.0328
   37TMC2     H  580   3.988   4.734  12.303 -0.9055 -3.6364  1.3634
   37TMC2    H1  581   4.404   4.687  12.177 -0.5802 -0.4115 -0.0422
   37TMC2    H2  582   4.084   4.734  11.890 -1.8218  0.4594  0.8965
   37TMC2    C7  583   4.353   4.699  11.924  0.4131  0.0845 -0.0277
   37TMC2    C8  584   3.888   4.724  12.056 -0.1495  0.3720 -0.3096
   37TMC2    O1  585   4.302   4.676  11.815  0.4608  0.1323  0.1800
   37TMC2    O2  586   3.858   0.012  11.941 -0.0039 -0.9190  0.6816
   37TMC2    O5  587   3.829   4.627  12.117 -0.1053 -0.2346  0.5560
   37TMC2    H5  588   3.891   4.600  12.187  2.5536 -0.2193 -1.8297
   38MPD2     C  589   4.598   4.673  12.742  0.7190  0.0021  0.3095
   38MPD2    C1  590   4.662   4.699  12.621 -1.2981  0.6845  0.5642
   38MPD2    C2  591   4.581   4.716  12.507 -0.8124  0.3291 -0.0862
   38MPD2    C3  592   4.444   4.697  12.514 -0.3246 -0.4129 -0.5693
   38MPD2    C4  593   4.391   4.659  12.627 -0.3905  0.4650  0.2713
   38MPD2    C5  594   4.468   4.633  12.740 -0.7037  0.5141 -0.4917
   38MPD2     H  595   4.631   0.006  12.416 -0.8405 -0.8871 -0.4918
   38MPD2    H1  596   4.284   4.641  12.635 -0.4157  0.3406 -0.3502
   38MPD2    H2  597   4.651   4.655  12.835 -0.7097 -1.6870  0.8049
   38MPD2    H3  598   4.426   4.580  12.825 -2.3678  0.5418 -1.2849
   38MPD2     N  599   4.365   4.723  12.405 -0.2827  0.3947 -0.6315
   38MPD2    H5  600   4.417   0.028  12.329 -0.9006 -1.5225 -2.1745
   38MPD2    N1  601   0.062   4.723  12.621 -0.4700 -0.5844 -0.6140
   38MPD2    H7  602   0.103   4.738  12.530  0.8813 -0.2050  0.0543
   39TMC2    C1  603   4.422   0.530   1.570  0.0964 -0.5382  0.0139
   39TMC2    C2  604   4.494   0.535   1.692 -0.6445  0.0343  0.4272
   39TMC2    C3  605   4.628   0.493   1.693  0.6392  0.4818 -0.6079
   39TMC2    C4  606   4.474   0.472   1.460  0.2653 -0.2065 -0.5325
   39TMC2    C5  607   4.607   0.447   1.456 -0.2049  0.7599 -0.0478
   39TMC2    C6  608   4.681   0.452   1.577 -0.3172 -0.5411  0.1668
   39TMC2     C  609   4.285   0.579   1.561  0.4950  0.1971  0.3000
   39TMC2     O  610   4.219   0.567   1.461  0.1547 -0.7829 -0.6860
   39TMC2     H  611   4.456   0.586   1.780  3.4188 -0.2437  2.3480
   39TMC2    H1  612   4.411   0.456   1.373 -0.6062 -2.8014  0.5828
   39TMC2    H2  613   0.049   0.445   1.571 -0.4983 -1.4358 -2.0198
   39TMC2    C7  614   4.654   0.387   1.335 -0.3152 -0.2317  0.4124
   39TMC2    C8  615   4.715   0.585   1.765 -0.0078  0.3494 -0.4398
   39TMC2    O1  616   4.579   0.356   1.248 -0.4084  0.1504 -0.2711
   39TMC2    O2  617   4.675   0.675   1.837 -0.5638 -0.0163  0.4896
   39TMC2    O5  618   0.099   0.524   1.779  0.4009 -0.0851  0.3853
   39TMC2    H5  619   0.119   0.438   1.737  0.9569 -0.3767  1.2470
   40MPD2     C  620   4.129   0.782   1.819  0.9264  0.0621  0.4621
   40MPD2    C1  621   4.133   0.704   1.702  0.9380  0.5856  0.1420
   40MPD2    C2  622   4.020   0.696   1.629  0.2110  0.1468 -0.4391
   40MPD2    C3  623   3.905   0.770   1.665 -0.0644 -0.6677  0.1915
   40MPD2    C4  624   3.906   0.851   1.775  0.0146  0.4169  0.2165
   40MPD2    C5  625   4.018   0.853   1.853 -0.2586  0.2047 -0.8948
   40MPD2     H  626   4.020   0.634   1.540  0.1327  0.6806 -0.8082
   40MPD2    H1  627   3.833   0.928   1.796  0.5169  1.0006 -0.1920
   40MPD2    H2  628   4.213   0.784   1.887  1.2723  0.7776  0.0148
   40MPD2    H3  629   4.019   0.921   1.938 -1.1353 -0.0405 -0.6887
   40MPD2     N  630   3.787   0.772   1.590 -0.1911 -0.3964  0.3834
   40MPD2    H5  631   3.713   0.832   1.624  0.8174 -0.1585  2.1500
   40MPD2    N1  632   4.253   0.650   1.673 -0.3698 -0.1156 -0.2184
   40MPD2    H7  633   4.326   0.678   1.737 -0.1129  0.3359 -0.7126
   41TMC2    C1  634   2.392   4.090  13.627 -0.3378 -0.1263  0.2317
   41TMC2    C2  635   2.271   4.147  13.597 -0.6412  0.9531 -0.2883
   41TMC2    C3  636   2.238   4.161  13.464 -0.2434 -0.0689 -0.2564
   41TMC2    C4  637   2.458   4.025  13.527  0.3039 -0.8918 -0.3066
   41TMC2    C5  638   2.417   4.045  13.399 -0.7963  0.4327 -0.0049
   41TMC2    C6  639   2.303   4.105  13.361 -0.4780 -0.2888  0.5003
   41TMC2     C  640   2.473   4.117  13.750  0.2738  0.6096 -0.3750
   41TMC2     O  641   2.577   4.055  13.755 -0.0149 -0.2682 -0.0683
   41TMC2     H  642   2.229   4.213  13.672  2.1207 -0.3927  2.4067
   41TMC2    H1  643   2.559   3.990  13.539 -0.2245 -1.8897  1.1498
   41TMC2    H2  644   2.286   4.122  13.256  3.5582 -0.0678 -0.1356
   41TMC2    C7  645   2.513   4.008  13.298  0.6132  0.2314  1.3646
   41TMC2    C8  646   2.142   4.262  13.419  0.2600 -0.2534  0.9144
   41TMC2    O1  647   2.631   4.021  13.323 -0.1746 -0.5043  0.0829
   41TMC2    O2  648   2.083   4.257  13.314  0.3059 -0.1406  0.7213
   41TMC2    O5  649   2.106   4.341  13.518  0.4630 -0.0151  0.1311
   41TMC2    H5  650   2.172   4.362  13.587 -0.0196 -0.2216  0.6518
   42MPD2     C  651   2.641   4.248  13.957  0.2499 -0.1728  0.3941
   42MPD2    C1  652   2.525   4.307  13.904  0.4498  0.5408  0.3159
   42MPD2    C2  653   2.493   4.432  13.945 -0.1568  0.2213  0.2962
   42MPD2    C3  654   2.579   4.501  14.029  0.0992 -0.0147  0.0951
   42MPD2    C4  655   2.694   4.446  14.080 -0.2737 -0.0474  0.3254
   42MPD2    C5  656   2.723   4.323  14.043 -0.6395 -0.4776  0.2480
   42MPD2     H  657   2.403   4.484  13.915 -1.3564 -0.5727  2.5391
   42MPD2    H1  658   2.767   4.500  14.140  0.7492  0.1705 -1.1402
   42MPD2    H2  659   2.684   4.152  13.929 -0.2743  0.0110 -1.0583
   42MPD2    H3  660   2.812   4.280  14.087 -0.9052  0.6352  1.8616
   42MPD2     N  661   2.562   4.639  14.058  0.4493 -0.4560 -0.5122
   42MPD2    H5  662   2.632   4.689  14.113 -0.6968  2.2047 -1.4820
   42MPD2    N1  663   2.439   4.233  13.812  0.1434  0.0899  0.1866
   42MPD2    H7  664   2.355   4.282  13.783  0.1102  0.1651  0.4020
   43TMC2    C1  665   4.486   1.483   1.028  0.3757  0.0706  0.6525
   43TMC2    C2  666   4.386   1.572   1.054  0.4946  0.5669  0.4021
   43TMC2    C3  667   4.367   1.635   1.178 -0.2717 -0.8563 -0.5148
   43TMC2    C4  668   4.569   1.454   1.133 -0.0162 -0.6335  0.0368
   43TMC2    C5  669   4.548   1.515   1.252 -0.0834  0.2526  1.1097
   43TMC2    C6  670   4.447   1.603   1.286  0.2911  0.0147 -0.0166
   43TMC2     C  671   4.527   1.448   0.892 -0.1389 -0.1191  0.5809
   43TMC2     O  672   4.639   1.397   0.880  0.2869  0.1401  0.1501
   43TMC2     H  673   4.296   1.578   0.995  0.7737 -1.3642 -0.2149
   43TMC2    H1  674   4.651   1.386   1.113 -1.6204 -2.5761  0.1262
   43TMC2    H2  675   4.431   1.649   1.383 -2.0703 -1.6076  0.3624
   43TMC2    C7  676   4.645   1.481   1.350 -0.1888  0.2989 -0.3903
   43TMC2    C8  677   4.257   1.729   1.203 -0.4130  0.3152 -0.0429
   43TMC2    O1  678   0.005   1.423   1.309  0.0837  0.6702 -0.3885
   43TMC2    O2  679   4.237   1.769   1.317 -0.1596 -0.2931 -0.6076
   43TMC2    O5  680   4.225   1.789   1.086 -0.2513 -0.2483  0.0129
   43TMC2    H5  681   4.251   1.753   0.999  2.6913  2.5554 -0.2820
   44MPD2     C  682   4.498   1.458   0.374 -0.3316  0.0883 -0.3584
   44MPD2    C1  683   4.594   1.396   0.447 -0.3578  0.5406  0.2315
   44MPD2    C2  684   4.579   1.408   0.588 -0.3448  0.8891 -0.2318
   44MPD2    C3  685   4.476   1.483   0.651  0.5805 -0.0508  0.0292
   44MPD2    C4  686   4.387   1.541   0.570 -0.2170  0.4739  0.0652
   44MPD2    C5  687   4.400   1.526   0.434 -0.5957  0.3307 -0.1547
   44MPD2     H  688   4.652   1.360   0.653 -0.1417 -2.1952 -2.7305
   44MPD2    H1  689   4.293   1.577   0.611 -0.1504  1.6800 -0.8360
   44MPD2    H2  690   4.508   1.445   0.267  1.9114 -0.7834 -0.0431
   44MPD2    H3  691   4.326   1.574   0.372  0.9106 -0.2121 -2.3525
   44MPD2     N  692   4.446   1.490   0.789  0.1540  0.0714 -0.3997
   44MPD2    H5  693   4.358   1.532   0.818  1.2776  2.3474 -0.3198
   44MPD2    N1  694   4.704   1.326   0.387 -0.2945  0.5640  1.1073
   44MPD2    H7  695   0.045   1.301   0.444  0.7771 -0.5579 -0.9420
   45TMC2    C1  696   0.043   4.383  10.178 -0.5353 -0.0252  0.1925
   45TMC2    C2  697   0.154   4.316  10.134 -0.6124  0.0422  0.4429
   45TMC2    C3  698   0.274   4.374  10.137 -0.0798  0.2868 -0.4108
   45TMC2    C4  699   0.050   4.515  10.217 -0.2157  1.0018  0.0658
   45TMC2    C5  700   0.178   4.579  10.227  0.1469  0.5361  0.3073
   45TMC2    C6  701   0.288   4.506  10.191  0.5566 -0.3012 -0.3923
   45TMC2     C  702   4.654   4.338  10.128  0.1202  0.1838 -0.2402
   45TMC2     O  703   4.636   4.218  10.129  0.1759 -0.1892  0.4620
   45TMC2     H  704   0.141   4.209  10.121  0.7434 -0.1157  0.4716
   45TMC2    H1  705   4.697   4.565  10.244 -1.7675 -1.0230 -1.5150
   45TMC2    H2  706   0.384   4.545  10.222  0.3476 -0.5896  0.6242
   45TMC2    C7  707   0.186   4.705  10.293 -0.9935  0.8388  0.0046
   45TMC2    C8  708   0.395   4.288  10.127 -0.3997  0.3216 -0.7966
   45TMC2    O1  709   0.080   0.016  10.330  0.5509  0.0794  0.1670
   45TMC2    O2  710   0.394   4.168  10.109  0.1488  0.3915 -0.3812
   45TMC2    O5  711   0.486   4.372  10.079  0.3133  0.0162 -0.6381
   45TMC2    H5  712   0.458   4.463  10.057 -0.1830 -0.5934 -2.5488
   46MPD2     C  713   4.368   4.276  10.062 -0.1245  0.6936 -0.0399
   46MPD2    C1  714   4.432   4.394  10.029 -0.1749  0.4198  0.3316
   46MPD2    C2  715   4.368   4.481   9.943 -0.1288 -0.6720 -0.0393
   46MPD2    C3  716   4.258   4.445   9.870 -0.0922  0.4352 -0.7723
   46MPD2    C4  717   4.211   4.319   9.881 -0.0459  0.5202  0.1484
   46MPD2    C5  718   4.263   4.240   9.982 -0.2225 -0.4653 -0.7548
   46MPD2     H  719   4.409   4.577   9.913 -0.4151 -0.5599 -0.0729
   46MPD2    H1  720   4.127   4.281   9.822 -1.5055  2.3128  1.0816
   46MPD2    H2  721   4.401   4.197  10.128  0.0128  0.1932 -0.6985
   46MPD2    H3  722   4.219   4.143  10.000  2.2429 -1.1899  1.3835
   46MPD2     N  723   4.210   4.548   9.789  0.4180 -0.1038 -0.1966
   46MPD2    H5  724   4.256   4.639   9.793  0.7925 -0.4890  4.0342
   46MPD2    N1  725   4.559   4.438  10.089  0.2582  0.3594 -0.7877
   46MPD2    H7  726   4.590   4.533  10.075 -0.1967  0.8590  1.5898
   47TMC2    C1  727   2.652   0.868   9.786  0.0286  0.6396  0.3887
   47TMC2    C2  728   2.698   0.997   9.781  0.5193  0.5301 -0.4385
   47TMC2    C3  729   2.608   1.087   9.724 -0.9259  0.8352 -0.8742
   47TMC2    C4  730   2.522   0.831   9.766  0.5231  0.1820  0.2450
   47TMC2    C5  731   2.435   0.924   9.729  0.1643 -0.3423 -0.1804
   47TMC2    C6  732   2.480   1.051   9.694  0.1737 -0.2218 -0.1753
   47TMC2     C  733   2.745   0.782   9.861 -0.0872  0.3918 -0.6332
   47TMC2     O  734   2.809   0.835   9.953 -0.5919  0.4020  0.0652
   47TMC2     H  735   2.799   1.034   9.794  0.4480  0.7663 -0.5415
   47TMC2    H1  736   2.492   0.737   9.813 -0.9363  1.0819  1.1157
   47TMC2    H2  737   2.408   1.123   9.657  0.9617 -0.0777 -1.4537
   47TMC2    C7  738   2.302   0.882   9.690 -0.1785  0.2292  0.2918
   47TMC2    C8  739   2.662   1.201   9.653  0.0849  0.1868  0.2793
   47TMC2    O1  740   2.288   0.765   9.654 -0.0654 -0.3606 -0.1539
   47TMC2    O2  741   2.767   1.260   9.681  0.8699  0.5932  0.2727
   47TMC2    O5  742   2.590   1.210   9.549 -0.2536 -0.5898  0.1416
   47TMC2    H5  743   2.555   1.121   9.526 -0.0167 -0.2323 -1.6178
   48MPD2     C  744   2.884   0.569  10.001 -0.6901  0.1671  0.0209
   48MPD2    C1  745   2.811   0.548   9.888 -0.6393 -0.6582 -0.4718
   48MPD2    C2  746   2.806   0.421   9.827 -1.4546  0.2749  0.3933
   48MPD2    C3  747   2.881   0.317   9.880  0.1050  0.3241  0.5151
   48MPD2    C4  748   2.949   0.338   9.996 -0.1349  0.3823 -0.3713
   48MPD2    C5  749   2.947   0.462  10.055  0.5301  1.1602  0.3105
   48MPD2     H  750   2.741   0.412   9.741  0.2529  2.9209 -1.1961
   48MPD2    H1  751   2.977   0.250  10.053 -1.2902  0.0815 -0.2876
   48MPD2    H2  752   2.875   0.658  10.063  1.2507  0.5578 -0.2671
   48MPD2    H3  753   3.001   0.466  10.149 -0.8073  0.3070  1.1169
   48MPD2     N  754   2.861   0.190   9.817  0.0049  0.2999 -0.3553
   48MPD2    H5  755   2.814   0.189   9.727  0.3904 -0.4930 -0.5490
   48MPD2    N1  756   2.740   0.654   9.819 -0.0368  0.0573  0.2152
   48MPD2    H7  757   2.683   0.628   9.740  0.8956  0.7316 -0.6820
   49TMC2    C1  758   4.363   1.701  10.556 -0.0279 -0.2689  0.2590
   49TMC2    C2  759   4.306   1.592  10.507  0.2250 -0.3128 -0.1624
   49TMC2    C3  760   4.308   1.478  10.581 -0.3631 -0.4831 -0.3014
   49TMC2    C4  761   4.411   1.708  10.685  0.1616 -0.4180  0.1382
   49TMC2    C5  762   4.396   1.592  10.758  0.7215 -0.1279 -0.3300
   49TMC2    C6  763   4.344   1.476  10.708 -1.0212 -0.2063 -0.0493
   49TMC2     C  764   4.363   1.812  10.470  1.1075  0.3778  0.5921
   49TMC2     O  765   4.307   1.791  10.359 -0.4516 -0.1600  0.2675
   49TMC2     H  766   4.264   1.578  10.408 -0.9856  3.7946 -0.2566
   49TMC2    H1  767   4.474   1.793  10.711  0.2777 -0.9307  1.5296
   49TMC2    H2  768   4.315   1.395  10.773 -1.0002 -0.2474 -0.0915
   49TMC2    C7  769   4.435   1.604  10.900  0.2464  0.2126  1.0152
   49TMC2    C8  770   4.267   1.353  10.520  0.4950  0.0303 -0.6881
   49TMC2    O1  771   4.422   1.502  10.967 -0.4303  0.8115  0.3417
   49TMC2    O2  772   4.151   1.328  10.488 -0.4427 -0.7948 -0.6964
   49TMC2    O5  773   4.345   1.264  10.589  0.2781  0.3877 -0.0851
   49TMC2    H5  774   4.436   1.299  10.602  0.5573 -0.4217  0.1388
   50MPD2     C  775   4.385   2.086  10.339 -0.8105  0.1003 -1.3502
   50MPD2    C1  776   4.454   2.045  10.453  0.2738  0.5541 -0.5428
   50MPD2    C2  777   4.542   2.139  10.508  0.9483  0.2801 -0.2554
   50MPD2    C3  778   4.551   2.278  10.466  0.3213 -0.0800 -0.7718
   50MPD2    C4  779   4.485   2.315  10.347 -0.8030 -0.2309  0.0914
   50MPD2    C5  780   4.411   2.214  10.284 -0.0079  0.2706 -0.2126
   50MPD2     H  781   4.607   2.118  10.593  1.4212 -0.0739 -0.7077
   50MPD2    H1  782   4.502   2.405  10.291 -3.0932 -0.3431 -0.7834
   50MPD2    H2  783   4.315   2.018  10.292  0.1202 -1.2692 -0.7174
   50MPD2    H3  784   4.357   2.245  10.195 -2.1044  0.7793  1.2297
   50MPD2     N  785   4.628   2.375  10.528  0.1987 -0.1334  0.1702
   50MPD2    H5  786   4.667   2.455  10.478 -2.4950  0.0302 -1.6532
   50MPD2    N1  787   4.444   1.915  10.513  0.4019 -0.0411  0.3472
   50MPD2    H7  788   4.509   1.897  10.589  0.5590  1.2361  0.5183
   51TMC2    C1  789   0.890   0.712   1.703  0.2823  1.1023 -0.4085
   51TMC2    C2  790   0.755   0.697   1.697  0.2337  0.1663 -0.9241
   51TMC2    C3  791   0.692   0.820   1.677 -0.5490 -0.0865  0.4561
   51TMC2    C4  792   0.959   0.821   1.692  0.2512 -0.1029  1.0283
   51TMC2    C5  793   0.893   0.938   1.679 -0.2968  0.2262  1.1540
   51TMC2    C6  794   0.753   0.941   1.661  0.2489  0.3572  0.2177
   51TMC2     C  795   0.973   0.589   1.672  0.2950 -0.1409 -0.2461
   51TMC2     O  796   1.079   0.603   1.612  0.4918 -0.3598  0.1676
   51TMC2     H  797   0.699   0.604   1.698 -0.6938  0.7274 -1.0895
   51TMC2    H1  798   1.066   0.828   1.702  0.3896 -1.4791  0.3921
   51TMC2    H2  799   0.709   1.038   1.675 -0.3202  0.3347 -1.5203
   51TMC2    C7  800   0.976   1.063   1.666 -0.4039  0.2229  0.4554
   51TMC2    C8  801   0.553   0.823   1.634 -0.4001 -0.6871 -0.1629
   51TMC2    O1  802   1.096   1.057   1.703  0.4132 -0.4981 -0.3400
   51TMC2    O2  803   0.516   0.860   1.522 -0.9364 -0.2038  0.2357
   51TMC2    O5  804   0.484   0.747   1.717 -0.1115 -0.2428  0.3870
   51TMC2    H5  805   0.529   0.740   1.804  2.1044  1.6003 -0.6178
   52MPD2     C  806   0.970   0.084   1.562  0.6630  0.0802 -0.2296
   52MPD2    C1  807   1.049   0.183   1.513  0.1170  0.2432  0.1483
   52MPD2    C2  808   1.023   0.312   1.558  0.0764  0.8060 -0.4439
   52MPD2    C3  809   0.936   0.343   1.658 -0.2937  0.7983  0.0873
   52MPD2    C4  810   0.857   0.244   1.705  0.2122 -0.2776 -0.0523
   52MPD2    C5  811   0.875   0.110   1.663  0.5931 -0.0192  0.2740
   52MPD2     H  812   1.083   0.385   1.505  1.4599  0.0214  0.0675
   52MPD2    H1  813   0.779   0.263   1.777 -1.3522 -1.9928 -1.3139
   52MPD2    H2  814   0.986   4.722   1.528 -0.5694  0.2572 -1.3475
   52MPD2    H3  815   0.812   0.031   1.702 -0.0646  0.4566  0.1716
   52MPD2     N  816   0.903   0.469   1.702 -0.2553  0.1494  0.7177
   52MPD2    H5  817   0.827   0.471   1.769 -2.2448 -0.4159 -1.5377
   52MPD2    N1  818   1.142   0.159   1.407 -0.2650 -0.0644  0.4468
   52MPD2    H7  819   1.193   0.243   1.382  0.3905 -1.1621 -1.9756
   53TMC2    C1  820   0.451   0.090  11.827  0.2032 -0.5968  0.1142
   53TMC2    C2  821   0.554   0.118  11.742  0.8218 -0.5741 -0.1778
   53TMC2    C3  822   0.665   0.162  11.803 -0.2458  0.0146  0.7443
   53TMC2    C4  823   0.446   0.121  11.958  0.3315 -0.1243 -0.0363
   53TMC2    C5  824   0.563   0.163  12.017 -0.4488  0.1227  0.3398
   53TMC2    C6  825   0.675   0.181  11.940  0.3248  0.2505 -0.0517
   53TMC2     C  826   0.339   0.018  11.771 -0.0504 -0.6292 -0.7651
   53TMC2     O  827   0.355   4.726  11.653  0.4522  0.1671 -0.1341
   53TMC2     H  828   0.545   0.099  11.636  1.2856  2.2254 -0.7214
   53TMC2    H1  829   0.378   0.084  12.034 -0.5381  3.2011  0.8094
   53TMC2    H2  830   0.765   0.229  11.977  0.3237 -0.3022  0.6656
   53TMC2    C7  831   0.565   0.164  12.162 -0.0639 -0.5516  0.0923
   53TMC2    C8  832   0.790   0.148  11.725  0.1124 -0.7641 -0.5061
   53TMC2    O1  833   0.455   0.184  12.220 -0.6974  0.0930 -0.0319
   53TMC2    O2  834   0.778   0.177  11.606  0.4869 -0.3173  0.0858
   53TMC2    O5  835   0.830   0.027  11.770 -0.0999  0.4102 -0.0870
   53TMC2    H5  836   0.805   0.016  11.864 -0.5910  1.0852 -0.1381
   54MPD2     C  837   0.069   4.645  11.690 -0.7920 -0.3229 -0.0789
   54MPD2    C1  838   0.093   4.715  11.804  0.0301  0.8917 -0.3743
   54MPD2    C2  839   4.727   0.005  11.889 -0.0599  0.3297 -0.6718
   54MPD2    C3  840   4.598   4.696  11.861 -0.4524  0.2334  0.6096
   54MPD2    C4  841   4.576   4.615  11.754 -0.1799 -0.1660  0.4358
   54MPD2    C5  842   4.682   4.587  11.668  0.7562  0.7705  0.3608
   54MPD2     H  843   4.728   0.073  11.973 -2.5255  1.0189 -1.1990
   54MPD2    H1  844   4.479   4.571  11.731  1.4449 -2.5285 -1.8726
   54MPD2    H2  845   0.154   4.624  11.626  0.0617 -0.3395  1.0528
   54MPD2    H3  846   4.672   4.524  11.580  0.2400  1.4204 -0.0411
   54MPD2     N  847   4.485   4.724  11.955  0.2468 -0.0113 -0.4954
   54MPD2    H5  848   4.504   0.029  12.045 -1.5224 -1.7240  0.7237
   54MPD2    N1  849   0.219   0.022  11.844  0.0085  0.4928  0.5146
   54MPD2    H7  850   0.225   0.081  11.926  1.6264 -1.3545  1.7233
   55TMC2    C1  851   3.031   1.485   1.264  0.6175  0.0132  0.0523
   55TMC2    C2  852   3.160   1.494   1.303 -0.8032  0.4883 -0.8476
   55TMC2    C3  853   3.204   1.409   1.400 -0.1895 -0.1719 -0.2694
   55TMC2    C4  854   2.944   1.385   1.307  0.3830  0.4191  0.0237
   55TMC2    C5  855   2.998   1.287   1.389  0.0109  0.3808 -0.2060
   55TMC2    C6  856   3.128   1.299   1.440  0.3975 -0.7460  0.9770
   55TMC2     C  857   2.966   1.601   1.216 -0.3364 -0.3271 -0.1353
   55TMC2     O  858   2.843   1.604   1.229  0.4484 -0.1058  0.2349
   55TMC2     H  859   3.221   1.584   1.303 -1.4225  0.9112 -0.5688
   55TMC2    H1  860   2.842   1.389   1.271  0.4347  1.5960  0.0092
   55TMC2    H2  861   3.177   1.223   1.500  1.9011 -0.8983 -0.4392
   55TMC2    C7  862   2.909   1.204   1.460  0.2065 -0.2637 -0.7857
   55TMC2    C8  863   3.352   1.400   1.385  0.2197  0.2516 -0.8774
   55TMC2    O1  864   2.954   1.157   1.566  0.3353  0.7148 -0.2899
   55TMC2    O2  865   3.395   1.408   1.269  0.3367 -0.7189  0.2297
   55TMC2    O5  866   3.397   1.320   1.483 -0.3805  0.3306 -0.0587
   55TMC2    H5  867   3.339   1.338   1.560 -1.1370  3.5625 -1.3555
   56MPD2     C  868   3.123   1.866   1.006  0.9109  0.5794 -0.2089
   56MPD2    C1  869   3.019   1.794   1.062 -1.0110  0.9029  0.0959
   56MPD2    C2  870   2.888   1.829   1.044 -0.0987 -0.8090  0.3584
   56MPD2    C3  871   2.860   1.941   0.965 -0.2848 -0.4713 -0.2127
   56MPD2    C4  872   2.966   2.009   0.906  0.1579  0.6180 -0.1002
   56MPD2    C5  873   3.097   1.972   0.928 -0.0773  0.1010 -0.1897
   56MPD2     H  874   2.805   1.771   1.082 -0.9385  1.5530  2.2156
   56MPD2    H1  875   2.946   2.089   0.837  1.1257  1.3547  0.4719
   56MPD2    H2  876   3.224   1.829   1.019  1.6125  2.2283 -0.9369
   56MPD2    H3  877   3.175   2.022   0.872 -0.0622 -0.1008 -0.3461
   56MPD2     N  878   2.721   1.977   0.948  0.6287  0.1551  0.3426
   56MPD2    H5  879   2.659   1.902   0.978  1.6756 -0.9035 -0.1246
   56MPD2    N1  880   3.052   1.682   1.147  0.5121 -0.5501  0.4785
   56MPD2    H7  881   3.151   1.657   1.152  0.9245  0.1292 -4.1273
   57TMC2    C1  882   0.168   2.568  13.799  0.1059  0.0930  0.0471
   57TMC2    C2  883   0.044   2.526  13.840  0.1972  0.6001  0.7660
   57TMC2    C3  884   4.705   2.474  13.742  0.3469 -0.2648  0.0647
   57TMC2    C4  885   0.212   2.556  13.671  0.4842 -0.1839 -0.1488
   57TMC2    C5  886   0.128   2.499  13.578 -0.3110 -0.3025 -0.6868
   57TMC2    C6  887   4.738   2.458  13.610  0.3852  0.8256 -0.0392
   57TMC2     C  888   0.257   2.639  13.892  0.5930  0.4057 -0.1122
   57TMC2     O  889   0.209   2.698  13.983  0.2157 -0.1820  0.0359
   57TMC2     H  890   0.003   2.564  13.933 -0.8151  2.9977 -0.6552
   57TMC2    H1  891   0.307   2.601  13.641  1.1673 -0.8539  1.0033
   57TMC2    H2  892   4.668   2.412  13.541  0.2567 -1.1272  1.3985
   57TMC2    C7  893   0.170   2.500  13.439 -0.4874 -0.9390 -0.6869
   57TMC2    C8  894   4.565   2.472  13.778  0.2734 -0.3943 -0.2934
   57TMC2    O1  895   0.081   2.496  13.355  0.5484 -0.0617 -0.7224
   57TMC2    O2  896   4.483   2.487  13.688  0.1483  0.0087  0.1781
   57TMC2    O5  897   4.572   2.371  13.870  0.5310 -0.7323 -0.2550
   57TMC2    H5  898   4.647   2.388  13.930 -1.6947 -0.6806  2.5121
   58MPD2     C  899   0.742   2.784  14.009 -0.4089  0.7799  0.3231
   58MPD2    C1  900   0.622   2.847  14.039  0.6391  0.4320 -0.3952
   58MPD2    C2  901   0.508   2.798  13.982  0.6043  0.0957 -0.0034
   58MPD2    C3  902   0.500   2.670  13.926 -0.0053 -0.3606 -0.4642
   58MPD2    C4  903   0.623   2.615  13.890  0.5369 -0.5014 -0.9366
   58MPD2    C5  904   0.736   2.669  13.933 -0.0479  0.2859  0.4405
   58MPD2     H  905   0.417   2.851  14.008  1.5804 -0.0230  3.6648
   58MPD2    H1  906   0.629   2.531  13.821 -0.1202 -0.7881 -0.6478
   58MPD2    H2  907   0.835   2.822  14.049  0.2165 -0.8442  0.4314
   58MPD2    H3  908   0.828   2.616  13.913 -0.3465 -0.0192 -0.1220
   58MPD2     N  909   0.384   2.611  13.863  0.6117 -0.4005  0.7113
   58MPD2    H5  910   0.399   2.528  13.807 -0.9599  1.7083 -2.8584
   58MPD2    N1  911   0.621   2.969  14.112 -0.0080 -0.8667  0.0676
   58MPD2    H7  912   0.532   3.016  14.098  1.4339  2.0829  0.6477
   59TMC2    C1  913   3.410   3.231  12.985 -0.6432  0.4735 -0.3569
   59TMC2    C2  914   3.389   3.131  13.073 -0.5066 -0.3721  0.1643
   59TMC2    C3  915   3.317   3.023  13.030 -0.0685  0.0510 -0.3162
   59TMC2    C4  916   3.372   3.218  12.849  0.5366 -0.3077  0.2786
   59TMC2    C5  917   3.299   3.106  12.814 -0.4431 -0.3784 -0.0605
   59TMC2    C6  918   3.262   3.014  12.904  0.9721  0.3756 -0.1826
   59TMC2     C  919   3.500   3.343  13.019  0.5869 -0.7993 -0.1322
   59TMC2     O  920   3.481   3.444  12.954  0.9878 -0.2344  0.2179
   59TMC2     H  921   3.428   3.133  13.174  0.0953  0.0598 -0.0799
   59TMC2    H1  922   3.404   3.296  12.780  0.2723  0.3528  0.8982
   59TMC2    H2  923   3.205   2.927  12.876  2.5591 -1.2630  1.7089
   59TMC2    C7  924   3.208   3.115  12.694  0.0908 -0.4863 -0.0238
   59TMC2    C8  925   3.271   2.923  13.124 -0.3594 -0.1789 -0.1080
   59TMC2    O1  926   3.114   3.042  12.694 -0.0318  0.5476  0.2458
   59TMC2    O2  927   3.178   2.849  13.108 -0.0994 -0.3478 -0.2020
   59TMC2    O5  928   3.385   2.890  13.188  0.3442 -0.1861  0.1064
   59TMC2    H5  929   3.463   2.939  13.154  0.9503 -0.0150  1.7433
   60MPD2     C  930   3.646   3.548  13.182  0.2569  0.5581 -0.2292
   60MPD2    C1  931   3.656   3.410  13.194  0.0508  0.5861  0.1284
   60MPD2    C2  932   3.742   3.363  13.292  0.0555 -0.2361 -0.0508
   60MPD2    C3  933   3.821   3.451  13.373 -0.3026  0.5454 -0.1957
   60MPD2    C4  934   3.801   3.583  13.358  0.4178  0.1189  0.5892
   60MPD2    C5  935   3.717   3.633  13.265 -0.0275 -0.4495 -0.0543
   60MPD2     H  936   3.772   3.259  13.286 -1.0694 -0.4798 -1.3519
   60MPD2    H1  937   3.856   3.649  13.424 -0.2607  1.0500  0.2234
   60MPD2    H2  938   3.575   3.600  13.118 -2.2723 -3.7674 -0.9516
   60MPD2    H3  939   3.707   3.741  13.257  0.9205 -0.4269 -1.0090
   60MPD2     N  940   3.921   3.406  13.459 -0.3048 -0.6740  0.0368
   60MPD2    H5  941   3.996   3.471  13.483 -0.4828 -0.0359 -1.1523
   60MPD2    N1  942   3.588   3.315  13.121 -0.0296 -0.2143  0.0944
   60MPD2    H7  943   3.594   3.215  13.136 -1.2185 -0.5620 -1.6614
   61TMC2    C1  944   3.026   4.577  15.665 -0.2290 -0.2630 -0.0661
   61TMC2    C2  945   3.086   4.505  15.766 -0.1528 -0.3593  0.7395
   61TMC2    C3  946   3.104   4.574  15.884 -0.4393 -0.0493 -0.1797
   61TMC2    C4  947   2.973   4.705  15.674 -0.1841 -0.1170 -0.7664
   61TMC2    C5  948   2.985   0.025  15.797 -0.1063 -0.1950 -0.7134
   61TMC2    C6  949   3.063   4.704  15.897 -0.2841 -0.9771 -0.1048
   61TMC2     C  950   3.050   4.529  15.531 -0.0723  0.3012  0.4010
   61TMC2     O  951   3.088   4.414  15.518  0.4437  0.1014 -0.4554
   61TMC2     H  952   3.137   4.410  15.754 -1.1643 -0.8156  0.1191
   61TMC2    H1  953   2.929   0.028  15.597 -1.2556  1.9690  1.5596
   61TMC2    H2  954   3.090   0.026  15.982  1.0967  0.7482 -1.8178
   61TMC2    C7  955   2.964   0.170  15.810  0.2409 -0.0493 -0.2708
   61TMC2    C8  956   3.195   4.510  15.981 -0.0596 -0.0338  0.0496
   61TMC2    O1  957   2.969   0.233  15.707 -0.2238  0.0166  0.4654
   61TMC2    O2  958   3.300   4.462  15.950 -0.0205  0.1362  0.4292
   61TMC2    O5  959   3.162   4.568  16.096  0.5456  0.7611  0.5819
   61TMC2    H5  960   3.076   4.616  16.098 -0.4616 -1.0446  0.6252
   62MPD2     C  961   3.100   4.507  15.242 -0.1948  0.9041  0.1032
   62MPD2    C1  962   3.085   4.632  15.302  0.7627  0.0490  0.1636
   62MPD2    C2  963   3.113   0.011  15.233  0.0022  0.2471 -0.5043
   62MPD2    C3  964   3.150   0.003  15.098  0.0405 -0.1414  0.1545
   62MPD2    C4  965   3.149   4.619  15.033  0.6921  0.2924  0.8616
   62MPD2    C5  966   3.118   4.508  15.103 -0.6470  0.3933 -0.3082
   62MPD2     H  967   3.101   0.108  15.281  0.0221 -0.8985  1.8029
   62MPD2    H1  968   3.182   4.598  14.931  0.8073 -1.4766  1.2741
   62MPD2    H2  969   3.090   4.411  15.291 -0.8922  0.3720 -1.0840
   62MPD2    H3  970   3.131   4.412  15.054 -1.8191 -1.7979  3.6297
   62MPD2     N  971   3.168   0.127  15.037 -0.0886 -0.9909  0.6884
   62MPD2    H5  972   3.149   0.210  15.092 -0.4539 -0.5510 -0.1013
   62MPD2    N1  973   3.044   4.636  15.441  0.0477  0.0635 -0.5423
   62MPD2    H7  974   3.023   4.725  15.485 -2.6385 -0.2775 -1.0976
   63TMC2    C1  975   2.301   0.400  10.325 -0.0847  0.0922 -0.4691
   63TMC2    C2  976   2.427   0.424  10.374 -0.1630 -0.4737 -0.5117
   63TMC2    C3  977   2.513   0.478  10.283  0.0145 -0.7247 -1.0609
   63TMC2    C4  978   2.255   0.427  10.201  0.3117  0.2879 -0.0182
   63TMC2    C5  979   2.344   0.491  10.116 -0.9361  0.0544 -0.1863
   63TMC2    C6  980   2.474   0.522  10.154 -0.3972 -0.2132  0.2784
   63TMC2     C  981   2.221   0.316  10.407 -0.0747 -0.2516 -0.3121
   63TMC2     O  982   2.289   0.241  10.481 -0.1049  0.0093  0.0293
   63TMC2     H  983   2.465   0.388  10.468  1.9822  0.0820 -1.1417
   63TMC2    H1  984   2.166   0.387  10.155  0.2868 -0.1256  0.3864
   63TMC2    H2  985   2.546   0.545  10.077 -2.1355 -0.6009 -1.4521
   63TMC2    C7  986   2.269   0.580  10.033  0.2087 -0.2579 -0.3064
   63TMC2    C8  987   2.652   0.474  10.316 -0.4705  0.0673 -0.0475
   63TMC2    O1  988   2.168   0.539   9.983  0.2964  0.5373 -0.2587
   63TMC2    O2  989   2.709   0.378  10.363  0.3712 -0.0785  0.2482
   63TMC2    O5  990   2.710   0.580  10.254 -0.6019  0.1986  0.0280
   63TMC2    H5  991   2.649   0.653  10.231 -0.2354  0.8302  1.0505
   64MPD2     C  992   1.795   0.051  10.510  0.2457 -1.1073  0.5886
   64MPD2    C1  993   1.932   0.017  10.524 -0.1335 -0.8292  0.4579
   64MPD2    C2  994   2.027   0.109  10.488 -0.4469 -0.5339  0.5006
   64MPD2    C3  995   1.994   0.235  10.437  0.4164 -0.7499  0.7810
   64MPD2    C4  996   1.856   0.261  10.427 -0.3319  0.4907  0.0315
   64MPD2    C5  997   1.761   0.174  10.464 -0.1734 -0.1191 -0.6336
   64MPD2     H  998   2.131   0.079  10.501 -0.2946 -0.5234 -0.6914
   64MPD2    H1  999   1.818   0.358  10.395 -0.3237  0.3757 -0.3319
   64MPD2    H2 1000   1.711   4.725  10.528 -2.9997  1.7812 -4.0144
   64MPD2    H3 1001   1.656   0.204  10.462  0.2387  1.4047  0.4802
   64MPD2     N 1002   2.086   0.331  10.394 -0.5375  0.0068  0.3665
   64MPD2    H5 1003   2.052   0.415  10.348 -0.0087 -0.6858 -1.3151
   64MPD2    N1 1004   1.969   4.629  10.576  0.0194  0.1142 -0.1359
   64MPD2    H7 1005   2.066   4.600  10.577  0.2117  0.8980  1.9294
   65TMC2    C1 1006   3.492   4.248  15.691  0.0501 -0.3753  0.3609
   65TMC2    C2 1007   3.451   4.174  15.579 -0.6561 -0.6287 -0.2462
   65TMC2    C3 1008   3.400   4.251  15.481 -0.3048 -0.0450 -0.1453
   65TMC2    C4 1009   3.476   4.380  15.702 -0.3203 -0.1452 -0.1382
   65TMC2    C5 1010   3.412   4.446  15.605  0.6205 -0.6579 -0.9178
   65TMC2    C6 1011   3.377   4.386  15.490  0.3377 -0.2174 -0.5887
   65TMC2     C 1012   3.568   4.177  15.791 -0.4160 -0.3734  0.6393
   65TMC2     O 1013   3.630   4.253  15.865  0.3821 -0.4155 -0.2796
   65TMC2     H 1014   3.456   4.066  15.573  1.6407 -0.6699  2.4699
   65TMC2    H1 1015   3.509   4.430  15.792  1.2852 -1.1776 -0.1675
   65TMC2    H2 1016   3.326   4.441  15.411 -1.6110  1.1258  1.5833
   65TMC2    C7 1017   3.395   4.595  15.618 -0.3020  0.0551 -0.1262
   65TMC2    C8 1018   3.333   4.178  15.376  0.2759 -0.4782  0.0650
   65TMC2    O1 1019   3.376   4.648  15.512 -0.2225 -0.1885 -0.3734
   65TMC2    O2 1020   3.384   4.079  15.330  0.3589 -0.7117  0.4678
   65TMC2    O5 1021   3.206   4.222  15.361 -0.6150  0.3671  0.0819
   65TMC2    H5 1022   3.193   4.291  15.428 -1.9867  1.9996 -1.8751
   66MPD2     C 1023   3.792   4.013  15.914  0.5168 -0.3577 -0.2188
   66MPD2    C1 1024   3.667   3.965  15.863 -0.4469  0.6675 -0.5672
   66MPD2    C2 1025   3.650   3.820  15.858  0.4884 -0.0499  0.2081
   66MPD2    C3 1026   3.749   3.740  15.914  0.4117 -0.3424 -0.4254
   66MPD2    C4 1027   3.862   3.789  15.969  0.0108 -0.0767  0.0031
   66MPD2    C5 1028   3.880   3.926  15.966  0.2792  0.9189 -0.4356
   66MPD2     H 1029   3.559   3.780  15.814  1.3676 -2.9525  1.0356
   66MPD2    H1 1030   3.941   3.724  16.006  0.7547  0.4915 -0.5907
   66MPD2    H2 1031   3.798   4.121  15.922 -2.6305 -0.1418 -0.9021
   66MPD2    H3 1032   3.978   3.970  15.984  0.3902  0.2265  0.6802
   66MPD2     N 1033   3.729   3.603  15.922 -0.3387 -0.7465 -0.2525
   66MPD2    H5 1034   3.783   3.551  15.991 -0.5379 -1.3174 -0.5241
   66MPD2    N1 1035   3.570   4.047  15.796 -0.2851  0.2291 -0.2488
   66MPD2    H7 1036   3.494   3.993  15.756  2.1233 -2.8815 -0.6331
   67TMC2    C1 1037   3.996   3.311  14.291  0.6225  0.5146  0.2977
   67TMC2    C2 1038   3.952   3.440  14.278  0.1706 -0.0699 -0.4326
   67TMC2    C3 1039   3.977   3.528  14.386 -0.1013  0.6546 -0.0110
   67TMC2    C4 1040   4.057   3.267  14.401  0.1253 -1.1139 -0.1923
   67TMC2    C5 1041   4.087   3.359  14.495  0.4283 -0.3356  0.2082
   67TMC2    C6 1042   4.053   3.489  14.489  0.7542  0.2493 -0.2797
   67TMC2     C 1043   3.973   3.212  14.183 -0.1900 -0.0270 -0.2674
   67TMC2     O 1044   4.039   3.107  14.188 -0.0149  0.4664 -0.3445
   67TMC2     H 1045   3.895   3.476  14.193 -1.4416 -0.7764  0.3618
   67TMC2    H1 1046   4.093   3.166  14.417  1.4600 -0.7804 -1.0620
   67TMC2    H2 1047   4.102   3.568  14.545  2.3933 -0.0101 -1.3294
   67TMC2    C7 1048   4.164   3.298  14.602 -0.2750 -0.8218  0.1799
   67TMC2    C8 1049   3.969   3.666  14.356  0.3739  0.1916  0.1300
   67TMC2    O1 1050   4.222   3.192  14.587  0.7506  0.1937  0.2451
   67TMC2    O2 1051   3.946   3.701  14.240  0.3839 -0.4966  0.5359
   67TMC2    O5 1052   3.942   3.734  14.469  0.5116 -0.7664  0.5261
   67TMC2    H5 1053   3.944   3.678  14.550 -0.8395 -1.8665 -0.2065
   68MPD2     C 1054   3.921   3.063  13.932 -0.6615  0.4722  0.0350
   68MPD2    C1 1055   3.831   3.147  13.997 -0.2617  0.5067  0.0211
   68MPD2    C2 1056   3.700   3.140  13.950  0.1307  0.0311  0.6734
   68MPD2    C3 1057   3.659   3.060  13.837 -0.0132  0.7137  0.1518
   68MPD2    C4 1058   3.757   2.988  13.776 -0.3553 -0.0566 -0.1697
   68MPD2    C5 1059   3.889   2.993  13.818 -0.1391  0.1746  0.4581
   68MPD2     H 1060   3.631   3.204  14.004 -1.5098  0.1285 -1.5564
   68MPD2    H1 1061   3.739   2.929  13.688  0.5897  1.0010 -1.0662
   68MPD2    H2 1062   4.025   3.058  13.961 -0.3574  0.6173 -1.0617
   68MPD2    H3 1063   3.970   2.939  13.769 -0.8472  0.3706 -0.9234
   68MPD2     N 1064   3.528   3.041  13.792  0.0266 -0.0830 -0.4572
   68MPD2    H5 1065   3.519   2.981  13.711  4.1112 -1.0816 -0.2002
   68MPD2    N1 1066   3.859   3.229  14.110 -0.1635  0.1039  0.2502
   68MPD2    H7 1067   3.804   3.311  14.135  0.5013  1.2807 -2.1141
   69TMC2    C1 1068   0.951   0.396  12.927  0.1534 -0.3236 -0.2982
   69TMC2    C2 1069   0.853   0.488  12.946 -0.0050  0.2852 -0.1384
   69TMC2    C3 1070   0.822   0.568  12.837  0.4139 -0.7885  0.0348
   69TMC2    C4 1071   1.015   0.380  12.807 -0.1041  0.4937 -0.3962
   69TMC2    C5 1072   0.972   0.453  12.704  0.0131 -0.2708  0.2342
   69TMC2    C6 1073   0.876   0.548  12.714  0.4561 -0.0210 -0.5676
   69TMC2     C 1074   0.955   0.294  13.028  0.3301 -0.1468  0.0075
   69TMC2     O 1075   0.867   0.298  13.115 -0.4210  0.0405 -0.1913
   69TMC2     H 1076   0.815   0.508  13.045 -2.1348  0.5594 -1.0107
   69TMC2    H1 1077   1.076   0.299  12.769  2.2627  1.7640  0.6754
   69TMC2    H2 1078   0.876   0.625  12.638 -1.2360  0.8670  0.3342
   69TMC2    C7 1079   1.034   0.429  12.569  0.1876 -0.1738  0.3672
   69TMC2    C8 1080   0.698   0.640  12.844 -0.1290 -0.3503  0.3127
   69TMC2    O1 1081   1.145   0.375  12.560  0.1954 -0.0123  0.6960
   69TMC2    O2 1082   0.662   0.680  12.954 -0.2915 -0.1642  0.1985
   69TMC2    O5 1083   0.675   0.702  12.726 -0.3706  0.6481  0.3498
   69TMC2    H5 1084   0.702   0.665  12.639 -0.8188  2.1747 -0.4415
   70MPD2     C 1085   1.166   0.004  13.028 -0.2322 -0.1310 -0.0575
   70MPD2    C1 1086   1.071   0.089  13.080  0.5917 -0.2719 -0.7117
   70MPD2    C2 1087   1.025   0.067  13.212  0.3154 -0.1671 -0.4504
   70MPD2    C3 1088   1.072   4.697  13.284 -0.8994 -0.6789 -0.2019
   70MPD2    C4 1089   1.168   4.615  13.233 -0.3615 -0.2392 -0.0658
   70MPD2    C5 1090   1.213   4.637  13.104  0.0874 -0.3562 -0.0152
   70MPD2     H 1091   0.947   0.132  13.251  1.7900  0.5232  1.3258
   70MPD2    H1 1092   1.204   4.534  13.296  2.6559  0.7027 -0.5629
   70MPD2    H2 1093   1.219   0.022  12.936  1.0066 -0.3111  0.6166
   70MPD2    H3 1094   1.296   4.578  13.065 -0.0195  0.4614 -1.4874
   70MPD2     N 1095   1.029   4.662  13.414  0.4562 -0.4045 -0.2728
   70MPD2    H5 1096   1.077   4.585  13.461 -0.1557 -1.6589 -1.6770
   70MPD2    N1 1097   1.054   0.208  13.011 -0.3521 -0.4178  0.1406
   70MPD2    H7 1098   1.104   0.218  12.923 -1.1333  2.5037  0.0221
   71TMC2    C1 1099   3.729   0.078   1.885 -0.0111  0.7466  0.3369
   71TMC2    C2 1100   3.783   0.075   2.009 -0.2251  0.5552 -0.2002
   71TMC2    C3 1101   3.709   0.130   2.113  0.2255 -0.1095  0.7892
   71TMC2    C4 1102   3.621   0.157   1.850 -0.6640 -0.3167  0.0984
   71TMC2    C5 1103   3.558   0.223   1.952 -0.4035 -0.0306 -0.4152
   71TMC2    C6 1104   3.607   0.222   2.084 -0.8045 -0.6500  0.3675
   71TMC2     C 1105   3.779   4.726   1.782 -0.1067 -1.2561  0.8097
   71TMC2     O 1106   3.862   4.648   1.822  0.0038  0.1262  0.6385
   71TMC2     H 1107   3.864   0.011   2.042 -1.2056  0.2947  1.6643
   71TMC2    H1 1108   3.604   0.183   1.746  0.1568  0.1109  0.0729
   71TMC2    H2 1109   3.539   0.263   2.157 -0.6979  1.0340 -0.4775
   71TMC2    C7 1110   3.450   0.313   1.929  0.0454 -0.5359 -0.4112
   71TMC2    C8 1111   3.763   0.121   2.243  0.1182 -0.2504  0.2941
   71TMC2    O1 1112   3.447   0.409   2.006  0.3969 -0.0747 -0.0160
   71TMC2    O2 1113   3.882   0.136   2.252 -0.7812 -0.4895  0.6003
   71TMC2    O5 1114   3.668   0.148   2.339 -0.1163 -0.2680  0.0448
   71TMC2    H5 1115   3.579   0.123   2.306 -0.5732 -0.4045  1.3780
   72MPD2     C 1116   3.849   4.521   1.319 -0.4695 -0.0996  0.2010
   72MPD2    C1 1117   3.738   4.606   1.311 -0.1424  0.1574  0.5610
   72MPD2    C2 1118   3.708   4.685   1.425 -0.2959  0.1482  0.1352
   72MPD2    C3 1119   3.766   4.659   1.547  0.5434  0.0608 -0.1618
   72MPD2    C4 1120   3.873   4.571   1.547  0.4552 -0.2131  0.1106
   72MPD2    C5 1121   3.907   4.498   1.439 -0.4124  0.0839 -0.0628
   72MPD2     H 1122   3.645   0.033   1.408  0.6389  0.5054 -1.5329
   72MPD2    H1 1123   3.938   4.544   1.629 -0.0654 -0.0049  0.5952
   72MPD2    H2 1124   3.889   4.481   1.226  0.8046 -2.7258  1.8984
   72MPD2    H3 1125   3.986   4.425   1.451  0.5910  1.3788  1.1643
   72MPD2     N 1126   3.726   4.738   1.655 -0.7036 -0.0456  0.2940
   72MPD2    H5 1127   3.657   0.068   1.628 -0.0623 -0.0862 -1.4732
   72MPD2    N1 1128   3.689   4.650   1.188  0.5809 -0.2366 -0.5378
   72MPD2    H7 1129   3.628   4.731   1.195  1.4980  0.4909 -0.9436
   73TMC2    C1 1130   2.442   2.170  14.036 -0.4496 -0.2194  0.0291
   73TMC2    C2 1131   2.418   2.241  13.925  0.5087  0.6522 -0.3128
   73TMC2    C3 1132   2.382   2.175  13.804  0.0508 -0.0397  0.5842
   73TMC2    C4 1133   2.452   2.035  14.022 -0.0336  0.1361 -0.1766
   73TMC2    C5 1134   2.428   1.969  13.904  0.0497 -0.1399 -0.5018
   73TMC2    C6 1135   2.391   2.038  13.791 -0.6772  0.3000  0.4078
   73TMC2     C 1136   2.567   2.210  14.100 -0.3498 -0.1550 -0.1448
   73TMC2     O 1137   2.638   2.121  14.147  0.1542  0.6032 -0.3281
   73TMC2     H 1138   2.397   2.347  13.933  1.8111  0.5301  4.5340
   73TMC2    H1 1139   2.468   1.979  14.113 -1.9027 -1.3895 -0.7975
   73TMC2    H2 1140   2.353   1.982  13.707  2.0211 -0.5453 -0.2310
   73TMC2    C7 1141   2.545   1.876  13.867  0.1012 -0.4101  0.4495
   73TMC2    C8 1142   2.293   2.243  13.711  0.8144  0.2922  0.2175
   73TMC2    O1 1143   2.541   1.812  13.765  0.2608  0.3259  0.2446
   73TMC2    O2 1144   2.205   2.325  13.741 -0.0600 -0.0494 -0.3343
   73TMC2    O5 1145   2.337   2.217  13.590  0.3774 -0.5918  0.3830
   73TMC2    H5 1146   2.430   2.186  13.593  0.2163 -0.9117  2.1842
   74MPD2     C 1147   2.974   2.528  14.180 -0.0217  0.8864 -0.0176
   74MPD2    C1 1148   2.961   2.390  14.209 -0.5459  0.2839  0.3812
   74MPD2    C2 1149   2.844   2.321  14.174  0.4190 -0.8986  0.3122
   74MPD2    C3 1150   2.736   2.389  14.111  0.5557 -0.1919  0.2348
   74MPD2    C4 1151   2.752   2.525  14.079 -0.0280  0.2730  0.4505
   74MPD2    C5 1152   2.868   2.594  14.114  0.1093 -1.0004 -0.1977
   74MPD2     H 1153   2.825   2.218  14.200 -1.1057 -0.8715 -0.6552
   74MPD2    H1 1154   2.676   2.587  14.034  0.0240 -1.0201 -1.4176
   74MPD2    H2 1155   3.070   2.577  14.187 -0.6683  1.8039  2.5711
   74MPD2    H3 1156   2.885   2.694  14.078  1.7107 -1.1338  0.1812
   74MPD2     N 1157   2.614   2.339  14.069  0.6098 -0.7868 -0.4247
   74MPD2    H5 1158   2.560   2.402  14.012 -0.5341 -1.9239 -0.6085
   74MPD2    N1 1159   3.075   2.327  14.261  0.7155 -0.6448 -0.8630
   74MPD2    H7 1160   3.151   2.384  14.295 -0.5853  0.7065 -0.2126
   75TMC2    C1 1161   3.300   3.035  13.788  0.4560 -0.5165 -0.0322
   75TMC2    C2 1162   3.307   2.915  13.720  0.2859 -0.6035  0.1679
   75TMC2    C3 1163   3.204   2.887  13.637  0.3319 -0.1670  0.0035
   75TMC2    C4 1164   3.198   3.118  13.779 -0.0748  0.1595  0.6905
   75TMC2    C5 1165   3.087   3.079  13.698  0.1895  0.3070  1.2441
   75TMC2    C6 1166   3.087   2.957  13.631  0.4808  0.8667  0.1082
   75TMC2     C 1167   3.420   3.093  13.848  0.2648 -0.7777 -0.3446
   75TMC2     O 1168   3.412   3.183  13.935 -0.0837  0.0390  0.7898
   75TMC2     H 1169   3.376   2.834  13.740  0.1036 -1.2580 -1.8037
   75TMC2    H1 1170   3.199   3.213  13.832  0.1579  0.9170 -0.6600
   75TMC2    H2 1171   3.011   2.939  13.556  1.9677  0.8452 -1.4015
   75TMC2    C7 1172   3.015   3.186  13.622 -0.9883  0.4513  0.1791
   75TMC2    C8 1173   3.187   2.751  13.584  0.0924  0.1535 -0.2955
   75TMC2    O1 1174   2.952   3.140  13.529  0.8510  0.0329  0.0785
   75TMC2    O2 1175   3.088   2.711  13.524  0.3272 -0.5638 -0.0506
   75TMC2    O5 1176   3.315   2.728  13.527 -0.2079 -0.0847  0.4245
   75TMC2    H5 1177   3.384   2.797  13.543  1.7232 -1.5379 -1.7089
   76TMC2    C1 1178   1.183   4.163  12.408  0.3473  0.2636  0.1733
   76TMC2    C2 1179   1.043   4.174  12.419 -0.5413  0.1554  0.7020
   76TMC2    C3 1180   0.990   4.112  12.530  0.3954  0.6889 -0.4722
   76TMC2    C4 1181   1.263   4.089  12.487 -0.6779 -1.0136 -0.4253
   76TMC2    C5 1182   1.200   4.025  12.587  0.6838  0.3536  0.0818
   76TMC2    C6 1183   1.071   4.041  12.614 -0.0533  0.0865  0.1750
   76TMC2     C 1184   1.245   4.250  12.310  0.2114  0.0840  0.4906
   76TMC2     O 1185   1.182   4.355  12.283  0.4216  0.1916  0.0632
   76TMC2     H 1186   0.978   4.217  12.345  1.0195  0.3346 -0.5657
   76TMC2    H1 1187   1.372   4.097  12.489 -0.6871 -0.7293 -0.9473
   76TMC2    H2 1188   1.036   4.019  12.715  2.3187 -1.3681  0.6823
   76TMC2    C7 1189   1.288   3.949  12.682  0.3576 -0.8353  0.0887
   76TMC2    C8 1190   0.845   4.143  12.557 -0.1001  0.1924  0.2429
   76TMC2    O1 1191   1.232   3.910  12.781 -0.3971  0.6475 -0.1986
   76TMC2    O2 1192   0.796   4.255  12.542 -0.7431  0.4424 -0.0449
   76TMC2    O5 1193   0.780   4.036  12.594 -0.4091 -0.1282  0.1686
   76TMC2    H5 1194   0.833   3.953  12.588  0.9368  0.7322  0.0845
   77MPD2     C 1195   1.669   4.399  12.060 -0.0033  0.1894  0.0456
   77MPD2    C1 1196   1.553   4.472  12.097 -0.3195  0.1021 -0.6297
   77MPD2    C2 1197   1.455   4.409  12.168  0.5028 -0.3725 -0.3822
   77MPD2    C3 1198   1.463   4.274  12.201  0.2427  0.0298  0.4407
   77MPD2    C4 1199   1.580   4.207  12.167 -1.2225  0.2271  1.0483
   77MPD2    C5 1200   1.683   4.268  12.093 -0.7124 -0.3733 -0.0354
   77MPD2     H 1201   1.367   4.464  12.199  0.2181  0.1654 -2.1287
   77MPD2    H1 1202   1.593   4.103  12.196 -1.6491 -0.0078  0.3949
   77MPD2    H2 1203   1.751   4.450  12.011 -1.2458  1.8326 -0.3457
   77MPD2    H3 1204   1.772   4.215  12.060 -0.2029  0.1820  0.4556
   77MPD2     N 1205   1.373   4.206  12.279 -0.0874  0.1138  0.0528
   77MPD2    H5 1206   1.393   4.109  12.304  1.7638 -0.2748 -2.9835
   77MPD2    N1 1207   1.542   4.610  12.069  0.8412  0.4523  0.4109
   77MPD2    H7 1208   1.457   4.653  12.104  0.1042  0.5299 -1.4909
   78TMC2    C1 1209   3.821   0.485   2.154  0.4096  0.3380 -0.1630
   78TMC2    C2 1210   3.716   0.555   2.103  0.4092 -0.6696 -0.4548
   78TMC2    C3 1211   3.704   0.581   1.971 -0.9843  0.2080 -0.5056
   78TMC2    C4 1212   3.913   0.424   2.068 -0.3105  0.3454 -0.3552
   78TMC2    C5 1213   3.879   0.432   1.935  0.2547 -0.1065 -0.2624
   78TMC2    C6 1214   3.792   0.523   1.885 -0.0541 -0.4537  0.0884
   78TMC2     C 1215   3.841   0.515   2.297 -0.5313 -0.1407  0.2292
   78TMC2     O 1216   3.749   0.568   2.361 -0.0586  0.6168  1.0538
   78TMC2     H 1217   3.650   0.612   2.167  0.8764  1.1426 -1.5749
   78TMC2    H1 1218   3.979   0.344   2.098 -1.4518  0.2867  1.9603
   78TMC2    H2 1219   3.780   0.530   1.777  3.9141  2.1509 -0.1854
   78TMC2    C7 1220   3.973   0.377   1.838  0.2658  0.7172 -0.3934
   78TMC2    C8 1221   3.610   0.682   1.924  0.2684 -0.1562  0.4638
   78TMC2    O1 1222   4.081   0.333   1.869 -1.0681 -0.5867  0.3928
   78TMC2    O2 1223   3.546   0.668   1.823  0.2399  0.2730  0.4386
   78TMC2    O5 1224   3.648   0.799   1.979 -0.1042  0.4831 -0.3146
   78TMC2    H5 1225   3.717   0.784   2.046 -0.9585 -0.0373  0.4498
   79MPD1     C 1226   4.077   0.536   2.758  0.6977 -0.4014 -0.2643
   79MPD1    C1 1227   3.948   0.516   2.726  0.1083 -0.8276 -0.0525
   79MPD1    C2 1228   3.905   0.516   2.595 -0.0452 -0.2035  0.2143
   79MPD1    C3 1229   3.992   0.513   2.492 -0.4446  0.5370  0.0569
   79MPD1    C4 1230   4.128   0.524   2.527 -0.4180  0.0706  0.0298
   79MPD1    C5 1231   4.166   0.546   2.658 -0.4303  0.4900 -0.0221
   79MPD1     H 1232   3.799   0.509   2.573 -0.4460  0.1686  2.0553
   79MPD1    H1 1233   4.206   0.511   2.453  0.0975  1.8382  0.2560
   79MPD1    H2 1234   4.112   0.537   2.861  1.3049  2.4110 -0.5058
   79MPD1    H3 1235   4.272   0.542   2.676 -0.5417 -2.2661  0.0287
   79MPD1     N 1236   3.963   0.506   2.349  0.3328 -0.5978  0.3730
   79MPD1    H5 1237   4.036   0.483   2.282  0.6210 -0.0390  0.4883
   79MPD1    N1 1238   3.851   0.526   2.827  0.1260  0.3910 -0.6986
   79MPD1    H6 1239   3.893   0.488   2.912 -0.0086 -0.0423 -0.8238
   79MPD1    H7 1240   3.758   0.490   2.805 -0.0837  1.1420 -1.0502
   80TMC2    C1 1241   0.320   3.992  11.947 -0.2371  0.6187  0.0050
   80TMC2    C2 1242   0.254   3.986  11.832  0.5791  0.8472 -0.3463
   80TMC2    C3 1243   0.148   3.900  11.828 -0.3379 -0.0275 -0.6412
   80TMC2    C4 1244   0.292   3.900  12.048  0.2278  0.1805 -0.3390
   80TMC2    C5 1245   0.172   3.830  12.045  0.3280  0.2496 -0.5991
   80TMC2    C6 1246   0.098   3.824  11.927 -0.3696 -0.0012 -0.1100
   80TMC2     C 1247   0.438   4.076  11.959  0.0460 -0.4685  0.5373
   80TMC2     O 1248   0.503   4.102  11.857  0.1082  0.2930 -0.3132
   80TMC2     H 1249   0.264   4.064  11.758  2.5442 -0.0882 -1.0668
   80TMC2    H1 1250   0.357   3.900  12.135  0.0279  0.3807 -0.1916
   80TMC2    H2 1251   4.737   3.783  11.921  0.5481 -2.0595 -1.3465
   80TMC2    C7 1252   0.158   3.718  12.134 -0.0948  0.0504  0.4256
   80TMC2    C8 1253   0.074   3.911  11.702 -0.2409  0.3635 -0.3411
   80TMC2    O1 1254   0.120   3.613  12.085  0.5979 -0.0313  0.1808
   80TMC2    O2 1255   0.086   4.008  11.629 -0.4870  0.0744  0.1539
   80TMC2    O5 1256   4.732   3.809  11.686  0.5243 -0.1927  0.0974
   80TMC2    H5 1257   0.010   3.739  11.753 -1.4950 -0.1676  0.6340
   81MPD2     C 1258   0.665   4.217  12.093 -0.4056 -0.0152  0.0591
   81MPD2    C1 1259   0.533   4.225  12.133  1.0961 -0.2925  0.5283
   81MPD2    C2 1260   0.502   4.316  12.228 -0.3129  0.3023  0.2653
   81MPD2    C3 1261   0.596   4.396  12.288 -0.2573 -0.6136  0.4211
   81MPD2    C4 1262   0.730   4.378  12.250  0.2934 -0.2775  0.0470
   81MPD2    C5 1263   0.761   4.297  12.149  0.7115  0.5749  0.5653
   81MPD2     H 1264   0.401   4.319  12.267  0.1060 -1.1622  1.4720
   81MPD2    H1 1265   0.805   4.444  12.291  0.4022  0.4712 -1.3317
   81MPD2    H2 1266   0.704   4.142  12.025 -0.7276  0.6294 -0.8464
   81MPD2    H3 1267   0.862   4.290  12.111  0.0146 -0.4687 -1.0864
   81MPD2     N 1268   0.569   4.489  12.391  0.3959  0.0015 -0.1419
   81MPD2    H5 1269   0.646   4.506  12.455  0.0246 -1.7271  0.7612
   81MPD2    N1 1270   0.436   4.133  12.090 -0.2426  0.2315  0.3076
   81MPD2    H7 1271   0.343   4.127  12.131 -0.4783  0.8902 -0.1398
   82TMC2    C1 1272   3.432   2.999  11.927 -0.0254 -0.6356  0.3543
   82TMC2    C2 1273   3.560   2.999  11.891  0.1211 -0.6595  0.1965
   82TMC2    C3 1274   3.621   2.879  11.882  0.2496  0.1193  0.2737
   82TMC2    C4 1275   3.351   2.885  11.925 -0.8595 -0.0602  0.0451
   82TMC2    C5 1276   3.418   2.765  11.915 -0.3055  0.0677  0.1935
   82TMC2    C6 1277   3.546   2.763  11.896 -1.0906 -0.0926  0.3544
   82TMC2     C 1278   3.363   3.131  11.899  0.2483 -0.1987  0.5096
   82TMC2     O 1279   3.410   3.202  11.809  0.2277 -0.4901  0.3153
   82TMC2     H 1280   3.612   3.091  11.863 -1.7809 -0.0855 -1.5122
   82TMC2    H1 1281   3.245   2.882  11.949 -0.5576  0.3824  1.4502
   82TMC2    H2 1282   3.591   2.665  11.893 -0.5846  0.1558 -0.2392
   82TMC2    C7 1283   3.345   2.640  11.913  0.2004 -0.0556  0.3136
   82TMC2    C8 1284   3.750   2.869  11.799 -0.4843 -0.3094  0.3405
   82TMC2    O1 1285   3.248   2.633  11.988  0.3373  0.4382  0.3485
   82TMC2    O2 1286   3.793   2.968  11.735  0.5839  0.2335  0.6224
   82TMC2    O5 1287   3.820   2.773  11.869 -0.1762 -0.6280  0.9904
   82TMC2    H5 1288   3.767   2.725  11.936 -1.0769  0.2626  0.9220
   83MPD2     C 1289   2.877   3.295  11.847  0.4385  0.1810 -0.0041
   83MPD2    C1 1290   2.987   3.308  11.764 -0.3644 -0.5566  0.0378
   83MPD2    C2 1291   3.108   3.255  11.802  0.0674 -0.2864 -0.0450
   83MPD2    C3 1292   3.127   3.205  11.924 -0.6792 -0.0576  0.1118
   83MPD2    C4 1293   3.023   3.214  12.016 -0.1977  0.3625 -0.3835
   83MPD2    C5 1294   2.899   3.251  11.975  0.7582  0.5100  0.3491
   83MPD2     H 1295   3.180   3.251  11.720 -0.0721 -1.8188 -0.0845
   83MPD2    H1 1296   3.041   3.173  12.114  1.5882  1.5700 -0.2112
   83MPD2    H2 1297   2.780   3.327  11.812  0.1608 -1.6944 -0.9060
   83MPD2    H3 1298   2.810   3.240  12.036 -0.7945 -1.3686 -2.2632
   83MPD2     N 1299   3.241   3.134  11.959 -0.7477  0.1217 -0.2750
   83MPD2    H5 1300   3.225   3.080  12.043 -0.7163 -1.2213 -1.1405
   83MPD2    N1 1301   2.968   3.352  11.626  0.2414  0.2023 -0.3621
   83MPD2    H7 1302   2.872   3.363  11.595 -0.5127 -2.0909  1.1409
   84TMC2    C1 1303   0.061   2.577  10.934  0.1501  0.0928  0.3674
   84TMC2    C2 1304   0.138   2.668  10.853 -0.1217  0.9627 -0.1189
   84TMC2    C3 1305   0.128   2.659  10.716  0.1350 -0.1793  0.2831
   84TMC2    C4 1306   4.727   2.480  10.861  0.0960  0.1266 -0.5686
   84TMC2    C5 1307   4.720   2.480  10.718 -0.1688  0.6597  0.0154
   84TMC2    C6 1308   0.044   2.572  10.640  0.4679  0.0108 -0.1251
   84TMC2     C 1309   0.027   2.614  11.070 -0.0248 -0.5928 -0.8995
   84TMC2     O 1310   0.099   2.696  11.133 -0.3899  0.0793 -0.0720
   84TMC2     H 1311   0.217   2.727  10.897  0.9587 -1.0379  0.6105
   84TMC2    H1 1312   4.678   2.399  10.913 -2.8061  0.7188 -2.3885
   84TMC2    H2 1313   0.053   2.556  10.533  0.5290  0.9525 -0.2666
   84TMC2    C7 1314   4.645   2.369  10.660 -0.6880  0.2922  0.2734
   84TMC2    C8 1315   0.206   2.745  10.627  0.3430 -0.3792 -0.4514
   84TMC2    O1 1316   4.599   2.287  10.737  0.4774  0.5925  0.0335
   84TMC2    O2 1317   0.232   2.703  10.517 -0.4458 -0.0263 -0.3507
   84TMC2    O5 1318   0.199   2.880  10.666  0.0444 -0.2773 -0.1720
   84TMC2    H5 1319   0.170   2.891  10.759  1.2557  1.7131 -0.0457
   85TMC2    C1 1320   1.375   0.411  16.255 -0.6838  0.3616  0.2972
   85TMC2    C2 1321   1.263   0.493  16.244 -0.2679  0.1954  0.3168
   85TMC2    C3 1322   1.275   0.604  16.166  0.5023  0.6921  0.5210
   85TMC2    C4 1323   1.486   0.425  16.176  0.5019  0.3199  0.1845
   85TMC2    C5 1324   1.476   0.527  16.080 -0.3156 -0.0035 -0.0897
   85TMC2    C6 1325   1.381   0.624  16.088 -0.2919 -0.0645  0.1389
   85TMC2     C 1326   1.400   0.327  16.370 -0.0194  0.4777 -0.6891
   85TMC2     O 1327   1.518   0.321  16.408 -0.0699 -0.1740 -0.7133
   85TMC2     H 1328   1.178   0.479  16.309 -2.3268  0.2242 -2.3633
   85TMC2    H1 1329   1.577   0.368  16.183 -0.0255 -0.6325 -0.6696
   85TMC2    H2 1330   1.391   0.707  16.019  1.0885 -1.4654 -1.3358
   85TMC2    C7 1331   1.578   0.513  15.974 -0.2541 -0.2331  0.0349
   85TMC2    C8 1332   1.163   0.683  16.142 -0.5565  0.0472 -0.1558
   85TMC2    O1 1333   1.665   0.431  15.998  0.3365 -0.2104  0.3662
   85TMC2    O2 1334   1.045   0.638  16.141 -0.2429  0.2083  0.0588
   85TMC2    O5 1335   1.198   0.816  16.133 -0.3850 -0.2165  0.0485
   85TMC2    H5 1336   1.288   0.839  16.163 -0.6252  1.2499 -0.3398
   86MPD2     C 1337   1.249   4.662  16.660 -0.5781 -0.8214  0.6528
   86MPD2    C1 1338   1.157   4.686  16.564  0.3989  0.5841  0.5465
   86MPD2    C2 1339   1.177   0.052  16.479  0.5823  0.3095  0.0174
   86MPD2    C3 1340   1.290   0.136  16.486 -0.6440 -0.0314 -0.4998
   86MPD2    C4 1341   1.378   0.112  16.586 -0.0869 -0.0508 -0.6274
   86MPD2    C5 1342   1.359   0.010  16.674 -0.3425 -0.4533 -0.1051
   86MPD2     H 1343   1.098   0.072  16.407  0.4852  0.0933  0.0654
   86MPD2    H1 1344   1.467   0.174  16.589 -0.4464  0.4139  0.4223
   86MPD2    H2 1345   1.241   4.583  16.734 -1.8622 -0.6297  0.7332
   86MPD2    H3 1346   1.422   0.004  16.762  0.6181 -0.9740 -0.8259
   86MPD2     N 1347   1.294   0.246  16.391  0.2973 -0.4691 -0.6423
   86MPD2    H5 1348   1.218   0.258  16.325  0.0877 -0.0752 -0.3271
   86MPD2    N1 1349   1.037   4.610  16.553 -0.2457  0.1933  0.0993
   86MPD2    H7 1350   0.983   4.622  16.468 -0.4404 -1.1715  0.0197
   87TMC2    C1 1351   4.023   3.075   0.666 -0.0471 -0.0977  0.2709
   87TMC2    C2 1352   4.123   3.155   0.623  0.0490  0.3225 -0.3938
   87TMC2    C3 1353   4.094   3.286   0.612 -0.2769  0.1574 -0.1980
   87TMC2    C4 1354   3.897   3.124   0.693 -0.4624  0.1541  0.3361
   87TMC2    C5 1355   3.867   3.252   0.686 -0.2314 -0.1897 -0.4480
   87TMC2    C6 1356   3.967   3.335   0.647  0.1434 -0.0271  0.3630
   87TMC2     C 1357   4.066   2.949   0.727 -0.0892  0.0062 -0.3639
   87TMC2     O 1358   4.187   2.927   0.723  0.1561  0.2699 -0.2446
   87TMC2     H 1359   4.222   3.116   0.601  0.6646  2.3085 -1.0983
   87TMC2    H1 1360   3.824   3.064   0.746 -1.3552 -0.2062 -1.3045
   87TMC2    H2 1361   3.956   3.440   0.623  1.8003 -0.7980 -3.7844
   87TMC2    C7 1362   3.733   3.302   0.678 -0.3487 -0.3036  0.1161
   87TMC2    C8 1363   4.193   3.387   0.571  0.7421 -0.2440 -0.4724
   87TMC2    O1 1364   3.728   3.425   0.673 -0.3633  0.1457  0.2759
   87TMC2    O2 1365   4.200   3.494   0.626  0.5963 -0.6570  0.1306
   87TMC2    O5 1366   4.298   3.313   0.535 -0.5334 -0.2213  0.4745
   87TMC2    H5 1367   4.276   3.241   0.473  0.2368 -0.1315  0.0900
   88MPD2     C 1368   3.424   3.139   0.579 -0.6472 -0.2319  0.1725
   88MPD2    C1 1369   3.500   3.240   0.626  0.1058 -0.1364  0.1957
   88MPD2    C2 1370   3.442   3.363   0.631 -0.0185  0.4149 -0.4771
   88MPD2    C3 1371   3.317   3.388   0.577  0.1100 -0.3700 -1.0560
   88MPD2    C4 1372   3.248   3.280   0.518  0.0090 -0.0287  0.8903
   88MPD2    C5 1373   3.298   3.156   0.522 -0.6935 -0.0059  0.8298
   88MPD2     H 1374   3.503   3.441   0.674  0.8388 -0.1127 -0.7419
   88MPD2    H1 1375   3.150   3.289   0.472  0.6828 -2.1958 -0.9933
   88MPD2    H2 1376   3.466   3.039   0.574  0.1475 -0.0365  3.0327
   88MPD2    H3 1377   3.234   3.079   0.480  0.2271 -0.0806 -0.4291
   88MPD2     N 1378   3.261   3.517   0.574 -0.2702 -0.1596  0.5995
   88MPD2    H5 1379   3.169   3.528   0.532 -0.1270 -1.4934 -0.0325
   88MPD2    N1 1380   3.633   3.206   0.651 -0.0335  0.2110  0.4505
   88MPD2    H7 1381   3.668   3.111   0.645 -2.2669 -0.5094 -0.9953
   89TMC2    C1 1382   0.701   0.341   1.268 -0.3997  0.3031 -0.4058
   89TMC2    C2 1383   0.753   0.271   1.157  0.0740  0.0510 -0.5905
   89TMC2    C3 1384   0.883   0.297   1.135 -0.7148 -0.0154  0.1389
   89TMC2    C4 1385   0.769   0.432   1.344  0.1926  0.1405  0.4637
   89TMC2    C5 1386   0.896   0.465   1.299  0.1639 -0.0345 -0.1682
   89TMC2    C6 1387   0.960   0.385   1.206 -0.4065  0.4260 -0.2493
   89TMC2     C 1388   0.559   0.337   1.289 -0.0035  0.3878 -0.6550
   89TMC2     O 1389   0.522   0.437   1.346 -0.0035  0.2185 -0.3710
   89TMC2     H 1390   0.712   0.188   1.101 -0.0657 -0.7538  0.7155
   89TMC2    H1 1391   0.719   0.485   1.424 -0.3214  0.8751 -0.3564
   89TMC2    H2 1392   1.063   0.404   1.180  0.1986 -1.7879  0.5310
   89TMC2    C7 1393   0.958   0.592   1.321  0.1443  0.6204 -0.2949
   89TMC2    C8 1394   0.944   0.196   1.047 -0.1090  0.2240 -0.2898
   89TMC2    O1 1395   1.080   0.593   1.303  0.3000  0.1124  0.2909
   89TMC2    O2 1396   0.906   0.082   1.042 -0.5663  0.4408  0.1695
   89TMC2    O5 1397   1.064   0.234   1.029  0.6333 -0.3505 -0.5409
   89TMC2    H5 1398   1.057   0.324   0.990 -2.2776 -0.4021 -0.1497
   90MPD2     C 1399   0.079   0.219   1.153 -0.4550 -1.1024 -0.4467
   90MPD2    C1 1400   0.127   0.295   1.257 -0.1264  0.2737 -0.5221
   90MPD2    C2 1401   0.262   0.316   1.277  0.7346  0.9869  0.0897
   90MPD2    C3 1402   0.353   0.249   1.192 -0.6401 -0.7489 -0.8666
   90MPD2    C4 1403   0.299   0.179   1.077  0.2267  0.1824 -0.0398
   90MPD2    C5 1404   0.163   0.163   1.062  0.4693 -0.0284  0.6017
   90MPD2     H 1405   0.302   0.371   1.362 -3.1449 -0.5478  2.9420
   90MPD2    H1 1406   0.360   0.136   0.998 -1.1970 -2.5470  0.3534
   90MPD2    H2 1407   4.713   0.205   1.131 -0.2676 -3.3005  0.0173
   90MPD2    H3 1408   0.114   0.112   0.980  0.9361 -0.8344  0.8299
   90MPD2     N 1409   0.495   0.257   1.200  0.0575  0.1205  0.6060
   90MPD2    H5 1410   0.550   0.213   1.127 -1.8962 -0.6816 -0.4135
   90MPD2    N1 1411   0.045   0.357   1.346 -0.1027  0.1161  0.3230
   90MPD2    H7 1412   0.100   0.408   1.415  2.3935 -2.5233  0.2414
   91TMC2    C1 1413   0.880   1.105  16.538 -0.3029 -0.1921 -0.9113
   91TMC2    C2 1414   0.907   1.174  16.652 -0.2700  0.0796  0.3388
   91TMC2    C3 1415   0.838   1.151  16.767  0.0351  0.3046 -0.8597
   91TMC2    C4 1416   0.792   0.999  16.538 -0.7021 -0.0653 -0.3035
   91TMC2    C5 1417   0.717   0.981  16.651  0.3868 -0.1193  0.2984
   91TMC2    C6 1418   0.743   1.050  16.767 -0.7226 -0.2822  0.1217
   91TMC2     C 1419   0.956   1.132  16.422 -0.8274 -0.1742 -0.0154
   91TMC2     O 1420   0.906   1.093  16.314  0.0267  0.6063  0.6569
   91TMC2     H 1421   0.982   1.252  16.653 -0.2452  0.0910 -2.0436
   91TMC2    H1 1422   0.783   0.932  16.452  1.3168 -0.8589  0.0986
   91TMC2    H2 1423   0.685   1.037  16.858 -0.5852  1.3515  0.4442
   91TMC2    C7 1424   0.628   0.871  16.648 -0.3660  0.2644  0.2350
   91TMC2    C8 1425   0.843   1.238  16.882  0.2909 -0.2916  0.0691
   91TMC2    O1 1426   0.621   0.822  16.760 -0.8198  0.0763 -0.0644
   91TMC2    O2 1427   0.951   1.287  16.902 -0.1945 -0.0500 -0.1792
   91TMC2    O5 1428   0.732   1.314  16.866  0.1932  0.3623 -0.5286
   91TMC2    H5 1429   0.657   1.272  16.820 -0.2482  1.3730 -0.7504
   92MPD2     C 1430   1.157   1.234  16.218 -0.3937 -0.6764 -0.1602
   92MPD2    C1 1431   1.181   1.217  16.357 -0.2090  0.5896 -0.3497
   92MPD2    C2 1432   1.304   1.247  16.407 -0.2136  0.3469  0.4559
   92MPD2    C3 1433   1.398   1.298  16.325 -0.7485  0.2085 -0.4515
   92MPD2    C4 1434   1.377   1.302  16.186  0.1746 -0.2083  0.2129
   92MPD2    C5 1435   1.250   1.285  16.133 -0.5336  0.4735 -0.0712
   92MPD2     H 1436   1.333   1.239  16.511  0.4504 -0.1717  0.2307
   92MPD2    H1 1437   1.452   1.344  16.120 -0.5531  0.7500 -0.0025
   92MPD2    H2 1438   1.058   1.215  16.177  0.5633 -1.2613 -2.1954
   92MPD2    H3 1439   1.217   1.298  16.031 -3.6004  2.7257  1.2422
   92MPD2     N 1440   1.519   1.349  16.383 -0.3091  0.5357  0.3450
   92MPD2    H5 1441   1.525   1.360  16.484  1.0755  0.5359  0.2686
   92MPD2    N1 1442   1.087   1.171  16.448 -0.0144  0.1849 -0.0328
   92MPD2    H7 1443   1.124   1.174  16.542  1.3008  1.8545 -0.6263
   93TMC2    C1 1444   3.270   1.498  14.230  0.3133  0.3486  0.0274
   93TMC2    C2 1445   3.238   1.576  14.339 -0.5584 -0.0515  0.0455
   93TMC2    C3 1446   3.340   1.623  14.415 -0.0046  0.5857  0.2150
   93TMC2    C4 1447   3.408   1.473  14.207  0.1936 -0.6833 -0.3552
   93TMC2    C5 1448   3.497   1.527  14.289 -0.2601  0.3226  0.4893
   93TMC2    C6 1449   3.474   1.609  14.389 -0.7344  0.1231  0.5641
   93TMC2     C 1450   3.174   1.429  14.146 -0.2476 -0.5584  0.1275
   93TMC2     O 1451   3.216   1.347  14.064 -0.4378 -0.1689 -0.2529
   93TMC2     H 1452   3.134   1.592  14.366 -0.1051 -0.0916  1.7957
   93TMC2    H1 1453   3.447   1.416  14.124 -0.0548  1.3126 -1.8337
   93TMC2    H2 1454   3.558   1.627  14.455 -0.4848  0.4865  0.1460
   93TMC2    C7 1455   3.640   1.497  14.265  0.0679 -0.1635 -0.2331
   93TMC2    C8 1456   3.313   1.707  14.528 -0.4027 -0.5344 -0.3648
   93TMC2    O1 1457   3.658   1.379  14.229 -0.3172 -0.3689 -0.2267
   93TMC2    O2 1458   3.205   1.712  14.581  0.3965 -0.3290  0.2321
   93TMC2    O5 1459   3.386   1.819  14.506 -0.5557  0.1481 -0.2608
   93TMC2    H5 1460   3.465   1.813  14.448 -0.6676 -2.7458 -0.0991
   94MPD2     C 1461   2.935   1.341  13.997  0.4924 -0.1126  0.1618
   94MPD2    C1 1462   2.931   1.429  14.102  0.0125  0.2625 -0.2527
   94MPD2    C2 1463   2.808   1.482  14.146  0.0080 -0.1271  0.1736
   94MPD2    C3 1464   2.693   1.452  14.071  0.3776  0.0260 -0.2835
   94MPD2    C4 1465   2.699   1.352  13.973 -0.7393 -0.5575 -0.1886
   94MPD2    C5 1466   2.818   1.298  13.947  0.2099  0.5315  0.1707
   94MPD2     H 1467   2.812   1.552  14.228 -0.2237 -0.8454  0.7961
   94MPD2    H1 1468   2.614   1.323  13.913 -1.1732 -2.3199  1.2716
   94MPD2    H2 1469   3.028   1.296  13.966  0.5530 -0.0460  0.2460
   94MPD2    H3 1470   2.824   1.228  13.864 -0.2622  1.7355 -0.8875
   94MPD2     N 1471   2.571   1.514  14.096 -0.1949  0.0159  0.0726
   94MPD2    H5 1472   2.497   1.498  14.028  1.2338 -1.5251 -1.1109
   94MPD2    N1 1473   3.045   1.469  14.178  0.3446  0.1521  0.3371
   94MPD2    H7 1474   3.042   1.550  14.238  0.2248  0.8857 -0.6619
   95TMC2    C1 1475   3.489   2.970  16.820 -0.2128 -0.1653 -0.1370
   95TMC2    C2 1476   3.454   2.840  16.823  0.0579  0.6162  0.4251
   95TMC2    C3 1477   3.369   2.794  16.922  0.2397  0.3492 -0.0818
   95TMC2    C4 1478   3.436   3.062  16.910 -0.3182 -0.9431  0.5921
   95TMC2    C5 1479   3.336   3.018  16.994 -0.1809  0.2436 -0.8715
   95TMC2    C6 1480   3.309   2.883  17.008 -0.2534  0.9920 -0.8778
   95TMC2     C 1481   3.557   3.026  16.708  0.1989 -0.1940 -0.2722
   95TMC2     O 1482   3.551   2.962  16.602  0.2252  0.5294  0.5046
   95TMC2     H 1483   3.499   2.770  16.753  0.0372 -0.3795  1.3992
   95TMC2    H1 1484   3.444   3.168  16.894 -0.5628 -1.1893 -1.1555
   95TMC2    H2 1485   3.246   2.853  17.090 -2.2763  0.6982 -2.5401
   95TMC2    C7 1486   3.287   3.119  17.085 -0.0833  0.3208 -0.3788
   95TMC2    C8 1487   3.296   2.665  16.907 -0.6608  0.1588  0.0332
   95TMC2    O1 1488   3.355   3.214  17.118  0.2830 -0.3823 -0.1856
   95TMC2    O2 1489   3.242   2.610  16.999 -0.3447 -0.0988 -0.8579
   95TMC2    O5 1490   3.278   2.647  16.774 -0.0945  0.1903  0.1345
   95TMC2    H5 1491   3.294   2.722  16.713  2.3878 -0.6922 -0.3036
   96MPD2     C 1492   3.837   3.376  16.454 -0.1480 -0.1207 -0.1404
   96MPD2    C1 1493   3.732   3.294  16.411  0.0221 -0.2002  0.6637
   96MPD2    C2 1494   3.671   3.214  16.506  0.8923 -0.1925  0.6010
   96MPD2    C3 1495   3.696   3.230  16.642  0.5483  0.2405  0.1744
   96MPD2    C4 1496   3.792   3.309  16.682  0.1223 -0.2665 -0.1973
   96MPD2    C5 1497   3.863   3.389  16.589  0.4649  0.0908  0.0647
   96MPD2     H 1498   3.595   3.142  16.479  0.0182 -0.6062  4.1457
   96MPD2    H1 1499   3.826   3.302  16.784 -1.6461  1.8813  0.5392
   96MPD2    H2 1500   3.878   3.447  16.382 -2.9867  1.9862  0.2990
   96MPD2    H3 1501   3.940   3.445  16.640  0.3372  1.1059 -0.8477
   96MPD2     N 1502   3.632   3.145  16.739  0.0053  0.6903  0.5188
   96MPD2    H5 1503   3.636   3.177  16.835 -1.7235 -1.9881  1.4974
   96MPD2    N1 1504   3.703   3.288  16.274 -0.5013 -0.2863  0.2555
   96MPD2    H7 1505   3.769   3.326  16.207  2.1189 -1.3603  2.2534
   97TMC2    C1 1506   1.181   0.873  17.641 -0.1684  0.6038 -0.1660
   97TMC2    C2 1507   1.201   0.838  17.512  0.3255 -0.7357 -0.2434
   97TMC2    C3 1508   1.258   0.933  17.431 -0.4926 -0.1504 -0.3884
   97TMC2    C4 1509   1.229   0.986  17.706 -0.5175 -0.1115  0.1940
   97TMC2    C5 1510   1.278   1.079  17.620  0.7705  0.4199  0.1409
   97TMC2    C6 1511   1.307   1.054  17.487  0.3237 -0.3011 -0.6113
   97TMC2     C 1512   1.084   0.795  17.715 -0.3823  0.1229  0.0054
   97TMC2     O 1513   1.062   0.816   0.081  0.2979  1.3300  0.2260
   97TMC2     H 1514   1.167   0.744  17.469  0.8330  0.4329 -3.1935
   97TMC2    H1 1515   1.203   1.000   0.055  2.1448 -0.1857  0.8810
   97TMC2    H2 1516   1.343   1.138  17.429  2.0365 -1.0712 -0.6515
   97TMC2    C7 1517   1.304   1.212  17.674 -0.1080  0.5417 -0.3354
   97TMC2    C8 1518   1.285   0.890  17.297  0.0046  0.3872  0.6294
   97TMC2    O1 1519   1.359   1.211   0.031 -0.0423  0.5620  0.4484
   97TMC2    O2 1520   1.239   0.788  17.249  0.4720 -0.5425  0.1044
   97TMC2    O5 1521   1.404   0.937  17.256  0.6665  0.3906  0.1437
   97TMC2    H5 1522   1.456   0.987  17.322  1.2366  1.7804 -1.3667
   98MPD2     C 1523   0.749   0.409  17.718  0.4282 -0.2165 -0.1603
   98MPD2    C1 1524   0.829   0.469   0.061 -0.1350 -0.4042 -0.1733
   98MPD2    C2 1525   0.913   0.575   0.026  0.2540  0.3265  0.1676
   98MPD2    C3 1526   0.913   0.630  17.654 -0.6148 -0.1264  0.4516
   98MPD2    C4 1527   0.837   0.563  17.559 -0.2189  0.2706  0.1253
   98MPD2    C5 1528   0.755   0.459  17.589 -0.2504  0.0109  0.1638
   98MPD2     H 1529   0.981   0.618   0.099 -0.6159  0.7985  0.7028
   98MPD2    H1 1530   0.838   0.602  17.458  0.2097 -1.1232 -0.4062
   98MPD2    H2 1531   0.685   0.323  17.736 -2.2173  1.8653  0.3402
   98MPD2    H3 1532   0.695   0.415  17.511  0.9788  3.2002 -2.5622
   98MPD2     N 1533   0.999   0.739  17.625 -0.8158  0.0351  0.0160
   98MPD2    H5 1534   0.993   0.777  17.532  2.7983  2.4238  0.7774
   98MPD2    N1 1535   0.828   0.414   0.190 -0.3290 -0.1212  0.1173
   98MPD2    H7 1536   0.771   0.330   0.195 -1.8984  0.8910 -0.9205
   99TMC2    C1 1537   4.618   1.682   2.164  1.1027 -0.0457 -0.9440
   99TMC2    C2 1538   4.670   1.697   2.291 -0.0375  0.1135  0.3590
   99TMC2    C3 1539   4.582   1.735   2.387  0.2401 -0.0368  0.3439
   99TMC2    C4 1540   4.493   1.729   2.132  0.5653  0.3165 -0.0740
   99TMC2    C5 1541   4.414   1.760   2.236  1.0070  0.1349 -0.2128
   99TMC2    C6 1542   4.453   1.760   2.368  0.0421 -0.2290 -0.7695
   99TMC2     C 1543   4.703   1.612   2.066  0.0042 -0.0902 -0.5061
   99TMC2     O 1544   0.075   1.583   2.107  0.9308 -0.9740 -0.0584
   99TMC2     H 1545   0.035   1.677   2.313 -0.5067 -1.1167  1.4428
   99TMC2    H1 1546   4.462   1.748   2.030 -1.1629  1.3029  0.6344
   99TMC2    H2 1547   4.381   1.778   2.447  0.8120  0.1361 -0.1415
   99TMC2    C7 1548   4.284   1.822   2.214  0.3091  0.6467  0.7243
   99TMC2    C8 1549   4.654   1.738   2.521 -0.1837 -0.0904  0.5711
   99TMC2    O1 1550   4.236   1.882   2.310 -0.3256  0.5996  0.6725
   99TMC2    O2 1551   0.020   1.686   2.548 -0.4412 -0.1974  0.8015
   99TMC2    O5 1552   4.619   1.851   2.585 -0.6756 -0.5082  0.3003
   99TMC2    H5 1553   4.562   1.911   2.533  0.6894 -0.0502 -0.6814
  100MPD2     C 1554   0.100   1.505   1.815  0.6107 -0.1113 -0.4379
  100MPD2    C1 1555   4.711   1.548   1.829 -0.3191  0.0182 -0.0832
  100MPD2    C2 1556   4.638   1.551   1.714  0.4145 -0.2142 -0.1546
  100MPD2    C3 1557   4.692   1.515   1.593 -0.1165  0.4402 -0.1178
  100MPD2    C4 1558   0.087   1.479   1.585  1.1082 -0.3564 -0.0122
  100MPD2    C5 1559   0.158   1.472   1.699  0.6478 -0.7598 -0.3123
  100MPD2     H 1560   4.535   1.585   1.719 -0.0415 -1.6607  0.4627
  100MPD2    H1 1561   0.145   1.460   1.495 -0.9972 -0.5133 -1.3298
  100MPD2    H2 1562   0.162   1.503   1.904  0.3471  0.7259 -0.2385
  100MPD2    H3 1563   0.265   1.452   1.696  0.7138 -0.3145 -1.0567
  100MPD2     N 1564   4.610   1.525   1.475  0.6572  0.0136 -0.2778
  100MPD2    H5 1565   4.518   1.568   1.483 -0.3558 -2.3350  0.7410
  100MPD2    N1 1566   4.646   1.593   1.943  0.2058  0.4604 -0.2179
  100MPD2    H7 1567   4.552   1.629   1.936  0.5345  1.2151 -0.8356
  101TMC2    C1 1568   0.067   4.052  13.605  0.0461 -0.3765  0.4223
  101TMC2    C2 1569   0.114   4.064  13.732 -0.4423 -0.0048  0.0859
  101TMC2    C3 1570   0.214   4.150  13.760 -0.0174  0.2167  0.2385
  101TMC2    C4 1571   0.102   4.143  13.514  0.0500 -0.1779  0.7705
  101TMC2    C5 1572   0.190   4.246  13.546  0.5680 -0.6739  0.0744
  101TMC2    C6 1573   0.254   4.246  13.670  0.0755  0.1373  0.4410
  101TMC2     C 1574   4.717   3.948  13.568 -0.7400  0.2612  0.1525
  101TMC2     O 1575   4.645   3.912  13.659  0.0425 -0.3851 -0.0188
  101TMC2     H 1576   0.079   4.002  13.815 -0.1280 -2.5046 -1.6527
  101TMC2    H1 1577   0.054   4.150  13.417 -1.9841 -0.0498  1.7745
  101TMC2    H2 1578   0.346   4.301  13.680  0.3535 -0.1002 -0.7925
  101TMC2    C7 1579   0.209   4.363  13.461  1.0194  0.4027  0.6124
  101TMC2    C8 1580   0.283   4.151  13.892 -0.0333 -0.4685  0.2430
  101TMC2    O1 1581   0.318   4.423  13.471  0.0981  0.2774 -0.6251
  101TMC2    O2 1582   0.375   4.076  13.913 -0.1962  0.2989  0.1468
  101TMC2    O5 1583   0.190   4.185  13.983 -0.2142  0.9880  0.2925
  101TMC2    H5 1584   0.122   4.246  13.948 -2.6948 -2.0129 -0.0716
  102MPD2     C 1585   4.645   3.794  13.246  0.4348  0.4092  0.6321
  102MPD2    C1 1586   4.647   3.808  13.385 -0.4454  0.4876  0.4261
  102MPD2    C2 1587   4.563   3.725  13.457  0.4248 -0.0338  1.1911
  102MPD2    C3 1588   4.484   3.632  13.393  0.0575  0.1129  0.4422
  102MPD2    C4 1589   4.481   3.628  13.252  0.3489 -0.1119  0.1103
  102MPD2    C5 1590   4.565   3.701  13.186 -0.0529  0.2157  0.0167
  102MPD2     H 1591   4.551   3.731  13.565 -2.2125 -0.5172  0.9158
  102MPD2    H1 1592   4.423   3.559  13.191  0.7049 -1.5426  1.4010
  102MPD2    H2 1593   4.713   3.853  13.187 -1.1582 -0.6081 -2.2507
  102MPD2    H3 1594   4.571   3.686  13.079  2.0591 -0.0002  0.1811
  102MPD2     N 1595   4.406   3.548  13.480  0.3031 -0.0587  0.7365
  102MPD2    H5 1596   4.412   3.562  13.581  0.0662  1.1171  0.5874
  102MPD2    N1 1597   4.725   3.907  13.438  0.6251  0.4143 -0.5715
  102MPD2    H7 1598   0.062   3.945  13.382  1.0447 -0.7808 -0.7945
  103TMC2    C1 1599   2.068   3.834  12.512  0.3572 -0.1532 -0.2601
  103TMC2    C2 1600   2.125   3.889  12.404 -0.0596 -0.0963  0.0578
  103TMC2    C3 1601   2.260   3.872  12.390 -0.2040  0.4192  0.6456
  103TMC2    C4 1602   2.144   3.767  12.608  0.7008  0.2123 -0.7947
  103TMC2    C5 1603   2.278   3.761  12.590 -0.3172 -0.0661  0.7036
  103TMC2    C6 1604   2.345   3.818  12.489  0.2792 -0.3774 -0.5455
  103TMC2     C 1605   1.919   3.833  12.513  0.0033 -0.0682 -1.5093
  103TMC2     O 1606   1.855   3.903  12.433  0.3773 -0.5306 -0.4445
  103TMC2     H 1607   2.071   3.937  12.323  1.0573  0.5832 -0.2974
  103TMC2    H1 1608   2.101   3.716  12.693  0.3662  0.2074 -0.9686
  103TMC2    H2 1609   2.445   3.787  12.459  0.4469 -1.9579  1.6782
  103TMC2    C7 1610   2.345   3.749  12.718 -0.0862  0.5176 -0.1138
  103TMC2    C8 1611   2.313   3.894  12.265  0.2579 -0.1965 -0.1413
  103TMC2    O1 1612   2.283   3.711  12.816 -0.6060 -0.0664 -0.0801
  103TMC2    O2 1613   2.412   3.957  12.250  0.3370 -0.3799  0.2113
  103TMC2    O5 1614   2.229   3.831  12.185  0.8790 -0.2653  0.2068
  103TMC2    H5 1615   2.160   3.780  12.233  0.0601 -0.2683 -0.9536
  104MPD2     C 1616   1.729   3.743  12.816 -0.1163  0.5483  0.6069
  104MPD2    C1 1617   1.743   3.792  12.687  0.2959 -0.1965 -0.3461
  104MPD2    C2 1618   1.635   3.837  12.620  0.3198  0.3024  0.5177
  104MPD2    C3 1619   1.508   3.841  12.688  0.9669 -0.3725  0.6925
  104MPD2    C4 1620   1.498   3.792  12.814 -0.5963  0.4224  0.2041
  104MPD2    C5 1621   1.603   3.742  12.876  0.3223  0.4566  0.0649
  104MPD2     H 1622   1.635   3.875  12.519 -0.5448  1.3480  0.9089
  104MPD2    H1 1623   1.402   3.780  12.864 -0.6413  2.1577  0.5622
  104MPD2    H2 1624   1.807   3.702  12.878  0.1771  0.8450  0.4331
  104MPD2    H3 1625   1.594   3.706  12.978  0.5873  2.7665  0.8931
  104MPD2     N 1626   1.402   3.903  12.616  0.2576 -0.0116  0.3038
  104MPD2    H5 1627   1.415   3.922  12.517  1.6226 -2.2747  0.0606
  104MPD2    N1 1628   1.869   3.782  12.629 -0.0181 -0.4009  0.0814
  104MPD2    H7 1629   1.930   3.737  12.696 -2.2495 -1.3076  1.4984
  105TMC2    C1 1630   4.565   2.288   0.884  0.3134 -0.2236  0.1653
  105TMC2    C2 1631   4.583   2.156   0.918  0.1144  0.1853  0.7543
  105TMC2    C3 1632   4.475   2.100   0.970 -0.2701  0.3256 -0.5057
  105TMC2    C4 1633   4.447   2.363   0.896  0.4532 -0.7883  0.3577
  105TMC2    C5 1634   4.340   2.294   0.954  0.4400 -0.3810 -0.3180
  105TMC2    C6 1635   4.353   2.166   0.992 -0.0409 -0.2870 -0.7148
  105TMC2     C 1636   4.687   2.356   0.838  0.4949  0.3981  0.1600
  105TMC2     O 1637   0.052   2.288   0.847 -0.2125  0.0541  0.7221
  105TMC2     H 1638   4.672   2.096   0.904 -0.3748  0.1648 -2.3013
  105TMC2    H1 1639   4.441   2.470   0.883  4.4616 -0.5301  0.6619
  105TMC2    H2 1640   4.271   2.110   1.035  1.3073 -1.2895  0.5495
  105TMC2    C7 1641   4.203   2.343   0.964  0.1266  0.0900 -0.2204
  105TMC2    C8 1642   4.482   1.987   1.052 -0.2320  0.6530  0.2983
  105TMC2    O1 1643   4.122   2.257   0.981  0.2787 -0.0168  0.2246
  105TMC2    O2 1644   4.426   1.994   1.160 -0.4343 -0.1755 -0.2852
  105TMC2    O5 1645   4.598   1.921   1.035 -0.0577  0.7231 -0.2945
  105TMC2    H5 1646   4.621   1.911   0.940 -0.5075 -0.7373 -0.2588
  106MPD2     C 1647   0.199   2.651   0.514 -0.0979  0.0440  0.1116
  106MPD2    C1 1648   0.067   2.647   0.473 -0.1894 -0.5935  0.1813
  106MPD2    C2 1649   4.713   2.581   0.548  0.1546 -0.4145  0.4613
  106MPD2    C3 1650   0.014   2.501   0.657  0.0215 -0.2610  0.2074
  106MPD2    C4 1651   0.152   2.498   0.689  0.1058 -0.7710  0.4055
  106MPD2    C5 1652   0.241   2.565   0.605  0.1162 -0.5241  0.3761
  106MPD2     H 1653   4.611   2.579   0.511 -0.0180  0.9754  0.8582
  106MPD2    H1 1654   0.192   2.445   0.774  0.3832 -0.5090  0.4402
  106MPD2    H2 1655   0.273   2.710   0.461 -0.2806  0.0698 -0.1151
  106MPD2    H3 1656   0.344   2.557   0.639  1.7369  1.2916 -4.0707
  106MPD2     N 1657   4.655   2.438   0.735  0.0368  0.1344 -0.0885
  106MPD2    H5 1658   4.560   2.464   0.710 -0.4103 -0.1985  1.2449
  106MPD2    N1 1659   0.020   2.733   0.374 -0.2609  0.8608 -0.4304
  106MPD2    H7 1660   4.658   2.733   0.374 -0.2812 -1.6467  0.5092
  107TMC2    C1 1661   4.441   2.950  11.950  0.5395 -0.5128  0.0959
  107TMC2    C2 1662   4.488   3.066  11.903 -0.9006  0.1186 -0.3252
  107TMC2    C3 1663   4.568   3.057  11.795  0.6237  0.4166  0.5435
  107TMC2    C4 1664   4.465   2.832  11.885  0.6811  0.3793 -0.4250
  107TMC2    C5 1665   4.535   2.827  11.768  0.0323  0.4338 -0.6780
  107TMC2    C6 1666   4.588   2.948  11.716 -0.4014  0.1074  0.5663
  107TMC2     C 1667   4.345   2.949  12.065  0.5724 -0.5439 -0.0871
  107TMC2     O 1668   4.329   2.836  12.119 -0.9707  0.4695 -0.1582
  107TMC2     H 1669   4.456   3.161  11.943 -0.1644  0.2509 -0.0587
  107TMC2    H1 1670   4.420   2.742  11.925 -0.7767  2.9025  3.6480
  107TMC2    H2 1671   4.646   2.952  11.624  0.4330  0.6571  1.1196
  107TMC2    C7 1672   4.470   2.749  11.664  0.1198 -0.1751 -0.0385
  107TMC2    C8 1673   4.618   3.189  11.758  0.2550 -0.3882  0.0305
  107TMC2    O1 1674   4.357   2.705  11.688 -0.1476 -0.1429  0.4157
  107TMC2    O2 1675   4.635   3.280  11.840  0.0573 -0.1878 -0.0387
  107TMC2    O5 1676   4.623   3.200  11.624  0.1615 -0.4203 -0.3983
  107TMC2    H5 1677   4.607   3.120  11.571 -0.8297  0.2623 -1.1167
  108MPD2     C 1678   4.159   3.214  12.214 -0.2916  0.2395 -0.2865
  108MPD2    C1 1679   4.217   3.091  12.209 -0.1438  0.2750 -1.0227
  108MPD2    C2 1680   4.177   2.998  12.302 -0.4843 -0.4862  0.9904
  108MPD2    C3 1681   4.105   3.039  12.417  0.7721  0.3541 -0.4043
  108MPD2    C4 1682   4.053   3.164  12.416  0.4361 -0.3245 -0.4849
  108MPD2    C5 1683   4.078   3.252  12.313 -0.5022 -0.0779 -0.5721
  108MPD2     H 1684   4.213   2.896  12.295  0.2547 -0.2006  0.6967
  108MPD2    H1 1685   3.991   3.203  12.496 -1.1886 -0.9552 -1.4413
  108MPD2    H2 1686   4.180   3.287  12.137  1.7650 -2.2024 -2.0067
  108MPD2    H3 1687   4.035   3.351  12.317 -0.7740 -0.2088 -0.2238
  108MPD2     N 1688   4.056   2.955  12.521 -0.4730 -0.1683  0.1983
  108MPD2    H5 1689   3.994   2.997  12.589 -0.4998  1.5343 -0.9001
  108MPD2    N1 1690   4.304   3.072  12.103  0.5603 -0.2757  0.0816
  108MPD2    H7 1691   4.329   3.148  12.040  2.3005 -1.6956 -0.9292
  109TMC2    C1 1692   0.104   4.220   0.640  0.2814 -0.9751 -0.8095
  109TMC2    C2 1693   0.106   4.128   0.542  0.1133 -0.2150  0.7636
  109TMC2    C3 1694   0.222   4.091   0.478 -0.7097  0.4418 -0.5951
  109TMC2    C4 1695   0.218   4.294   0.662 -0.0105 -0.5743 -0.0215
  109TMC2    C5 1696   0.327   4.266   0.585  0.1338  0.1624  0.1044
  109TMC2    C6 1697   0.333   4.165   0.491  0.2204  0.1905  0.3123
  109TMC2     C 1698   4.714   4.284   0.676 -0.9760  0.0883  0.2278
  109TMC2     O 1699   4.636   4.284   0.583 -0.5441 -0.1626 -0.0938
  109TMC2     H 1700   0.009   4.096   0.504  0.7943 -2.0779  0.5792
  109TMC2    H1 1701   0.207   4.391   0.709  0.6110  0.1018 -1.2911
  109TMC2    H2 1702   0.426   4.135   0.445 -0.6436 -0.4196 -1.0635
  109TMC2    C7 1703   0.444   4.356   0.600  0.2517  0.4247 -0.1315
  109TMC2    C8 1704   0.215   3.997   0.370  0.2988  0.0788  0.1137
  109TMC2    O1 1705   0.538   4.351   0.523 -0.0782  0.3247 -0.4786
  109TMC2    O2 1706   0.300   4.015   0.281  0.1256  0.1042  0.0121
  109TMC2    O5 1707   0.120   3.905   0.374  0.2814 -0.2076  0.6896
  109TMC2    H5 1708   0.068   3.896   0.457 -0.4993 -1.7295  0.0191
  110MPD2     C 1709   4.452   4.664   0.896  0.1236 -0.4213 -0.4681
  110MPD2    C1 1710   4.552   4.625   0.981  0.1106 -0.5343  0.0682
  110MPD2    C2 1711   4.643   4.533   0.934 -0.2663  0.1460  0.1680
  110MPD2    C3 1712   4.623   4.467   0.815 -0.5872 -0.1559 -0.7201
  110MPD2    C4 1713   4.513   4.492   0.744  0.7423 -0.6481 -0.8903
  110MPD2    C5 1714   4.432   4.594   0.778 -0.3921  0.2848 -0.4056
  110MPD2     H 1715   4.727   4.500   0.993 -0.2710  0.1113  0.1553
  110MPD2    H1 1716   4.500   4.456   0.643 -0.4265 -0.5005 -0.7859
  110MPD2    H2 1717   4.380   0.004   0.911 -0.8223 -0.7111 -3.4685
  110MPD2    H3 1718   4.345   4.623   0.721 -0.2987  1.3202 -0.0217
  110MPD2     N 1719   4.721   4.368   0.782  0.0351  0.2007  0.1437
  110MPD2    H5 1720   0.062   4.369   0.844 -0.2681 -0.6068  0.5541
  110MPD2    N1 1721   4.568   4.693   1.107 -0.5756 -0.1137 -0.1728
  110MPD2    H7 1722   4.488   0.011   1.132 -1.3899 -1.2168 -0.2215
  111TMC2    C1 1723   4.066   0.226  12.636  0.7574  0.5080 -0.2885
  111TMC2    C2 1724   3.984   0.277  12.739  0.0714 -0.1315  0.5475
  111TMC2    C3 1725   4.040   0.283  12.866  0.0842 -0.6744  0.1145
  111TMC2    C4 1726   4.197   0.203  12.661 -0.2402  0.4262  0.3086
  111TMC2    C5 1727   4.252   0.223  12.785 -0.0376 -0.2450 -0.6070
  111TMC2    C6 1728   4.178   0.274  12.889 -0.2487  0.0513 -0.1950
  111TMC2     C 1729   4.047   0.268  12.502 -0.2057  0.6084 -0.1922
  111TMC2     O 1730   4.155   0.308  12.455 -0.4331 -0.0789  0.3270
  111TMC2     H 1731   3.880   0.294  12.715 -0.0595 -1.3000  0.3094
  111TMC2    H1 1732   4.246   0.148  12.581 -0.3469 -1.7778  1.7732
  111TMC2    H2 1733   4.226   0.311  12.979 -0.4942 -2.9201  1.1551
  111TMC2    C7 1734   4.393   0.241  12.779  0.0037  0.5420 -0.5939
  111TMC2    C8 1735   3.969   0.372  12.953  0.3637  0.1327  0.0390
  111TMC2    O1 1736   4.443   0.278  12.884  0.0464 -0.1272 -0.1400
  111TMC2    O2 1737   3.868   0.440  12.921 -1.0822  0.3061 -0.1231
  111TMC2    O5 1738   4.008   0.353  13.077 -0.1066  0.3087 -0.2660
  111TMC2    H5 1739   4.062   0.271  13.085  0.1264  0.3534 -1.4260
  112MPD2     C 1740   3.773   0.367  12.097 -0.3792  0.8459 -0.6238
  112MPD2    C1 1741   3.910   0.345  12.097  0.5701  0.3944  0.9895
  112MPD2    C2 1742   3.964   0.305  12.220 -0.2710 -0.1214  0.4928
  112MPD2    C3 1743   3.876   0.268  12.322 -0.4912 -0.1051 -0.2226
  112MPD2    C4 1744   3.741   0.280  12.317  0.5482 -0.0870 -1.1560
  112MPD2    C5 1745   3.695   0.341  12.203 -0.0511  0.2264  0.3762
  112MPD2     H 1746   4.071   0.294  12.231  0.0388  2.1668 -0.3485
  112MPD2    H1 1747   3.679   0.262  12.403  0.2497  0.6901 -1.2034
  112MPD2    H2 1748   3.728   0.411  12.009  0.3387 -0.5411 -1.6710
  112MPD2    H3 1749   3.588   0.344  12.187 -0.3730 -0.7958  2.3011
  112MPD2     N 1750   3.924   0.234  12.447 -0.0472  0.3611 -0.4169
  112MPD2    H5 1751   3.857   0.186  12.506  2.0535 -1.3490  0.6014
  112MPD2    N1 1752   3.987   0.361  11.974  0.2393  0.2950  0.0337
  112MPD2    H7 1753   3.935   0.388  11.891  1.6134  0.1260 -0.8851
  113TMC2    C1 1754   2.694   2.325   1.152 -0.0538  1.0181  0.0051
  113TMC2    C2 1755   2.573   2.336   1.208 -0.2502 -0.0135 -0.1300
  113TMC2    C3 1756   2.541   2.245   1.299  0.6347 -0.1795  0.5369
  113TMC2    C4 1757   2.784   2.225   1.189 -0.6590  0.2203 -0.4649
  113TMC2    C5 1758   2.754   2.140   1.294 -0.1819  0.4855  0.2818
  113TMC2    C6 1759   2.624   2.148   1.344  0.4618 -0.1825 -0.3040
  113TMC2     C 1760   2.741   2.427   1.057 -0.0614  0.1352 -0.0837
  113TMC2     O 1761   2.685   2.538   1.058  0.1767  0.4520 -0.2566
  113TMC2     H 1762   2.499   2.405   1.168  1.9618  0.0707 -4.1007
  113TMC2    H1 1763   2.890   2.234   1.167  0.0044  0.2433  2.6906
  113TMC2    H2 1764   2.604   2.098   1.438  2.9475 -0.4032  0.1052
  113TMC2    C7 1765   2.850   2.038   1.344 -0.0276 -0.3050  0.5005
  113TMC2    C8 1766   2.413   2.259   1.373  0.5360  0.0366  0.1625
  113TMC2    O1 1767   2.963   2.056   1.310  0.3169  0.4766 -0.7868
  113TMC2    O2 1768   2.357   2.163   1.427  0.1978 -0.1964  0.3134
  113TMC2    O5 1769   2.366   2.385   1.352 -0.3554  0.3377 -0.0360
  113TMC2    H5 1770   2.438   2.445   1.325 -0.9182  0.4903 -1.1881
  114MPD2     C 1771   3.123   2.586   0.738 -0.2796 -0.1125  0.6978
  114MPD2    C1 1772   3.020   2.653   0.802  0.7632  0.6825  0.2860
  114MPD2    C2 1773   2.917   2.591   0.870  0.1707 -0.2999 -0.7588
  114MPD2    C3 1774   2.930   2.453   0.896  0.0310  0.5318  0.1338
  114MPD2    C4 1775   3.031   2.382   0.838  0.0147  0.2532  0.5073
  114MPD2    C5 1776   3.123   2.449   0.753  0.4028  0.7891  0.2900
  114MPD2     H 1777   2.845   2.649   0.926  2.0890  0.3104  1.1038
  114MPD2    H1 1778   3.035   2.274   0.847  1.5431  0.0840 -2.1000
  114MPD2    H2 1779   3.199   2.638   0.680 -0.0434 -0.4555  0.7017
  114MPD2    H3 1780   3.201   2.400   0.696  0.2403 -0.9939  1.6002
  114MPD2     N 1781   2.849   2.380   0.984 -0.1823 -0.3598  0.3374
  114MPD2    H5 1782   2.876   2.284   1.001  1.1450  0.2318  1.6121
  114MPD2    N1 1783   3.011   2.790   0.804  0.0167  0.2523 -0.5929
  114MPD2    H7 1784   2.930   2.825   0.854  0.0918  2.8028 -2.2193
  115TMC2    C1 1785   4.290   0.105   0.080 -0.2871  0.5152  0.2957
  115TMC2    C2 1786   4.331   0.034   0.191 -0.0902  0.1752  0.1551
  115TMC2    C3 1787   4.400   0.094   0.290 -0.2830  0.4741 -0.2389
  115TMC2    C4 1788   4.327   0.236   0.062 -0.0895 -0.9484  0.2134
  115TMC2    C5 1789   4.414   0.289   0.156 -0.0015 -0.3256 -0.9483
  115TMC2    C6 1790   4.446   0.219   0.269  0.0736  0.5627 -0.0985
  115TMC2     C 1791   4.202   0.031  17.750  0.1267  0.4859 -0.2029
  115TMC2     O 1792   4.208   4.649   0.002 -0.3898 -0.5695  0.4311
  115TMC2     H 1793   4.313   4.666   0.193  0.7734  0.0391  0.8585
  115TMC2    H1 1794   4.311   0.283  17.721 -1.4793 -2.4167 -0.2751
  115TMC2    H2 1795   4.519   0.252   0.342 -3.2950  0.4427  3.3407
  115TMC2    C7 1796   4.447   0.423   0.160 -0.2229 -0.6131 -0.0954
  115TMC2    C8 1797   4.479   0.005   0.383 -0.5024  0.2669  0.0576
  115TMC2    O1 1798   4.475   0.467   0.271  0.6806 -0.6642  0.0876
  115TMC2    O2 1799   4.580   0.043   0.433  0.2145  0.4090  0.1563
  115TMC2    O5 1800   4.405   4.636   0.417  0.8526  0.6574 -0.0045
  115TMC2    H5 1801   4.322   4.624   0.367  2.0498  2.8851 -2.5388
  116MPD2     C 1802   3.746   4.707  17.515 -0.1963 -0.3904  0.7900
  116MPD2    C1 1803   3.840   4.613  17.542  0.5722  0.1866 -0.3240
  116MPD2    C2 1804   3.960   4.657  17.603  0.5814  0.8175  0.7401
  116MPD2    C3 1805   3.983   0.051  17.634  0.1292  0.1032  0.3975
  116MPD2    C4 1806   3.892   0.145  17.595  0.3103  0.6744  0.1198
  116MPD2    C5 1807   3.773   0.100  17.546  0.1954 -0.6420  1.0619
  116MPD2     H 1808   4.022   4.575  17.640 -1.2323 -1.4051 -1.1636
  116MPD2    H1 1809   3.916   0.250  17.611  2.5027  0.3323 -0.9049
  116MPD2    H2 1810   3.655   4.683  17.463 -0.3104 -0.7315  1.1468
  116MPD2    H3 1811   3.695   0.170  17.519  1.8963  0.8349 -0.0174
  116MPD2     N 1812   4.105   0.107  17.682  0.3581 -0.4037 -0.6813
  116MPD2    H5 1813   4.110   0.208  17.693  0.8431 -0.3787 -1.1376
  116MPD2    N1 1814   3.811   4.475  17.507 -0.6620  0.1160 -0.5756
  116MPD2    H7 1815   3.713   4.454  17.490 -0.4827 -1.3336  0.1312
  117TMC2    C1 1816   2.063   1.843  14.465 -0.1537  0.1558 -0.2075
  117TMC2    C2 1817   2.138   1.754  14.531 -0.1486  0.1054 -0.0820
  117TMC2    C3 1818   2.255   1.804  14.582  0.3342  0.3740  0.8453
  117TMC2    C4 1819   2.121   1.962  14.414  0.2770  0.4790  0.6501
  117TMC2    C5 1820   2.244   2.000  14.459 -0.0843 -0.4898  0.2941
  117TMC2    C6 1821   2.303   1.927  14.559 -0.3241 -0.1661 -0.0277
  117TMC2     C 1822   1.936   1.794  14.430 -0.7142 -0.2220  0.1515
  117TMC2     O 1823   1.928   1.674  14.434 -0.3310 -0.1016  0.1613
  117TMC2     H 1824   2.101   1.664  14.578  2.7649  0.5996  3.2282
  117TMC2    H1 1825   2.052   2.029  14.365 -0.5899  0.8336  2.3799
  117TMC2    H2 1826   2.385   1.974  14.613 -0.3068 -0.0193 -0.1825
  117TMC2    C7 1827   2.312   2.114  14.402  1.1076  0.8106  0.5035
  117TMC2    C8 1828   2.277   1.763  14.717  0.7616  0.2239  0.2303
  117TMC2    O1 1829   2.429   2.130  14.432  0.4106  0.3970 -0.0557
  117TMC2    O2 1830   2.194   1.787  14.807  0.0837 -0.9923 -0.5628
  117TMC2    O5 1831   2.406   1.769  14.736 -0.3136 -0.1236 -0.0443
  117TMC2    H5 1832   2.459   1.736  14.661 -0.0214  1.2203 -0.4238
  118MPD2     C 1833   2.187   2.347  14.161  0.4114  0.2730  0.3749
  118MPD2    C1 1834   2.261   2.310  14.268  0.3228  0.8209  0.3115
  118MPD2    C2 1835   2.362   2.395  14.314 -0.4593 -0.2138  0.4553
  118MPD2    C3 1836   2.377   2.517  14.252 -0.1262  0.6139 -0.8923
  118MPD2    C4 1837   2.293   2.554  14.148 -0.0677 -0.2885 -0.2560
  118MPD2    C5 1838   2.207   2.465  14.101  0.1878 -0.5268 -0.1453
  118MPD2     H 1839   2.437   2.376  14.390  1.8768  0.4023 -1.7223
  118MPD2    H1 1840   2.303   2.648  14.095 -0.1702 -0.6696 -0.9515
  118MPD2    H2 1841   2.115   2.279  14.118  0.8738  1.6073 -2.4862
  118MPD2    H3 1842   2.148   2.475  14.011 -0.8874  2.3300  0.8608
  118MPD2     N 1843   2.485   2.607  14.273 -0.3410  0.5101 -0.2244
  118MPD2    H5 1844   2.486   2.691  14.216 -1.1072  0.8613  0.2813
  118MPD2    N1 1845   2.225   2.188  14.318 -0.8587  0.2133  0.0875
  118MPD2    H7 1846   2.137   2.152  14.283 -0.3459 -1.7745  0.8022
  119TMC2    C1 1847   0.649   3.633  13.512 -0.5591  0.3961 -0.9361
  119TMC2    C2 1848   0.620   3.741  13.432 -0.3440 -0.3003  0.8603
  119TMC2    C3 1849   0.562   3.730  13.308 -0.0343 -0.5072  0.5685
  119TMC2    C4 1850   0.618   3.512  13.462 -0.0032  0.2335  0.5503
  119TMC2    C5 1851   0.558   3.508  13.340  0.5840  0.6351 -1.0357
  119TMC2    C6 1852   0.522   3.613  13.259  0.0518 -0.0956  1.2849
  119TMC2     C 1853   0.677   3.636  13.646  0.1277 -0.6075 -0.2385
  119TMC2     O 1854   0.605   3.567  13.716  0.0377 -0.3818 -0.1024
  119TMC2     H 1855   0.653   3.841  13.458 -2.4362  0.7399 -0.4396
  119TMC2    H1 1856   0.651   3.419  13.507  3.2962  1.2619  0.2808
  119TMC2    H2 1857   0.459   3.608  13.171  0.1315 -0.2539  1.2359
  119TMC2    C7 1858   0.477   3.386  13.314 -0.3499 -0.4499 -0.2775
  119TMC2    C8 1859   0.533   3.847  13.223  0.2286  0.5186 -0.7171
  119TMC2    O1 1860   0.447   3.366  13.192 -0.1366  0.2548  0.5746
  119TMC2    O2 1861   0.433   3.870  13.160 -0.6040 -0.0229 -0.4291
  119TMC2    O5 1862   0.651   3.909  13.205 -0.1352 -0.0306  0.1080
  119TMC2    H5 1863   0.726   3.861  13.248  0.0166  1.6597  1.7171
  120MPD2     C 1864   0.806   3.867  14.070 -0.3827  0.4435 -0.4806
  120MPD2    C1 1865   0.802   3.727  14.044  0.1267  0.1409 -0.3826
  120MPD2    C2 1866   0.775   3.694  13.911 -0.5387  0.4211 -0.6947
  120MPD2    C3 1867   0.772   3.792  13.816  0.1853  0.2438  0.1312
  120MPD2    C4 1868   0.797   3.931  13.848 -0.1377 -0.3601 -0.2434
  120MPD2    C5 1869   0.809   3.968  13.978  0.8298 -0.2483 -0.6591
  120MPD2     H 1870   0.775   3.591  13.880  0.8373 -0.6213  2.7566
  120MPD2    H1 1871   0.795   4.010  13.773 -1.5453  1.0957  1.3401
  120MPD2    H2 1872   0.797   3.902  14.172 -1.2157 -0.9170 -0.0874
  120MPD2    H3 1873   0.812   4.070  14.017 -0.6003 -0.4578  0.0231
  120MPD2     N 1874   0.739   3.751  13.687  0.4058  0.2347  0.1491
  120MPD2    H5 1875   0.760   3.820  13.615  2.3075 -1.6210 -1.0720
  120MPD2    N1 1876   0.790   3.632  14.151 -0.0619  0.1169 -0.2262
  120MPD2    H7 1877   0.765   3.663  14.244 -0.1855 -1.6226  0.3061
  121TMC2    C1 1878   1.689   4.533  14.311  0.2558  0.0023  0.1616
  121TMC2    C2 1879   1.747   4.657  14.311  0.0759  0.0395 -0.2639
  121TMC2    C3 1880   1.682   0.024  14.357  0.2389  0.7759 -0.8776
  121TMC2    C4 1881   1.569   4.507  14.360  0.4375  0.0405  0.2823
  121TMC2    C5 1882   1.506   4.620  14.407 -0.2042 -0.1624  0.4025
  121TMC2    C6 1883   1.558   0.008  14.402  0.7692 -0.2934 -0.1461
  121TMC2     C 1884   1.734   4.435  14.221  0.0960 -0.2260  0.3538
  121TMC2     O 1885   1.725   4.318  14.254 -0.0036 -0.7773  0.4925
  121TMC2     H 1886   1.840   4.679  14.262  0.0653  0.4523 -0.0980
  121TMC2    H1 1887   1.524   4.415  14.324 -0.9510  0.0310  1.9965
  121TMC2    H2 1888   1.500   0.094  14.434  0.2800 -0.2406 -1.1496
  121TMC2    C7 1889   1.362   4.607  14.434 -0.2699  0.0943 -0.4243
  121TMC2    C8 1890   1.753   0.149  14.359  0.4107  0.0054  0.1338
  121TMC2    O1 1891   1.320   4.504  14.492 -0.1814 -0.2376  0.0802
  121TMC2    O2 1892   1.842   0.175  14.276  0.0240  0.6609  0.6083
  121TMC2    O5 1893   1.711   0.224  14.466 -0.1482  0.3311 -0.2443
  121TMC2    H5 1894   1.642   0.187  14.524 -0.4464  1.2547 -0.0226
  122MPD2     C 1895   1.822   4.282  13.975  0.2203 -0.5776  0.0642
  122MPD2    C1 1896   1.815   4.416  13.988  0.3320  0.6097 -0.1605
  122MPD2    C2 1897   1.852   4.490  13.877  0.1771 -0.0145 -0.5922
  122MPD2    C3 1898   1.875   4.432  13.755 -0.0198  0.6772  0.1764
  122MPD2    C4 1899   1.898   4.296  13.749 -0.2309  0.8947  0.2954
  122MPD2    C5 1900   1.861   4.221  13.858  0.1769 -0.1640  0.1658
  122MPD2     H 1901   1.840   4.598  13.884  2.6125  0.2662 -0.6449
  122MPD2    H1 1902   1.908   4.234  13.660 -1.0946  1.1204  0.0407
  122MPD2    H2 1903   1.780   4.212  14.046 -0.3524 -0.4140 -0.1162
  122MPD2    H3 1904   1.837   4.118  13.835 -0.0064  0.6084 -3.0831
  122MPD2     N 1905   1.891   4.506  13.637  0.2828  0.0126  0.0366
  122MPD2    H5 1906   1.921   4.451  13.557  0.1996 -0.3560  0.2546
  122MPD2    N1 1907   1.774   4.490  14.103 -0.3486 -0.2260  0.9004
  122MPD2    H7 1908   1.774   4.588  14.079 -2.9643 -0.4027  0.2867
  123TMC2    C1 1909   0.327   3.943  10.718 -0.4717  0.1408 -0.1032
  123TMC2    C2 1910   0.443   4.009  10.718  0.7775 -0.2571 -0.1441
  123TMC2    C3 1911   0.551   3.965  10.654  0.8004 -0.8748  0.1221
  123TMC2    C4 1912   0.315   3.824  10.651  0.8842 -0.0046 -0.1973
  123TMC2    C5 1913   0.427   3.781  10.588 -0.4480  0.1278 -0.2203
  123TMC2    C6 1914   0.547   3.847  10.580  0.5443  0.2417  0.4539
  123TMC2     C 1915   0.224   3.983  10.813  0.5183 -0.3550  0.1971
  123TMC2     O 1916   0.218   4.096  10.857 -0.2587 -0.2095 -0.0843
  123TMC2     H 1917   0.441   4.087  10.793  0.6668 -0.4184  0.0225
  123TMC2    H1 1918   0.218   3.775  10.647  1.2087 -0.9248  3.3489
  123TMC2    H2 1919   0.632   3.807  10.526 -1.0772  0.0563 -1.9777
  123TMC2    C7 1920   0.407   3.648  10.523 -0.0586 -0.2674 -0.2536
  123TMC2    C8 1921   0.671   4.025  10.701 -0.0969 -0.1068 -0.2179
  123TMC2    O1 1922   0.294   3.606  10.501  0.1680  0.3183  0.0759
  123TMC2    O2 1923   0.678   4.131  10.763  0.3378  0.4322 -0.7207
  123TMC2    O5 1924   0.759   3.921  10.715  0.1729 -0.2218  0.6068
  123TMC2    H5 1925   0.732   3.839  10.669 -1.0226  0.6434 -0.2278
  124MPD2     C 1926   4.549   3.876  11.077  0.1405  0.2422  0.3249
  124MPD2    C1 1927   4.602   3.757  11.038 -0.2959  0.0611  0.4895
  124MPD2    C2 1928   4.711   3.759  10.959  0.5110  0.0858 -0.3211
  124MPD2    C3 1929   0.036   3.878  10.922 -0.1466  0.1943  0.1932
  124MPD2    C4 1930   4.720   3.994  10.966  0.7424 -0.3877 -0.0711
  124MPD2    C5 1931   4.608   3.991  11.040 -0.0650 -0.2895  0.2033
  124MPD2     H 1932   0.011   3.663  10.926 -2.9327 -1.9606  1.5015
  124MPD2    H1 1933   0.025   4.092  10.955 -1.3655  0.6424  0.5658
  124MPD2    H2 1934   4.476   3.882  11.158  2.4918  0.3597  2.4435
  124MPD2    H3 1935   4.568   4.087  11.069  1.1420  0.3518 -0.2229
  124MPD2     N 1936   0.152   3.870  10.841  0.6510 -0.1890  0.2262
  124MPD2    H5 1937   0.177   3.776  10.812  1.3343 -0.3203  1.2616
  124MPD2    N1 1938   4.562   3.642  11.106  0.7482 -0.0330 -0.4261
  124MPD2    H7 1939   4.494   3.647  11.180 -0.9165  1.6151 -2.0614
  125TMC2    C1 1940   1.800   0.447   9.178  0.3521 -0.3306 -0.2745
  125TMC2    C2 1941   1.716   0.451   9.069  0.2430  0.0010 -0.4503
  125TMC2    C3 1942   1.656   0.572   9.041  0.0943 -0.3975  0.1156
  125TMC2    C4 1943   1.819   0.554   9.262  0.7360 -0.1580  0.4769
  125TMC2    C5 1944   1.752   0.669   9.237 -0.0233 -0.1800  0.3093
  125TMC2    C6 1945   1.666   0.674   9.131  0.3179 -0.2575  0.3372
  125TMC2     C 1946   1.901   0.341   9.167 -0.3408  0.0631  0.7384
  125TMC2     O 1947   1.898   0.263   9.072  0.1098 -0.2059  0.1893
  125TMC2     H 1948   1.707   0.362   9.008 -0.6574 -0.2810  0.0962
  125TMC2    H1 1949   1.871   0.544   9.357  2.3440  2.6779 -0.0912
  125TMC2    H2 1950   1.629   0.770   9.097  1.5875  0.1499  0.1141
  125TMC2    C7 1951   1.762   0.784   9.319 -0.4423 -0.4147  0.4862
  125TMC2    C8 1952   1.576   0.592   8.924  0.6127 -0.3153 -0.5662
  125TMC2    O1 1953   1.685   0.875   9.297 -0.2126  0.1125 -0.4145
  125TMC2    O2 1954   1.535   0.695   8.873  0.3868  0.1353 -0.1396
  125TMC2    O5 1955   1.520   0.471   8.903 -0.4650  0.2539 -0.4130
  125TMC2    H5 1956   1.550   0.406   8.969  1.9525 -0.4856 -2.2673
  126MPD1     C 1957   2.274   0.027   9.352  0.3165  0.1936  0.1705
  126MPD1    C1 1958   2.263   0.142   9.433 -0.6660 -0.3371  0.4372
  126MPD1    C2 1959   2.180   0.239   9.397 -0.1696 -0.0035 -0.2285
  126MPD1    C3 1960   2.100   0.233   9.286  0.4332  0.2457  0.0300
  126MPD1    C4 1961   2.111   0.125   9.202 -0.3683  0.1966  0.3812
  126MPD1    C5 1962   2.197   0.015   9.240 -0.6556 -0.3689 -0.4781
  126MPD1     H 1963   2.181   0.334   9.450 -0.4994 -1.1028  1.7433
  126MPD1    H1 1964   2.051   0.106   9.114 -0.6310 -1.1877  0.8599
  126MPD1    H2 1965   2.343   4.689   9.385  1.5190  2.1524  2.1966
  126MPD1    H3 1966   2.207   4.662   9.183 -0.2269  0.8575 -2.4158
  126MPD1     N 1967   1.997   0.335   9.270 -0.1147 -0.2744  0.6589
  126MPD1    H5 1968   2.002   0.410   9.338  1.1409  1.3021 -1.1706
  126MPD1    N1 1969   2.361   0.169   9.531 -1.1181  0.0119 -0.2073
  126MPD1    H6 1970   2.397   0.084   9.575 -0.7261 -0.0304 -0.5989
  126MPD1    H7 1971   2.338   0.238   9.601  0.5964 -0.3648  0.7231
  127TMC2    C1 1972   1.945   4.078  10.019  0.8965  0.2570 -0.4790
  127TMC2    C2 1973   1.994   3.947  10.034  0.1702  0.0817 -0.4229
  127TMC2    C3 1974   1.913   3.843  10.057  0.0981  0.1444  0.4408
  127TMC2    C4 1975   1.817   4.108  10.044  0.3637  0.3377  0.4385
  127TMC2    C5 1976   1.728   3.997  10.056 -0.2602  0.2417 -0.0554
  127TMC2    C6 1977   1.780   3.872  10.075 -0.0277 -0.1052 -0.1974
  127TMC2     C 1978   2.037   4.183   9.997  0.5725 -0.2142 -0.6335
  127TMC2     O 1979   2.154   4.158  10.024 -0.1710  0.4688  0.2751
  127TMC2     H 1980   2.099   3.925  10.024  0.1058  0.4916 -2.0224
  127TMC2    H1 1981   1.772   4.207  10.042 -0.5365 -0.0813  0.0940
  127TMC2    H2 1982   1.726   3.778  10.086  1.9382 -1.1379  0.6314
  127TMC2    C7 1983   1.587   4.034  10.070  0.0930 -1.0857  0.7800
  127TMC2    C8 1984   1.966   3.722  10.130  0.1128  0.7052 -0.2504
  127TMC2    O1 1985   1.556   4.141  10.022 -0.1966 -0.4235  0.2985
  127TMC2    O2 1986   1.908   3.698  10.233 -0.0617 -0.5715 -0.3389
  127TMC2    O5 1987   2.087   3.690  10.082  0.6591  0.7564  0.9915
  127TMC2    H5 1988   2.104   3.732   9.995 -0.6827 -0.5561  0.0824
  128MPD2     C 1989   1.989   4.503   9.814  0.3923 -0.7700 -0.3023
  128MPD2    C1 1990   2.057   4.399   9.877 -0.8996  0.6022 -0.5279
  128MPD2    C2 1991   2.195   4.402   9.882 -0.0567 -1.0727  0.5757
  128MPD2    C3 1992   2.259   4.500   9.818  0.3785 -0.0850  0.4629
  128MPD2    C4 1993   2.187   4.604   9.768  0.0013  0.4231  0.2810
  128MPD2    C5 1994   2.052   4.599   9.752 -0.2206 -0.4846  0.2126
  128MPD2     H 1995   2.252   4.321   9.925  0.1395 -0.7298  0.9679
  128MPD2    H1 1996   2.218   4.691   9.711  0.4383 -1.0893 -1.8086
  128MPD2    H2 1997   1.881   4.499   9.804  0.5016 -0.3370 -1.5829
  128MPD2    H3 1998   1.991   4.667   9.693  1.6091  0.1941 -0.8895
  128MPD2     N 1999   2.395   4.508   9.825 -0.2633 -0.0089  0.5517
  128MPD2    H5 2000   2.455   4.443   9.874 -1.9597 -1.1989  1.0260
  128MPD2    N1 2001   1.981   4.292   9.932 -0.2524 -0.5955 -0.2064
  128MPD2    H7 2002   1.880   4.295   9.918 -0.0969 -1.9811 -1.5341
  129TMC2    C1 2003   1.334   3.761   0.979 -0.2349  0.2577 -0.3186
  129TMC2    C2 2004   1.348   3.640   0.911 -0.0271 -0.1372  0.2494
  129TMC2    C3 2005   1.229   3.569   0.894 -0.0471  1.5853  0.5674
  129TMC2    C4 2006   1.213   3.800   1.028  0.0869  0.4696 -0.4482
  129TMC2    C5 2007   1.103   3.727   1.001  0.0359 -0.1626  0.4612
  129TMC2    C6 2008   1.110   3.607   0.947 -0.5755 -0.0427  0.3278
  129TMC2     C 2009   1.444   3.857   0.962 -0.1907 -0.4228 -0.0043
  129TMC2     O 2010   1.556   3.811   0.935  0.5166  0.5188 -0.5833
  129TMC2     H 2011   1.447   3.616   0.874 -0.5765 -0.1697 -1.2037
  129TMC2    H1 2012   1.200   3.890   1.087  1.1834  0.1477  0.2807
  129TMC2    H2 2013   1.018   3.551   0.929 -1.3425  1.0986  0.6821
  129TMC2    C7 2014   0.975   3.766   1.063 -0.0274 -0.5333 -0.1991
  129TMC2    C8 2015   1.244   3.440   0.826  0.2113 -1.1189 -0.2052
  129TMC2    O1 2016   0.890   3.682   1.081 -0.2159  0.1657  0.3310
  129TMC2    O2 2017   1.164   3.403   0.744  0.3017 -0.3042  0.5867
  129TMC2    O5 2018   1.353   3.370   0.867  0.8637  0.5279  0.0749
  129TMC2    H5 2019   1.386   3.417   0.947 -2.5942 -0.3047  1.9522
  130MPD2     C 2020   1.634   4.085   1.007 -0.3056  0.3081  0.1737
  130MPD2    C1 2021   1.493   4.099   1.009 -0.0579 -0.2217  0.2456
  130MPD2    C2 2022   1.438   4.220   1.050  0.0832  0.5612  0.4344
  130MPD2    C3 2023   1.524   4.329   1.075 -0.7394  0.6203  0.5305
  130MPD2    C4 2024   1.656   4.313   1.072 -0.1421  0.0625  0.0114
  130MPD2    C5 2025   1.707   4.194   1.037  0.6472 -0.6766 -0.6323
  130MPD2     H 2026   1.330   4.220   1.059  0.0728  1.4757  0.2474
  130MPD2    H1 2027   1.729   4.392   1.086 -0.3742  0.1693  0.6155
  130MPD2    H2 2028   1.690   3.997   0.977 -1.7756 -0.2092 -1.0673
  130MPD2    H3 2029   1.815   4.196   1.021  0.9777 -0.6565  1.5889
  130MPD2     N 2030   1.462   4.453   1.108 -0.2542 -0.1838  0.2054
  130MPD2    H5 2031   1.361   4.458   1.112 -0.2524 -0.9199  1.0757
  130MPD2    N1 2032   1.406   3.988   0.992  0.0207  0.3187  0.3461
  130MPD2    H7 2033   1.310   4.014   1.010  0.1988  0.6787  0.7646
  131TMC2    C1 2034   4.261   3.005  10.356 -0.1523  0.0050 -0.0565
  131TMC2    C2 2035   4.150   2.932  10.321  0.0739 -0.2270  0.0932
  131TMC2    C3 2036   4.152   2.880  10.196  0.4729  0.0358 -0.8345
  131TMC2    C4 2037   4.373   3.015  10.270 -0.0553 -0.5374  0.4636
  131TMC2    C5 2038   4.363   2.968  10.144 -0.1054  0.3374  0.1034
  131TMC2    C6 2039   4.255   2.894  10.109 -0.1542 -0.1585 -0.1563
  131TMC2     C 2040   4.279   3.032  10.497 -0.5882  0.4529 -0.3404
  131TMC2     O 2041   4.362   3.112  10.535  0.3188  0.6004 -0.1033
  131TMC2     H 2042   4.066   2.909  10.385 -0.4112 -0.8484 -0.7635
  131TMC2    H1 2043   4.456   3.074  10.305 -0.7085 -0.2725  1.5815
  131TMC2    H2 2044   4.245   2.851  10.010 -2.0547 -2.2362  0.9210
  131TMC2    C7 2045   4.477   2.976  10.054  0.3411 -0.1676  0.1007
  131TMC2    C8 2046   4.033   2.838  10.137 -0.3544 -0.6719  0.1295
  131TMC2    O1 2047   4.461   2.901   9.959 -0.0406 -0.0136 -0.1194
  131TMC2    O2 2048   3.930   2.901  10.165  0.0240 -0.3038  0.1750
  131TMC2    O5 2049   4.056   2.703  10.136 -0.6866 -0.0221  0.5450
  131TMC2    H5 2050   4.149   2.673  10.126 -0.0369  1.7259  1.3050
  132MPD2     C 2051   4.123   2.845  10.777 -0.6268 -0.4104 -0.0730
  132MPD2    C1 2052   4.191   2.949  10.709  0.2653 -0.0666 -0.0716
  132MPD2    C2 2053   4.256   3.041  10.787 -0.7027  0.3100  0.9503
  132MPD2    C3 2054   4.263   3.027  10.926 -0.0091  0.0775 -0.2241
  132MPD2    C4 2055   4.204   2.922  10.982 -0.7636  0.5569  0.8165
  132MPD2    C5 2056   4.122   2.841  10.913  0.2030 -0.3978 -0.1825
  132MPD2     H 2057   4.290   3.135  10.745 -0.7340  0.3263  0.9612
  132MPD2    H1 2058   4.214   2.906  11.089  0.5923  1.7719  0.8729
  132MPD2    H2 2059   4.081   2.763  10.720 -1.6490 -0.0598  0.1689
  132MPD2    H3 2060   4.078   2.757  10.967  0.0558 -0.9175 -1.1051
  132MPD2     N 2061   4.334   3.129  10.999  0.2747  0.0454  0.4942
  132MPD2    H5 2062   4.368   3.208  10.944 -2.2107  0.2522 -0.7149
  132MPD2    N1 2063   4.205   2.944  10.569  0.5775 -0.1606  0.4797
  132MPD2    H7 2064   4.144   2.879  10.520  0.8025  0.8321 -1.1103
  133TMC2    C1 2065   0.023   0.421  10.061 -0.3822  0.0857 -0.8399
  133TMC2    C2 2066   0.118   0.338  10.007  0.2747 -0.0279  0.2936
  133TMC2    C3 2067   0.241   0.337  10.062 -1.1011  0.1037  0.1165
  133TMC2    C4 2068   0.043   0.503  10.165  0.0826 -0.2573  0.3399
  133TMC2    C5 2069   0.174   0.502  10.210  0.4527  0.7034 -0.6189
  133TMC2    C6 2070   0.275   0.419  10.162  0.7254 -0.9938  0.4276
  133TMC2     C 2071   4.627   0.414   9.998  0.2076  0.6665 -0.1232
  133TMC2     O 2072   4.612   0.306   9.942  0.6579 -0.2992 -0.3343
  133TMC2     H 2073   0.091   0.275   9.924 -2.6943  2.0931 -0.3163
  133TMC2    H1 2074   4.703   0.561  10.208  0.8222  0.1758  1.1192
  133TMC2    H2 2075   0.366   0.402  10.218  0.8859 -1.7855 -0.0770
  133TMC2    C7 2076   0.204   0.619  10.284 -0.2472 -0.6229  0.1692
  133TMC2    C8 2077   0.331   0.234  10.026 -0.1693  0.8051 -0.2989
  133TMC2    O1 2078   0.115   0.689  10.334 -0.0743 -0.2401 -0.1477
  133TMC2    O2 2079   0.293   0.126   9.987  0.2349  0.1301  0.3867
  133TMC2    O5 2080   0.457   0.279  10.027  0.0454 -0.1928 -0.2105
  133TMC2    H5 2081   0.478   0.367  10.065 -1.3332 -0.4892  1.2102
  134MPD2     C 2082   4.344   0.639  10.016 -0.1970 -0.7407  0.4005
  134MPD2    C1 2083   4.405   0.521   9.978  0.3533 -0.1703  0.2114
  134MPD2    C2 2084   4.333   0.428   9.905  0.4833 -0.0532 -0.4056
  134MPD2    C3 2085   4.203   0.453   9.876  0.3118 -0.4769 -0.5682
  134MPD2    C4 2086   4.147   0.570   9.912 -0.6341 -0.1639 -0.6284
  134MPD2    C5 2087   4.216   0.664   9.980 -0.0838 -0.2888  0.5485
  134MPD2     H 2088   4.389   0.338   9.880  0.0258 -0.3161 -0.4955
  134MPD2    H1 2089   4.046   0.590   9.880 -0.0394  0.2036 -2.2621
  134MPD2    H2 2090   4.405   0.715  10.062  1.3955 -0.3207 -2.4000
  134MPD2    H3 2091   4.165   0.757  10.005  1.3914  0.4710  0.6997
  134MPD2     N 2092   4.126   0.360   9.803 -0.1806 -0.5971  0.2986
  134MPD2    H5 2093   4.030   0.381   9.777  0.8116  1.2211 -1.9166
  134MPD2    N1 2094   4.535   0.514  10.022 -0.4696  0.7429 -0.5621
  134MPD2    H7 2095   4.577   0.592  10.071  0.1786  0.8453 -1.2817
  135TMC2    C1 2096   0.891   0.940  10.742 -0.0198  0.1334  0.7418
  135TMC2    C2 2097   1.020   0.893  10.733  0.5377 -0.0594 -1.0364
  135TMC2    C3 2098   1.043   0.761  10.759 -0.0773  0.3056  0.7731
  135TMC2    C4 2099   0.799   0.868  10.808 -0.3407  0.6368 -0.0532
  135TMC2    C5 2100   0.823   0.741  10.851 -0.3260 -0.3660 -1.0207
  135TMC2    C6 2101   0.948   0.686  10.827  0.2612 -0.0138 -0.1240
  135TMC2     C 2102   0.851   1.073  10.709 -0.6416 -0.0062 -0.3370
  135TMC2     O 2103   0.743   1.104  10.753 -0.1246  0.2744  0.0289
  135TMC2     H 2104   1.105   0.949  10.696  0.1013  1.1861 -0.1609
  135TMC2    H1 2105   0.703   0.911  10.834 -1.9210 -2.3552 -0.9097
  135TMC2    H2 2106   0.975   0.591  10.871 -0.5177  0.4000  1.2566
  135TMC2    C7 2107   0.718   0.657  10.900  0.1440 -0.9618  0.0537
  135TMC2    C8 2108   1.173   0.695  10.741  0.4930  0.1148 -0.4060
  135TMC2    O1 2109   0.625   0.720  10.942 -0.4159  0.7926 -0.3193
  135TMC2    O2 2110   1.190   0.585  10.787 -0.2631  0.4404 -0.6101
  135TMC2    O5 2111   1.224   0.750  10.633  0.3541 -0.0445 -0.0725
  135TMC2    H5 2112   1.181   0.827  10.591 -1.1894 -1.0804 -0.3888
  136MPD2     C 2113   0.823   1.350  10.613 -0.1721  0.1114  0.8231
  136MPD2    C1 2114   0.890   1.252  10.544  0.3620 -0.1443  0.6312
  136MPD2    C2 2115   0.942   1.278  10.418  0.3157 -0.3747 -0.1522
  136MPD2    C3 2116   0.921   1.403  10.364  0.5101  0.5964  0.2745
  136MPD2    C4 2117   0.859   1.500  10.437  0.2792  0.3222  0.2733
  136MPD2    C5 2118   0.809   1.474  10.557  0.4924 -0.2948 -0.2364
  136MPD2     H 2119   0.982   1.199  10.356  1.5414 -1.4380  1.9986
  136MPD2    H1 2120   0.842   1.595  10.389 -0.9762  0.0824  0.2436
  136MPD2    H2 2121   0.778   1.334  10.710 -1.0085  2.5521  0.8340
  136MPD2    H3 2122   0.746   1.548  10.605  1.3551  0.3354 -0.0741
  136MPD2     N 2123   0.949   1.445  10.235 -0.7578 -0.4304  0.0769
  136MPD2    H5 2124   0.935   1.544  10.216 -0.2862 -0.4555 -0.3749
  136MPD2    N1 2125   0.918   1.126  10.599  0.3353 -0.7524 -0.0491
  136MPD2    H7 2126   0.985   1.071  10.547  1.7744  2.4758 -1.5815
  137TMC2    C1 2127   1.373   3.824   9.469 -0.1511  0.7139  0.9035
  137TMC2    C2 2128   1.467   3.763   9.390  0.3401  0.3763  0.3442
  137TMC2    C3 2129   1.453   3.626   9.384  0.5945 -0.1173  0.3644
  137TMC2    C4 2130   1.283   3.749   9.542  0.2166 -0.4661 -0.4913
  137TMC2    C5 2131   1.274   3.613   9.514 -0.3886 -0.0596 -0.0952
  137TMC2    C6 2132   1.358   3.546   9.428  0.3909  0.2976  0.1654
  137TMC2     C 2133   1.424   3.942   9.539  0.3046 -0.1370 -0.4983
  137TMC2     O 2134   1.391   3.951   9.655 -0.4193  0.1015  0.3231
  137TMC2     H 2135   1.557   3.805   9.348  0.8378  1.1159  2.1577
  137TMC2    H1 2136   1.220   3.795   9.617  1.5483 -0.0777  0.3786
  137TMC2    H2 2137   1.369   3.438   9.429 -1.8993  0.0911  2.5063
  137TMC2    C7 2138   1.221   3.524   9.621  0.7002 -0.2058 -0.5784
  137TMC2    C8 2139   1.564   3.559   9.326 -0.5129 -0.7737  0.0847
  137TMC2    O1 2140   1.285   3.424   9.646  0.1320  0.0573 -0.3950
  137TMC2    O2 2141   1.613   3.456   9.374 -0.0630 -0.8632  0.1169
  137TMC2    O5 2142   1.616   3.624   9.222  0.0362  0.5013  0.1970
  137TMC2    H5 2143   1.553   3.693   9.191 -0.1823 -0.8132 -2.2181
  138MPD2     C 2144   1.683   4.195   9.435  0.0980 -0.0792  0.1036
  138MPD2    C1 2145   1.589   4.132   9.515 -0.4813 -0.3285 -0.0041
  138MPD2    C2 2146   1.564   4.188   9.643 -0.1153 -0.0929 -0.6400
  138MPD2    C3 2147   1.622   4.307   9.684 -0.0721  0.0870 -0.1483
  138MPD2    C4 2148   1.710   4.367   9.597 -0.6627  0.3006 -0.4942
  138MPD2    C5 2149   1.744   4.312   9.476  0.8788  0.2275 -0.3941
  138MPD2     H 2150   1.492   4.144   9.711  1.4232 -1.8309 -0.1538
  138MPD2    H1 2151   1.754   4.463   9.624  0.0908  0.0034 -0.6491
  138MPD2    H2 2152   1.708   4.160   9.336  0.2221  1.9493 -0.5854
  138MPD2    H3 2153   1.817   4.368   9.418  0.2845  3.5524  2.0634
  138MPD2     N 2154   1.568   4.365   9.804  0.1287 -0.1017  0.6173
  138MPD2    H5 2155   1.505   4.310   9.863  0.2045 -1.2399 -0.3809
  138MPD2    N1 2156   1.518   4.016   9.460 -0.1005  0.1542 -0.5987
  138MPD2    H7 2157   1.526   4.001   9.360 -0.4480 -2.2638 -0.2579
  139TMC2    C1 2158   1.840   3.254  13.487 -0.1558  0.6622  0.4081
  139TMC2    C2 2159   1.862   3.335  13.379 -0.2159 -0.3078 -0.2393
  139TMC2    C3 2160   1.761   3.417  13.344 -0.2570 -0.3039  0.0314
  139TMC2    C4 2161   1.718   3.258  13.553  0.0285  0.3688 -0.3096
  139TMC2    C5 2162   1.623   3.352  13.514  0.1285  0.7599 -0.6386
  139TMC2    C6 2163   1.649   3.441  13.414 -0.6076  0.2480  0.2872
  139TMC2     C 2164   1.897   3.118  13.484  0.4477 -0.3292 -0.5942
  139TMC2     O 2165   1.824   3.032  13.517  0.0254  0.4760  0.3526
  139TMC2     H 2166   1.954   3.325  13.323  0.6526 -1.6383  1.4034
  139TMC2    H1 2167   1.699   3.204  13.645  2.5758 -2.1956 -1.3068
  139TMC2    H2 2168   1.582   3.522  13.387  0.5296  1.3515  0.8068
  139TMC2    C7 2169   1.508   3.386  13.605  0.3983  0.2523  0.3761
  139TMC2    C8 2170   1.775   3.504  13.227  1.3246 -0.6920 -0.0920
  139TMC2    O1 2171   1.460   3.500  13.596 -0.0562 -0.0088 -0.0804
  139TMC2    O2 2172   1.885   3.527  13.172  0.2539 -0.5681 -0.6164
  139TMC2    O5 2173   1.661   3.480  13.152  0.3042 -0.4713 -0.0820
  139TMC2    H5 2174   1.585   3.443  13.202 -0.7495  0.7062 -0.8090
  140MPD2     C 2175   2.242   3.036  13.362 -0.5969  1.0211 -0.2140
  140MPD2    C1 2176   2.111   3.020  13.413 -0.0998 -0.2293 -0.6972
  140MPD2    C2 2177   2.068   2.891  13.434  0.4209 -0.4072 -0.1483
  140MPD2    C3 2178   2.147   2.776  13.416  0.1299 -0.3563  0.8285
  140MPD2    C4 2179   2.275   2.797  13.364  0.5341 -0.6216 -0.7617
  140MPD2    C5 2180   2.316   2.925  13.341  0.2539  0.4924 -0.0223
  140MPD2     H 2181   1.974   2.873  13.484  0.8718  1.4060  1.3275
  140MPD2    H1 2182   2.343   2.716  13.343  1.6025  0.5205 -1.6797
  140MPD2    H2 2183   2.285   3.134  13.344 -0.2351  0.9528  0.2442
  140MPD2    H3 2184   2.420   2.948  13.322  0.5265 -0.2499  0.5466
  140MPD2     N 2185   2.090   2.650  13.445 -0.3248 -0.0150 -0.2673
  140MPD2    H5 2186   1.998   2.649  13.488 -0.3380  1.1216 -0.2559
  140MPD2    N1 2187   2.027   3.129  13.439 -0.2489 -0.4091 -0.4765
  140MPD2    H7 2188   2.068   3.219  13.417  0.9206 -1.0401 -0.8802
  141TMC2    C1 2189   2.459   0.119  14.062  0.3255  0.0674  0.4170
  141TMC2    C2 2190   2.379   0.202  13.987 -0.2727 -0.5692 -0.0512
  141TMC2    C3 2191   2.378   0.332  14.037 -0.0412  0.8138 -0.3957
  141TMC2    C4 2192   2.554   0.168  14.156 -0.7956 -0.2151  0.3837
  141TMC2    C5 2193   2.554   0.303  14.183 -0.8725 -0.0734 -0.2213
  141TMC2    C6 2194   2.473   0.391  14.126 -0.1638 -0.0917  0.3994
  141TMC2     C 2195   2.459   4.721  14.017  0.3855 -0.6342  0.5962
  141TMC2     O 2196   2.358   4.691  13.961 -0.0032  0.4149 -0.3476
  141TMC2     H 2197   2.327   0.164  13.900 -0.5516 -2.4687  0.9201
  141TMC2    H1 2198   2.629   0.103  14.201  0.4012  0.6968 -0.3004
  141TMC2    H2 2199   2.463   0.495  14.156  0.5947  0.0651  0.0888
  141TMC2    C7 2200   2.634   0.345  14.296 -0.0225 -0.0062 -0.8639
  141TMC2    C8 2201   2.323   0.422  13.942 -0.5918 -1.1676  0.3018
  141TMC2    O1 2202   2.678   0.260  14.376  0.2139  0.2932  0.0297
  141TMC2    O2 2203   2.389   0.508  13.886  0.2945 -0.5604  0.1252
  141TMC2    O5 2204   2.202   0.378  13.909 -0.3143  0.4853 -0.2911
  141TMC2    H5 2205   2.158   0.313  13.968 -0.2331  1.5371  0.9211
  142TMC2    C1 2206   0.031   2.870  10.297  0.1587  0.1446 -0.1414
  142TMC2    C2 2207   0.066   2.818  10.173 -0.0555  0.2503 -0.2231
  142TMC2    C3 2208   0.180   2.873  10.117  0.0529  0.5965  0.0446
  142TMC2    C4 2209   0.100   2.979  10.349  0.7592  0.2577 -0.0281
  142TMC2    C5 2210   0.210   3.030  10.284  0.2143 -0.1239 -0.1356
  142TMC2    C6 2211   0.254   2.977  10.165 -0.4196 -0.6954 -0.4513
  142TMC2     C 2212   4.659   2.807  10.364 -0.5432 -1.1965  0.4113
  142TMC2     O 2213   4.573   2.750  10.299  0.5022 -0.7563 -0.5596
  142TMC2     H 2214   0.017   2.728  10.136  0.4879 -0.5377  0.9773
  142TMC2    H1 2215   0.066   3.025  10.441  1.9559  2.5495 -0.7419
  142TMC2    H2 2216   0.338   3.014  10.107 -1.8571  2.4298 -0.5427
  142TMC2    C7 2217   0.268   3.155  10.330  0.5089  0.6977  0.1741
  142TMC2    C8 2218   0.235   2.795  10.012 -0.8850 -0.2037  0.2376
  142TMC2    O1 2219   0.197   3.218  10.410  0.0289 -0.5022  0.2646
  142TMC2    O2 2220   0.158   2.731   9.944 -0.6162  0.5656 -0.3088
  142TMC2    O5 2221   0.364   2.810  10.003  0.0367  0.3440 -0.4160
  142TMC2    H5 2222   0.406   2.863  10.074 -1.0823  1.1293 -0.3293
  143MPD2     C 2223   4.392   2.684  10.786 -0.0327 -0.2077 -0.4143
  143MPD2    C1 2224   4.372   2.644  10.652  0.1296  0.3170  0.2089
  143MPD2    C2 2225   4.453   2.697  10.557  0.4716  0.1335  0.0349
  143MPD2    C3 2226   4.554   2.795  10.585 -0.2044  0.6336 -0.2801
  143MPD2    C4 2227   4.574   2.828  10.717  0.5869  0.4689  0.1038
  143MPD2    C5 2228   4.495   2.774  10.813 -0.1853 -0.8070  0.4745
  143MPD2     H 2229   4.428   2.670  10.455 -2.8443 -0.1218  0.9259
  143MPD2    H1 2230   4.643   2.906  10.747  0.9210  0.3634 -0.3789
  143MPD2    H2 2231   4.328   2.657  10.870  1.1677  0.6201  0.7652
  143MPD2    H3 2232   4.513   2.797  10.917  0.4477 -1.3009  0.4729
  143MPD2     N 2233   4.644   2.837  10.491  0.2606  0.3730  0.1366
  143MPD2    H5 2234   4.718   2.894  10.531 -1.1179  2.1853  0.0837
  143MPD2    N1 2235   4.282   2.537  10.626  0.0393  0.0577  0.1772
  143MPD2    H7 2236   4.239   2.498  10.710  1.5906 -1.4143  0.2847
  144TMC2    C1 2237   3.821   0.885   0.608  0.0574 -0.5036 -0.7613
  144TMC2    C2 2238   3.885   0.823   0.508  0.4083 -0.2017 -0.3031
  144TMC2    C3 2239   4.021   0.839   0.500  0.3730  0.6699 -0.1699
  144TMC2    C4 2240   3.887   0.945   0.719 -0.1236 -0.3114  0.6684
  144TMC2    C5 2241   4.021   0.950   0.717  0.1256 -0.6629  0.4151
  144TMC2    C6 2242   4.087   0.895   0.610  0.2294 -0.0379 -0.3531
  144TMC2     C 2243   3.676   0.906   0.607 -0.0939 -0.5652  0.4638
  144TMC2     O 2244   3.610   0.843   0.522  0.0411 -0.3307  0.5742
  144TMC2     H 2245   3.829   0.773   0.430  0.2634 -0.6673  0.1036
  144TMC2    H1 2246   3.834   0.989   0.803 -0.6734 -1.2319  0.8037
  144TMC2    H2 2247   4.195   0.899   0.596  0.2848  0.0480  0.1023
  144TMC2    C7 2248   4.113   0.994   0.827 -0.1455  0.8541  0.1879
  144TMC2    C8 2249   4.099   0.768   0.399 -0.1316  0.0244  0.1372
  144TMC2    O1 2250   4.228   0.958   0.815 -0.0681  0.3194 -0.0632
  144TMC2    O2 2251   4.210   0.723   0.426  0.0478  0.3190 -0.3640
  144TMC2    O5 2252   4.033   0.792   0.283  0.3860  0.2718  0.2030
  144TMC2    H5 2253   3.956   0.851   0.298 -0.9102 -0.4970 -3.3687
  145MPD2     C 2254   3.279   1.228   0.616 -0.6913 -0.0781  0.1106
  145MPD2    C1 2255   3.288   1.109   0.544  0.3549 -1.1137  0.6516
  145MPD2    C2 2256   3.412   1.049   0.557 -0.0163  0.4565 -0.3380
  145MPD2    C3 2257   3.510   1.093   0.646  0.0998  0.0180  0.7390
  145MPD2    C4 2258   3.496   1.212   0.716  0.0727 -0.4885 -0.4776
  145MPD2    C5 2259   3.381   1.279   0.690  0.4764  0.2807  0.1639
  145MPD2     H 2260   3.420   0.957   0.499  0.5558  0.4536 -0.2563
  145MPD2    H1 2261   3.570   1.250   0.786 -1.5523 -0.2398  1.1177
  145MPD2    H2 2262   3.188   1.287   0.613  0.3133  1.3155 -2.9193
  145MPD2    H3 2263   3.362   1.366   0.751  0.9305 -0.5714  1.5321
  145MPD2     N 2264   3.631   1.022   0.672 -0.1799  0.1516  0.3802
  145MPD2    H5 2265   3.690   1.063   0.744  1.1132 -0.8927 -0.0802
  145MPD2    N1 2266   3.189   1.054   0.464  0.5277 -0.2275 -0.5749
  145MPD2    H7 2267   3.211   0.978   0.400  0.2532  1.0504 -2.1877
  146TMC2    C1 2268   4.370   0.648  12.627  0.3602  0.4782 -0.2835
  146TMC2    C2 2269   4.326   0.632  12.501 -0.3693  0.3384 -0.6918
  146TMC2    C3 2270   4.423   0.648  12.401 -0.3137  0.6816 -1.6602
  146TMC2    C4 2271   4.498   0.680  12.659  0.2784 -0.2579 -0.2107
  146TMC2    C5 2272   4.591   0.698  12.557  0.6455 -0.2508 -0.6958
  146TMC2    C6 2273   4.553   0.681  12.431 -0.2138 -0.2071 -0.4150
  146TMC2     C 2274   4.266   0.640  12.732 -1.1859 -1.3780  0.0578
  146TMC2     O 2275   4.146   0.634  12.699  0.0489  0.1805 -0.3718
  146TMC2     H 2276   4.225   0.603  12.473  0.0620 -0.0135 -1.8875
  146TMC2    H1 2277   4.523   0.707  12.761 -1.8771 -1.5310  0.6456
  146TMC2    H2 2278   4.618   0.680  12.344 -0.2950  0.4185 -0.4805
  146TMC2    C7 2279   4.730   0.700  12.588  0.0208  0.2506 -0.7228
  146TMC2    C8 2280   4.383   0.730  12.293 -0.7057 -0.1994 -0.3471
  146TMC2    O1 2281   0.064   0.741  12.494  0.0246  0.0914  0.3929
  146TMC2    O2 2282   4.415   0.847  12.298  0.3474  0.6448  0.3235
  146TMC2    O5 2283   4.424   0.659  12.191  1.3292 -0.0883 -0.0241
  146TMC2    H5 2284   4.407   0.564  12.207  2.9544 -0.6424 -1.5709
  147MPD2     C 2285   0.355   0.747  12.945  0.1094 -0.3968 -0.1608
  147MPD2    C1 2286   0.254   0.677  13.000  0.0293  0.1672  1.4693
  147MPD2    C2 2287   0.131   0.665  12.929  0.2538 -0.7370  1.0347
  147MPD2    C3 2288   0.127   0.697  12.796 -0.0005 -0.3863 -0.6554
  147MPD2    C4 2289   0.242   0.741  12.733 -0.3434  0.2023  0.0014
  147MPD2    C5 2290   0.351   0.773  12.809 -0.4770 -0.1007 -0.0533
  147MPD2     H 2291   0.037   0.632  12.972  0.0587 -2.2025 -0.5474
  147MPD2    H1 2292   0.251   0.760  12.627 -1.0170  1.4817  0.1680
  147MPD2    H2 2293   0.439   0.779  13.005 -0.3461 -1.8779  1.2835
  147MPD2    H3 2294   0.431   0.823  12.756  0.3910 -0.9044  0.5112
  147MPD2     N 2295   0.012   0.674  12.722 -0.4889 -0.4796 -0.3077
  147MPD2    H5 2296   4.675   0.640  12.779 -0.0183 -1.0448 -0.0021
  147MPD2    N1 2297   0.274   0.639  13.133 -1.0787 -0.0435  0.1067
  147MPD2    H7 2298   0.367   0.663  13.166 -1.1991  0.4536  0.0953
  148TMC2    C1 2299   4.088   4.257  10.774  0.2982  0.1939  0.0600
  148TMC2    C2 2300   4.215   4.299  10.757  0.1660  0.0377  0.0769
  148TMC2    C3 2301   4.311   4.238  10.834  0.2230 -1.0245 -0.0242
  148TMC2    C4 2302   4.060   4.145  10.845 -0.2016 -0.0115 -0.5400
  148TMC2    C5 2303   4.158   4.078  10.904 -0.9887  0.1733 -0.3246
  148TMC2    C6 2304   4.285   4.131  10.917 -0.3740 -0.5266 -0.1969
  148TMC2     C 2305   3.981   4.325  10.696 -0.5663  0.5621  0.9595
  148TMC2     O 2306   4.002   4.444  10.670  0.2410 -0.2505 -0.3808
  148TMC2     H 2307   4.237   4.381  10.690 -1.6678  1.4636  1.2045
  148TMC2    H1 2308   3.962   4.098  10.852 -0.2328  0.1203 -0.0761
  148TMC2    H2 2309   4.359   4.083  10.979 -0.0463 -1.0174 -0.9714
  148TMC2    C7 2310   4.124   3.947  10.944 -0.1111  0.0987 -0.3035
  148TMC2    C8 2311   4.441   4.290  10.824 -0.3996  0.0237 -0.5926
  148TMC2    O1 2312   4.048   3.887  10.864  0.1909  0.1113 -0.0523
  148TMC2    O2 2313   4.457   4.407  10.791  0.2993 -0.1944  0.1460
  148TMC2    O5 2314   4.530   4.188  10.806  0.5018  0.4743 -0.1641
  148TMC2    H5 2315   4.474   4.108  10.797  0.7378  0.0374  2.0494
  149MPD2     C 2316   3.747   4.400  10.522  0.0206  0.1482 -0.7843
  149MPD2    C1 2317   3.757   4.281  10.592 -0.2031 -0.2367 -0.6463
  149MPD2    C2 2318   3.645   4.196  10.579  0.5197  0.1919 -0.1796
  149MPD2    C3 2319   3.524   4.241  10.529  0.6474 -0.4340  0.0389
  149MPD2    C4 2320   3.520   4.354  10.460 -0.0817 -0.0883 -0.4259
  149MPD2    C5 2321   3.630   4.435  10.472 -0.2648  0.6335 -0.5814
  149MPD2     H 2322   3.651   4.091  10.607  0.8013 -0.0314 -1.0677
  149MPD2    H1 2323   3.427   4.379  10.411 -0.9551 -1.7550  0.3901
  149MPD2    H2 2324   3.821   4.480  10.521 -1.5329  1.6007 -0.2379
  149MPD2    H3 2325   3.611   4.526  10.417 -2.7656  0.8678  0.6733
  149MPD2     N 2326   3.402   4.164  10.535 -0.1511  0.2467  0.7239
  149MPD2    H5 2327   3.323   4.206  10.486 -0.6877 -0.5083  0.9462
  149MPD2    N1 2328   3.875   4.242  10.664  0.0413  0.1447  0.4027
  149MPD2    H7 2329   3.868   4.151  10.709 -2.5572  0.5500  0.8518
  150TMC2    C1 2330   1.302   3.223  12.566 -0.0629 -0.2505 -1.0090
  150TMC2    C2 2331   1.264   3.354  12.562 -0.2724  0.7697 -0.1737
  150TMC2    C3 2332   1.327   3.434  12.473 -0.0038 -0.1741 -0.2046
  150TMC2    C4 2333   1.412   3.169  12.505 -0.1528 -0.2232  0.2561
  150TMC2    C5 2334   1.484   3.265  12.436  0.3615 -0.4282 -0.5120
  150TMC2    C6 2335   1.440   3.394  12.412  0.1637 -1.1144 -0.0039
  150TMC2     C 2336   1.223   3.111  12.618  0.0194  0.2953  0.4345
  150TMC2     O 2337   1.282   3.024  12.672  0.3126  0.5079 -0.6616
  150TMC2     H 2338   1.182   3.397  12.619  0.5217 -0.0614  1.5602
  150TMC2    H1 2339   1.439   3.066  12.522  2.4574  0.6919  1.7421
  150TMC2    H2 2340   1.496   3.477  12.371 -0.4216 -0.0554  1.3410
  150TMC2    C7 2341   1.631   3.240  12.411 -0.3080  0.3941  0.1920
  150TMC2    C8 2342   1.325   3.578  12.496 -0.0050  0.1773 -0.6860
  150TMC2    O1 2343   1.692   3.324  12.343 -0.0842  0.9624 -0.2302
  150TMC2    O2 2344   1.355   3.662  12.412  0.2245  0.3281  0.2164
  150TMC2    O5 2345   1.330   3.589  12.629  0.4977 -0.3649  0.4965
  150TMC2    H5 2346   1.352   3.510  12.682  0.8449  0.7432  2.0196
  151MPD2     C 2347   0.753   2.925  12.732  0.2698 -0.9513  0.4301
  151MPD2    C1 2348   0.741   3.048  12.679 -0.2376  0.1591 -0.2929
  151MPD2    C2 2349   0.855   3.119  12.637 -0.0391 -0.3988 -0.4203
  151MPD2    C3 2350   0.981   3.064  12.646 -0.3507 -0.3184  0.1572
  151MPD2    C4 2351   0.996   2.941  12.701 -0.4564 -0.2641  0.0067
  151MPD2    C5 2352   0.885   2.872  12.745 -0.5095 -0.7978  1.2409
  151MPD2     H 2353   0.842   3.218  12.596 -0.3000 -0.8647 -1.4608
  151MPD2    H1 2354   1.095   2.899  12.713  0.0667  1.7178  2.6851
  151MPD2    H2 2355   0.666   2.874  12.772  0.7315 -1.8806  0.2622
  151MPD2    H3 2356   0.889   2.773  12.789  1.0487 -2.0097 -1.6318
  151MPD2     N 2357   1.090   3.148  12.603  0.2302 -0.2255  0.1240
  151MPD2    H5 2358   1.067   3.231  12.549  0.1948 -1.0100 -1.0537
  151MPD2    N1 2359   0.607   3.101  12.672  0.2683 -0.3361 -0.0311
  151MPD2    H7 2360   0.526   3.041  12.688 -0.6308  1.5281  2.4618
  152TMC2    C1 2361   1.598   3.311  12.907  1.1070  0.1197  0.2437
  152TMC2    C2 2362   1.629   3.228  13.009  0.6521  0.4024 -0.2815
  152TMC2    C3 2363   1.761   3.191  13.013 -0.6829 -0.1345  0.0740
  152TMC2    C4 2364   1.686   3.372  12.823 -0.3295  0.0617  0.6352
  152TMC2    C5 2365   1.813   3.340  12.837  0.4740 -0.4413 -0.1274
  152TMC2    C6 2366   1.852   3.238  12.920  0.1378  0.5286  0.1146
  152TMC2     C 2367   1.461   3.346  12.886  0.4199  0.2692 -0.4744
  152TMC2     O 2368   1.433   3.438  12.809  0.2698  0.4646  1.5256
  152TMC2     H 2369   1.552   3.221  13.085  1.0419 -1.7040 -0.0804
  152TMC2    H1 2370   1.659   3.451  12.755  0.9987  0.7693  0.9184
  152TMC2    H2 2371   1.948   3.188  12.922  0.8895  1.9511 -0.5075
  152TMC2    C7 2372   1.912   3.402  12.745 -0.4648 -0.6016 -0.3889
  152TMC2    C8 2373   1.815   3.118  13.128 -0.5163 -0.4480 -0.4341
  152TMC2    O1 2374   1.867   3.458  12.644  0.5938  0.1450 -0.2418
  152TMC2    O2 2375   1.940   3.117  13.155 -0.0500  0.3463  0.3303
  152TMC2    O5 2376   1.723   3.051  13.192 -0.8121  0.0132 -0.0406
  152TMC2    H5 2377   1.640   3.043  13.141 -1.3528  0.6777  0.7303
  153MPD2     C 2378   1.179   3.131  13.005  0.4374  0.2400 -0.1772
  153MPD2    C1 2379   1.240   3.246  12.952  0.0488  0.4108  0.1488
  153MPD2    C2 2380   1.155   3.356  12.927  0.5022  0.5755 -0.5228
  153MPD2    C3 2381   1.017   3.349  12.944  0.5232  0.4738 -0.5482
  153MPD2    C4 2382   0.960   3.229  12.984  0.3072  0.0678  0.2165
  153MPD2    C5 2383   1.042   3.124  13.017 -0.1660  0.6118 -0.6961
  153MPD2     H 2384   1.198   3.451  12.896  0.7592  0.6060 -0.0649
  153MPD2    H1 2385   0.855   3.214  13.006  0.7808 -0.9863  1.7554
  153MPD2    H2 2386   1.231   3.040  13.033 -0.4142  0.6219  2.6208
  153MPD2    H3 2387   0.998   3.028  13.040 -0.9822  1.3248  0.6948
  153MPD2     N 2388   0.938   3.466  12.923 -0.1126 -0.0656 -0.5322
  153MPD2    H5 2389   0.995   3.545  12.895  1.6842 -1.4336 -0.6808
  153MPD2    N1 2390   1.380   3.251  12.939  0.3101  0.0115  0.0724
  153MPD2    H7 2391   1.432   3.165  12.955  0.3976 -0.0440 -0.5013
  154TMC2    C1 2392   2.832   2.369  17.543 -0.5340  0.5766 -0.0784
  154TMC2    C2 2393   2.855   2.314  17.418 -0.1512  0.5244 -0.5993
  154TMC2    C3 2394   2.946   2.214  17.407  0.4348  0.4892  0.6310
  154TMC2    C4 2395   2.903   2.324  17.651  0.0498  0.3851  0.8517
  154TMC2    C5 2396   2.992   2.220  17.639 -0.6265 -0.9207  0.1546
  154TMC2    C6 2397   3.026   2.165  17.512 -0.4433 -0.3400 -0.0702
  154TMC2     C 2398   2.768   2.498  17.538 -0.3724  0.6304 -0.4627
  154TMC2     O 2399   2.741   2.554  17.645  0.1612  0.0099  0.3649
  154TMC2     H 2400   2.795   2.336  17.331 -2.0826 -1.8716  0.1198
  154TMC2    H1 2401   2.902   2.382  17.743 -0.8814 -2.2721  2.5235
  154TMC2    H2 2402   3.102   2.090  17.493 -1.0566 -0.7212 -0.9866
  154TMC2    C7 2403   3.079   2.192  17.749  1.0842  0.7622  0.3241
  154TMC2    C8 2404   2.994   2.157  17.284 -0.3119 -1.1036  0.5012
  154TMC2    O1 2405   3.079   2.269   0.083 -0.4868  0.1381 -0.2385
  154TMC2    O2 2406   3.092   2.091  17.275 -0.1377  0.4036 -0.4365
  154TMC2    O5 2407   2.882   2.122  17.221  0.0143 -1.1714  0.6170
  154TMC2    H5 2408   2.796   2.163  17.243  0.7931 -0.1632  1.7267
  155MPD2     C 2409   2.724   2.708  17.232 -0.2110  0.1370 -0.5023
  155MPD2    C1 2410   2.712   2.674  17.367  0.4150 -0.5537  0.2716
  155MPD2    C2 2411   2.648   2.765  17.453 -0.2320 -0.1672 -0.1510
  155MPD2    C3 2412   2.609   2.890  17.418  0.2907  0.0876 -0.4401
  155MPD2    C4 2413   2.629   2.924  17.285 -0.3288 -0.3083  0.4055
  155MPD2    C5 2414   2.684   2.834  17.194  0.1195 -0.1513  0.4792
  155MPD2     H 2415   2.635   2.730  17.555  0.8794 -1.6638 -0.5130
  155MPD2    H1 2416   2.601   3.019  17.241  0.4634 -0.5380 -0.5898
  155MPD2    H2 2417   2.760   2.642  17.153 -0.6411  1.1907 -1.5781
  155MPD2    H3 2418   2.698   2.866  17.092  0.7783  0.4625  0.7620
  155MPD2     N 2419   2.563   2.985  17.516 -0.1715  0.0225 -0.5622
  155MPD2    H5 2420   2.587   2.959  17.611 -1.4801 -0.9039 -0.4681
  155MPD2    N1 2421   2.766   2.551  17.412  0.6735  0.2150 -0.1095
  155MPD2    H7 2422   2.810   2.494  17.341  1.9899 -1.2197  1.8668
  156TMC2    C1 2423   1.625   0.769  11.686 -0.8859 -0.7299 -0.0342
  156TMC2    C2 2424   1.743   0.779  11.616  0.1747  0.1022 -0.0468
  156TMC2    C3 2425   1.764   0.904  11.567 -1.1404 -0.0489  0.4459
  156TMC2    C4 2426   1.533   0.861  11.713 -0.8053  0.5588  0.3918
  156TMC2    C5 2427   1.563   0.983  11.658  0.2887  0.3642  0.5265
  156TMC2    C6 2428   1.669   1.006  11.569  0.6739  0.3136  0.4347
  156TMC2     C 2429   1.615   0.658  11.780  0.3153 -0.2062  0.5405
  156TMC2     O 2430   1.497   0.644  11.821  0.4948  0.6335  0.2089
  156TMC2     H 2431   1.811   0.697  11.596 -0.1488 -0.2457  0.2781
  156TMC2    H1 2432   1.447   0.841  11.776 -0.9522 -1.5042 -0.4663
  156TMC2    H2 2433   1.680   1.101  11.518  2.5858 -0.9693 -1.6042
  156TMC2    C7 2434   1.489   1.103  11.702 -0.7712 -0.7189 -0.6588
  156TMC2    C8 2435   1.898   0.948  11.528 -0.5408  0.0870  0.2291
  156TMC2    O1 2436   1.497   1.194  11.618 -0.2745 -0.1413  0.3551
  156TMC2    O2 2437   1.908   1.048  11.455 -0.0694 -0.1653  0.1604
  156TMC2    O5 2438   1.976   0.843  11.525 -0.2079 -0.2555  0.4136
  156TMC2    H5 2439   1.985   0.810  11.618  2.7266 -1.3980 -0.2855
  157MPD2     C 2440   1.860   0.469  11.976  0.3799 -0.3006 -0.1667
  157MPD2    C1 2441   1.743   0.539  11.947  0.2156  0.2247 -0.1917
  157MPD2    C2 2442   1.640   0.540  12.042  0.4286  0.6056 -0.0108
  157MPD2    C3 2443   1.651   0.483  12.170 -0.2851  0.0659  1.0629
  157MPD2    C4 2444   1.760   0.405  12.190 -0.6568 -0.6417  0.0618
  157MPD2    C5 2445   1.858   0.392  12.090  0.1441 -0.1537  0.0674
  157MPD2     H 2446   1.555   0.607  12.033 -0.4705 -0.5743 -0.2500
  157MPD2    H1 2447   1.773   0.337  12.274 -1.3422 -0.9041 -0.0499
  157MPD2    H2 2448   1.942   0.465  11.905 -0.7325 -1.9501 -1.3397
  157MPD2    H3 2449   1.938   0.322  12.108  2.7367  3.1308  1.3304
  157MPD2     N 2450   1.550   0.511  12.266  0.3943 -0.0827 -0.4124
  157MPD2    H5 2451   1.474   0.571  12.235  1.1303  2.0599  1.8729
  157MPD2    N1 2452   1.733   0.607  11.826 -0.3641  0.3622 -1.2613
  157MPD2    H7 2453   1.817   0.625  11.772  0.5201  1.0664  0.3471
  158TMC2    C1 2454   1.994   3.735  13.509  0.3656  0.4770  0.4008
  158TMC2    C2 2455   2.038   3.737  13.385  0.2860  0.1629  0.6511
  158TMC2    C3 2456   2.010   3.852  13.312  0.0258 -0.6145 -0.0677
  158TMC2    C4 2457   1.907   3.829  13.560 -0.1580 -0.1630 -0.0709
  158TMC2    C5 2458   1.859   3.927  13.479 -1.8045  0.4156 -0.2575
  158TMC2    C6 2459   1.916   3.948  13.358 -0.2153 -0.0204  0.2470
  158TMC2     C 2460   2.090   3.664  13.597 -0.5915 -0.9105 -1.2805
  158TMC2     O 2461   2.183   3.615  13.532 -0.0579  0.1302 -0.1775
  158TMC2     H 2462   2.097   3.659  13.339  2.0582  2.0142 -0.1755
  158TMC2    H1 2463   1.888   3.825  13.667  0.5072 -1.1533  0.0110
  158TMC2    H2 2464   1.883   4.024  13.287 -0.2056  2.4787  2.9025
  158TMC2    C7 2465   1.766   4.029  13.522 -0.8034 -0.0649  0.2052
  158TMC2    C8 2466   2.105   3.881  13.203  0.1742 -0.2793 -0.3458
  158TMC2    O1 2467   1.790   4.140  13.475 -0.3141 -0.1751  0.8197
  158TMC2    O2 2468   2.218   3.837  13.192  0.6229  0.0253 -0.2086
  158TMC2    O5 2469   2.063   3.995  13.142  0.1711  0.7761  0.5176
  158TMC2    H5 2470   1.964   3.993  13.142  0.1461  2.0931  2.4981
  159MPD2     C 2471   2.303   3.595  14.048  0.0348 -0.0623  0.1211
  159MPD2    C1 2472   2.169   3.625  14.064  0.3014 -0.5215 -0.1368
  159MPD2    C2 2473   2.094   3.642  13.958  0.5809 -0.1069 -0.2549
  159MPD2    C3 2474   2.138   3.628  13.832  0.2231 -0.0941  0.0522
  159MPD2    C4 2475   2.270   3.606  13.811 -0.2073  0.0457 -0.2238
  159MPD2    C5 2476   2.349   3.574  13.923 -0.7951  0.0569  0.5771
  159MPD2     H 2477   1.991   3.672  13.968  0.5688  0.0956 -0.9435
  159MPD2    H1 2478   2.311   3.583  13.713  1.6476 -0.5394  0.7007
  159MPD2    H2 2479   2.371   3.567  14.128  0.5909 -1.9465 -1.0153
  159MPD2    H3 2480   2.453   3.543  13.921 -0.5947  0.8386 -0.9317
  159MPD2     N 2481   2.050   3.649  13.725  0.3751  0.0962 -0.6873
  159MPD2    H5 2482   1.955   3.666  13.757  1.1569  0.9320  1.1797
  159MPD2    N1 2483   2.124   3.646  14.196  0.2262 -0.1207 -0.0482
  159MPD2    H7 2484   2.199   3.648  14.265  0.2935  0.6654 -0.1405
  160TMC2    C1 2485   2.231   2.578   1.655  0.0283  0.6597  0.3875
  160TMC2    C2 2486   2.133   2.495   1.699  0.3335 -0.4299  0.3216
  160TMC2    C3 2487   2.170   2.378   1.758  0.3763 -0.5783 -0.4726
  160TMC2    C4 2488   2.362   2.538   1.653  0.1795  0.3454 -0.6149
  160TMC2    C5 2489   2.395   2.420   1.712  0.2489  0.5188  0.3813
  160TMC2    C6 2490   2.303   2.342   1.777 -0.2206 -0.9954  0.3064
  160TMC2     C 2491   2.193   2.683   1.568 -0.2080 -0.4693  0.3871
  160TMC2     O 2492   2.088   2.668   1.510 -0.0159  0.1033 -0.1204
  160TMC2     H 2493   2.029   2.523   1.692  0.5683  0.2051 -0.7373
  160TMC2    H1 2494   2.437   2.611   1.624 -0.7922  0.6162 -2.4274
  160TMC2    H2 2495   2.318   2.239   1.808 -1.2819 -1.5766 -1.1341
  160TMC2    C7 2496   2.516   2.350   1.705  0.4037 -0.6561 -0.0332
  160TMC2    C8 2497   2.080   2.289   1.826 -0.3421 -0.5601  0.2662
  160TMC2    O1 2498   2.512   2.234   1.740  0.5455  0.2796  0.0967
  160TMC2    O2 2499   2.116   2.239   1.933  0.3523 -0.2548  0.3870
  160TMC2    O5 2500   2.021   2.208   1.727 -0.3132  0.2625 -0.8134
  160TMC2    H5 2501   2.033   2.251   1.640 -0.4162  1.0305 -0.4519
  161MPD2     C 2502   2.378   2.989   1.515  0.3949  0.1577 -0.4272
  161MPD2    C1 2503   2.269   2.906   1.500  0.2760 -0.6274 -0.3413
  161MPD2    C2 2504   2.162   2.941   1.423 -0.3453 -0.4054 -0.7630
  161MPD2    C3 2505   2.158   3.073   1.370  0.8214 -0.2912  0.1667
  161MPD2    C4 2506   2.258   3.162   1.397  1.1449 -0.0735 -0.2290
  161MPD2    C5 2507   2.370   3.117   1.464  0.1144  0.4749 -0.5947
  161MPD2     H 2508   2.078   2.871   1.424 -0.4218 -0.3045  0.3216
  161MPD2    H1 2509   2.256   3.262   1.357  0.2214  0.9752  2.4078
  161MPD2    H2 2510   2.468   2.951   1.561  0.8086  0.4083 -1.0311
  161MPD2    H3 2511   2.460   3.175   1.480  0.3542 -0.3004  0.8610
  161MPD2     N 2512   2.046   3.125   1.302 -0.0353 -0.1650 -0.5966
  161MPD2    H5 2513   2.060   3.220   1.269 -1.8985  1.0453  2.1431
  161MPD2    N1 2514   2.285   2.785   1.565 -0.5149  0.0852  0.3050
  161MPD2    H7 2515   2.369   2.765   1.618 -0.0892  0.7205 -0.1340
  162TMC2    C1 2516   4.089   4.381   0.909  0.6025 -0.3694  0.0621
  162TMC2    C2 2517   4.083   4.491   0.827 -0.4297 -0.1073  0.3861
  162TMC2    C3 2518   4.096   4.612   0.896  0.4041 -0.0582 -0.6823
  162TMC2    C4 2519   4.104   4.391   1.042 -0.3205 -0.1882  0.6252
  162TMC2    C5 2520   4.129   4.513   1.097  0.0800  0.6493 -0.4598
  162TMC2    C6 2521   4.113   4.629   1.031 -0.7073  0.5793 -0.1678
  162TMC2     C 2522   4.066   4.248   0.843  0.4866 -0.3500 -0.3198
  162TMC2     O 2523   4.071   4.242   0.720 -0.5209  0.2455  0.2827
  162TMC2     H 2524   4.056   4.477   0.723  2.0581 -1.0629 -0.1391
  162TMC2    H1 2525   4.100   4.305   1.108  1.5732 -2.4819 -2.2470
  162TMC2    H2 2526   4.151   4.719   1.079  0.8852 -0.7594  1.1011
  162TMC2    C7 2527   4.207   4.509   1.217  0.8044 -0.4779  0.4022
  162TMC2    C8 2528   4.038   4.729   0.830 -0.6737  0.4075  0.1359
  162TMC2    O1 2529   4.207   4.606   1.290  0.0956 -0.2394  0.5083
  162TMC2    O2 2530   4.052   0.100   0.887 -0.3685 -0.1051 -0.6791
  162TMC2    O5 2531   3.994   4.706   0.701  0.0485  0.5285 -0.0372
  162TMC2    H5 2532   3.965   4.613   0.697 -1.3423  0.9962 -0.8350
  163MPD2     C 2533   4.164   3.730   0.875  0.4106  0.1052  0.3148
  163MPD2    C1 2534   4.196   3.822   0.775 -0.7454  0.7446  0.2296
  163MPD2    C2 2535   4.162   3.956   0.782 -0.2764  0.1552 -0.1810
  163MPD2    C3 2536   4.101   4.001   0.900  0.1648 -0.6252  0.2591
  163MPD2    C4 2537   4.066   3.912   1.004 -0.2813  0.9577  0.2284
  163MPD2    C5 2538   4.096   3.774   0.982 -0.1173 -0.8497  0.5774
  163MPD2     H 2539   4.167   4.006   0.686 -0.3306 -0.0457 -0.2869
  163MPD2    H1 2540   4.010   3.943   1.091 -0.3493  1.9327 -0.1638
  163MPD2    H2 2541   4.179   3.624   0.864 -0.9936 -0.0183 -0.3706
  163MPD2    H3 2542   4.044   3.708   1.050 -2.1510 -0.7141 -0.8640
  163MPD2     N 2543   4.064   4.134   0.934 -0.7245 -0.2335 -0.1480
  163MPD2    H5 2544   4.027   4.155   1.026  0.7259 -2.2293  0.8794
  163MPD2    N1 2545   4.276   3.767   0.669 -0.0035  0.3114  0.4976
  163MPD2    H7 2546   4.292   3.667   0.672  0.8220  0.4741  1.6966
  164TMC2    C1 2547   0.168   3.883  11.264 -0.1258  0.2581 -0.4658
  164TMC2    C2 2548   0.290   3.886  11.198 -0.1643 -0.5475 -0.3378
  164TMC2    C3 2549   0.338   4.009  11.174 -0.2211 -0.6401 -0.3403
  164TMC2    C4 2550   0.095   3.992  11.293 -0.0782 -0.2938  0.4095
  164TMC2    C5 2551   0.134   4.111  11.237 -0.0825  0.1378  0.3516
  164TMC2    C6 2552   0.259   4.121  11.187  0.7010 -0.4804  0.7825
  164TMC2     C 2553   0.121   3.750  11.298  0.2435  0.4839  0.1699
  164TMC2     O 2554   0.026   3.736  11.373  0.2417 -0.1944  0.4294
  164TMC2     H 2555   0.364   3.807  11.207 -0.1478 -0.3962  0.8345
  164TMC2    H1 2556   4.738   3.986  11.341 -0.0509 -2.2816  0.2185
  164TMC2    H2 2557   0.301   4.217  11.160 -0.4763 -0.5236 -1.2398
  164TMC2    C7 2558   0.040   4.222  11.225 -0.1255 -0.0540  0.2585
  164TMC2    C8 2559   0.453   4.016  11.085  0.2056 -0.4212 -0.1951
  164TMC2    O1 2560   4.677   4.216  11.289  0.7779 -0.2725  0.0770
  164TMC2    O2 2561   0.485   3.922  11.013  0.2042 -0.3415  0.1447
  164TMC2    O5 2562   0.526   4.122  11.124  0.1115 -0.1698  0.0839
  164TMC2    H5 2563   0.484   4.176  11.194 -0.0765  0.7393 -0.7313
  165TMC2    C1 2564   1.464   1.507   1.682 -0.0004  0.3037  0.7156
  165TMC2    C2 2565   1.444   1.621   1.754 -0.0239 -0.4977 -0.6665
  165TMC2    C3 2566   1.553   1.695   1.799 -1.0561  0.3194 -0.1922
  165TMC2    C4 2567   1.588   1.460   1.668 -0.0933 -0.4612 -0.6884
  165TMC2    C5 2568   1.694   1.535   1.707  0.5565  0.7204 -1.1809
  165TMC2    C6 2569   1.676   1.662   1.758 -0.5320  0.6737 -0.7320
  165TMC2     C 2570   1.353   1.431   1.634 -0.2944 -0.8702  0.4662
  165TMC2     O 2571   1.363   1.306   1.636 -0.7681 -0.2717 -0.1767
  165TMC2     H 2572   1.344   1.644   1.786  1.0608  1.2601  1.4767
  165TMC2    H1 2573   1.598   1.379   1.596  2.1497 -1.2994  0.5586
  165TMC2    H2 2574   1.762   1.716   1.796  0.0327 -0.5922 -0.2169
  165TMC2    C7 2575   1.817   1.474   1.709 -0.5243  0.5846 -0.0491
  165TMC2    C8 2576   1.541   1.831   1.847  0.5304  0.1529 -0.1740
  165TMC2    O1 2577   1.908   1.552   1.707 -0.6662  0.0277 -0.0436
  165TMC2    O2 2578   1.610   1.926   1.807  0.2877  0.0258 -0.1779
  165TMC2    O5 2579   1.473   1.832   1.964  0.3159 -0.0548  0.4681
  165TMC2    H5 2580   1.425   1.751   1.990 -1.5933  0.6016 -1.0075
  166MPD2     C 2581   0.864   1.368   1.493  0.6246 -0.5291 -0.1869
  166MPD2    C1 2582   0.950   1.284   1.565  0.0737 -0.0898  0.0785
  166MPD2    C2 2583   1.075   1.330   1.598  1.0139  0.0473 -0.4837
  166MPD2    C3 2584   1.118   1.456   1.559 -0.2889  0.1295 -0.1610
  166MPD2    C4 2585   1.037   1.536   1.485  0.3283 -0.2656 -0.3614
  166MPD2    C5 2586   0.912   1.482   1.453  0.2581 -0.2121  0.1513
  166MPD2     H 2587   1.152   1.264   1.637  1.2895 -0.2027 -1.4436
  166MPD2    H1 2588   1.059   1.637   1.452  2.3895 -1.2908 -2.1042
  166MPD2    H2 2589   0.769   1.335   1.454  0.4417 -0.5731  0.2962
  166MPD2    H3 2590   0.850   1.542   1.387  0.8875  1.5445  1.1527
  166MPD2     N 2591   1.246   1.503   1.590  0.5026  0.3789 -0.0746
  166MPD2    H5 2592   1.252   1.602   1.570  2.5976  0.2945  0.1363
  166MPD2    N1 2593   0.901   1.160   1.610  0.0390 -0.2234  0.2080
  166MPD2    H7 2594   0.806   1.138   1.582 -0.3476  0.2252  1.1957
  167TMC2    C1 2595   4.381   4.040  13.351  0.0601  0.0300  0.1406
  167TMC2    C2 2596   4.336   4.085  13.472 -0.1670  0.0916 -0.6662
  167TMC2    C3 2597   4.227   4.024  13.526  0.2878  0.3813  0.5755
  167TMC2    C4 2598   4.317   3.938  13.286  0.4195  0.6490 -0.1465
  167TMC2    C5 2599   4.208   3.876  13.351 -0.2038 -0.7438 -0.4824
  167TMC2    C6 2600   4.158   3.919  13.466 -0.6630  0.4854 -0.3558
  167TMC2     C 2601   4.503   4.093  13.299 -0.8019  0.4894 -0.3041
  167TMC2     O 2602   4.569   4.165  13.372  0.0680 -0.3381  0.3765
  167TMC2     H 2603   4.394   4.158  13.528 -1.2518  0.3803  0.0663
  167TMC2    H1 2604   4.376   3.879  13.218 -0.3804  0.7655 -0.9398
  167TMC2    H2 2605   4.056   3.897  13.494 -1.1394  1.6321 -1.1992
  167TMC2    C7 2606   4.141   3.763  13.295  0.1265 -0.1996  0.5669
  167TMC2    C8 2607   4.138   4.113  13.599 -0.3564  0.1756 -0.0117
  167TMC2    O1 2608   4.057   3.703  13.362  0.0352 -0.2660 -0.1755
  167TMC2    O2 2609   4.025   4.134  13.562 -0.3187  0.4474 -0.0720
  167TMC2    O5 2610   4.204   4.185  13.695 -0.3031  0.2317 -0.3209
  167TMC2    H5 2611   4.294   4.151  13.712 -0.6293  0.4189  1.6969
  168MPD2     C 2612   4.713   4.194  13.128  0.3160 -0.2132  0.1414
  168MPD2    C1 2613   4.599   4.136  13.081  0.4822  0.6929  0.7052
  168MPD2    C2 2614   4.570   4.148  12.942  0.1633 -0.3467 -0.2234
  168MPD2    C3 2615   4.645   4.224  12.863  0.4154  0.2148 -0.1874
  168MPD2    C4 2616   0.015   4.291  12.913 -0.0312  0.0939  0.1119
  168MPD2    C5 2617   0.048   4.270  13.045  0.1095 -0.3953  0.2977
  168MPD2     H 2618   4.477   4.111  12.899  1.2836 -1.1165 -1.9509
  168MPD2    H1 2619   0.076   4.359  12.855  2.0077 -2.0396 -0.2115
  168MPD2    H2 2620   0.000   4.170  13.230 -0.9514  2.1054  1.0163
  168MPD2    H3 2621   0.141   4.316  13.078 -0.0007  1.2118 -1.5808
  168MPD2     N 2622   4.608   4.266  12.735  0.5310 -0.2926 -0.2511
  168MPD2    H5 2623   4.673   4.320  12.679  0.4981  0.3556  0.3308
  168MPD2    N1 2624   4.504   4.079  13.165 -0.3680 -0.1370  0.0814
  168MPD2    H7 2625   4.425   4.040  13.115 -1.3041  2.9400 -0.7917
  169MPD1     C 2626   1.087   4.408   9.797 -0.6066  0.2066  0.0054
  169MPD1    C1 2627   1.189   4.340   9.731  0.1718 -0.2273 -0.0732
  169MPD1    C2 2628   1.202   4.210   9.743 -0.5355  0.5826 -0.2182
  169MPD1    C3 2629   1.124   4.137   9.831  0.0141 -0.4916 -0.0619
  169MPD1    C4 2630   1.023   4.196   9.897 -0.4704 -0.4982  0.0827
  169MPD1    C5 2631   1.005   4.326   9.881 -0.2529  0.5668  0.1350
  169MPD1     H 2632   1.273   4.158   9.680  0.3098 -0.0758  1.2859
  169MPD1    H1 2633   0.964   4.158   9.980  0.0246 -0.9226  0.2430
  169MPD1    H2 2634   1.057   4.511   9.786 -1.1237  0.0926  0.3125
  169MPD1    H3 2635   0.923   4.361   9.941 -0.0509 -0.2511  0.8731
  169MPD1     N 2636   1.162   4.001   9.847  0.0540  1.4781  0.8930
  169MPD1    H5 2637   1.260   3.976   9.835 -0.0301  1.3717  0.4130
  169MPD1    N1 2638   1.267   4.398   9.627 -0.4661 -0.1745 -0.7731
  169MPD1    H6 2639   1.285   4.498   9.625 -0.2658 -0.1355  2.0359
  169MPD1    H7 2640   1.361   4.358   9.621 -0.9022 -1.6481  1.8625
  170MPD1     C 2641   1.104   1.398  13.376 -0.8320 -0.3465 -0.7479
  170MPD1    C1 2642   0.981   1.450  13.362 -0.1226  0.2384  1.3213
  170MPD1    C2 2643   0.888   1.404  13.450  0.2642  0.8493 -0.0935
  170MPD1    C3 2644   0.913   1.328  13.560  0.0584 -0.4105 -0.0323
  170MPD1    C4 2645   1.037   1.281  13.576  0.0406  0.9510  0.2905
  170MPD1    C5 2646   1.132   1.310  13.480 -0.0394 -0.4216  0.7019
  170MPD1     H 2647   0.786   1.428  13.424  0.6083 -1.9881 -3.8755
  170MPD1    H1 2648   1.062   1.205  13.648 -0.3789  1.6423  1.1568
  170MPD1    H2 2649   1.187   1.427  13.312 -1.0708 -0.9904 -1.3557
  170MPD1    H3 2650   1.230   1.263  13.481  1.2677  2.2406 -2.7898
  170MPD1     N 2651   0.800   1.288  13.636 -0.8553 -0.3332 -0.2076
  170MPD1    H5 2652   0.705   1.308  13.608 -1.2056 -1.2165  0.3664
  170MPD1    N1 2653   0.949   1.516  13.247 -0.2943  0.1410 -0.3186
  170MPD1    H6 2654   0.876   1.586  13.257  1.5893  1.8625  1.6393
  170MPD1    H7 2655   1.028   1.566  13.205 -1.1582  0.4903 -1.5299
  171MPD1     C 2656   3.481   2.590  16.218  0.0930  0.2630  0.0961
  171MPD1    C1 2657   3.576   2.566  16.321 -0.3432  0.0666 -0.5013
  171MPD1    C2 2658   3.672   2.474  16.291 -0.1263 -0.4312 -0.3993
  171MPD1    C3 2659   3.684   2.406  16.167  0.3954  0.1045 -0.8820
  171MPD1    C4 2660   3.589   2.441  16.068  0.7341 -0.5067 -0.1013
  171MPD1    C5 2661   3.490   2.524  16.096  0.0708  0.4512  0.7096
  171MPD1     H 2662   3.750   2.457  16.365 -1.3368  0.2725  1.0393
  171MPD1    H1 2663   3.597   2.416  15.963 -0.8411  1.2916 -0.6489
  171MPD1    H2 2664   3.395   2.656  16.227  1.6543  2.2635  0.5939
  171MPD1    H3 2665   3.435   2.567  16.013  2.3537 -0.2798 -1.2036
  171MPD1     N 2666   3.788   2.313  16.135 -0.1023  0.1312 -0.3766
  171MPD1    H5 2667   3.809   2.306  16.036  1.2627 -0.4224 -0.0420
  171MPD1    N1 2668   3.560   2.621  16.450  0.4459  0.6243  0.2555
  171MPD1    H6 2669   3.650   2.635  16.495  1.4738  2.5247 -2.4029
  171MPD1    H7 2670   3.501   2.704  16.443 -1.2009 -0.6296 -0.5825
  172MPD1     C 2671   3.289   0.822  17.568 -0.2063  0.1761  0.1881
  172MPD1    C1 2672   3.253   0.956  17.577 -0.2466  0.7344 -0.2878
  172MPD1    C2 2673   3.299   1.022  17.692  0.2013  0.3910  0.0642
  172MPD1    C3 2674   3.345   0.958   0.051  0.7731 -0.4993  0.3570
  172MPD1    C4 2675   3.362   0.821   0.038 -0.3189 -0.7120  0.2280
  172MPD1    C5 2676   3.348   0.758  17.673 -0.0268  0.0187 -0.4054
  172MPD1     H 2677   3.296   1.130  17.685  0.7715  0.4781  1.1237
  172MPD1    H1 2678   3.418   0.771   0.117  0.5806  1.1572  0.7743
  172MPD1    H2 2679   3.269   0.772  17.473  2.0747  0.0451 -0.2131
  172MPD1    H3 2680   3.378   0.655  17.661  0.6433  0.1384  0.2512
  172MPD1     N 2681   3.415   1.025   0.157 -0.0847 -0.4717 -0.4665
  172MPD1    H5 2682   3.467   0.968   0.222 -1.1015  0.4613  1.1582
  172MPD1    N1 2683   3.225   1.030  17.463 -0.3889 -0.2107 -0.6211
  172MPD1    H6 2684   3.170   1.112  17.487 -0.6149 -0.4943 -0.1768
  172MPD1    H7 2685   3.179   0.970  17.394 -1.0881 -1.0539  0.5904
  173MPD1     C 2686   0.068   1.534  13.925 -0.3723 -0.2266 -0.0081
  173MPD1    C1 2687   4.683   1.535  13.987 -0.0554  0.3559 -0.0694
  173MPD1    C2 2688   4.688   1.523  14.125 -0.3118  0.1880 -0.1847
  173MPD1    C3 2689   0.064   1.527  14.199  0.8628  0.2516 -1.4031
  173MPD1    C4 2690   0.185   1.552  14.132  0.2714  0.4336 -0.5218
  173MPD1    C5 2691   0.186   1.552  13.996 -0.0682  0.2345 -0.6335
  173MPD1     H 2692   4.597   1.512  14.183  0.0229  1.0298  0.5062
  173MPD1    H1 2693   0.280   1.556  14.185 -0.7215  0.4767  1.2491
  173MPD1    H2 2694   0.079   1.539  13.817 -3.1405 -1.3590 -0.3278
  173MPD1    H3 2695   0.285   1.567  13.954  1.7180 -0.1989  3.4371
  173MPD1     N 2696   0.052   1.521  14.339 -0.0657  0.6132 -0.7349
  173MPD1    H5 2697   4.702   1.501  14.381  1.6361 -1.9249  1.7478
  173MPD1    N1 2698   4.561   1.515  13.913  0.1048  0.2486 -0.0633
  173MPD1    H6 2699   4.571   1.552  13.819  1.2107 -0.8117 -0.3672
  173MPD1    H7 2700   4.480   1.548  13.966 -0.5888 -1.3974 -0.1045
  174MPD1     C 2701   0.713   1.192  15.007  0.2495  0.0098  0.0732
  174MPD1    C1 2702   0.600   1.223  15.074 -0.3047  0.0248 -0.7195
  174MPD1    C2 2703   0.480   1.236  15.003 -0.1139  0.0266 -0.3674
  174MPD1    C3 2704   0.477   1.221  14.864 -0.4633  0.1057  0.2579
  174MPD1    C4 2705   0.597   1.192  14.801  0.7852 -0.2722 -0.0847
  174MPD1    C5 2706   0.713   1.173  14.870 -0.0198 -0.5551 -0.3539
  174MPD1     H 2707   0.392   1.271  15.055  1.4306  0.8279  1.7219
  174MPD1    H1 2708   0.601   1.176  14.694 -2.1609  2.3330 -0.5964
  174MPD1    H2 2709   0.804   1.189  15.066 -1.2162 -1.9123  2.2730
  174MPD1    H3 2710   0.804   1.154  14.815 -0.7324  0.7818 -1.9866
  174MPD1     N 2711   0.367   1.246  14.776  0.6176 -0.1664  0.0819
  174MPD1    H5 2712   0.393   1.247  14.678  2.9706  1.5508  0.7358
  174MPD1    N1 2713   0.614   1.259  15.208 -0.0052 -0.2304  0.4090
  174MPD1    H6 2714   0.527   1.245  15.261 -0.2620  1.4222  0.4115
  174MPD1    H7 2715   0.694   1.224  15.259  0.4950 -0.9429 -0.8683
  175MPD1     C 2716   2.999   2.733  16.122 -0.7798 -0.2944  0.2842
  175MPD1    C1 2717   3.057   2.613  16.123 -0.5384 -0.0315  0.4890
  175MPD1    C2 2718   3.075   2.549  16.252 -0.2360 -0.5274 -0.1089
  175MPD1    C3 2719   3.014   2.601  16.366  0.2952 -0.4168  0.0994
  175MPD1    C4 2720   2.935   2.716  16.354 -0.3121  0.5975  0.3866
  175MPD1    C5 2721   2.927   2.777  16.228  0.0403  0.0867  0.0104
  175MPD1     H 2722   3.141   2.464  16.264  0.1891  0.1460  2.4126
  175MPD1    H1 2723   2.882   2.768  16.434 -0.0887  0.1143  0.8448
  175MPD1    H2 2724   2.994   2.793  16.032 -1.2388 -3.2094 -1.6175
  175MPD1    H3 2725   2.866   2.867  16.219  2.0663  1.4199 -0.4026
  175MPD1     N 2726   3.018   2.532  16.492 -0.1585  0.2132  0.6092
  175MPD1    H5 2727   2.952   2.559  16.564 -0.2405  0.9554  0.2529
  175MPD1    N1 2728   3.125   2.565  16.002 -0.1363 -0.4700  0.1465
  175MPD1    H6 2729   3.061   2.581  15.925  0.2198  1.8080  0.3257
  175MPD1    H7 2730   3.130   2.465  16.020 -1.5487 -0.0506  2.9262
  176MPD1     C 2731   4.149   4.250   0.272  0.4941 -0.6670  0.3624
  176MPD1    C1 2732   4.187   4.337   0.170 -0.2740  0.2831 -0.1179
  176MPD1    C2 2733   4.320   4.360   0.132  0.4923  0.5207 -0.0488
  176MPD1    C3 2734   4.415   4.275   0.180 -0.0590 -0.0288  0.6973
  176MPD1    C4 2735   4.375   4.184   0.284  0.7288  0.2558 -0.0621
  176MPD1    C5 2736   4.252   4.177   0.327  0.3896 -0.0479 -0.2997
  176MPD1     H 2737   4.345   4.439   0.062  0.3989  0.5943  0.0015
  176MPD1    H1 2738   4.451   4.116   0.321  0.3532  0.2728  0.7624
  176MPD1    H2 2739   4.050   4.229   0.311  0.0250  1.0650  0.1030
  176MPD1    H3 2740   4.225   4.100   0.399  1.3856 -0.3740 -0.2776
  176MPD1     N 2741   4.548   4.277   0.127  0.0151  0.1150  0.3762
  176MPD1    H5 2742   4.557   4.342   0.050 -0.7450 -0.1934  0.0361
  176MPD1    N1 2743   4.089   4.421   0.112 -0.1120 -0.0409 -0.4293
  176MPD1    H6 2744   4.027   4.370   0.049 -0.8149  2.0908 -1.4517
  176MPD1    H7 2745   4.133   4.500   0.067 -1.7178 -1.4161 -4.4144
  177MPD1     C 2746   3.245   4.022   9.780 -0.5049 -0.0592 -0.2745
  177MPD1    C1 2747   3.296   4.131   9.849  0.0127  0.6052  0.2855
  177MPD1    C2 2748   3.206   4.230   9.886  0.7459 -0.5776 -0.1190
  177MPD1    C3 2749   3.071   4.214   9.869 -0.7428 -0.2580  0.3247
  177MPD1    C4 2750   3.020   4.090   9.829  0.7234 -0.3658  0.9409
  177MPD1    C5 2751   3.108   4.007   9.764 -0.1545  0.6666  0.2578
  177MPD1     H 2752   3.246   4.315   9.939 -4.1726  1.4939  0.2032
  177MPD1    H1 2753   2.914   4.082   9.811  0.7463  1.3819  0.0257
  177MPD1    H2 2754   3.307   3.949   9.729 -1.9311 -0.6387 -1.1736
  177MPD1    H3 2755   3.067   3.919   9.715  0.4254  0.7394 -0.3564
  177MPD1     N 2756   2.987   4.327   9.899  0.7239 -0.5673 -0.3506
  177MPD1    H5 2757   3.024   4.420   9.885  2.1910 -1.0072  0.5327
  177MPD1    N1 2758   3.432   4.159   9.854 -0.8610  0.2674  0.1356
  177MPD1    H6 2759   3.483   4.072   9.873  0.9140  0.7346 -2.4786
  177MPD1    H7 2760   3.455   4.220   9.933  0.8229 -0.6511  0.3727
  178MPD1     C 2761   1.120   3.980   0.324  0.1554  0.0895  0.4691
  178MPD1    C1 2762   1.211   4.056   0.250 -0.0119 -0.0787  0.3842
  178MPD1    C2 2763   1.177   4.190   0.230  1.2716 -1.0410  0.1752
  178MPD1    C3 2764   1.051   4.235   0.238 -0.3599  0.2214  0.0001
  178MPD1    C4 2765   0.952   4.146   0.283  0.0072 -0.0338  0.0556
  178MPD1    C5 2766   0.989   4.018   0.326  0.0749 -0.2526 -0.4977
  178MPD1     H 2767   1.259   4.257   0.205  0.2976  0.6032  1.4450
  178MPD1    H1 2768   0.851   4.184   0.287 -0.0410 -0.3278  1.6009
  178MPD1    H2 2769   1.140   3.880   0.360  0.6139 -0.1469 -0.4227
  178MPD1    H3 2770   0.912   3.969   0.385 -2.0008  0.9815 -2.1594
  178MPD1     N 2771   1.011   4.365   0.201  0.2544 -0.2006  0.3027
  178MPD1    H5 2772   0.913   4.390   0.207 -0.1109 -1.1310 -1.8918
  178MPD1    N1 2773   1.342   4.019   0.225  0.4800  0.3516  0.1197
  178MPD1    H6 2774   1.344   3.918   0.210  0.0242 -0.0032  2.3922
  178MPD1    H7 2775   1.382   4.066   0.145 -2.6299  1.9862 -0.4557
  179MPD1     C 2776   0.182   3.480  15.595 -0.0715  0.2201 -0.5353
  179MPD1    C1 2777   0.083   3.388  15.575  0.0281  0.2178  0.1983
  179MPD1    C2 2778   0.117   3.255  15.583  0.5899  0.3247 -0.4452
  179MPD1    C3 2779   0.251   3.215  15.597  0.6562  0.0384  0.1470
  179MPD1    C4 2780   0.348   3.310  15.613 -0.2846 -0.2013  0.3652
  179MPD1    C5 2781   0.314   3.440  15.612 -0.4612  0.4301 -0.1743
  179MPD1     H 2782   0.036   3.183  15.576  1.0099 -0.2923  0.9270
  179MPD1    H1 2783   0.451   3.283  15.632  0.0641  0.7815 -0.1505
  179MPD1    H2 2784   0.164   3.587  15.589  1.4681  0.6121  1.6202
  179MPD1    H3 2785   0.396   3.508  15.633  0.3154 -0.7156  0.5099
  179MPD1     N 2786   0.284   3.080  15.601 -0.5276  0.2263 -0.5282
  179MPD1    H5 2787   0.381   3.059  15.622 -0.6563  0.2902  0.1255
  179MPD1    N1 2788   4.687   3.432  15.562 -0.1926 -0.0714  1.1514
  179MPD1    H6 2789   4.691   3.522  15.514 -2.9737  0.7182  2.3916
  179MPD1    H7 2790   4.623   3.370  15.513  0.4494  1.3278 -1.4263
  180MPD1     C 2791   0.067   4.125  14.768 -0.0704 -0.1121  0.3373
  180MPD1    C1 2792   4.678   4.115  14.759 -0.0179  0.3971 -0.7832
  180MPD1    C2 2793   4.595   4.201  14.818  0.2816  0.4156 -0.5534
  180MPD1    C3 2794   4.647   4.308  14.882 -0.0682  0.3117  0.5736
  180MPD1    C4 2795   0.047   4.317  14.903 -0.2817 -0.7555 -0.1027
  180MPD1    C5 2796   0.128   4.229  14.836 -0.2949 -0.0449 -0.3361
  180MPD1     H 2797   4.487   4.188  14.816  0.4508 -0.7641 -1.7208
  180MPD1    H1 2798   0.093   4.397  14.960  0.5724 -1.2059 -0.1590
  180MPD1    H2 2799   0.128   4.056  14.710 -1.2190 -1.7052  1.0266
  180MPD1    H3 2800   0.235   4.249  14.830  0.2401 -2.7356  0.1455
  180MPD1     N 2801   4.552   4.410  14.922 -0.0176  0.1124  0.3806
  180MPD1    H5 2802   4.457   4.386  14.897 -0.4603 -0.1300  2.3132
  180MPD1    N1 2803   4.619   4.010  14.694 -0.0187  0.7231  0.6144
  180MPD1    H6 2804   4.532   4.038  14.647 -0.5338  1.4788  2.0328
  180MPD1    H7 2805   4.676   3.950  14.634 -1.0463  0.6604 -0.3148
  181MPD1     C 2806   0.456   1.815  10.718  0.1905  0.1655  0.4361
  181MPD1    C1 2807   0.469   1.849  10.586 -0.0741  0.1167 -0.4028
  181MPD1    C2 2808   0.599   1.886  10.548 -0.8892 -0.2384 -0.2389
  181MPD1    C3 2809   0.701   1.911  10.633  0.0064  0.3075 -1.0055
  181MPD1    C4 2810   0.682   1.873  10.759  0.2612  0.3740 -0.0540
  181MPD1    C5 2811   0.560   1.827  10.802  0.2663 -0.4765 -0.3739
  181MPD1     H 2812   0.614   1.911  10.444 -2.1946  2.7231  0.2878
  181MPD1    H1 2813   0.765   1.882  10.828  1.0822 -0.0875 -0.9767
  181MPD1    H2 2814   0.373   1.758  10.759  0.0447 -0.3684 -0.5916
  181MPD1    H3 2815   0.544   1.808  10.907  1.8719 -1.4264 -0.2990
  181MPD1     N 2816   0.829   1.968  10.593 -0.1759 -0.1141  0.1730
  181MPD1    H5 2817   0.910   1.972  10.654 -0.2251  1.6940  0.1169
  181MPD1    N1 2818   0.384   1.798  10.493  0.1643 -0.5027  0.2969
  181MPD1    H6 2819   0.401   1.839  10.402 -2.8092  0.7337  0.2686
  181MPD1    H7 2820   0.286   1.806  10.520  0.4441 -0.1889  1.2166
  182MPD1     C 2821   3.047   0.367   0.990  0.0928 -0.3628 -0.3756
  182MPD1    C1 2822   3.077   0.443   0.879 -0.6038  0.1497 -0.5663
  182MPD1    C2 2823   3.027   0.407   0.750  0.0545 -0.3321  0.0873
  182MPD1    C3 2824   2.944   0.296   0.740  0.1828 -0.6063  0.0071
  182MPD1    C4 2825   2.909   0.227   0.853  0.2223  0.4869  0.9318
  182MPD1    C5 2826   2.962   0.261   0.977 -0.7882  0.3907 -0.3212
  182MPD1     H 2827   3.054   0.465   0.663 -0.6848  1.5159  1.0798
  182MPD1    H1 2828   2.829   0.153   0.850  1.1475 -0.4956  0.2818
  182MPD1    H2 2829   3.080   0.392   1.090 -3.3352  1.1111  0.4110
  182MPD1    H3 2830   2.929   0.212   1.068  0.4427  0.1338 -0.0212
  182MPD1     N 2831   2.892   0.245   0.616 -0.5970 -0.3485  0.1747
  182MPD1    H5 2832   2.833   0.163   0.625 -0.7171 -0.5642 -2.6367
  182MPD1    N1 2833   3.136   0.568   0.892 -0.2717  0.2383  0.0663
  182MPD1    H6 2834   3.177   0.599   0.804  2.3551 -2.4237  0.3440
  182MPD1    H7 2835   3.203   0.580   0.967  2.0048 -0.7789 -1.7893
  183MPD1     C 2836   2.984   2.499  10.335 -0.3542  0.6609 -0.5677
  183MPD1    C1 2837   2.973   2.384  10.256 -0.3232  0.4384 -0.1025
  183MPD1    C2 2838   2.843   2.335  10.220  0.0765 -0.0061  0.2535
  183MPD1    C3 2839   2.730   2.408  10.264 -0.2847 -0.5685 -0.9818
  183MPD1    C4 2840   2.748   2.513  10.355  0.4551  0.1579  0.8910
  183MPD1    C5 2841   2.874   2.547  10.394  0.4304 -0.1702  0.1996
  183MPD1     H 2842   2.835   2.246  10.158  0.9705 -0.2886  0.5489
  183MPD1    H1 2843   2.666   2.566  10.401 -0.4431 -0.6311  0.1879
  183MPD1    H2 2844   3.081   2.544  10.355  0.5316 -0.6743 -1.8560
  183MPD1    H3 2845   2.881   2.620  10.474  3.1135 -1.0944  0.8037
  183MPD1     N 2846   2.605   2.358  10.239  0.3815 -0.8626  0.0945
  183MPD1    H5 2847   2.602   2.269  10.190 -2.0464 -1.0014  0.5015
  183MPD1    N1 2848   3.089   2.329  10.197 -0.0936 -0.1730 -0.1275
  183MPD1    H6 2849   3.082   2.238  10.151  2.0436 -1.4806  2.1759
  183MPD1    H7 2850   3.175   2.338  10.250 -0.8802  0.9676  0.9462
  184MPD1     C 2851   1.811   4.135  10.425  0.0648 -1.1256 -0.2673
  184MPD1    C1 2852   1.699   4.209  10.383  0.0847  0.2068 -0.2490
  184MPD1    C2 2853   1.722   4.327  10.316 -0.3776  0.1077 -0.3210
  184MPD1    C3 2854   1.848   4.382  10.302  0.1203  0.2474 -0.1126
  184MPD1    C4 2855   1.956   4.305  10.339 -0.4836 -0.3474 -0.8903
  184MPD1    C5 2856   1.938   4.186  10.401 -0.4041 -0.6743  0.0504
  184MPD1     H 2857   1.632   4.383  10.292 -0.4821  0.2838  0.4773
  184MPD1    H1 2858   2.058   4.331  10.313  0.8747 -0.1680  4.5990
  184MPD1    H2 2859   1.809   4.034  10.464  0.6819 -1.5869 -1.4147
  184MPD1    H3 2860   2.021   4.140  10.453 -1.9770 -5.0729 -1.3072
  184MPD1     N 2861   1.872   4.514  10.246  0.0084 -0.7184 -0.0820
  184MPD1    H5 2862   1.969   4.543  10.241  0.0069 -0.5766  0.6927
  184MPD1    N1 2863   1.566   4.175  10.413 -0.2548  0.1634 -0.3093
  184MPD1    H6 2864   1.539   4.079  10.431 -0.2717  0.2916  0.3641
  184MPD1    H7 2865   1.506   4.211  10.338 -1.8288 -0.4326  0.6552
  185MPD1     C 2866   1.539   0.545   9.562 -0.4433  0.6965  0.0089
  185MPD1    C1 2867   1.484   0.430   9.601  0.5608 -0.0791  0.0806
  185MPD1    C2 2868   1.560   0.342   9.675  0.6488 -0.0407  0.1557
  185MPD1    C3 2869   1.680   0.385   9.737  0.3796  0.7963 -0.7144
  185MPD1    C4 2870   1.737   0.505   9.695 -0.1282  0.3239 -0.2692
  185MPD1    C5 2871   1.664   0.579   9.603 -0.4416 -0.2118 -0.3686
  185MPD1     H 2872   1.517   0.243   9.675  0.6130 -0.0128  1.7432
  185MPD1    H1 2873   1.830   0.540   9.737  0.0397 -0.9872  0.4573
  185MPD1    H2 2874   1.483   0.611   9.496  0.9391  1.2106 -0.6602
  185MPD1    H3 2875   1.700   0.677   9.574  1.0212 -0.3387  1.0365
  185MPD1     N 2876   1.750   0.314   9.834  0.1672  0.0404 -0.0237
  185MPD1    H5 2877   1.838   0.353   9.867  1.0822 -1.0329 -1.1740
  185MPD1    N1 2878   1.381   0.376   9.526  0.5419 -0.8021 -0.7726
  185MPD1    H6 2879   1.329   0.458   9.496  1.2475 -0.0366  0.1111
  185MPD1    H7 2880   1.323   0.306   9.574  0.2049  0.7618  1.1084
  186MPD1     C 2881   0.337   3.375  15.956 -1.2254 -0.2514  0.4785
  186MPD1    C1 2882   0.363   3.272  16.046  0.1109  0.1953  0.5049
  186MPD1    C2 2883   0.452   3.293  16.150  0.8357  0.1196  0.2128
  186MPD1    C3 2884   0.519   3.410  16.158  0.9988  0.4848 -0.8079
  186MPD1    C4 2885   0.506   3.508  16.059  0.4639 -0.3254  0.4903
  186MPD1    C5 2886   0.410   3.490  15.959  0.2224 -0.2795 -0.0652
  186MPD1     H 2887   0.468   3.215  16.223 -1.3236 -2.7486 -2.4009
  186MPD1    H1 2888   0.555   3.605  16.054  0.2055 -0.2161 -0.0030
  186MPD1    H2 2889   0.259   3.362  15.882  0.9540 -0.7134 -1.7266
  186MPD1    H3 2890   0.398   3.561  15.878  1.0292  1.6696  1.5048
  186MPD1     N 2891   0.605   3.437  16.269 -0.1569 -0.4254 -0.2413
  186MPD1    H5 2892   0.638   3.533  16.272  1.0716 -0.8391 -0.4096
  186MPD1    N1 2893   0.273   3.157  16.038 -0.2404  0.0536  0.2530
  186MPD1    H6 2894   0.240   3.148  15.942  1.5361  0.0806 -0.3736
  186MPD1    H7 2895   0.320   3.072  16.066  1.5192  1.1622  0.6579
  187MPD1     C 2896   0.640   0.570   0.580 -0.3794 -0.0201  0.2752
  187MPD1    C1 2897   0.593   0.460   0.526  0.0910 -0.0968 -0.3242
  187MPD1    C2 2898   0.546   0.454   0.394  0.3429 -0.3231 -0.2437
  187MPD1    C3 2899   0.537   0.572   0.325  0.3060 -0.0806  1.0757
  187MPD1    C4 2900   0.577   0.690   0.386 -0.3752  0.0970 -0.1632
  187MPD1    C5 2901   0.629   0.686   0.511  0.0624 -0.0420  0.1943
  187MPD1     H 2902   0.508   0.361   0.351  1.6089 -1.5611  1.3377
  187MPD1    H1 2903   0.579   0.790   0.343 -0.5297  0.0522 -0.2733
  187MPD1    H2 2904   0.674   0.566   0.683  0.7794 -0.7124 -0.1310
  187MPD1    H3 2905   0.664   0.777   0.558 -0.2593 -0.4853  1.3042
  187MPD1     N 2906   0.480   0.584   0.198  0.0629  0.2059 -0.1816
  187MPD1    H5 2907   0.475   0.680   0.167 -1.0295  0.1353 -0.2072
  187MPD1    N1 2908   0.597   0.336   0.598 -0.8041  0.1989 -0.7274
  187MPD1    H6 2909   0.604   0.350   0.699 -1.4224 -0.1218 -0.6402
  187MPD1    H7 2910   0.517   0.277   0.577 -1.4880  1.2215 -0.9887
  188MPD1     C 2911   4.467   0.733  10.517 -0.4377  0.7627  0.3591
  188MPD1    C1 2912   4.330   0.691  10.496 -0.1692 -0.5304  0.2008
  188MPD1    C2 2913   4.311   0.570  10.438  0.0283  0.3750 -0.2354
  188MPD1    C3 2914   4.411   0.482  10.417  0.6281  1.0339 -0.6666
  188MPD1    C4 2915   4.543   0.527  10.428 -0.1266 -0.1522 -0.2727
  188MPD1    C5 2916   4.571   0.647  10.485  1.4332  0.0631 -0.6314
  188MPD1     H 2917   4.207   0.558  10.411 -0.4942 -0.2627  2.0674
  188MPD1    H1 2918   4.628   0.470  10.391 -0.6001 -0.0815 -1.4577
  188MPD1    H2 2919   4.485   0.838  10.536  0.3289  0.2621  2.4134
  188MPD1    H3 2920   4.670   0.690  10.489  0.4638  2.4068 -1.9846
  188MPD1     N 2921   4.386   0.355  10.358 -0.2716 -0.0319 -0.0985
  188MPD1    H5 2922   4.469   0.301  10.333 -1.4305 -2.3024  1.0586
  188MPD1    N1 2923   4.233   0.791  10.497  0.0444 -1.0326  0.4256
  188MPD1    H6 2924   4.248   0.869  10.561  2.3252  0.7113 -2.2142
  188MPD1    H7 2925   4.135   0.762  10.492  0.7583 -3.3815  0.4773
  189MPD1     C 2926   1.876   1.266   0.945 -0.1177  0.4034 -0.4437
  189MPD1    C1 2927   1.789   1.204   0.857  0.6372  0.6904 -0.7018
  189MPD1    C2 2928   1.732   1.285   0.757  0.6086 -0.2117 -0.8220
  189MPD1    C3 2929   1.748   1.423   0.760 -0.3770 -0.2087  0.9218
  189MPD1    C4 2930   1.836   1.474   0.853 -0.4652 -0.0799  0.3967
  189MPD1    C5 2931   1.895   1.395   0.944  0.1957 -0.5797  0.0051
  189MPD1     H 2932   1.654   1.247   0.692 -0.8603  1.3670  0.0402
  189MPD1    H1 2933   1.865   1.578   0.855  0.1326 -0.2770  2.2915
  189MPD1    H2 2934   1.938   1.211   1.015 -1.0157 -0.5041 -0.3576
  189MPD1    H3 2935   1.962   1.443   1.014  0.8986 -0.2263 -0.8978
  189MPD1     N 2936   1.677   1.501   0.663  0.0326  0.1711  1.7755
  189MPD1    H5 2937   1.614   1.450   0.602 -0.7259  3.2062  0.0117
  189MPD1    N1 2938   1.782   1.062   0.857  0.3799  0.5621  0.4183
  189MPD1    H6 2939   1.693   1.046   0.810  0.5933  1.2783 -0.2246
  189MPD1    H7 2940   1.782   1.027   0.953  1.7148  1.4791  0.7495
  190MPD1     C 2941   0.057   4.408  15.294  0.5145  0.2969  0.6572
  190MPD1    C1 2942   0.032   4.527  15.351 -0.3854  0.0535  0.8123
  190MPD1    C2 2943   0.067   4.536  15.485  0.7800  0.0569 -0.6402
  190MPD1    C3 2944   0.129   4.445  15.557 -0.0391 -0.2629 -0.4948
  190MPD1    C4 2945   0.151   4.321  15.497  0.4672 -0.7844 -0.3619
  190MPD1    C5 2946   0.117   4.304  15.366 -0.3745  0.8740 -0.1262
  190MPD1     H 2947   0.039   4.628  15.534  1.5818 -0.9990  1.8270
  190MPD1    H1 2948   0.200   4.238  15.546 -0.2682 -1.3375 -0.5579
  190MPD1    H2 2949   0.031   4.393  15.189 -0.5459  1.9919  0.6751
  190MPD1    H3 2950   0.140   4.209  15.320 -0.5341  0.7221  0.1105
  190MPD1     N 2951   0.163   4.471  15.690 -0.4371  0.1895 -0.6328
  190MPD1    H5 2952   0.149   4.565  15.728 -0.8303 -0.2887  0.4175
  190MPD1    N1 2953   4.678   4.614  15.300  0.8858 -0.4979  0.0894
  190MPD1    H6 2954   4.676   4.710  15.333  2.8964 -0.6265  0.5828
  190MPD1    H7 2955   4.689   4.615  15.199 -2.1272 -2.3998 -0.2431
  191MPD1     C 2956   3.904   1.413  13.716  0.4927 -1.2073  0.0773
  191MPD1    C1 2957   3.833   1.528  13.741 -0.4701  0.3402  0.1336
  191MPD1    C2 2958   3.809   1.617  13.637 -0.8447 -0.0655  0.8607
  191MPD1    C3 2959   3.861   1.594  13.508 -0.3181 -0.4478 -0.4035
  191MPD1    C4 2960   3.929   1.470  13.485 -0.1064  0.3522  0.0450
  191MPD1    C5 2961   3.947   1.376  13.588  0.0714 -0.4907  0.9443
  191MPD1     H 2962   3.757   1.709  13.663  0.1072  0.8137 -0.3115
  191MPD1    H1 2963   3.964   1.450  13.384  0.7133 -2.0585  0.8062
  191MPD1    H2 2964   3.935   1.336  13.786 -0.9608 -1.5128  0.3663
  191MPD1    H3 2965   3.997   1.282  13.570 -1.3531 -0.8982 -0.9802
  191MPD1     N 2966   3.849   1.698  13.413  0.1409 -0.4958  0.3309
  191MPD1    H5 2967   3.803   1.783  13.444 -0.9491 -1.0245  0.1328
  191MPD1    N1 2968   3.803   1.578  13.871 -0.1220  0.3849 -0.3386
  191MPD1    H6 2969   3.706   1.607  13.867 -0.6435 -1.1999  0.9723
  191MPD1    H7 2970   3.803   1.503  13.939 -0.6836  0.4686 -0.2542
  192MPD1     C 2971   3.357   2.501  13.160 -0.5256 -0.1412 -0.9025
  192MPD1    C1 2972   3.457   2.476  13.260  0.7044 -0.6422 -0.3836
  192MPD1    C2 2973   3.539   2.367  13.247  0.6045 -0.3376 -0.1804
  192MPD1    C3 2974   3.514   2.279  13.136  0.3642 -0.8273 -0.2412
  192MPD1    C4 2975   3.419   2.301  13.038 -1.0206 -0.1147  0.6729
  192MPD1    C5 2976   3.340   2.412  13.058 -0.2360  0.4315  0.7222
  192MPD1     H 2977   3.626   2.360  13.311  0.8788 -2.1671 -0.7443
  192MPD1    H1 2978   3.412   2.232  12.955  0.3499  0.7028 -0.1308
  192MPD1    H2 2979   3.288   2.582  13.184  1.8065  0.9489  2.0764
  192MPD1    H3 2980   3.258   2.419  12.987 -1.9195 -1.8964  2.4396
  192MPD1     N 2981   3.587   2.164  13.117  0.0851 -0.0192 -0.3930
  192MPD1    H5 2982   3.573   2.118  13.028  1.8071  1.0105 -1.2120
  192MPD1    N1 2983   3.481   2.575  13.361 -0.5865 -0.1290 -0.4748
  192MPD1    H6 2984   3.514   2.534  13.449  1.0106  1.8103 -0.1725
  192MPD1    H7 2985   3.401   2.636  13.372 -0.2323 -0.2072  2.5252
  193MPD1     C 2986   3.942   1.903  16.464 -0.0291  0.1371  0.7420
  193MPD1    C1 2987   4.033   1.797  16.447 -0.5018  0.0936 -0.3233
  193MPD1    C2 2988   4.161   1.808  16.501 -0.4869  0.2625  0.3985
  193MPD1    C3 2989   4.199   1.920  16.580  0.2053 -0.0020  0.3762
  193MPD1    C4 2990   4.103   2.021  16.593  0.1494 -0.9121  0.0238
  193MPD1    C5 2991   3.980   2.011  16.538 -0.4281  0.0043 -0.5730
  193MPD1     H 2992   4.241   1.738  16.478 -1.1025 -1.1067  2.4828
  193MPD1    H1 2993   4.129   2.115  16.640 -0.3039 -1.4237  1.2807
  193MPD1    H2 2994   3.840   1.903  16.426 -0.5563  0.4076  2.1281
  193MPD1    H3 2995   3.904   2.085  16.557 -1.4566 -2.2083  3.8460
  193MPD1     N 2996   4.323   1.941  16.639  0.2594 -0.2949  0.0535
  193MPD1    H5 2997   4.347   2.035  16.670 -0.9736 -0.1511  0.5489
  193MPD1    N1 2998   3.999   1.702  16.353  0.1869  0.1068 -0.1013
  193MPD1    H6 2999   4.044   1.612  16.365 -0.1761  0.0409  0.7528
  193MPD1    H7 3000   3.898   1.689  16.339  0.2985  1.4409 -2.1804
  194MPD1     C 3001   1.817   4.273  17.364 -0.5988  0.5158  0.0238
  194MPD1    C1 3002   1.851   4.311  17.491  0.7073 -0.3242  0.9405
  194MPD1    C2 3003   1.914   4.217  17.574 -0.5652  0.1330  0.6253
  194MPD1    C3 3004   1.911   4.084  17.548 -0.0291 -0.3370  0.7552
  194MPD1    C4 3005   1.841   4.041  17.430 -0.0399  0.5993  0.6564
  194MPD1    C5 3006   1.804   4.135  17.340 -0.1837 -1.3118 -0.0203
  194MPD1     H 3007   1.956   4.245  17.670 -0.3368  0.7789  0.3359
  194MPD1    H1 3008   1.835   3.935  17.408  2.3752 -0.1139  3.2966
  194MPD1    H2 3009   1.788   4.343  17.286 -0.2004 -1.2280 -1.7123
  194MPD1    H3 3010   1.765   4.108  17.243  2.6611 -1.8657 -1.0078
  194MPD1     N 3011   1.949   3.987  17.642 -0.5321 -0.0162 -0.0513
  194MPD1    H5 3012   1.931   3.889  17.621 -1.3490 -0.4570  2.7619
  194MPD1    N1 3013   1.861   4.452  17.523  0.1623  0.2086 -0.5318
  194MPD1    H6 3014   1.846   4.477  17.621  1.2825 -2.8751  0.4502
  194MPD1    H7 3015   1.813   4.525  17.472 -1.2525 -0.1651  0.2541
  195MPD1     C 3016   4.594   1.054   0.737  0.0494  0.5123 -0.8090
  195MPD1    C1 3017   4.593   1.000   0.857 -0.0861 -0.1199 -0.2248
  195MPD1    C2 3018   4.580   0.862   0.865 -0.4827  0.7362  0.4333
  195MPD1    C3 3019   4.545   0.785   0.750 -1.0571  0.5091  0.6524
  195MPD1    C4 3020   4.536   0.843   0.627  0.3169 -0.6256  0.3445
  195MPD1    C5 3021   4.557   0.980   0.625 -0.0995 -0.7591  0.0717
  195MPD1     H 3022   4.595   0.820   0.964 -0.1757 -0.2287 -0.0281
  195MPD1    H1 3023   4.524   0.788   0.535 -0.6280 -0.4728  0.3742
  195MPD1    H2 3024   4.623   1.158   0.730 -0.2203  0.6825  0.6080
  195MPD1    H3 3025   4.558   1.029   0.528 -1.3192 -1.2728 -0.1941
  195MPD1     N 3026   4.512   0.649   0.764  0.2534 -0.4729 -0.2702
  195MPD1    H5 3027   4.474   0.598   0.684 -1.8858 -0.0258  0.4527
  195MPD1    N1 3028   4.625   1.075   0.973 -0.4591  0.1257  0.0356
  195MPD1    H6 3029   4.592   1.036   1.060  0.3862 -1.9941 -0.6096
  195MPD1    H7 3030   4.599   1.173   0.964  1.8503  0.6049 -1.5070
  196MPD1     C 3031   3.274   4.431   0.301 -0.1630 -0.1931 -0.1683
  196MPD1    C1 3032   3.358   4.526   0.266 -0.9211 -0.0671  0.5292
  196MPD1    C2 3033   3.428   4.594   0.363  0.5019  0.7286  0.3117
  196MPD1    C3 3034   3.417   4.559   0.496 -0.6103 -0.2077  0.8296
  196MPD1    C4 3035   3.331   4.457   0.530 -0.6377 -0.3651  0.1762
  196MPD1    C5 3036   3.249   4.403   0.432 -0.2509  0.3133 -0.2097
  196MPD1     H 3037   3.508   4.660   0.334  0.6109  0.4809  0.0538
  196MPD1    H1 3038   3.320   4.423   0.632 -1.8096  1.4515  0.6585
  196MPD1    H2 3039   3.215   4.376   0.229  1.1835 -1.0938 -0.5866
  196MPD1    H3 3040   3.180   4.325   0.462 -0.3385  0.4068 -0.1654
  196MPD1     N 3041   3.495   4.615   0.598 -0.2630  0.4033 -0.3115
  196MPD1    H5 3042   3.452   4.595   0.688  1.2492 -1.4830  0.0138
  196MPD1    N1 3043   3.393   4.546   0.134  0.2789 -0.1748  0.0422
  196MPD1    H6 3044   3.317   4.508   0.077  0.4119  0.4957 -0.5796
  196MPD1    H7 3045   3.404   4.645   0.114  0.3175 -0.4216 -1.1446
  197MPD1     C 3046   2.817   3.157   0.011 -0.0436 -0.3321  0.0222
  197MPD1    C1 3047   2.845   3.019  17.737  0.2757  0.0213  0.4857
  197MPD1    C2 3048   2.952   2.987  17.654 -0.2084 -0.1359 -0.3462
  197MPD1    C3 3049   3.046   3.082  17.615  0.4807  0.4539 -0.0446
  197MPD1    C4 3050   3.026   3.211  17.662 -0.0395  0.1551 -0.5243
  197MPD1    C5 3051   2.909   3.251  17.731  1.0382  0.2305 -0.4758
  197MPD1     H 3052   2.966   2.881  17.638 -0.1587 -0.4236  1.5541
  197MPD1    H1 3053   3.103   3.285  17.643  1.2307 -0.7770  0.9515
  197MPD1    H2 3054   2.729   3.188   0.066 -0.9402 -3.2726  0.2564
  197MPD1    H3 3055   2.898   3.356   0.000 -0.1420  0.1381 -0.6417
  197MPD1     N 3056   3.168   3.051  17.559  0.3076 -0.1422 -0.8354
  197MPD1    H5 3057   3.228   3.132  17.546  0.6353 -0.2857 -0.2150
  197MPD1    N1 3058   2.743   2.929   0.014  0.4015  0.2876 -0.2690
  197MPD1    H6 3059   2.694   2.947   0.101  0.7188 -0.2985  0.0327
  197MPD1    H7 3060   2.781   2.835   0.025 -1.1859 -0.5726 -2.1272
  198MPD1     C 3061   0.658   0.471  15.365 -0.1277 -0.5693  0.0782
  198MPD1    C1 3062   0.585   0.585  15.318 -0.1299 -0.2725  0.2447
  198MPD1    C2 3063   0.493   0.636  15.409 -0.1677 -0.1982 -0.6180
  198MPD1    C3 3064   0.484   0.585  15.537 -0.0851 -0.6944  0.3684
  198MPD1    C4 3065   0.552   0.465  15.571  0.2687  0.0833  0.2903
  198MPD1    C5 3066   0.639   0.411  15.482  0.1488  0.1675  0.3658
  198MPD1     H 3067   0.421   0.711  15.380 -1.3772 -2.1053 -2.5405
  198MPD1    H1 3068   0.533   0.421  15.668  3.3796  0.2573  0.9966
  198MPD1    H2 3069   0.730   0.417  15.304  0.6494 -0.2731  0.7277
  198MPD1    H3 3070   0.690   0.319  15.505 -1.1373 -0.9707 -1.3255
  198MPD1     N 3071   0.384   0.640  15.619 -0.1804 -1.0795  0.2055
  198MPD1    H5 3072   0.329   0.721  15.594 -1.1204 -1.2192  1.7951
  198MPD1    N1 3073   0.579   0.615  15.178 -0.3307 -0.2078 -0.5106
  198MPD1    H6 3074   0.559   0.714  15.161 -2.2504 -0.3539  0.8896
  198MPD1    H7 3075   0.669   0.601  15.133  0.2757 -3.0590  1.5615
  199MPD1     C 3076   2.174   2.407  10.622  0.5861  0.0808 -0.4045
  199MPD1    C1 3077   2.158   2.541  10.616 -0.2030  0.0375  0.2104
  199MPD1    C2 3078   2.031   2.596  10.592 -0.2082 -0.2550  0.3996
  199MPD1    C3 3079   1.923   2.514  10.556 -0.0064  0.0079  0.0201
  199MPD1    C4 3080   1.942   2.379  10.550  1.0687 -0.1156 -0.0150
  199MPD1    C5 3081   2.063   2.328  10.588 -0.4192  0.0173  0.1959
  199MPD1     H 3082   2.019   2.703  10.585 -0.9323 -0.2601  1.7021
  199MPD1    H1 3083   1.872   2.307  10.511 -0.0581  0.2569  1.3147
  199MPD1    H2 3084   2.264   2.357  10.656 -0.3722 -0.7764  0.8574
  199MPD1    H3 3085   2.083   2.221  10.589  2.1628  0.5075  1.6113
  199MPD1     N 3086   1.789   2.562  10.535  0.2707  0.1514 -0.0561
  199MPD1    H5 3087   1.724   2.489  10.509  0.1933  0.2111 -0.0298
  199MPD1    N1 3088   2.254   2.626  10.657  0.1869 -0.5538  0.2607
  199MPD1    H6 3089   2.258   2.704  10.591  3.8762 -0.5782  0.4980
  199MPD1    H7 3090   2.347   2.587  10.665  0.7339  0.9099  1.2590
  200MPD1     C 3091   1.050   2.590  15.428  0.3922 -0.2178  0.2655
  200MPD1    C1 3092   1.019   2.597  15.294  0.7070  0.1165  0.1095
  200MPD1    C2 3093   1.122   2.610  15.204 -0.2602 -0.0261  0.3282
  200MPD1    C3 3094   1.257   2.610  15.248 -0.1206  0.0922 -1.5887
  200MPD1    C4 3095   1.282   2.614  15.383  0.1669 -0.2347  0.4461
  200MPD1    C5 3096   1.180   2.615  15.473  0.0628  0.1141 -0.6591
  200MPD1     H 3097   1.098   2.603  15.099  0.9556 -1.1901  0.1208
  200MPD1    H1 3098   1.381   2.613  15.428  0.1242 -1.3819  0.5136
  200MPD1    H2 3099   0.977   2.560  15.501 -2.2160  3.3166 -0.8704
  200MPD1    H3 3100   1.205   2.615  15.578  1.3439  1.4916 -0.9641
  200MPD1     N 3101   1.363   2.595  15.157 -0.9783  0.1331 -0.1298
  200MPD1    H5 3102   1.340   2.580  15.059 -1.6380  2.3134 -0.3192
  200MPD1    N1 3103   0.891   2.560  15.245 -0.5627  0.2931 -1.0887
  200MPD1    H6 3104   0.815   2.587  15.308 -0.4648 -2.3410  0.1603
  200MPD1    H7 3105   0.863   2.584  15.150 -0.9993  2.2256 -0.4793
  201MPD1     C 3106   2.829   0.672  12.889 -0.5053 -0.5093 -0.4604
  201MPD1    C1 3107   2.942   0.590  12.892 -0.6259 -0.9439 -0.2970
  201MPD1    C2 3108   3.025   0.590  13.001  0.3461 -0.1554 -0.3303
  201MPD1    C3 3109   3.008   0.673  13.111  0.0485 -0.0029  0.3700
  201MPD1    C4 3110   2.901   0.768  13.105 -0.2674  0.4246 -0.0231
  201MPD1    C5 3111   2.808   0.752  13.001  0.0930  0.1645 -0.6213
  201MPD1     H 3112   3.096   0.509  12.991  0.7345  0.2908 -1.1298
  201MPD1    H1 3113   2.875   0.835  13.186 -1.5489  0.4238 -0.4326
  201MPD1    H2 3114   2.754   0.657  12.813  0.4205 -1.7374 -1.1447
  201MPD1    H3 3115   2.719   0.813  13.014 -0.9685 -1.0328 -2.3776
  201MPD1     N 3116   3.093   0.664  13.219  0.3506  0.1830  0.3199
  201MPD1    H5 3117   3.167   0.595  13.207 -0.3663 -0.0638 -2.6239
  201MPD1    N1 3118   2.956   0.483  12.795  0.4391 -0.0603 -0.2065
  201MPD1    H6 3119   2.941   0.512  12.699  1.9443 -0.2250 -0.4963
  201MPD1    H7 3120   3.046   0.436  12.795  0.9720  0.9498  2.5992
  202MPD1     C 3121   3.658   1.901  10.535  0.6020  0.2919 -0.3794
  202MPD1    C1 3122   3.544   1.969  10.503 -0.0619 -0.9895  0.0315
  202MPD1    C2 3123   3.433   1.881  10.495  0.3791 -0.7786  0.3344
  202MPD1    C3 3124   3.431   1.748  10.543 -0.2191 -0.7100  0.3991
  202MPD1    C4 3125   3.556   1.696  10.580 -0.2447  0.5179 -0.0065
  202MPD1    C5 3126   3.668   1.769  10.569 -0.1100  0.2264 -0.3625
  202MPD1     H 3127   3.340   1.917  10.454  0.3517 -1.1370  0.0785
  202MPD1    H1 3128   3.574   1.593  10.606 -0.0559  0.5298 -0.0892
  202MPD1    H2 3129   3.750   1.957  10.525  1.4193 -1.1450 -0.8264
  202MPD1    H3 3130   3.766   1.723  10.574 -0.2311  0.3481  2.9255
  202MPD1     N 3131   3.317   1.670  10.551  0.2427  0.0280 -0.3805
  202MPD1    H5 3132   3.343   1.575  10.575 -2.0774 -0.8969 -1.4743
  202MPD1    N1 3133   3.555   2.071  10.402 -0.0840  0.1992 -0.1524
  202MPD1    H6 3134   3.465   2.119  10.397 -0.4335 -0.6804 -2.2141
  202MPD1    H7 3135   3.616   2.141  10.441  0.2582  0.8019 -1.7725
  203MPD1     C 3136   1.741   1.626  12.848  0.5118 -0.5268 -0.0979
  203MPD1    C1 3137   1.838   1.603  12.760  0.3319 -0.3332 -0.0356
  203MPD1    C2 3138   1.918   1.485  12.774 -0.0834  0.7990  0.3918
  203MPD1    C3 3139   1.892   1.389  12.875 -1.2952 -0.2476 -0.0709
  203MPD1    C4 3140   1.792   1.423  12.956  0.3551  0.6744 -0.2570
  203MPD1    C5 3141   1.719   1.533  12.946  0.4657 -0.1538  0.2947
  203MPD1     H 3142   1.994   1.465  12.699  0.9157  1.1473  1.3064
  203MPD1    H1 3143   1.759   1.354  13.033 -0.7070  1.2257 -0.2163
  203MPD1    H2 3144   1.684   1.717  12.860 -1.4558 -1.7965  0.1723
  203MPD1    H3 3145   1.651   1.547  13.029 -0.8855  3.1983 -1.3685
  203MPD1     N 3146   1.958   1.268  12.882 -0.1763  0.4639 -0.2153
  203MPD1    H5 3147   2.030   1.244  12.814  1.0195  0.6828  0.9662
  203MPD1    N1 3148   1.864   1.703  12.667  0.2538 -0.5594  0.6050
  203MPD1    H6 3149   1.906   1.787  12.708 -1.5901 -0.0483  1.4122
  203MPD1    H7 3150   1.937   1.670  12.604  0.8192  1.5062  0.1542
  204MPD1     C 3151   2.427   2.905   0.819 -0.1398 -0.6640 -0.5334
  204MPD1    C1 3152   2.462   2.778   0.859  0.0305 -0.3479 -0.9236
  204MPD1    C2 3153   2.431   2.681   0.767  0.1015 -0.2319 -0.7955
  204MPD1    C3 3154   2.358   2.705   0.651  0.0637  0.4992 -0.5886
  204MPD1    C4 3155   2.314   2.830   0.621  1.0360 -0.2963 -1.3290
  204MPD1    C5 3156   2.343   2.933   0.713  0.5662 -0.8165 -0.5170
  204MPD1     H 3157   2.450   2.576   0.785 -1.1985 -0.7235 -2.3087
  204MPD1    H1 3158   2.254   2.848   0.532 -2.2618  2.7326  1.5193
  204MPD1    H2 3159   2.470   2.993   0.867 -1.1542 -0.3652 -0.1662
  204MPD1    H3 3160   2.330   3.034   0.677  0.6088 -1.5744 -2.6606
  204MPD1     N 3161   2.338   2.600   0.556  0.4240  0.0307  0.6707
  204MPD1    H5 3162   2.386   2.515   0.583 -0.4415 -0.2502  1.3225
  204MPD1    N1 3163   2.550   2.757   0.965  0.3965  0.1657 -0.8491
  204MPD1    H6 3164   2.551   2.656   0.983  1.2043  1.0108  4.0036
  204MPD1    H7 3165   2.517   2.806   1.048  2.2184  0.7735 -0.4909
  205MPD1     C 3166   1.991   1.517  17.225 -1.2533 -0.0775 -0.2486
  205MPD1    C1 3167   1.997   1.381  17.256  0.2761 -0.3905  0.0990
  205MPD1    C2 3168   2.043   1.340  17.377 -0.3906 -0.1622 -0.5233
  205MPD1    C3 3169   2.073   1.432  17.471 -0.3205 -0.2862 -0.6450
  205MPD1    C4 3170   2.057   1.568  17.449  0.4564 -0.0895  0.5596
  205MPD1    C5 3171   2.027   1.610  17.318 -0.2146 -0.2724 -0.8112
  205MPD1     H 3172   2.041   1.233  17.396  1.0459 -0.3572 -1.4744
  205MPD1    H1 3173   2.082   1.641  17.526 -0.1190 -0.0244  0.6796
  205MPD1    H2 3174   1.971   1.542  17.122 -0.7352  1.4595  0.0231
  205MPD1    H3 3175   2.023   1.717  17.298  0.1602 -0.1297 -0.1336
  205MPD1     N 3176   2.109   1.398  17.603 -0.5951 -0.6403 -0.0681
  205MPD1    H5 3177   2.125   1.477  17.666  1.9244 -1.6038  0.4719
  205MPD1    N1 3178   1.986   1.284  17.157  0.4738  0.4029 -0.2161
  205MPD1    H6 3179   1.933   1.320  17.077 -0.2884  0.5562  0.3548
  205MPD1    H7 3180   1.944   1.199  17.193 -0.8434  0.7641 -0.8807
  206MPD1     C 3181   2.630   4.501  16.972  0.3383  0.4080  0.1346
  206MPD1    C1 3182   2.498   4.535  16.974 -0.4102 -0.2450 -0.2688
  206MPD1    C2 3183   2.416   4.496  16.869  0.5393 -0.0599 -0.3408
  206MPD1    C3 3184   2.464   4.424  16.763 -0.4426 -0.0993 -0.7384
  206MPD1    C4 3185   2.591   4.376  16.777  0.0520 -0.0767 -0.0461
  206MPD1    C5 3186   2.678   4.414  16.878  0.1046 -0.9209  0.1655
  206MPD1     H 3187   2.310   4.511  16.885  1.0338 -0.2161  3.0167
  206MPD1    H1 3188   2.631   4.315  16.696  0.1059  2.6640 -2.0596
  206MPD1    H2 3189   2.683   4.529  17.062 -1.4077  0.8289  1.0364
  206MPD1    H3 3190   2.781   4.381  16.876  0.9606  1.7687 -1.0945
  206MPD1     N 3191   2.386   4.376  16.657  0.6519  0.9204  0.3777
  206MPD1    H5 3192   2.440   4.329  16.584  0.2250  1.0693 -0.0337
  206MPD1    N1 3193   2.438   4.584  17.100  0.7589  0.4467  0.3163
  206MPD1    H6 3194   2.348   4.629  17.084  0.1338 -1.4879 -1.6809
  206MPD1    H7 3195   2.503   4.653  17.136  2.5883 -1.3849  0.5243
  207MPD1     C 3196   3.675   2.392   9.885  0.4173 -0.3071 -0.1315
  207MPD1    C1 3197   3.711   2.260   9.900  0.3998 -0.1500  0.0435
  207MPD1    C2 3198   3.797   2.239  10.007  0.6841 -0.2507  0.0097
  207MPD1    C3 3199   3.845   2.341  10.087 -0.2437 -0.4552 -0.5774
  207MPD1    C4 3200   3.819   2.477  10.052 -0.5712 -0.7704  0.0284
  207MPD1    C5 3201   3.731   2.501   9.951  0.2549 -0.3243  0.6290
  207MPD1     H 3202   3.823   2.136  10.026 -4.0937 -1.4354  0.2339
  207MPD1    H1 3203   3.860   2.556  10.114  3.1293 -0.4677 -2.8023
  207MPD1    H2 3204   3.610   2.414   9.801 -1.0222 -1.3481  0.7102
  207MPD1    H3 3205   3.709   2.605   9.927  0.1126 -0.3994  0.4360
  207MPD1     N 3206   3.919   2.320  10.206 -0.0600 -0.2269  0.4581
  207MPD1    H5 3207   3.963   2.400  10.250 -0.2236  0.4842 -0.6586
  207MPD1    N1 3208   3.658   2.152   9.821 -0.5755 -0.7162  0.3705
  207MPD1    H6 3209   3.713   2.067   9.829 -0.4331 -0.5402  1.3444
  207MPD1    H7 3210   3.621   2.179   9.730  1.9952  0.3213 -0.3762
  208MPD1     C 3211   2.470   0.356  17.256 -0.0065  0.1106  0.2160
  208MPD1    C1 3212   2.450   0.450  17.353 -0.1466  0.3347 -0.2404
  208MPD1    C2 3213   2.348   0.438  17.444  0.3207  0.0653 -0.1025
  208MPD1    C3 3214   2.270   0.327  17.436 -0.3208 -0.7028 -0.6306
  208MPD1    C4 3215   2.278   0.240  17.325  0.2438 -0.7818 -0.7232
  208MPD1    C5 3216   2.376   0.258  17.238  0.1566 -0.1362  1.1598
  208MPD1     H 3217   2.340   0.508  17.526 -0.0265  0.1387 -0.1986
  208MPD1    H1 3218   2.234   0.141  17.321 -0.8186 -0.3138 -0.5850
  208MPD1    H2 3219   2.556   0.348  17.190  1.1184  2.1562  1.4375
  208MPD1    H3 3220   2.398   0.186  17.160 -2.9033 -1.7359  1.7777
  208MPD1     N 3221   2.172   0.314  17.544  0.1681 -0.1310  0.3194
  208MPD1    H5 3222   2.164   0.383  17.618  3.4178 -0.2780  0.8108
  208MPD1    N1 3223   2.559   0.532  17.376 -0.1296  0.2547 -0.1230
  208MPD1    H6 3224   2.608   0.551  17.288 -0.6410  1.6939 -0.0999
  208MPD1    H7 3225   2.520   0.620  17.409 -2.3409 -0.8559  0.1646
  209MPD1     C 3226   4.090   1.081  11.595 -0.0647 -0.0002 -0.2491
  209MPD1    C1 3227   4.092   1.125  11.462 -0.2321  0.1036 -0.6518
  209MPD1    C2 3228   4.098   1.260  11.443 -0.5925 -0.0942  0.2532
  209MPD1    C3 3229   4.119   1.350  11.548 -0.3870  0.5199 -0.6466
  209MPD1    C4 3230   4.107   1.304  11.679  0.6285  0.1622 -0.7667
  209MPD1    C5 3231   4.094   1.170  11.700 -0.8546  0.2814  0.0226
  209MPD1     H 3232   4.108   1.294  11.341  1.1563  0.6457  0.6722
  209MPD1    H1 3233   4.120   1.373  11.762  1.6501 -0.0837 -0.7212
  209MPD1    H2 3234   4.087   0.976  11.623 -0.6812  0.8685  2.8887
  209MPD1    H3 3235   4.083   1.120  11.796  0.1928 -1.8765 -0.9928
  209MPD1     N 3236   4.157   1.481  11.511 -0.0144  0.7268  0.3259
  209MPD1    H5 3237   4.180   1.497  11.413  0.9033  0.4768  0.5023
  209MPD1    N1 3238   4.093   1.029  11.356  0.1457 -0.1476  0.0722
  209MPD1    H6 3239   4.094   0.927  11.368  3.4553 -0.1490 -0.3931
  209MPD1    H7 3240   4.149   1.064  11.279  0.7533 -1.2816 -0.0055
  210MPD1     C 3241   4.683   2.441  11.611 -0.0405 -0.3147  0.5974
  210MPD1    C1 3242   4.627   2.370  11.711 -0.0234  0.0464 -1.1824
  210MPD1    C2 3243   4.562   2.252  11.680 -0.8399  0.0585 -0.5091
  210MPD1    C3 3244   4.566   2.201  11.547 -0.8496 -0.2742 -0.4162
  210MPD1    C4 3245   4.638   2.273  11.455  0.3742 -0.0957  0.5956
  210MPD1    C5 3246   4.695   2.393  11.483  0.5302  0.6894 -0.4002
  210MPD1     H 3247   4.499   2.203  11.752  0.0216  0.1092  0.2729
  210MPD1    H1 3248   4.641   2.244  11.350 -0.6921 -1.0175  0.8237
  210MPD1    H2 3249   4.724   2.541  11.612  0.8173 -0.6275 -3.2770
  210MPD1    H3 3250   0.021   2.448  11.416  1.1938 -1.2127 -1.3382
  210MPD1     N 3251   4.488   2.086  11.515  0.2707 -0.0899 -0.3117
  210MPD1    H5 3252   4.480   2.068  11.416 -0.2794  2.6333 -0.7657
  210MPD1    N1 3253   4.600   2.426  11.836  0.0058  0.2441  0.2365
  210MPD1    H6 3254   4.672   2.489  11.867 -1.5150  1.8974  0.3997
  210MPD1    H7 3255   4.586   2.354  11.907  2.9627 -0.4102  0.1310
  211MPD1     C 3256   2.255   0.784  16.326  0.5717 -0.4637  0.2335
  211MPD1    C1 3257   2.131   0.784  16.275  0.0958 -0.1998 -0.0712
  211MPD1    C2 3258   2.055   0.899  16.291 -0.2257  0.0527 -0.3067
  211MPD1    C3 3259   2.104   1.004  16.369 -0.0941 -0.6946  0.3458
  211MPD1    C4 3260   2.217   0.984  16.444  0.3662 -0.2652 -0.1111
  211MPD1    C5 3261   2.292   0.870  16.424 -0.3244 -0.0078 -0.6030
  211MPD1     H 3262   1.963   0.917  16.237  0.5753  3.1492 -0.6060
  211MPD1    H1 3263   2.240   1.035  16.537 -1.7590  1.4190 -0.5102
  211MPD1    H2 3264   2.310   0.693  16.307 -0.5555 -0.6107 -2.3818
  211MPD1    H3 3265   2.382   0.867  16.485 -0.6464 -3.5500 -0.2882
  211MPD1     N 3266   2.033   1.127  16.377  0.3124  0.0258  0.6956
  211MPD1    H5 3267   1.938   1.129  16.341 -0.0699  2.5206  1.8397
  211MPD1    N1 3268   2.092   0.681  16.183 -0.1459  0.0923 -0.2879
  211MPD1    H6 3269   1.993   0.664  16.166 -0.0336 -1.4917  0.6270
  211MPD1    H7 3270   2.113   0.586  16.214  0.9938  1.2601  2.4874
  212MPD1     C 3271   1.668   4.552  17.118 -0.8164  0.5384  0.7292
  212MPD1    C1 3272   1.693   4.443  17.037 -1.2088 -0.2230  0.3809
  212MPD1    C2 3273   1.635   4.319  17.058  0.6280  0.5588  0.3110
  212MPD1    C3 3274   1.538   4.297  17.157  0.0210 -0.6932  0.1362
  212MPD1    C4 3275   1.508   4.408  17.230  0.2397 -0.5588  0.4423
  212MPD1    C5 3276   1.567   4.534  17.205 -0.1856 -0.5906 -0.1534
  212MPD1     H 3277   1.665   4.236  16.995 -0.7517 -0.8449  1.5242
  212MPD1    H1 3278   1.431   4.392  17.305  0.8995 -0.7066  1.0854
  212MPD1    H2 3279   1.722   4.646  17.106 -0.3058  0.3695  1.6891
  212MPD1    H3 3280   1.542   4.616  17.272  0.0145  0.6123 -1.5526
  212MPD1     N 3281   1.472   4.179  17.185 -0.3228 -0.3926 -0.2978
  212MPD1    H5 3282   1.400   4.184  17.256  0.9587 -1.0816  1.0249
  212MPD1    N1 3283   1.794   4.447  16.945  0.4397  0.0182 -0.3987
  212MPD1    H6 3284   1.826   4.532  16.899 -0.8852  0.5065 -0.4001
  212MPD1    H7 3285   1.767   4.378  16.875 -0.7578  1.1747 -1.0748
  213MPD1     C 3286   4.330   4.499  15.751 -0.0791  0.1922  0.1617
  213MPD1    C1 3287   4.428   4.577  15.682  0.4438  0.0020  0.5710
  213MPD1    C2 3288   4.377   4.695  15.627 -0.3764 -0.7446  1.0975
  213MPD1    C3 3289   4.238   4.720  15.604  0.2528 -0.6939  0.0279
  213MPD1    C4 3290   4.151   4.621  15.655  0.0287  0.3259 -0.5759
  213MPD1    C5 3291   4.196   4.510  15.720  0.1362 -0.5818  0.3548
  213MPD1     H 3292   4.446   0.020  15.573 -0.1783  0.0699  2.3305
  213MPD1    H1 3293   4.046   4.617  15.629  0.4908  1.8006 -2.6833
  213MPD1    H2 3294   4.363   4.411  15.806  0.5813  0.2923 -0.0752
  213MPD1    H3 3295   4.131   4.436  15.765 -1.2381  2.7369  3.8074
  213MPD1     N 3296   4.203   0.106  15.561 -0.0797  0.2317 -0.3012
  213MPD1    H5 3297   4.275   0.177  15.561  0.5965 -0.4609 -1.1600
  213MPD1    N1 3298   4.566   4.568  15.708 -0.1680 -0.7268 -0.2728
  213MPD1    H6 3299   4.619   4.607  15.631 -1.7203  0.6275 -0.6623
  213MPD1    H7 3300   4.599   4.475  15.734 -0.4098 -0.9728 -0.8410
  214MPD1     C 3301   3.281   0.366  15.408  0.4829 -0.5458  0.6072
  214MPD1    C1 3302   3.339   0.487  15.436  0.5054  0.0978 -0.2697
  214MPD1    C2 3303   3.479   0.501  15.422 -0.2029  0.1101 -0.1462
  214MPD1    C3 3304   3.556   0.402  15.367 -0.8416 -0.2798 -1.2265
  214MPD1    C4 3305   3.488   0.284  15.339  0.0437  0.6707  1.0951
  214MPD1    C5 3306   3.352   0.268  15.359 -0.3245 -0.4256  0.2349
  214MPD1     H 3307   3.516   0.599  15.451 -1.6775  0.1039  1.7191
  214MPD1    H1 3308   3.534   0.201  15.287  0.2190  0.8940  0.8947
  214MPD1    H2 3309   3.174   0.358  15.425  0.1290  3.7350  0.5066
  214MPD1    H3 3310   3.304   0.173  15.339 -0.3342 -0.7491  1.7828
  214MPD1     N 3311   3.694   0.402  15.359 -0.0853 -0.5218 -0.0906
  214MPD1    H5 3312   3.746   0.335  15.302  1.9102  1.1347 -0.2282
  214MPD1    N1 3313   3.259   0.585  15.487  0.2509 -0.2002  0.5184
  214MPD1    H6 3314   3.159   0.573  15.472  0.2294  1.7726 -0.8220
  214MPD1    H7 3315   3.291   0.677  15.458 -0.0016 -0.0651  0.6637
  215MPD1     C 3316   3.180   1.662  11.634 -0.4821  0.3504 -0.1598
  215MPD1    C1 3317   3.184   1.667  11.772 -1.2241 -1.0031  0.8005
  215MPD1    C2 3318   3.297   1.710  11.826 -0.1262  0.7589  0.7190
  215MPD1    C3 3319   3.412   1.738  11.757 -0.2487 -0.0959 -0.1990
  215MPD1    C4 3320   3.404   1.737  11.621 -0.1082  0.1102  0.3565
  215MPD1    C5 3321   3.292   1.693  11.561  0.4930  0.1567  0.0891
  215MPD1     H 3322   3.304   1.728  11.933  3.2879  0.2008  0.5750
  215MPD1    H1 3323   3.491   1.772  11.567  0.5954 -0.8543  0.8623
  215MPD1    H2 3324   3.089   1.628  11.586  0.3346 -2.4461  0.2459
  215MPD1    H3 3325   3.299   1.687  11.453 -2.3019  1.7760 -0.1646
  215MPD1     N 3326   3.532   1.763  11.826  0.5682 -0.1194  0.8278
  215MPD1    H5 3327   3.516   1.790  11.922  1.3591  1.1271  0.6141
  215MPD1    N1 3328   3.071   1.647  11.851  0.0397  0.4717 -0.5451
  215MPD1    H6 3329   3.010   1.579  11.806 -0.5228  0.4854  0.1931
  215MPD1    H7 3330   3.087   1.616  11.947 -1.2722  0.2777 -0.3922
  216MPD1     C 3331   1.602   3.848  17.667 -0.2222  0.5157 -0.7450
  216MPD1    C1 3332   1.586   3.720  17.633  0.1480 -0.6044  0.4774
  216MPD1    C2 3333   1.590   3.614  17.725  0.3858  0.0665 -0.9704
  216MPD1    C3 3334   1.631   3.636   0.097 -0.0693  0.1276 -0.6254
  216MPD1    C4 3335   1.673   3.768   0.134  0.6787 -0.4410  0.3464
  216MPD1    C5 3336   1.647   3.871   0.042 -0.7115 -0.7163  0.0441
  216MPD1     H 3337   1.571   3.513  17.689  1.7763 -0.7239  0.5154
  216MPD1    H1 3338   1.717   3.794   0.230 -3.9867  1.1453  2.0662
  216MPD1    H2 3339   1.584   3.933  17.603  1.0562 -0.1622 -1.9932
  216MPD1    H3 3340   1.662   3.976   0.065 -0.0937  0.1153 -4.2429
  216MPD1     N 3341   1.639   3.529   0.187 -0.4911  0.1818 -0.4690
  216MPD1    H5 3342   1.587   3.445   0.163  0.4387  0.2335 -2.6414
  216MPD1    N1 3343   1.529   3.685  17.510 -0.0908 -0.1110  0.1015
  216MPD1    H6 3344   1.560   3.747  17.435 -0.3001  1.8598  1.6486
  216MPD1    H7 3345   1.548   3.590  17.479 -3.1497 -1.3492  1.9983
  217MPD1     C 3346   0.398   1.896   9.753  0.1133  0.1268  0.5567
  217MPD1    C1 3347   0.495   1.890   9.651 -0.6895  0.6566  0.3717
  217MPD1    C2 3348   0.609   1.827   9.681  0.8107 -0.7000  0.0875
  217MPD1    C3 3349   0.643   1.804   9.814  0.5891 -0.2329  0.5227
  217MPD1    C4 3350   0.552   1.834   9.912  0.1356  0.7819  0.6821
  217MPD1    C5 3351   0.426   1.885   9.889  0.2193  0.5355  0.6352
  217MPD1     H 3352   0.679   1.798   9.604  1.3998 -0.9800  0.7209
  217MPD1    H1 3353   0.565   1.798  10.014  1.0787 -0.3861  0.1476
  217MPD1    H2 3354   0.292   1.910   9.736  0.3865  0.7035 -0.6184
  217MPD1    H3 3355   0.350   1.891   9.966 -1.6686  0.3620 -1.2164
  217MPD1     N 3356   0.760   1.730   9.855 -0.3603  0.9168 -0.0134
  217MPD1    H5 3357   0.742   1.695   9.948  0.1462  0.2648 -0.1599
  217MPD1    N1 3358   0.463   1.915   9.520  0.3088  0.4797  0.2789
  217MPD1    H6 3359   0.550   1.948   9.479  0.5430 -1.1533 -0.5428
  217MPD1    H7 3360   0.389   1.984   9.510 -0.4904 -0.4225 -0.0766
  218MPD1     C 3361   3.478   1.881  13.724 -0.4642 -0.1268 -0.3798
  218MPD1    C1 3362   3.483   1.745  13.751  0.6646  0.0315  0.1462
  218MPD1    C2 3363   3.503   1.660  13.647 -0.8792 -0.3761  0.0474
  218MPD1    C3 3364   3.507   1.706  13.518 -0.0282 -0.8596 -1.0319
  218MPD1    C4 3365   3.500   1.839  13.489 -0.4289  0.8908  0.5072
  218MPD1    C5 3366   3.486   1.924  13.591  0.2667  0.0625  0.2959
  218MPD1     H 3367   3.494   1.554  13.670 -0.5144 -0.4951 -0.3541
  218MPD1    H1 3368   3.518   1.883  13.391 -0.2885 -1.2994 -0.4558
  218MPD1    H2 3369   3.454   1.950  13.804 -1.5387 -0.6349 -0.2592
  218MPD1    H3 3370   3.497   2.030  13.571  1.0727  0.0831  0.8715
  218MPD1     N 3371   3.521   1.607  13.415 -0.3645 -0.1153  0.3203
  218MPD1    H5 3372   3.520   1.511  13.446  1.6338  0.0430  0.8166
  218MPD1    N1 3373   3.495   1.691  13.881  0.0178  0.3827 -0.0095
  218MPD1    H6 3374   3.427   1.734  13.944 -1.4116  0.2092 -1.4304
  218MPD1    H7 3375   3.452   1.599  13.884 -0.8356  0.7347 -1.2886
  219MPD1     C 3376   3.308   1.272  12.493 -0.7710 -0.4518 -0.9532
  219MPD1    C1 3377   3.384   1.387  12.485  0.9937 -0.3750 -0.9695
  219MPD1    C2 3378   3.451   1.421  12.605  0.2370  0.3627 -0.8205
  219MPD1    C3 3379   3.440   1.339  12.716 -0.5693  0.5535  0.3533
  219MPD1    C4 3380   3.380   1.215  12.707 -0.2616 -0.1976 -0.0002
  219MPD1    C5 3381   3.306   1.190  12.600  0.0402  0.4280 -0.0356
  219MPD1     H 3382   3.523   1.502  12.598 -1.6451  2.1038  0.0292
  219MPD1    H1 3383   3.384   1.143  12.788  1.5098 -1.2163 -0.9900
  219MPD1    H2 3384   3.255   1.231  12.408  0.0729  2.3492 -2.8357
  219MPD1    H3 3385   3.255   1.095  12.592 -0.3719  0.8261 -2.0751
  219MPD1     N 3386   3.525   1.352  12.825 -0.6725 -0.0096 -0.3778
  219MPD1    H5 3387   3.512   1.291  12.905  2.0309 -0.4595 -0.2591
  219MPD1    N1 3388   3.410   1.460  12.368  0.5719  0.0927  0.2225
  219MPD1    H6 3389   3.454   1.404  12.295 -0.9279 -2.9140  1.6063
  219MPD1    H7 3390   3.482   1.529  12.388  1.6582 -0.3232 -2.2390
  220MPD1     C 3391   3.776   2.712  10.385  0.2006  0.8057 -0.5451
  220MPD1    C1 3392   3.814   2.752  10.515 -0.3686 -0.0222  0.1239
  220MPD1    C2 3393   3.827   2.657  10.619  0.0805  0.9120  0.4071
  220MPD1    C3 3394   3.797   2.520  10.603  0.1518 -0.6934 -0.0440
  220MPD1    C4 3395   3.750   2.487  10.475 -0.1407 -0.0384 -0.4753
  220MPD1    C5 3396   3.750   2.577  10.372  0.7387 -0.1508  0.0587
  220MPD1     H 3397   3.876   2.700  10.705 -0.2877 -0.7365  1.4481
  220MPD1    H1 3398   3.731   2.385  10.445 -1.6333 -0.0215  0.4111
  220MPD1    H2 3399   3.782   2.778  10.299 -0.9513 -0.5944 -1.6769
  220MPD1    H3 3400   3.712   2.545  10.276  2.3879  0.0934 -0.6807
  220MPD1     N 3401   3.794   2.434  10.716  0.0870  0.1300 -0.5943
  220MPD1    H5 3402   3.822   2.475  10.805  1.2561 -0.8432 -0.5054
  220MPD1    N1 3403   3.864   2.879  10.525 -0.0058 -0.2106  0.1763
  220MPD1    H6 3404   3.840   2.946  10.452  4.0559  0.9750 -0.0954
  220MPD1    H7 3405   3.842   2.931  10.610  0.7132  1.2919 -0.5399
  221MPD1     C 3406   1.231   0.491  16.856 -0.5268 -0.7275  0.2408
  221MPD1    C1 3407   1.303   0.559  16.951 -0.6323 -0.4542 -0.1619
  221MPD1    C2 3408   1.436   0.604  16.930  0.0109  0.2748  0.1514
  221MPD1    C3 3409   1.494   0.576  16.812  0.0802  0.7444 -0.0128
  221MPD1    C4 3410   1.421   0.513  16.708 -0.5626 -0.3127  0.1564
  221MPD1    C5 3411   1.289   0.472  16.735 -0.8061  0.2928  0.3230
  221MPD1     H 3412   1.484   0.639  17.020 -0.2682  2.6485 -0.6173
  221MPD1    H1 3413   1.458   0.497  16.608 -0.7715  3.2551 -0.4899
  221MPD1    H2 3414   1.129   0.455  16.861 -1.8126  3.0701  1.1493
  221MPD1    H3 3415   1.235   0.412  16.664  1.7853 -2.8702  0.9754
  221MPD1     N 3416   1.626   0.609  16.785 -0.2768 -0.1688 -0.0801
  221MPD1    H5 3417   1.664   0.599  16.691  0.0763  1.4364 -0.1171
  221MPD1    N1 3418   1.248   0.562  17.083 -0.2335 -0.4456 -0.2013
  221MPD1    H6 3419   1.271   0.646  17.136 -1.1759 -0.0675 -0.3940
  221MPD1    H7 3420   1.149   0.541  17.083 -0.3093 -0.0835  0.5939
  222MPD1     C 3421   0.812   4.714  17.200 -0.1136  0.3214 -0.7929
  222MPD1    C1 3422   0.890   4.604  17.184 -0.1192 -0.8956  0.8602
  222MPD1    C2 3423   1.018   4.604  17.251 -0.5657 -0.4274 -0.0417
  222MPD1    C3 3424   1.049   4.696  17.354  0.3508  0.1571 -0.1210
  222MPD1    C4 3425   0.954   0.054  17.378  0.6980  0.0216 -0.4283
  222MPD1    C5 3426   0.837   0.064  17.298 -0.2186  0.3221  0.3561
  222MPD1     H 3427   1.085   4.520  17.234 -0.0129 -0.2417  1.2278
  222MPD1    H1 3428   0.981   0.130  17.451 -1.8462  0.5447 -0.0397
  222MPD1    H2 3429   0.717   4.720  17.149  0.5548 -1.4183 -2.2401
  222MPD1    H3 3430   0.769   0.148  17.307  0.8011  1.3196 -1.1400
  222MPD1     N 3431   1.165   4.692  17.439  0.1968  0.3079 -0.3285
  222MPD1    H5 3432   1.162   0.021  17.514  0.3264 -1.0334  0.8921
  222MPD1    N1 3433   0.866   4.525  17.074  0.8315  0.1849 -0.0137
  222MPD1    H6 3434   0.925   4.442  17.072  0.0529 -0.3368 -1.0434
  222MPD1    H7 3435   0.769   4.496  17.063  2.0539 -2.6391 -3.3663
  223MPD1     C 3436   1.845   4.142   0.358  0.4348  0.3965  0.8252
  223MPD1    C1 3437   1.909   4.250   0.307  0.1140  0.1871  0.6199
  223MPD1    C2 3438   1.847   4.327   0.206 -0.1455 -0.5504  0.2839
  223MPD1    C3 3439   1.718   4.297   0.163 -0.4598 -0.3426 -0.3779
  223MPD1    C4 3440   1.667   4.180   0.205  0.1803  0.3434  0.5450
  223MPD1    C5 3441   1.723   4.112   0.306 -0.6456  0.4062 -0.2981
  223MPD1     H 3442   1.893   4.424   0.193  1.0336 -1.3332 -1.2544
  223MPD1    H1 3443   1.570   4.152   0.165 -0.1056  0.4523  1.1668
  223MPD1    H2 3444   1.871   4.086   0.448  1.6658 -0.1411  0.1360
  223MPD1    H3 3445   1.669   4.034   0.360  0.5965  0.3756  0.8867
  223MPD1     N 3446   1.656   4.390   0.080  0.3006  0.1342 -0.4039
  223MPD1    H5 3447   1.704   4.475   0.053 -0.7828  0.8157 -0.2112
  223MPD1    N1 3448   2.032   4.294   0.365 -0.3889 -0.4020  0.1899
  223MPD1    H6 3449   2.072   4.226   0.429  1.0966 -0.1385 -0.4704
  223MPD1    H7 3450   2.095   4.333   0.296  0.1826 -2.2378 -0.3356
  224MPD1     C 3451   2.292   2.799   9.867  0.3779  0.1065 -0.6555
  224MPD1    C1 3452   2.374   2.687   9.879 -0.3295  0.3538  0.1043
  224MPD1    C2 3453   2.319   2.558   9.880 -0.4409  0.5273 -0.0519
  224MPD1    C3 3454   2.175   2.540   9.876 -0.3041  0.4699 -0.4575
  224MPD1    C4 3455   2.096   2.654   9.853  0.0733 -0.5796 -0.2884
  224MPD1    C5 3456   2.161   2.775   9.847 -0.5103 -0.2233 -0.2030
  224MPD1     H 3457   2.372   2.466   9.902 -0.3371  0.9609  1.5198
  224MPD1    H1 3458   1.988   2.645   9.855  0.0289 -0.0204 -0.2837
  224MPD1    H2 3459   2.327   2.900   9.851  1.6298 -0.4340 -1.3162
  224MPD1    H3 3460   2.096   2.862   9.838  1.0171  1.0710  1.3793
  224MPD1     N 3461   2.109   2.419   9.887 -0.2172  0.1416  0.3523
  224MPD1    H5 3462   2.008   2.428   9.886 -0.1436  0.9627 -0.5996
  224MPD1    N1 3463   2.506   2.709   9.853  0.0345 -0.3931 -0.0995
  224MPD1    H6 3464   2.528   2.770   9.932 -1.2148  0.3039 -0.2874
  224MPD1    H7 3465   2.563   2.631   9.884  0.5514  0.7001  1.7044
  225MPD1     C 3466   3.112   2.236  13.821  0.0224 -0.0811 -0.3836
  225MPD1    C1 3467   3.156   2.126  13.753  0.3479 -0.7178  0.4779
  225MPD1    C2 3468   3.173   2.134  13.617 -0.7767 -0.1089  0.1381
  225MPD1    C3 3469   3.154   2.255  13.547  0.5505  0.2870  0.4426
  225MPD1    C4 3470   3.113   2.363  13.626 -0.0318 -0.2076 -0.3332
  225MPD1    C5 3471   3.088   2.350  13.761  0.0291  0.2031 -0.4172
  225MPD1     H 3472   3.190   2.041  13.563 -3.2274 -0.0451 -0.7738
  225MPD1    H1 3473   3.112   2.464  13.586 -1.9693  0.6105  1.8118
  225MPD1    H2 3474   3.099   2.228  13.928  1.1833  0.0025 -0.2410
  225MPD1    H3 3475   3.054   2.426  13.830  0.3282  0.2097 -0.2745
  225MPD1     N 3476   3.143   2.272  13.403  0.5384 -0.3561  0.5346
  225MPD1    H5 3477   3.098   2.357  13.371 -0.0651 -0.7359  0.3537
  225MPD1    N1 3478   3.144   1.997  13.812 -0.1573 -0.1815 -0.2378
  225MPD1    H6 3479   3.227   1.938  13.806  1.2331  1.6211  1.2403
  225MPD1    H7 3480   3.121   1.989  13.911  1.5408  1.4036  0.2855
  226MPD1     C 3481   0.817   2.112   9.703  0.0690 -0.2163 -0.3441
  226MPD1    C1 3482   0.754   2.184   9.801 -0.3947  0.0979 -0.1180
  226MPD1    C2 3483   0.824   2.290   9.860  0.1346 -0.0897  0.3039
  226MPD1    C3 3484   0.960   2.306   9.840  0.0674  0.0890  0.0561
  226MPD1    C4 3485   1.028   2.213   9.772 -0.1622 -0.1004  0.0925
  226MPD1    C5 3486   0.952   2.126   9.693  0.0371  0.2216  0.0391
  226MPD1     H 3487   0.771   2.355   9.929  1.4460 -0.5216  1.7288
  226MPD1    H1 3488   1.136   2.216   9.765 -0.3637 -0.9792 -3.3393
  226MPD1    H2 3489   0.765   2.044   9.636 -0.2230 -1.2316  0.9086
  226MPD1    H3 3490   1.006   2.067   9.620 -2.2538 -2.8703  0.8459
  226MPD1     N 3491   1.019   2.419   9.904  0.0360  0.2558  0.4769
  226MPD1    H5 3492   0.951   2.476   9.953 -0.5903 -0.2779  0.2234
  226MPD1    N1 3493   0.619   2.177   9.819  0.4896 -0.0828 -0.4860
  226MPD1    H6 3494   0.598   2.215   9.911 -0.7745  0.9906 -1.2061
  226MPD1    H7 3495   0.590   2.080   9.828  0.8663 -0.3744 -2.3288
  227MPD1     C 3496   0.547   2.856  10.442 -0.6695 -0.1504 -0.5456
  227MPD1    C1 3497   0.537   2.744  10.357  0.2126  0.1982 -0.7622
  227MPD1    C2 3498   0.648   2.713  10.283  0.2984 -0.4302  1.3938
  227MPD1    C3 3499   0.772   2.780  10.301 -0.5020  0.2301 -0.6909
  227MPD1    C4 3500   0.781   2.872  10.405  0.4244  0.3898  0.0317
  227MPD1    C5 3501   0.667   2.916  10.474 -0.0561  0.0355  0.1054
  227MPD1     H 3502   0.634   2.642  10.202 -2.0638 -0.9125  2.2250
  227MPD1    H1 3503   0.874   2.921  10.429  0.2855  0.1454  1.0309
  227MPD1    H2 3504   0.467   2.883  10.510  0.3602  0.5693  0.3989
  227MPD1    H3 3505   0.685   2.997  10.544  0.3033 -1.8589  2.2165
  227MPD1     N 3506   0.874   2.753  10.207  0.3773 -0.7192  0.1007
  227MPD1    H5 3507   0.851   2.698  10.125 -0.2534  0.1707 -0.3239
  227MPD1    N1 3508   0.413   2.707  10.315 -0.2106  0.3983 -0.4621
  227MPD1    H6 3509   0.356   2.712  10.399 -0.6164 -1.2487 -0.6285
  227MPD1    H7 3510   0.408   2.608  10.289  0.9131  0.2321 -0.0398
  228MPD1     C 3511   0.906   0.952  13.586  0.4892  0.3253 -0.7046
  228MPD1    C1 3512   0.836   0.972  13.469 -0.5077  0.3372  0.0402
  228MPD1    C2 3513   0.739   0.876  13.437  0.2213 -0.2585  0.4317
  228MPD1    C3 3514   0.706   0.772  13.521  0.0996  0.5053  0.1960
  228MPD1    C4 3515   0.766   0.771  13.649  0.2718  0.7325  0.3086
  228MPD1    C5 3516   0.873   0.852  13.679  0.3345  0.0567 -0.7165
  228MPD1     H 3517   0.705   0.879  13.334  0.2934 -1.3630  0.3732
  228MPD1    H1 3518   0.734   0.715  13.737  0.1270  1.1633  0.5283
  228MPD1    H2 3519   0.994   1.015  13.595  0.4137  0.2550  0.5217
  228MPD1    H3 3520   0.937   0.839  13.766 -2.3289 -0.2876  1.1620
  228MPD1     N 3521   0.597   0.686  13.477 -0.5570  0.1602  0.2370
  228MPD1    H5 3522   0.556   0.702  13.385 -0.0704  1.4517  0.2527
  228MPD1    N1 3523   0.868   1.062  13.367  0.5620  1.1316  0.1054
  228MPD1    H6 3524   0.783   1.092  13.321 -1.3943 -1.0895  2.2700
  228MPD1    H7 3525   0.917   1.144  13.403  2.2033 -0.1009  0.7038
  229MPD1     C 3526   0.250   3.600  15.060 -0.6347  0.3628  0.1989
  229MPD1    C1 3527   0.280   3.599  15.194  0.1855 -0.6028 -0.5304
  229MPD1    C2 3528   0.354   3.494  15.239  0.0073  0.4737  0.0212
  229MPD1    C3 3529   0.409   3.398  15.154 -0.0471 -0.4129 -0.2981
  229MPD1    C4 3530   0.386   3.416  15.021  0.4297  0.3191  0.3421
  229MPD1    C5 3531   0.305   3.517  14.978 -0.4943  0.4338 -0.2318
  229MPD1     H 3532   0.377   3.484  15.344  1.2539  0.4708 -0.2611
  229MPD1    H1 3533   0.425   3.354  14.942 -0.4748  1.8811 -1.3227
  229MPD1    H2 3534   0.193   3.685  15.021  1.4007  1.1176 -1.1471
  229MPD1    H3 3535   0.277   3.519  14.873  0.1704 -0.4680 -0.4250
  229MPD1     N 3536   0.493   3.292  15.208  0.3912 -0.2588  0.1778
  229MPD1    H5 3537   0.502   3.301  15.309 -1.7064  2.8571  0.1044
  229MPD1    N1 3538   0.211   3.675  15.289  0.2075  0.3555  0.0622
  229MPD1    H6 3539   0.188   3.766  15.249 -0.7906 -0.4962 -1.3298
  229MPD1    H7 3540   0.268   3.689  15.371  1.2299  0.0325 -0.5883
  230MPD1     C 3541   0.806   3.115  16.059 -0.4943 -0.8166  0.4482
  230MPD1    C1 3542   0.921   3.134  15.984  0.4401  0.2002  0.6180
  230MPD1    C2 3543   0.908   3.109  15.848 -1.0457 -0.4337  0.5134
  230MPD1    C3 3544   0.789   3.051  15.793  0.6236 -0.6459  0.7452
  230MPD1    C4 3545   0.678   3.018  15.875 -0.9666 -1.1363 -0.0542
  230MPD1    C5 3546   0.692   3.058  16.006  0.5976 -0.0112  0.1564
  230MPD1     H 3547   0.995   3.138  15.790  0.1186 -1.4506  1.7455
  230MPD1    H1 3548   0.589   2.969  15.838 -3.0634  1.6060  1.3757
  230MPD1    H2 3549   0.795   3.144  16.163  0.5079  0.8623  0.0737
  230MPD1    H3 3550   0.619   3.031  16.081 -0.4338  1.3078 -0.3517
  230MPD1     N 3551   0.787   3.034  15.652  0.0763 -0.0373 -0.2430
  230MPD1    H5 3552   0.876   3.061  15.611 -0.9374  2.1749 -0.9939
  230MPD1    N1 3553   1.026   3.202  16.038 -0.5606 -0.0293  0.1163
  230MPD1    H6 3554   1.047   3.162  16.130  0.6558  0.1746 -0.0748
  230MPD1    H7 3555   1.114   3.194  15.988 -0.4314 -2.6124  0.7526
  231MPD1     C 3556   3.731   0.987  16.124  0.5100  0.2205 -0.0983
  231MPD1    C1 3557   3.630   0.954  16.042 -0.7499  0.3089 -0.0849
  231MPD1    C2 3558   3.666   0.948  15.910  0.3436 -0.7410 -0.4926
  231MPD1    C3 3559   3.787   0.995  15.858  0.3210  0.0473  0.6771
  231MPD1    C4 3560   3.870   1.050  15.950 -1.1481 -0.2281 -0.2770
  231MPD1    C5 3561   3.844   1.042  16.082  0.1706 -0.1542  0.2008
  231MPD1     H 3562   3.596   0.904  15.840  1.8726 -1.3699 -1.6315
  231MPD1    H1 3563   3.966   1.095  15.928 -1.1472 -1.6678 -3.1891
  231MPD1    H2 3564   3.722   0.974  16.231 -2.2167  0.4660 -0.2866
  231MPD1    H3 3565   3.919   1.070  16.155  1.4713 -0.7823 -0.8892
  231MPD1     N 3566   3.805   0.998  15.719  0.4797  0.0864 -0.7434
  231MPD1    H5 3567   3.726   0.974  15.660 -0.5570 -1.3327  1.2247
  231MPD1    N1 3568   3.508   0.898  16.083  0.5524 -0.0831  0.2788
  231MPD1    H6 3569   3.481   0.946  16.168 -0.5756 -1.9354  0.9622
  231MPD1    H7 3570   3.437   0.926  16.016  0.0378  1.0130  1.2905
  232MPD1     C 3571   1.570   2.333   0.868 -0.1283  0.0480 -0.8913
  232MPD1    C1 3572   1.461   2.299   0.943 -0.2801 -0.6993  0.2698
  232MPD1    C2 3573   1.333   2.302   0.886 -0.1335  0.1303  0.4354
  232MPD1    C3 3574   1.319   2.352   0.753  0.1538 -0.9829  0.0743
  232MPD1    C4 3575   1.433   2.403   0.687  0.0365 -0.5529 -0.4403
  232MPD1    C5 3576   1.557   2.383   0.742 -0.1330  0.3835 -0.3065
  232MPD1     H 3577   1.247   2.257   0.936 -0.7751  0.2056 -0.6054
  232MPD1    H1 3578   1.427   2.448   0.588  0.7949  1.5406  0.4757
  232MPD1    H2 3579   1.667   2.308   0.909 -0.1939  1.7573  0.2699
  232MPD1    H3 3580   1.646   2.419   0.692 -0.6177  0.3538 -1.1946
  232MPD1     N 3581   1.190   2.359   0.700  0.2922  0.2673  0.7361
  232MPD1    H5 3582   1.114   2.353   0.767 -1.8031 -0.4511 -1.7523
  232MPD1    N1 3583   1.482   2.239   1.071  0.3685 -0.3914  0.1339
  232MPD1    H6 3584   1.570   2.268   1.112  0.9572 -1.3238 -0.4634
  232MPD1    H7 3585   1.406   2.262   1.135  1.3120 -1.5663  1.6694
  233MPD1     C 3586   2.882   1.719   0.672  0.0119 -0.2200  0.2302
  233MPD1    C1 3587   2.809   1.690   0.557  0.6964  0.1438  0.1546
  233MPD1    C2 3588   2.771   1.558   0.549  0.3570 -0.5752  0.4539
  233MPD1    C3 3589   2.785   1.466   0.653  0.2264  0.3609 -0.0232
  233MPD1    C4 3590   2.868   1.496   0.757 -0.4824  0.2119  0.3539
  233MPD1    C5 3591   2.926   1.623   0.769 -0.3391 -0.5296 -0.7135
  233MPD1     H 3592   2.715   1.527   0.462 -1.5211  2.8639  0.4622
  233MPD1    H1 3593   2.895   1.421   0.830 -1.0126 -1.0233 -0.7335
  233MPD1    H2 3594   2.933   1.815   0.682 -0.9765  0.2356  0.9254
  233MPD1    H3 3595   3.010   1.639   0.835 -1.8587 -1.4010  1.4384
  233MPD1     N 3596   2.720   1.338   0.655 -0.1059 -0.2251 -0.6158
  233MPD1    H5 3597   2.747   1.281   0.734 -0.2113 -0.7904 -0.9924
  233MPD1    N1 3598   2.805   1.781   0.449  0.4727 -0.0332 -0.1924
  233MPD1    H6 3599   2.731   1.762   0.381  0.9246 -0.1225 -0.6593
  233MPD1    H7 3600   2.790   1.879   0.472  1.7427  0.3583 -1.0430
  234MPD1     C 3601   2.145   0.524   8.957  0.4017 -0.3721 -0.6099
  234MPD1    C1 3602   2.204   0.562   9.079  0.3649 -0.4443 -0.0784
  234MPD1    C2 3603   2.169   0.690   9.118  0.0534 -0.5246 -0.8020
  234MPD1    C3 3604   2.064   0.763   9.061 -0.5143  0.0272 -0.0629
  234MPD1    C4 3605   1.987   0.704   8.959  0.9445  0.5724  0.0227
  234MPD1    C5 3606   2.035   0.585   8.907 -0.2420  0.6870 -0.3791
  234MPD1     H 3607   2.227   0.746   9.191 -0.2175 -4.0470  2.1244
  234MPD1    H1 3608   1.903   0.753   8.910 -0.6177 -0.4365  1.6955
  234MPD1    H2 3609   2.170   0.434   8.902  0.7166 -1.7932  1.8660
  234MPD1    H3 3610   1.992   0.551   8.813  0.9680 -1.3566 -0.1747
  234MPD1     N 3611   2.027   0.892   9.105  0.0061  0.0871  0.4793
  234MPD1    H5 3612   2.085   0.929   9.180  2.1571  1.2525 -1.7514
  234MPD1    N1 3613   2.324   0.505   9.121 -0.0154  0.2595  0.0746
  234MPD1    H6 3614   2.337   0.409   9.090 -1.9331 -0.3895  1.2769
  234MPD1    H7 3615   2.349   0.527   9.218 -1.3108 -1.4181  0.8005
  235MPD1     C 3616   4.024   3.407  11.848 -0.4939 -0.1005 -0.3018
  235MPD1    C1 3617   4.056   3.284  11.816 -0.1031  0.2047 -0.4006
  235MPD1    C2 3618   4.159   3.260  11.728 -0.6665 -0.0521 -0.2187
  235MPD1    C3 3619   4.220   3.370  11.667  0.4824 -0.2396 -0.1119
  235MPD1    C4 3620   4.194   3.491  11.714  0.0053 -0.6253  0.7098
  235MPD1    C5 3621   4.092   3.516  11.799 -0.2993 -0.5206  0.3973
  235MPD1     H 3622   4.198   3.163  11.699 -0.5746 -0.0639 -0.0533
  235MPD1    H1 3623   4.240   3.580  11.672  0.7556 -1.8070 -0.9929
  235MPD1    H2 3624   3.945   3.425  11.919 -1.2375  0.0285 -1.1622
  235MPD1    H3 3625   4.077   3.614  11.843 -2.6107 -0.5560 -0.3009
  235MPD1     N 3626   4.316   3.335  11.567  0.5794  0.3720  0.1250
  235MPD1    H5 3627   4.293   3.248  11.522  0.9739 -0.0441  0.7341
  235MPD1    N1 3628   3.982   3.172  11.860 -0.1219  0.5568  0.5951
  235MPD1    H6 3629   3.917   3.185  11.936 -0.1278  0.7637  0.5547
  235MPD1    H7 3630   4.038   3.089  11.882 -0.0507  0.6977  0.9433
  236MPD1     C 3631   2.759   4.560  10.199  0.8555  0.7635  0.3218
  236MPD1    C1 3632   2.692   4.459  10.252  0.7343 -0.5704 -0.0267
  236MPD1    C2 3633   2.766   4.342  10.268 -0.0608 -0.2262  0.0092
  236MPD1    C3 3634   2.904   4.336  10.270 -0.1764  0.1381 -0.6867
  236MPD1    C4 3635   2.966   4.454  10.240  0.0195 -0.3229  0.4215
  236MPD1    C5 3636   2.897   4.565  10.195  0.0955 -0.0206 -0.1923
  236MPD1     H 3637   2.714   4.250  10.289  0.5743 -0.0621  2.3268
  236MPD1    H1 3638   3.074   4.460  10.226 -0.0906 -1.3396 -0.8865
  236MPD1    H2 3639   2.710   4.652  10.169 -2.2845 -0.7694  0.6369
  236MPD1    H3 3640   2.943   4.656  10.157 -0.9866  0.0114 -1.4270
  236MPD1     N 3641   2.983   4.229  10.322  0.4340 -0.0327  0.1325
  236MPD1    H5 3642   3.084   4.240  10.317  0.5279 -0.3962  1.2988
  236MPD1    N1 3643   2.554   4.467  10.279 -0.0377 -0.4770 -0.2240
  236MPD1    H6 3644   2.511   4.551  10.316  1.1313  0.9087 -2.0024
  236MPD1    H7 3645   2.518   4.385  10.327 -0.5810 -1.3002 -2.0048
  237MPD1     C 3646   3.838   2.148  15.439  0.1436  0.0673 -0.3870
  237MPD1    C1 3647   3.734   2.104  15.360  0.0863 -0.2323  0.6068
  237MPD1    C2 3648   3.627   2.060  15.427 -0.1068  0.1212 -0.1032
  237MPD1    C3 3649   3.609   2.064  15.564 -0.5693 -0.4627  0.1834
  237MPD1    C4 3650   3.711   2.126  15.641 -0.0330 -0.7233  0.0155
  237MPD1    C5 3651   3.822   2.181  15.572  0.2989 -0.1482 -0.0775
  237MPD1     H 3652   3.554   2.003  15.371  0.5201 -0.7245 -0.0634
  237MPD1    H1 3653   3.710   2.118  15.749 -3.6155 -0.1346  0.0186
  237MPD1    H2 3654   3.927   2.188  15.393 -0.0203  0.2439 -0.5507
  237MPD1    H3 3655   3.904   2.217  15.634  1.2035  0.8919 -1.8949
  237MPD1     N 3656   3.495   2.002  15.615  0.6336 -0.0346  0.1959
  237MPD1    H5 3657   3.432   1.967  15.543  1.0069 -0.7996  0.2425
  237MPD1    N1 3658   3.742   2.068  15.225 -0.1448 -0.0636  0.6137
  237MPD1    H6 3659   3.654   2.084  15.177  0.1050 -0.8849 -0.1027
  237MPD1    H7 3660   3.825   2.094  15.172 -1.2755 -0.2790 -1.2505
  238MPD1     C 3661   0.913   0.002  15.222 -0.2435  0.1210 -0.3476
  238MPD1    C1 3662   0.819   4.688  15.308 -0.3235  0.1604 -0.0361
  238MPD1    C2 3663   0.693   0.019  15.311 -0.7124 -0.4469 -0.2933
  238MPD1    C3 3664   0.665   0.111  15.219 -0.2352  0.4463 -0.3769
  238MPD1    C4 3665   0.765   0.157  15.130  0.3866  0.3082 -0.1683
  238MPD1    C5 3666   0.889   0.110  15.137 -0.1879  0.0142  0.1165
  238MPD1     H 3667   0.614   4.725  15.378 -0.3808  0.1391  0.3922
  238MPD1    H1 3668   0.742   0.246  15.073  1.1821 -0.7238 -2.0787
  238MPD1    H2 3669   1.017   4.709  15.226 -0.7151 -0.9053  4.3672
  238MPD1    H3 3670   0.971   0.149  15.077 -0.6028  0.7971  0.0579
  238MPD1     N 3671   0.546   0.175  15.196  0.5678  0.0128 -0.1306
  238MPD1    H5 3672   0.546   0.240  15.118  1.5198 -1.3137 -1.2427
  238MPD1    N1 3673   0.872   4.611  15.409 -0.2584  0.0766 -0.1443
  238MPD1    H6 3674   0.802   4.554  15.457 -0.9340  1.6531  0.7147
  238MPD1    H7 3675   0.942   4.547  15.371 -0.8205 -0.2795 -0.5754
  239MPD1     C 3676   1.104   1.567  15.345  0.5347 -0.6133 -0.2802
  239MPD1    C1 3677   1.085   1.672  15.258 -0.5618 -0.0425 -0.7058
  239MPD1    C2 3678   1.007   1.652  15.139 -0.3702  0.8422 -0.0271
  239MPD1    C3 3679   0.946   1.525  15.112 -0.7830 -0.2956 -0.0531
  239MPD1    C4 3680   0.970   1.422  15.202  0.0976  0.2006  0.4391
  239MPD1    C5 3681   1.050   1.444  15.314  0.4815  0.1071 -0.0415
  239MPD1     H 3682   0.993   1.737  15.074  1.6942  0.4481 -0.9706
  239MPD1    H1 3683   0.922   1.325  15.199  0.7108 -0.0435 -1.4706
  239MPD1    H2 3684   1.179   1.572  15.423  1.4778  4.2789 -1.5047
  239MPD1    H3 3685   1.070   1.363  15.384 -1.1277 -1.3424 -1.2880
  239MPD1     N 3686   0.855   1.511  15.006 -0.1809  0.3130  0.0222
  239MPD1    H5 3687   0.814   1.418  14.999  0.3775 -0.0577  1.7276
  239MPD1    N1 3688   1.140   1.790  15.294 -0.3190 -0.5000 -0.0990
  239MPD1    H6 3689   1.138   1.803  15.394  0.4101 -0.6754 -0.0633
  239MPD1    H7 3690   1.082   1.865  15.257 -0.5382 -2.1416 -3.1767
  240MPD1     C 3691   0.182   1.202  14.239  0.6765 -0.0959  0.0836
  240MPD1    C1 3692   0.069   1.140  14.290  0.2488  0.2972  0.1819
  240MPD1    C2 3693   0.077   1.079  14.415 -0.2340  0.2667 -0.6471
  240MPD1    C3 3694   0.200   1.057  14.470 -0.2388  0.0713 -0.5806
  240MPD1    C4 3695   0.312   1.123  14.420  0.3626 -0.2109  0.0145
  240MPD1    C5 3696   0.299   1.199  14.307  0.2113 -0.2709 -0.1759
  240MPD1     H 3697   4.721   1.051  14.457  0.6340 -1.4143  0.2196
  240MPD1    H1 3698   0.415   1.111  14.454 -0.8222  1.0130  4.0116
  240MPD1    H2 3699   0.175   1.254  14.144 -2.0628 -0.0073  0.3448
  240MPD1    H3 3700   0.387   1.236  14.255  2.5048 -1.0596  3.1566
  240MPD1     N 3701   0.207   0.982  14.585 -0.2814 -0.1004 -0.1366
  240MPD1    H5 3702   0.123   0.958  14.637  1.0204 -1.8879  1.1210
  240MPD1    N1 3703   4.680   1.167  14.240 -0.3237  0.3677  0.3267
  240MPD1    H6 3704   4.693   1.183  14.141  2.1038 -1.6798  0.3173
  240MPD1    H7 3705   4.616   1.089  14.245  0.6713 -0.4191  0.7693
  241MPD1     C 3706   0.554   1.021  15.611 -0.1902 -0.1605 -0.4683
  241MPD1    C1 3707   0.627   0.944  15.513  0.3453  0.3038 -0.3286
  241MPD1    C2 3708   0.575   0.943  15.391 -0.4863 -0.0673 -0.2720
  241MPD1    C3 3709   0.444   0.977  15.365  0.1134  0.6161 -0.5410
  241MPD1    C4 3710   0.365   1.016  15.470  0.2644  0.0232  0.8525
  241MPD1    C5 3711   0.423   1.055  15.591  0.7216  0.2511 -0.2133
  241MPD1     H 3712   0.636   0.901  15.312  0.8851  3.8038 -1.2683
  241MPD1    H1 3713   0.263   1.033  15.438  0.1854 -1.7148  0.1855
  241MPD1    H2 3714   0.605   1.039  15.705  0.0202 -0.8299 -0.4507
  241MPD1    H3 3715   0.370   1.094  15.677 -0.3575 -2.1508  0.1894
  241MPD1     N 3716   0.379   0.969  15.241 -0.1265 -0.3862 -0.1816
  241MPD1    H5 3717   0.283   1.003  15.236 -0.1615 -0.4221  0.2166
  241MPD1    N1 3718   0.763   0.917  15.545 -0.5194 -0.6764  0.4699
  241MPD1    H6 3719   0.798   0.842  15.485  1.0379  1.0052 -0.7064
  241MPD1    H7 3720   0.777   0.879  15.638  0.2366  0.7120  0.9188
  242MPD1     C 3721   4.603   4.303  16.291  0.0115  0.0393 -0.2848
  242MPD1    C1 3722   4.553   4.367  16.180  0.0189  0.0917 -1.1446
  242MPD1    C2 3723   4.559   4.298  16.058  0.2108  0.1823 -0.0326
  242MPD1    C3 3724   4.640   4.190  16.045  0.4612 -0.0706 -0.1306
  242MPD1    C4 3725   4.698   4.131  16.157  0.0845  0.1271 -0.2299
  242MPD1    C5 3726   4.674   4.187  16.278  0.0097  0.4426 -0.9904
  242MPD1     H 3727   4.504   4.333  15.971  1.0812  2.6614  0.4118
  242MPD1    H1 3728   0.012   4.036  16.157  2.0251  1.2104 -2.3800
  242MPD1    H2 3729   4.597   4.356  16.386  1.1871 -0.5354  0.1136
  242MPD1    H3 3730   4.715   4.148  16.370  3.4317 -0.1288 -2.7489
  242MPD1     N 3731   4.677   4.131  15.924 -0.1840 -0.4204  0.2495
  242MPD1    H5 3732   4.720   4.040  15.936  1.0484  0.3602  1.7519
  242MPD1    N1 3733   4.480   4.484  16.198  0.1083 -0.7981 -0.2167
  242MPD1    H6 3734   4.497   4.542  16.116 -0.1836  1.3347  1.2143
  242MPD1    H7 3735   4.519   4.539  16.275 -2.6693  1.6548 -0.5651
  243MPD1     C 3736   1.363   2.456   0.159 -0.5746 -0.2174 -0.2052
  243MPD1    C1 3737   1.464   2.370   0.173 -0.1348  0.4070 -0.5296
  243MPD1    C2 3738   1.550   2.334   0.067 -0.0354 -0.5951  0.2558
  243MPD1    C3 3739   1.517   2.380  17.702  0.8070 -0.2166  0.5486
  243MPD1    C4 3740   1.422   2.479  17.684 -0.1385 -0.1005  0.5435
  243MPD1    C5 3741   1.346   2.518   0.035  0.2007  0.1051  0.2025
  243MPD1     H 3742   1.623   2.254   0.074 -1.3677 -1.9875 -1.9378
  243MPD1    H1 3743   1.383   2.512  17.588  1.0271  0.5251  0.2913
  243MPD1    H2 3744   1.297   2.478   0.243 -0.7396 -1.0535 -0.1157
  243MPD1    H3 3745   1.267   2.590   0.019  1.5230  1.6697  0.6365
  243MPD1     N 3746   1.599   2.328  17.595 -0.0557 -0.4133  0.3774
  243MPD1    H5 3747   1.680   2.277  17.627  0.1559 -1.5904 -2.0278
  243MPD1    N1 3748   1.502   2.346   0.307 -0.7889  0.0283 -0.0649
  243MPD1    H6 3749   1.548   2.257   0.325  0.3787  0.8778  1.1121
  243MPD1    H7 3750   1.424   2.354   0.371 -0.2718 -2.3278  0.8584
  244MPD1     C 3751   2.276   1.823  17.671 -0.6252 -0.4115  0.3944
  244MPD1    C1 3752   2.179   1.881  17.747 -0.1934 -0.3351  0.2411
  244MPD1    C2 3753   2.084   1.960  17.683  0.1209  0.2880  0.5083
  244MPD1    C3 3754   2.078   1.961  17.543 -0.2271  0.1081 -0.1246
  244MPD1    C4 3755   2.180   1.903  17.477  0.9591 -0.3310 -0.3456
  244MPD1    C5 3756   2.271   1.826  17.535 -0.2767 -0.8734 -0.7376
  244MPD1     H 3757   2.009   2.024  17.730  2.2520  0.7225  3.2730
  244MPD1    H1 3758   2.205   1.904  17.371 -0.9019  0.9729 -0.7770
  244MPD1    H2 3759   2.351   1.761  17.718  0.3365 -1.4648 -2.5312
  244MPD1    H3 3760   2.335   1.761  17.477 -2.4854 -1.5512 -2.3889
  244MPD1     N 3761   1.975   2.042  17.480  0.2940 -0.0962 -0.2229
  244MPD1    H5 3762   1.921   2.099  17.545  0.4180 -0.4020  0.1498
  244MPD1    N1 3763   2.182   1.867   0.126  0.0962  0.1572  0.4255
  244MPD1    H6 3764   2.219   1.776   0.152 -2.1294 -0.8045  0.2779
  244MPD1    H7 3765   2.093   1.882   0.174 -0.5330 -0.5873 -0.4876
  245MPD1     C 3766   2.930   3.108  13.042 -1.3561 -0.1969  0.1781
  245MPD1    C1 3767   2.964   3.113  13.178  0.3678  0.0457 -0.4302
  245MPD1    C2 3768   3.040   3.220  13.221 -0.2055  0.3048  0.0835
  245MPD1    C3 3769   3.088   3.318  13.135 -0.0212 -0.3834  0.2704
  245MPD1    C4 3770   3.051   3.320  13.003  0.2461  0.0020  0.2432
  245MPD1    C5 3771   2.978   3.210  12.951 -0.0925  0.3982  0.1999
  245MPD1     H 3772   3.070   3.218  13.325  2.7107 -0.5471 -0.7834
  245MPD1    H1 3773   3.081   3.392  12.928 -1.1937 -0.2989 -0.6254
  245MPD1    H2 3774   2.863   3.036  12.997  0.2323 -0.8160 -1.2159
  245MPD1    H3 3775   2.961   3.210  12.844 -2.4876 -1.0629  0.5908
  245MPD1     N 3776   3.183   3.416  13.190  0.5203  0.2744  0.2157
  245MPD1    H5 3777   3.215   3.409  13.286 -0.1352 -0.1769  0.4063
  245MPD1    N1 3778   2.907   3.026  13.270 -0.3304 -0.6853  0.2063
  245MPD1    H6 3779   2.960   3.033  13.357 -0.1876  1.7474 -0.0652
  245MPD1    H7 3780   2.916   2.930  13.237 -2.5139  0.4195 -3.6091
  246MPD1     C 3781   0.540   0.927  10.526 -0.8567 -0.4161 -0.1709
  246MPD1    C1 3782   0.612   0.843  10.442 -0.8465 -0.0338  0.3110
  246MPD1    C2 3783   0.540   0.746  10.366 -0.6754 -0.7782  0.3112
  246MPD1    C3 3784   0.403   0.751  10.366 -0.1730 -0.5735 -0.0223
  246MPD1    C4 3785   0.335   0.848  10.430  0.1500  0.3688  0.5737
  246MPD1    C5 3786   0.405   0.937  10.519  1.2585 -0.1129  0.0376
  246MPD1     H 3787   0.590   0.674  10.302  1.3052 -0.0538  1.0602
  246MPD1    H1 3788   0.227   0.845  10.431  0.0946  1.7707 -3.7671
  246MPD1    H2 3789   0.589   0.983  10.606  0.8291 -1.2311 -0.6359
  246MPD1    H3 3790   0.355   1.003  10.590  0.4408  0.1670 -0.7882
  246MPD1     N 3791   0.340   0.645  10.292  0.4722 -0.0487 -0.1087
  246MPD1    H5 3792   0.404   0.584  10.241 -0.2723 -1.2160  0.3434
  246MPD1    N1 3793   0.756   0.834  10.461 -0.1126  0.0601  0.0245
  246MPD1    H6 3794   0.786   0.927  10.489  2.0425  0.4877 -3.7153
  246MPD1    H7 3795   0.799   0.804  10.374 -0.0919  0.2352 -0.0259
  247MPD1     C 3796   2.894   3.315  17.353  0.0403  0.1263 -0.0372
  247MPD1    C1 3797   3.014   3.369  17.321  0.1822 -0.6067  0.1996
  247MPD1    C2 3798   3.106   3.297  17.243 -0.5484 -0.7330 -0.0843
  247MPD1    C3 3799   3.083   3.170  17.201  0.6645  0.0512 -0.2838
  247MPD1    C4 3800   2.963   3.111  17.241 -0.1466  0.2800  0.2566
  247MPD1    C5 3801   2.864   3.183  17.307 -0.1610 -0.3712 -0.1314
  247MPD1     H 3802   3.206   3.335  17.230 -1.2274  1.0223 -0.1504
  247MPD1    H1 3803   2.944   3.005  17.224 -2.7097  0.6270  0.8798
  247MPD1    H2 3804   2.822   3.356  17.423 -0.7623 -1.8739  0.2962
  247MPD1    H3 3805   2.773   3.127  17.328 -1.0531  0.6767 -1.1765
  247MPD1     N 3806   3.169   3.081  17.139  0.3909  0.4248 -0.4476
  247MPD1    H5 3807   3.133   2.989  17.116 -2.2928  1.4378 -0.3369
  247MPD1    N1 3808   3.053   3.490  17.383 -0.0946  0.3071 -0.4547
  247MPD1    H6 3809   3.110   3.548  17.321 -0.8260  4.0801  2.4249
  247MPD1    H7 3810   2.975   3.547  17.415 -1.4442  0.5628 -4.0795
  248MPD1     C 3811   3.473   1.949   0.219 -0.7977 -0.6491 -0.1669
  248MPD1    C1 3812   3.452   1.893   0.095 -0.0505 -0.1500  0.1295
  248MPD1    C2 3813   3.342   1.938   0.018  0.2162 -0.2231  1.2673
  248MPD1    C3 3814   3.266   2.047   0.055  0.4968 -0.4876 -0.0182
  248MPD1    C4 3815   3.298   2.113   0.173  0.1741  0.0170 -0.0209
  248MPD1    C5 3816   3.404   2.061   0.251 -0.1086  0.4889  0.1008
  248MPD1     H 3817   3.327   1.902  17.672 -1.1490  2.5269  0.4789
  248MPD1    H1 3818   3.244   2.202   0.203 -1.1344 -0.8217  0.1440
  248MPD1    H2 3819   3.556   1.918   0.280 -0.4823 -0.9143 -0.7289
  248MPD1    H3 3820   3.430   2.115   0.342 -0.0459  0.9549 -0.1926
  248MPD1     N 3821   3.157   2.088  17.724 -0.1214 -0.3466  0.0545
  248MPD1    H5 3822   3.128   2.025  17.649  1.7910 -0.9585 -0.1494
  248MPD1    N1 3823   3.543   1.800   0.040 -0.1794 -0.2861 -0.6346
  248MPD1    H6 3824   3.502   1.734  17.730  0.3282 -1.4752  0.2329
  248MPD1    H7 3825   3.579   1.747   0.120 -0.3920 -1.1087 -1.0842
  249MPD1     C 3826   4.662   1.830  11.308  0.0356  0.5324 -0.2335
  249MPD1    C1 3827   4.669   1.907  11.200 -0.1113 -1.0827 -0.1569
  249MPD1    C2 3828   4.597   1.883  11.084 -0.0225 -0.3759  0.3358
  249MPD1    C3 3829   4.543   1.757  11.067  0.2049 -0.3294  0.5834
  249MPD1    C4 3830   4.540   1.669  11.174 -0.3495 -0.1414  0.2662
  249MPD1    C5 3831   4.614   1.704  11.295 -0.2926  0.4689 -0.3249
  249MPD1     H 3832   4.594   1.954  11.002  1.4757  0.9333  1.4218
  249MPD1    H1 3833   4.497   1.570  11.176 -2.1519  0.5857 -1.8388
  249MPD1    H2 3834   4.713   1.862  11.398  1.9378  0.8977 -1.4465
  249MPD1    H3 3835   4.620   1.630  11.374 -0.8894  2.5085  1.6121
  249MPD1     N 3836   4.485   1.732  10.939 -0.0607 -0.0076  0.6375
  249MPD1    H5 3837   4.480   1.808  10.872  0.1432 -0.7281 -0.1837
  249MPD1    N1 3838   4.702   2.044  11.216 -0.1129 -0.6611  0.4064
  249MPD1    H6 3839   4.717   2.093  11.128  1.6596 -0.7857  0.6262
  249MPD1    H7 3840   0.045   2.053  11.275 -1.2179  1.2480  1.6439
  250MPD2     C 3841   1.497   2.101  12.973  0.2426 -0.0928  0.5221
  250MPD2    C1 3842   1.364   2.105  12.948 -0.6508 -0.1048  0.4586
  250MPD2    C2 3843   1.314   2.020  12.856 -0.2040 -0.3454  0.0748
  250MPD2    C3 3844   1.398   1.943  12.776 -0.0830 -0.0209 -0.3668
  250MPD2    C4 3845   1.532   1.937  12.803  0.0871  0.3866 -0.5079
  250MPD2    C5 3846   1.576   2.017  12.902  0.4311 -0.2479 -0.4867
  250MPD2     H 3847   1.208   2.013  12.835 -0.1891  0.5795 -0.2883
  250MPD2    H1 3848   1.588   1.876  12.733 -0.9684  0.0172 -1.0144
  250MPD2    H2 3849   1.529   2.171  13.049 -1.3611 -0.6080  1.6809
  250MPD2    H3 3850   1.683   2.014  12.923  0.2416 -1.9461  0.2422
  250MPD2     N 3851   1.360   1.857  12.666  0.0483  0.5199 -0.1398
  250MPD2    H5 3852   1.437   1.805  12.627 -0.5693  1.2007 -2.2689
  250MPD2    N1 3853   1.286   2.185  13.038  0.4693 -0.0118 -0.4025
  250MPD2    H7 3854   1.331   2.245  13.107 -0.9108  2.2397 -1.4551
  251TMC3    C1 3855   1.103   2.281  13.148  0.8918  0.5397  0.6074
  251TMC3    C2 3856   0.977   2.340  13.145 -0.3176  0.0613  0.4529
  251TMC3    C3 3857   0.946   2.420  13.253  0.1550 -0.0282 -0.1450
  251TMC3    C4 3858   1.179   2.281  13.259  0.2551 -0.3393  0.3530
  251TMC3    C5 3859   1.145   2.361  13.365  0.0273  0.2714 -0.0514
  251TMC3    C6 3860   1.031   2.432  13.373  0.8336  0.3263  0.4625
  251TMC3     C 3861   1.154   2.209  13.030  0.2820  0.1393  0.0159
  251TMC3     O 3862   1.077   2.173  12.940  0.2227 -0.1685  0.5616
  251TMC3     H 3863   0.909   2.324  13.061  2.2833  1.2437 -1.8797
  251TMC3    H1 3864   1.270   2.222  13.262  0.6136  0.0436 -3.1384
  251TMC3    H2 3865   0.999   2.486  13.461  0.3044  2.4689 -1.0234
  251TMC3    C7 3866   1.239   2.366  13.474  0.5495  0.3856  0.1011
  251TMC3    C8 3867   0.806   2.452  13.268 -0.3687 -0.0831 -0.5976
  251TMC3    O1 3868   1.306   2.264  13.500 -0.2441 -0.7476  0.6201
  251TMC3    O2 3869   0.770   2.524  13.359 -0.3568 -0.0152  0.2605
  252TMC3    C1 3870   1.168   3.784   9.949 -0.3496  0.0303  0.0208
  252TMC3    C2 3871   1.292   3.763   9.903  0.6439 -0.1289  0.3969
  252TMC3    C3 3872   1.355   3.643   9.942  0.5429 -0.2685 -0.4075
  252TMC3    C4 3873   1.098   3.692  10.020  0.4102 -0.6461  0.4871
  252TMC3    C5 3874   1.165   3.579  10.064  0.2630  1.1149  0.5024
  252TMC3    C6 3875   1.296   3.547  10.026 -0.1006  0.1839 -0.5224
  252TMC3     C 3876   1.087   3.907   9.909 -0.0786 -1.0835  0.6202
  252TMC3     O 3877   0.966   3.904   9.931  0.1168 -0.1508  0.6221
  252TMC3     H 3878   1.344   3.829   9.835  0.7491  1.2886  1.8513
  252TMC3    H1 3879   0.998   3.710  10.059 -0.3268 -2.0793 -0.7180
  252TMC3    H2 3880   1.346   3.456  10.058 -0.8377  0.5359  1.6303
  252TMC3    C7 3881   1.101   3.504  10.163  0.1039  0.6043 -0.3092
  252TMC3    C8 3882   1.498   3.630   9.903  0.5841 -0.3495  0.0272
  252TMC3    O1 3883   0.988   3.538  10.204 -0.5346  0.3778  0.2947
  252TMC3    O2 3884   1.543   3.714   9.832  0.0339 -0.1064 -0.2408
  253MPD2     C 3885   3.235   2.272  15.600 -0.1046  0.0856 -0.5040
  253MPD2    C1 3886   3.099   2.244  15.633 -0.4649  0.4246  0.0489
  253MPD2    C2 3887   3.063   2.218  15.763  0.0149  0.3674  0.5531
  253MPD2    C3 3888   3.146   2.241  15.869 -0.0708  0.6133  0.1323
  253MPD2    C4 3889   3.277   2.275  15.842 -0.9706 -0.0838 -0.0987
  253MPD2    C5 3890   3.320   2.286  15.709 -0.6281  0.6883 -0.1299
  253MPD2     H 3891   2.957   2.198  15.776  0.1676 -1.8087 -1.6505
  253MPD2    H1 3892   3.353   2.283  15.920 -2.2360 -0.8387  1.2095
  253MPD2    H2 3893   3.283   2.283  15.504 -0.2268  0.5090 -0.5163
  253MPD2    H3 3894   3.422   2.320  15.691 -0.7232  0.7069 -0.6315
  253MPD2     N 3895   3.098   2.231  16.002 -0.7527 -0.0425 -0.3377
  253MPD2    H5 3896   3.161   2.251  16.080 -0.2018 -5.2166  0.5093
  253MPD2    N1 3897   2.996   2.236  15.536 -0.3925 -0.0015 -0.1524
  253MPD2    H7 3898   2.902   2.248  15.572  0.0400  1.5035  0.4790
  254TMC3    C1 3899   2.955   2.202  16.192 -0.2733  0.0072  0.2891
  254TMC3    C2 3900   2.825   2.232  16.244  0.1472  0.2945 -0.2758
  254TMC3    C3 3901   2.796   2.198  16.374  0.4232  1.0355  0.4330
  254TMC3    C4 3902   3.057   2.137  16.267  0.2836  0.0578  0.2187
  254TMC3    C5 3903   3.012   2.105  16.397 -0.3505  0.1645 -0.4119
  254TMC3    C6 3904   2.883   2.129  16.453  0.7818 -0.6784 -0.0370
  254TMC3     C 3905   2.973   2.213  16.047  0.4913 -0.0331  0.0504
  254TMC3     O 3906   2.867   2.223  15.983 -0.0469  0.2258 -0.0926
  254TMC3     H 3907   2.757   2.297  16.190 -0.3577 -0.4362 -0.5245
  254TMC3    H1 3908   3.151   2.102  16.224  0.6382  0.9967  0.2219
  254TMC3    H2 3909   2.867   2.117  16.559 -0.6903  2.5805  0.0946
  254TMC3    C7 3910   3.106   2.032  16.472  0.2474  0.5068  0.1155
  254TMC3    C8 3911   2.679   2.253  16.438  0.1824  0.2731  0.2047
  254TMC3    O1 3912   3.066   1.986  16.580  0.6096  0.1191 -0.3155
  254TMC3    O2 3913   2.670   2.225  16.557  0.6630 -0.2783 -0.4679
  255MPD2     C 3914   1.018   4.225  10.602 -0.2328  0.9339  0.2034
  255MPD2    C1 3915   0.960   4.338  10.560 -0.2379  0.7327 -0.4937
  255MPD2    C2 3916   1.019   4.415  10.463 -0.5134  0.8412 -0.0659
  255MPD2    C3 3917   1.137   4.379  10.399 -0.2134 -0.8328 -0.3455
  255MPD2    C4 3918   1.196   4.261  10.451  0.0047  0.0965  0.5940
  255MPD2    C5 3919   1.131   4.187  10.544 -0.2414 -0.2127 -0.2018
  255MPD2     H 3920   0.977   4.508  10.427  1.6421  1.7626 -0.1956
  255MPD2    H1 3921   1.292   4.221  10.421  0.2604 -0.3999  2.0908
  255MPD2    H2 3922   0.967   4.149  10.661  0.4882  0.2748 -0.0188
  255MPD2    H3 3923   1.170   4.095  10.586 -1.6076  0.4105  2.4227
  255MPD2     N 3924   1.179   4.442  10.284 -0.4449  0.0227  0.1588
  255MPD2    H5 3925   1.112   4.503  10.238  1.6868  2.1497 -0.1306
  255MPD2    N1 3926   0.847   4.376  10.627 -0.4791 -0.5178 -0.3283
  255MPD2    H7 3927   0.788   4.307  10.672  1.3770 -1.4831  0.6643
  256TMC3    C1 3928   0.662   4.502  10.670  0.1839 -0.2925  0.3686
  256TMC3    C2 3929   0.603   4.623  10.696 -0.4169 -0.2611  0.1439
  256TMC3    C3 3930   0.463   4.633  10.675  0.1108  0.0719 -0.2097
  256TMC3    C4 3931   0.589   4.385  10.645  0.1858  0.0363 -0.3179
  256TMC3    C5 3932   0.452   4.399  10.629 -0.2119  0.3586  0.7579
  256TMC3    C6 3933   0.388   4.520  10.645 -0.1634 -0.7839  0.0553
  256TMC3     C 3934   0.799   4.502  10.634  1.2418  0.2310  0.3405
  256TMC3     O 3935   0.867   4.606  10.645  0.0722 -0.5498 -0.2122
  256TMC3     H 3936   0.662   4.710  10.724 -0.2191 -0.1204 -0.7043
  256TMC3    H1 3937   0.633   4.293  10.609 -1.6521 -0.6115 -0.9290
  256TMC3    H2 3938   0.283   4.527  10.619 -0.7468 -3.4743  1.7229
  256TMC3    C7 3939   0.394   4.310  10.529  0.3365  0.1446 -0.3431
  256TMC3    C8 3940   0.399   0.027  10.710 -0.1771  0.3127  0.0490
  256TMC3    O1 3941   0.467   4.264  10.445 -0.5638  0.1497 -0.0011
  256TMC3    O2 3942   0.286   0.020  10.752 -0.3444  0.3111  0.5714
  257MPD2     C 3943   4.691   1.442  13.524 -0.6330 -0.2840  0.0978
  257MPD2    C1 3944   0.061   1.525  13.509  0.3695  0.6740  0.4342
  257MPD2    C2 3945   0.178   1.488  13.571  0.0860 -0.1822  0.1133
  257MPD2    C3 3946   0.185   1.371  13.646 -1.1114 -0.3714  0.2086
  257MPD2    C4 3947   0.073   1.294  13.654 -0.1565  0.6005 -0.4078
  257MPD2    C5 3948   4.693   1.334  13.601  0.5356  0.2506  0.3409
  257MPD2     H 3949   0.271   1.541  13.558 -0.8062  0.6571 -2.7403
  257MPD2    H1 3950   0.072   1.199  13.706 -1.1622  1.4334  1.1064
  257MPD2    H2 3951   4.595   1.470  13.482  0.0647 -0.3540 -1.5152
  257MPD2    H3 3952   4.603   1.280  13.628  0.4268 -0.3167 -1.1560
  257MPD2     N 3953   0.302   1.332  13.712  0.7939 -0.2857 -0.1546
  257MPD2    H5 3954   0.377   1.400  13.705  0.0278  0.3145 -2.2812
  257MPD2    N1 3955   0.053   1.619  13.406 -0.0980 -0.7344 -0.6673
  257MPD2    H7 3956   4.696   1.637  13.378 -0.3982  0.2146  0.9594
  258TMC3    C1 3957   0.456   1.209  13.856 -0.9276 -0.8827  0.7271
  258TMC3    C2 3958   0.566   1.228  13.776  0.2004 -0.1508  0.2417
  258TMC3    C3 3959   0.690   1.175  13.807  0.5175  0.0205 -0.6464
  258TMC3    C4 3960   0.468   1.133  13.972 -0.3125 -0.6615 -0.4830
  258TMC3    C5 3961   0.599   1.099  14.010 -0.5761  0.2741  0.2922
  258TMC3    C6 3962   0.710   1.119  13.929  0.0445 -0.1021 -0.3215
  258TMC3     C 3963   0.322   1.238  13.814  0.5981  0.1363 -0.3153
  258TMC3     O 3964   0.232   1.185  13.879 -0.0584  0.6478 -0.0581
  258TMC3     H 3965   0.558   1.291  13.688  1.0036 -1.1715 -0.5612
  258TMC3    H1 3966   0.385   1.099  14.033 -0.6683  2.5735  0.8102
  258TMC3    H2 3967   0.798   1.065  13.961  0.9342  0.9831 -0.9360
  258TMC3    C7 3968   0.614   1.042  14.143 -0.3483 -0.4420  0.3096
  258TMC3    C8 3969   0.811   1.235  13.761  0.0270  0.5902 -0.4964
  258TMC3    O1 3970   0.544   0.950  14.183  0.2792  0.3416 -0.0604
  258TMC3    O2 3971   0.910   1.230  13.831  0.2579  0.2531  0.3629
  259MPD2     C 3972   4.120   2.553   1.250  0.2834 -0.4627  0.3481
  259MPD2    C1 3973   4.211   2.638   1.194 -0.2227 -0.2212 -0.5320
  259MPD2    C2 3974   4.340   2.604   1.206  0.1251  0.3222  0.1252
  259MPD2    C3 3975   4.381   2.481   1.252 -0.3603 -0.0124 -0.6848
  259MPD2    C4 3976   4.288   2.393   1.294 -0.7565 -0.5845 -0.1493
  259MPD2    C5 3977   4.155   2.437   1.301  0.1285  0.3210 -0.1693
  259MPD2     H 3978   4.417   2.669   1.166  0.3484 -0.4581 -0.7022
  259MPD2    H1 3979   4.310   2.299   1.344  1.2347  0.0452  0.1382
  259MPD2    H2 3980   4.015   2.580   1.251  0.6919  1.1285  0.1992
  259MPD2    H3 3981   4.081   2.370   1.343  1.0821  0.0266  1.0434
  259MPD2     N 3982   4.521   2.456   1.236  0.2005  0.5645 -0.8924
  259MPD2    H5 3983   4.571   2.528   1.185 -1.2578  0.0157 -3.1174
  259MPD2    N1 3984   4.163   2.754   1.126  0.1481  0.0224  0.4437
  259MPD2    H7 3985   4.069   2.787   1.147  0.4476  0.2057  1.4919
  260TMC3    C1 3986   4.725   2.344   1.237  0.1335 -0.2220  0.1121
  260TMC3    C2 3987   0.049   2.461   1.228 -0.2969 -1.0667 -0.2168
  260TMC3    C3 3988   0.179   2.452   1.177  0.1612  0.0481  0.0919
  260TMC3    C4 3989   0.045   2.220   1.208 -0.7975 -0.4304  0.4474
  260TMC3    C5 3990   0.180   2.219   1.191 -0.0177 -0.3025  0.6354
  260TMC3    C6 3991   0.243   2.338   1.165  0.6768  0.3811  0.3755
  260TMC3     C 3992   4.589   2.343   1.274 -0.0756  0.5850 -0.5530
  260TMC3     O 3993   4.545   2.248   1.337  0.4907  0.2861  0.1100
  260TMC3     H 3994   0.000   2.557   1.232  0.3922 -0.8093  2.0224
  260TMC3    H1 3995   4.727   2.131   1.190  0.1039 -0.7739 -0.7082
  260TMC3    H2 3996   0.350   2.327   1.156  0.5203  0.3536 -1.4058
  260TMC3    C7 3997   0.233   2.103   1.112  0.0504 -0.3371  0.0458
  260TMC3    C8 3998   0.237   2.567   1.113 -0.2270  0.2747 -0.4782
  260TMC3    O1 3999   0.315   2.133   1.028  0.2715  0.5443  0.1500
  260TMC3    O2 4000   0.193   2.683   1.139  0.3591 -0.0340  0.7556
  261MPD2     C 4001   0.876   1.820  11.983  0.2833  0.3527 -0.3509
  261MPD2    C1 4002   0.947   1.894  12.075 -0.2161 -0.0375  0.5167
  261MPD2    C2 4003   0.965   2.026  12.059  0.6113  0.4247  0.5085
  261MPD2    C3 4004   0.894   2.095  11.967 -0.6333 -0.1092 -0.5349
  261MPD2    C4 4005   0.813   2.024  11.877 -0.2821  0.3155 -0.4030
  261MPD2    C5 4006   0.808   1.886  11.885  0.6022 -0.0850 -0.1126
  261MPD2     H 4007   1.029   2.071  12.133  0.1409  1.7095  0.1296
  261MPD2    H1 4008   0.758   2.083  11.804  0.4966  1.3087 -0.1951
  261MPD2    H2 4009   0.848   1.717  11.999 -1.2214  0.6941 -0.8565
  261MPD2    H3 4010   0.737   1.822  11.834  1.1737  1.5506 -2.9213
  261MPD2     N 4011   0.906   2.233  11.970  0.2148  0.2137 -0.1469
  261MPD2    H5 4012   0.946   2.275  12.053 -1.1608 -1.1421  1.2091
  261MPD2    N1 4013   1.016   1.840  12.182 -0.5895 -0.0081 -0.4429
  261MPD2    H7 4014   1.091   1.895  12.222 -1.4254 -0.5684  1.8791
  262TMC3    C1 4015   0.913   2.447  11.908  0.2731 -0.7222 -0.3149
  262TMC3    C2 4016   0.812   2.518  11.967 -0.2050 -0.2345 -0.7917
  262TMC3    C3 4017   0.813   2.649  11.964 -0.0179 -0.1220 -0.2018
  262TMC3    C4 4018   1.019   2.514  11.850  0.1656  0.2872 -0.2676
  262TMC3    C5 4019   1.025   2.649  11.855 -0.6232 -0.5424  0.3134
  262TMC3    C6 4020   0.919   2.723  11.909 -0.4610 -0.0625  0.6551
  262TMC3     C 4021   0.883   2.313  11.866 -0.1489 -0.3513 -0.5520
  262TMC3     O 4022   0.820   2.299  11.763 -0.2933 -0.0245 -0.3858
  262TMC3     H 4023   0.726   2.462  12.003 -0.6277  0.7238 -0.3121
  262TMC3    H1 4024   1.097   2.457  11.801  0.4773  1.1204 -0.7371
  262TMC3    H2 4025   0.915   2.829  11.887  0.6673  0.3498  2.3916
  262TMC3    C7 4026   1.145   2.722  11.809 -0.1143  0.4424  0.6108
  262TMC3    C8 4027   0.703   2.727  12.018 -0.0120 -0.0129  0.0592
  262TMC3    O1 4028   1.241   2.657  11.776 -0.5818  0.1983 -0.1398
  262TMC3    O2 4029   0.713   2.849  11.989  0.1810 -0.4657 -0.1217
  263MPD2     C 4030   1.823   1.237  11.922  0.0784  0.4238  0.3766
  263MPD2    C1 4031   1.929   1.241  11.838 -0.0980  0.1538 -0.1089
  263MPD2    C2 4032   1.920   1.317  11.726  0.3768 -1.2860  0.0606
  263MPD2    C3 4033   1.807   1.388  11.699  0.1768 -0.4798  0.5979
  263MPD2    C4 4034   1.698   1.386  11.784  0.3185 -0.0256 -0.0308
  263MPD2    C5 4035   1.712   1.315  11.893 -0.3859 -0.5189  0.3112
  263MPD2     H 4036   2.009   1.329  11.666  2.0793 -2.3541  2.3714
  263MPD2    H1 4037   1.605   1.440  11.776 -0.2656 -1.0518 -0.1235
  263MPD2    H2 4038   1.822   1.196  12.022  0.1559  3.9599  1.8227
  263MPD2    H3 4039   1.626   1.308  11.958 -1.9938 -2.2450 -1.9810
  263MPD2     N 4040   1.816   1.470  11.581  0.6099 -0.2929 -0.0332
  263MPD2    H5 4041   1.907   1.477  11.537  0.0644 -1.8953 -1.4068
  263MPD2    N1 4042   2.042   1.160  11.864 -0.6883 -0.4914  0.8581
  263MPD2    H7 4043   2.031   1.086  11.934 -2.5453 -0.2855  0.7876
  264TMC3    C1 4044   1.749   1.597  11.405 -0.4064 -0.0907  0.5458
  264TMC3    C2 4045   1.679   1.703  11.371 -1.0252 -0.2424 -0.7999
  264TMC3    C3 4046   1.704   1.756  11.247 -0.5931  0.0596  0.6662
  264TMC3    C4 4047   1.851   1.535  11.330  0.4019  0.1385  0.7361
  264TMC3    C5 4048   1.873   1.589  11.206  0.1358 -0.4257 -0.1692
  264TMC3    C6 4049   1.791   1.690  11.161  0.2164 -0.1114 -0.0290
  264TMC3     C 4050   1.710   1.542  11.531 -0.4422 -0.5075  0.1238
  264TMC3     O 4051   1.604   1.568  11.585 -0.2772 -0.1127  0.4626
  264TMC3     H 4052   1.606   1.742  11.441 -0.0358 -0.4739  0.3559
  264TMC3    H1 4053   1.899   1.444  11.363 -0.1119 -0.5096 -0.3058
  264TMC3    H2 4054   1.794   1.729  11.060 -1.4350 -1.0044 -0.4222
  264TMC3    C7 4055   1.998   1.570  11.135 -0.0070  0.3941 -0.7006
  264TMC3    C8 4056   1.750   1.889  11.253  0.3188 -0.7583 -0.5433
  264TMC3    O1 4057   2.060   1.465  11.143  0.6098  0.1827  0.4086
  264TMC3    O2 4058   1.858   1.902  11.195 -0.6255  0.6590 -0.5252
  265MPD2     C 4059   4.000   1.727  15.701  0.3343  0.2802 -0.1437
  265MPD2    C1 4060   4.127   1.771  15.748  0.5402 -0.4055 -0.6825
  265MPD2    C2 4061   4.245   1.714  15.702 -0.5451 -0.4714 -0.3902
  265MPD2    C3 4062   4.236   1.593  15.626 -0.1222 -0.2907  0.4368
  265MPD2    C4 4063   4.113   1.541  15.597  0.4220  0.2156  0.2663
  265MPD2    C5 4064   3.994   1.608  15.633 -0.2807  0.4258 -0.1264
  265MPD2     H 4065   4.336   1.761  15.735 -0.8007 -0.2501  0.0033
  265MPD2    H1 4066   4.098   1.460  15.526  2.1338 -0.9380  1.1865
  265MPD2    H2 4067   3.915   1.785  15.734 -0.1041  1.4275 -3.2985
  265MPD2    H3 4068   3.899   1.568  15.600  0.5935 -1.5323 -0.2416
  265MPD2     N 4069   4.356   1.538  15.567  0.5038  0.2986 -0.5748
  265MPD2    H5 4070   4.435   1.597  15.546  0.2277  1.3397  1.3507
  265MPD2    N1 4071   4.138   1.885  15.832 -0.3141  0.8462 -0.4909
  265MPD2    H7 4072   4.232   1.915  15.855 -1.3900  0.8623  3.7710
  266TMC3    C1 4073   4.071   2.033  16.015  0.2591 -0.2313 -0.5586
  266TMC3    C2 4074   4.181   2.011  16.092  0.3255  0.5139  0.0958
  266TMC3    C3 4075   4.189   2.072  16.212  0.0718 -0.6140 -0.8138
  266TMC3    C4 4076   3.974   2.120  16.053 -0.0221 -0.1621 -0.3720
  266TMC3    C5 4077   3.987   2.190  16.165  0.5453 -0.6585  0.7462
  266TMC3    C6 4078   4.090   2.157  16.251 -0.2950 -0.3405 -0.1301
  266TMC3     C 4079   4.034   1.938  15.907 -0.4589  0.3989  0.1502
  266TMC3     O 4080   3.916   1.913  15.917  0.5388 -0.1548 -0.1831
  266TMC3     H 4081   4.254   1.937  16.061 -1.2430 -1.4536  1.0355
  266TMC3    H1 4082   3.885   2.132  15.993 -1.0580  0.1160  1.2052
  266TMC3    H2 4083   4.088   2.204  16.349  1.4274  0.5114 -0.4993
  266TMC3    C7 4084   3.875   2.258  16.230 -0.4792  0.0001  0.1495
  266TMC3    C8 4085   4.317   2.074  16.280  0.4301  0.3853 -0.5232
  266TMC3    O1 4086   3.857   2.244  16.349 -0.0189 -0.4325  0.2504
  266TMC3    O2 4087   4.396   1.982  16.256  0.4217  0.2494 -0.4337
  267MPD2     C 4088   2.111   2.912   0.937 -0.1612 -0.7794 -0.2901
  267MPD2    C1 4089   2.125   3.047   0.933  0.2412  0.7942  0.3930
  267MPD2    C2 4090   2.040   3.119   0.849  0.5219  0.6506 -0.1468
  267MPD2    C3 4091   1.942   3.058   0.781  0.0120 -0.4379 -0.0156
  267MPD2    C4 4092   1.929   2.919   0.785  0.1629  0.7276  0.1962
  267MPD2    C5 4093   2.013   2.847   0.867  0.1111  0.4911 -0.0024
  267MPD2     H 4094   2.054   3.226   0.838  2.0366  0.3588 -1.0280
  267MPD2    H1 4095   1.847   2.862   0.741  0.3546 -0.5624  1.5299
  267MPD2    H2 4096   2.182   2.860   1.000  0.0982  0.3725  0.3620
  267MPD2    H3 4097   2.014   2.740   0.885  0.9552  0.5461  0.2714
  267MPD2     N 4098   1.849   3.128   0.697  0.4155  0.1566  0.3487
  267MPD2    H5 4099   1.769   3.074   0.665  0.5105 -0.1974  0.7059
  267MPD2    N1 4100   2.225   3.105   1.015  0.3496 -0.2080 -0.2093
  267MPD2    H7 4101   2.279   3.040   1.071 -0.9796  0.1279  1.4722
  268TMC3    C1 4102   2.345   3.296   1.070  0.4424 -0.0034 -0.1887
  268TMC3    C2 4103   2.366   3.420   1.017 -0.3424 -0.0833 -0.6236
  268TMC3    C3 4104   2.490   3.482   1.031 -0.7725  0.7749  0.1962
  268TMC3    C4 4105   2.455   3.218   1.108  0.1688 -0.3733 -0.6977
  268TMC3    C5 4106   2.574   3.284   1.118  0.1233 -0.0868  0.3068
  268TMC3    C6 4107   2.600   3.419   1.086  0.8304  0.9051 -0.2594
  268TMC3     C 4108   2.220   3.243   1.038  0.0952 -0.3386  0.3790
  268TMC3     O 4109   2.135   3.330   1.019 -0.2854 -0.5168  0.1997
  268TMC3     H 4110   2.288   3.477   0.968 -2.5963 -2.8049 -0.1881
  268TMC3    H1 4111   2.441   3.114   1.137  0.3319 -0.6643 -1.6526
  268TMC3    H2 4112   2.700   3.459   1.080  1.2581 -0.3384 -1.6958
  268TMC3    C7 4113   2.686   3.196   1.147  0.1975 -0.0299  0.1250
  268TMC3    C8 4114   2.531   3.598   0.951 -1.0125 -0.5859 -0.2175
  268TMC3    O1 4115   2.675   3.076   1.119  0.0382  0.1521  0.1454
  268TMC3    O2 4116   2.627   3.665   0.983 -0.1987  0.3664  0.1352
  269MPD2     C 4117   2.338   2.188  16.025  0.4460 -0.3422 -0.8703
  269MPD2    C1 4118   2.227   2.266  16.042  0.6319 -0.0045 -0.0010
  269MPD2    C2 4119   2.231   2.402  16.033 -0.6242  0.0985 -0.1848
  269MPD2    C3 4120   2.355   2.461  16.010 -0.3434 -0.5432  0.5036
  269MPD2    C4 4121   2.469   2.389  16.004 -0.0491  0.6053  0.7146
  269MPD2    C5 4122   2.460   2.249  16.007  0.4926  0.1722  0.6651
  269MPD2     H 4123   2.142   2.463  16.030 -0.8024 -0.0703  1.9961
  269MPD2    H1 4124   2.570   2.423  15.984 -0.0822  0.9010  1.0507
  269MPD2    H2 4125   2.322   2.081  16.024 -0.9725 -0.1238  0.3590
  269MPD2    H3 4126   2.548   2.188  15.984  0.1153  0.5174 -1.7390
  269MPD2     N 4127   2.352   2.601  15.993  0.4709  0.0091  0.0763
  269MPD2    H5 4128   2.261   2.646  15.997  0.4605  0.0493 -0.6795
  269MPD2    N1 4129   2.105   2.197  16.076  0.0312  0.0383 -0.7304
  269MPD2    H7 4130   2.115   2.098  16.095 -3.0004  0.7581  4.3633
  270TMC3    C1 4131   1.885   2.166  16.147  0.2028 -0.4284  1.4092
  270TMC3    C2 4132   1.773   2.177  16.068 -0.4829 -0.5739 -0.1561
  270TMC3    C3 4133   1.715   2.066  16.027 -0.3926  0.1986 -0.1554
  270TMC3    C4 4134   1.942   2.052  16.186 -0.3297 -0.6593  0.2752
  270TMC3    C5 4135   1.880   1.937  16.151 -0.3737 -0.2744 -1.0271
  270TMC3    C6 4136   1.766   1.948  16.069 -0.2605  0.1384  0.6899
  270TMC3     C 4137   1.990   2.262  16.107  0.1260 -0.1414 -0.5555
  270TMC3     O 4138   1.954   2.382  16.093 -0.1943 -0.4297  0.3525
  270TMC3     H 4139   1.743   2.270  16.020 -0.4704 -0.2635  0.4483
  270TMC3    H1 4140   2.016   2.052  16.265 -0.9148  2.8788  0.8479
  270TMC3    H2 4141   1.717   1.858  16.035  0.5701 -0.6776  1.6419
  270TMC3    C7 4142   1.936   1.812  16.217 -0.4390 -0.2111  0.3362
  270TMC3    C8 4143   1.611   2.082  15.922  0.3680 -0.1605  0.7839
  270TMC3    O1 4144   2.036   1.815  16.288  0.0971 -0.1525  0.0453
  270TMC3    O2 4145   1.563   2.199  15.904 -0.1825 -0.5675  0.3340
  271MPD2     C 4146   1.106   1.744  14.220  0.1272  0.2207 -0.3569
  271MPD2    C1 4147   1.067   1.807  14.331 -0.0682 -0.2260  0.2444
  271MPD2    C2 4148   0.947   1.870  14.328  0.2617  0.1356  0.5077
  271MPD2    C3 4149   0.877   1.885  14.213 -0.1299  0.4596  0.2788
  271MPD2    C4 4150   0.935   1.847  14.093  0.3135  0.1044 -0.0801
  271MPD2    C5 4151   1.038   1.765  14.100 -1.5302 -0.0914  0.4682
  271MPD2     H 4152   0.913   1.915  14.421  0.1949  0.2806  0.4133
  271MPD2    H1 4153   0.893   1.859  13.994  0.8367 -2.1140 -0.5761
  271MPD2    H2 4154   1.202   1.697  14.203  0.3796  0.5521  0.1711
  271MPD2    H3 4155   1.062   1.715  14.007 -0.1195  0.7736  0.3644
  271MPD2     N 4156   0.757   1.956  14.205 -0.5315  0.3187  0.2195
  271MPD2    H5 4157   0.729   1.972  14.109  0.9450 -0.0002 -0.2592
  271MPD2    N1 4158   1.146   1.811  14.454 -0.4447  0.2217  0.5088
  271MPD2    H7 4159   1.118   1.870  14.532 -2.6049  0.8948 -0.7740
  272TMC3    C1 4160   1.313   1.750  14.598 -0.1925 -0.3542  0.5271
  272TMC3    C2 4161   1.441   1.714  14.614 -0.2944 -0.1396 -0.2726
  272TMC3    C3 4162   1.502   1.730  14.730 -0.5562  0.1649 -0.1669
  272TMC3    C4 4163   1.240   1.808  14.706  0.1316  0.3269  0.1542
  272TMC3    C5 4164   1.308   1.824  14.823  0.4717  0.0696  0.0109
  272TMC3    C6 4165   1.435   1.788  14.836  0.2077 -0.3079 -0.0134
  272TMC3     C 4166   1.260   1.741  14.464  0.2593  0.4361  0.8693
  272TMC3     O 4167   1.312   1.648  14.400 -0.7412  0.2919  0.6890
  272TMC3     H 4168   1.487   1.664  14.529  0.9797  1.7771 -0.7127
  272TMC3    H1 4169   1.133   1.828  14.709  0.6897  3.1903  1.3847
  272TMC3    H2 4170   1.488   1.797  14.930  0.6709  1.9806 -0.4949
  272TMC3    C7 4171   1.260   1.934  14.911 -0.7021  0.0675 -0.0661
  272TMC3    C8 4172   1.636   1.671  14.735 -0.0104  0.0227  0.0600
  272TMC3    O1 4173   1.150   1.984  14.886 -0.3652  0.8446 -0.3049
  272TMC3    O2 4174   1.698   1.692  14.634 -0.7183 -0.7666 -0.8089
  273MPD2     C 4175   2.633   4.544  11.918  0.1708  0.0119  0.1230
  273MPD2    C1 4176   2.688   4.665  11.888 -0.1671  0.0373 -0.3480
  273MPD2    C2 4177   2.657   4.712  11.766  0.1476  0.5766  0.0643
  273MPD2    C3 4178   2.555   4.657  11.687  0.4483 -0.7122  0.2697
  273MPD2    C4 4179   2.484   4.548  11.728  0.4612 -0.1926 -0.5638
  273MPD2    C5 4180   2.538   4.482  11.838  0.2344 -0.7428 -0.1205
  273MPD2     H 4181   2.726   0.043  11.721 -0.6243  0.9571 -0.5189
  273MPD2    H1 4182   2.402   4.510  11.668  1.2957 -1.1054 -1.1368
  273MPD2    H2 4183   2.674   4.501  12.008 -1.9260  0.6465  1.3717
  273MPD2    H3 4184   2.495   4.388  11.871 -1.3052  0.2428  0.6968
  273MPD2     N 4185   2.526   4.717  11.559  0.1835  0.3533  1.0930
  273MPD2    H5 4186   2.569   0.069  11.547  1.5079 -0.5872 -1.2772
  273MPD2    N1 4187   2.789   4.724  11.977  0.0177  0.6529 -0.3617
  273MPD2    H7 4188   2.813   4.677  12.064  1.8088  1.9293 -0.1880
  274TMC3    C1 4189   2.450   0.042  11.347  0.4899  0.2035 -0.7037
  274TMC3    C2 4190   2.331   0.068  11.283 -0.1669  0.5200 -0.0429
  274TMC3    C3 4191   2.316   0.190  11.222 -0.4582 -0.2549  0.5883
  274TMC3    C4 4192   2.548   0.144  11.356  0.0687 -0.7945 -0.5288
  274TMC3    C5 4193   2.517   0.265  11.300  0.1686  0.2197 -0.0931
  274TMC3    C6 4194   2.412   0.283  11.213  0.0212 -0.1891 -0.2182
  274TMC3     C 4195   2.439   4.686  11.462  0.9818  0.3200  0.5392
  274TMC3     O 4196   2.352   4.599  11.455 -0.4238 -0.5625 -0.8293
  274TMC3     H 4197   2.244   0.005  11.295  1.3758 -1.7589 -0.8710
  274TMC3    H1 4198   2.644   0.121  11.400  0.3372 -0.4733 -0.9430
  274TMC3    H2 4199   2.390   0.387  11.190 -0.9135  0.0018  1.5477
  274TMC3    C7 4200   2.532   0.371  11.391  0.4579  0.5379 -0.3288
  274TMC3    C8 4201   2.200   0.219  11.147 -0.9091 -0.5855 -0.1167
  274TMC3    O1 4202   2.440   0.445  11.420  0.1123  0.3094  0.0680
  274TMC3    O2 4203   2.096   0.163  11.179  0.0149  0.1362  0.6023
  275MPD2     C 4204   3.037   2.597  14.797 -0.0088  0.5248 -0.5153
  275MPD2    C1 4205   2.960   2.711  14.788  0.2316 -0.0251 -0.4323
  275MPD2    C2 4206   2.824   2.691  14.765 -0.2779  0.2076 -0.2524
  275MPD2    C3 4207   2.761   2.571  14.762  0.1497  0.5304  0.6537
  275MPD2    C4 4208   2.846   2.463  14.783  0.3820  0.7371 -0.5771
  275MPD2    C5 4209   2.981   2.474  14.806  0.0181  0.8113  0.1984
  275MPD2     H 4210   2.769   2.785  14.768  0.2869  0.5128  0.4023
  275MPD2    H1 4211   2.806   2.363  14.787 -0.1977  0.8919 -2.3303
  275MPD2    H2 4212   3.145   2.608  14.802  0.0991 -0.1490 -1.4798
  275MPD2    H3 4213   3.046   2.388  14.814 -1.7144 -0.3515  1.9419
  275MPD2     N 4214   2.620   2.556  14.754 -0.2462  0.2319  0.9176
  275MPD2    H5 4215   2.574   2.468  14.778 -2.9161  1.5912  0.7755
  275MPD2    N1 4216   3.014   2.841  14.777 -0.1951 -0.9176  0.2166
  275MPD2    H7 4217   2.939   2.908  14.764  0.6539 -0.3430 -1.6683
  276TMC3    C1 4218   3.136   3.027  14.848 -0.4863 -0.1437 -0.0055
  276TMC3    C2 4219   3.014   3.087  14.820  0.2961 -0.0793  0.1074
  276TMC3    C3 4220   2.973   3.186  14.901  0.0129  0.0357 -0.9126
  276TMC3    C4 4221   3.216   3.061  14.953 -0.0635  0.0237  0.5869
  276TMC3    C5 4222   3.163   3.157  15.037 -0.5412  0.4033 -0.3887
  276TMC3    C6 4223   3.045   3.216  15.013 -0.1074  0.3538 -0.5370
  276TMC3     C 4224   3.132   2.885  14.826 -0.2673 -0.2886  0.0771
  276TMC3     O 4225   3.228   2.821  14.874  0.5779 -0.1289 -0.3350
  276TMC3     H 4226   2.952   3.068  14.733 -1.3569  4.0529  0.3983
  276TMC3    H1 4227   3.308   3.006  14.970 -0.6503 -1.0602  0.3051
  276TMC3    H2 4228   3.000   3.270  15.096 -0.2536  1.9972 -1.6965
  276TMC3    C7 4229   3.223   3.162  15.168  0.3056  0.7738  0.1426
  276TMC3    C8 4230   2.839   3.169  14.920  0.3840  0.8637  0.3104
  276TMC3    O1 4231   3.247   3.272  15.219 -0.4468 -0.1096  0.0560
  276TMC3    O2 4232   2.761   3.266  14.920 -0.4780  0.0463 -0.2661
  277MPD2     C 4233   4.290   1.458  13.369  0.7370  0.0114  0.0615
  277MPD2    C1 4234   4.271   1.527  13.481  0.4755 -0.9129 -0.8979
  277MPD2    C2 4235   4.278   1.464  13.603  0.1984 -0.6981 -0.8214
  277MPD2    C3 4236   4.305   1.324  13.605 -0.0295 -0.5121  0.0663
  277MPD2    C4 4237   4.332   1.256  13.494 -0.3163 -0.3022  0.1701
  277MPD2    C5 4238   4.333   1.327  13.376 -0.2537  0.3842  0.4682
  277MPD2     H 4239   4.259   1.519  13.695 -0.0611 -1.4140 -0.4445
  277MPD2    H1 4240   4.372   1.155  13.499  4.0916  1.4182 -0.1523
  277MPD2    H2 4241   4.292   1.503  13.271  1.3142  1.7328  0.8743
  277MPD2    H3 4242   4.358   1.280  13.282  0.5633 -0.6041  1.1769
  277MPD2     N 4243   4.298   1.269  13.734  0.3087 -0.1067 -0.0548
  277MPD2    H5 4244   4.261   1.322  13.813 -1.1549  0.2539 -0.9824
  277MPD2    N1 4245   4.228   1.662  13.467 -0.4874 -0.2550 -0.0733
  277MPD2    H7 4246   4.210   1.695  13.373 -0.4516  1.1304  0.4049
  278TMC3    C1 4247   4.274   1.109  13.895 -0.1802 -0.0682 -0.3003
  278TMC3    C2 4248   4.166   1.025  13.917 -0.7070  0.0950  0.2530
  278TMC3    C3 4249   4.116   1.015  14.046  0.0765 -0.1416 -0.4292
  278TMC3    C4 4250   4.330   1.182  13.989 -0.1635  0.6353  0.2800
  278TMC3    C5 4251   4.276   1.176  14.114  0.1472 -0.1981  0.0498
  278TMC3    C6 4252   4.182   1.083  14.150  0.2936  0.6980  0.5188
  278TMC3     C 4253   4.307   1.132  13.755 -0.0769 -0.5834  0.3431
  278TMC3     O 4254   4.316   1.038  13.679 -0.4934 -0.9826  0.6135
  278TMC3     H 4255   4.116   0.996  13.825  0.9343 -0.4558 -0.4726
  278TMC3    H1 4256   4.409   1.255  13.976 -2.3179  2.4547 -2.6622
  278TMC3    H2 4257   4.135   1.086  14.247 -0.3895 -1.1407  0.2299
  278TMC3    C7 4258   4.267   1.312  14.181 -0.3420  0.0157 -0.1984
  278TMC3    C8 4259   3.973   1.038  14.058  0.5849  0.3653 -0.1841
  278TMC3    O1 4260   4.360   1.389  14.177 -0.1947 -0.1961 -0.0560
  278TMC3    O2 4261   3.948   1.139  14.123  0.5639  0.6146 -0.2117
  279MPD2     C 4262   4.186   1.199   0.507 -0.1951 -0.1757  0.7219
  279MPD2    C1 4263   4.097   1.177   0.408  0.4778 -0.2331 -0.8619
  279MPD2    C2 4264   4.145   1.151   0.277  0.6563 -0.2640 -0.3461
  279MPD2    C3 4265   4.281   1.169   0.250 -1.0223  0.0927  0.3007
  279MPD2    C4 4266   4.369   1.180   0.354 -0.9482 -0.2807  0.3334
  279MPD2    C5 4267   4.323   1.184   0.480  0.4586 -0.3923  0.0327
  279MPD2     H 4268   4.074   1.156   0.195  2.4633 -3.5861 -2.0832
  279MPD2    H1 4269   4.475   1.180   0.335 -0.7372  0.8207  1.5399
  279MPD2    H2 4270   4.153   1.213   0.609 -1.3204  0.9520  0.2114
  279MPD2    H3 4271   4.390   1.177   0.565  2.5079  0.0297 -1.5592
  279MPD2     N 4272   4.330   1.180   0.118  0.2113  0.4671 -0.4049
  279MPD2    H5 4273   4.427   1.208   0.106  0.9614 -2.2687 -0.6499
  279MPD2    N1 4274   3.959   1.188   0.436  0.3196 -0.0533  0.1489
  279MPD2    H7 4275   3.928   1.253   0.508  1.1590 -2.6678  2.8802
  280TMC3    C1 4276   3.728   1.168   0.371  0.7536  0.3264  0.7457
  280TMC3    C2 4277   3.639   1.127   0.279  0.2390  0.4813 -0.0701
  280TMC3    C3 4278   3.523   1.205   0.265 -0.1123  0.3038 -0.3037
  280TMC3    C4 4279   3.693   1.263   0.458 -1.1123 -0.1832  0.1734
  280TMC3    C5 4280   3.582   1.341   0.439  0.0310 -0.2315 -0.1367
  280TMC3    C6 4281   3.494   1.316   0.340 -0.0883  0.1848 -0.0899
  280TMC3     C 4282   3.868   1.127   0.355  0.0547 -0.6755 -1.3490
  280TMC3     O 4283   3.898   1.031   0.288  0.1126 -0.5602  0.1055
  280TMC3     H 4284   3.659   1.049   0.206 -0.0260 -0.0967  0.4845
  280TMC3    H1 4285   3.773   1.298   0.522 -0.2979 -0.0411 -0.9155
  280TMC3    H2 4286   3.408   1.381   0.328 -0.7788 -0.8784 -0.9137
  280TMC3    C7 4287   3.592   1.476   0.492  0.0188  0.2052 -0.2714
  280TMC3    C8 4288   3.426   1.163   0.168  0.6452 -0.1249 -0.0012
  280TMC3    O1 4289   3.686   1.505   0.564  0.2109 -0.2812  0.1741
  280TMC3    O2 4290   3.360   1.249   0.112  0.5519  0.1506 -1.1034
  281TMC3    C1 4291   2.059   2.417  13.452  0.2702 -0.1943 -0.1738
  281TMC3    C2 4292   1.952   2.441  13.542  0.0817  0.2551  0.4134
  281TMC3    C3 4293   1.878   2.341  13.583 -0.8616  0.1602  0.4460
  281TMC3    C4 4294   2.082   2.294  13.410  0.5568  0.1597 -0.4073
  281TMC3    C5 4295   2.012   2.192  13.470  0.7681 -0.2248 -0.0963
  281TMC3    C6 4296   1.908   2.210  13.562  0.5908  0.7785  0.5798
  281TMC3     C 4297   2.139   2.528  13.404  0.2129  0.0283  0.1165
  281TMC3     O 4298   2.241   2.503  13.346 -0.2776 -0.0431  0.3008
  281TMC3     H 4299   1.921   2.545  13.538 -1.2205 -0.2214 -2.5974
  281TMC3    H1 4300   2.159   2.270  13.338  1.2141  0.9352  0.0267
  281TMC3    H2 4301   1.847   2.128  13.599 -0.1795  1.2902  0.4502
  281TMC3    C7 4302   2.061   2.061  13.444 -0.2335  0.3208 -0.2126
  281TMC3    C8 4303   1.743   2.361  13.613  0.2936  0.3095  0.1346
  281TMC3    O1 4304   2.137   2.043  13.352  0.7078 -0.1931 -0.6113
  281TMC3    O2 4305   1.674   2.262  13.633  0.3038  0.6697  0.2509
  282MPD2     C 4306   4.302   3.264  15.102  0.3936 -0.3575  0.0402
  282MPD2    C1 4307   4.191   3.351  15.088  0.0201  0.1854  0.4897
  282MPD2    C2 4308   4.159   3.396  14.957  0.0383 -0.6326  0.2790
  282MPD2    C3 4309   4.206   3.335  14.842 -0.6300  0.3019 -0.0076
  282MPD2    C4 4310   4.314   3.247  14.860 -0.0608 -0.0411 -0.9955
  282MPD2    C5 4311   4.360   3.215  14.991  0.6250 -0.8956 -0.5416
  282MPD2     H 4312   4.078   3.464  14.933  0.1826 -0.1699  1.1174
  282MPD2    H1 4313   4.369   3.198  14.781 -0.0418 -2.3454  0.4293
  282MPD2    H2 4314   4.333   3.229  15.200 -2.2247  0.6121  1.2146
  282MPD2    H3 4315   4.446   3.150  15.002  1.6775  0.2411 -2.0365
  282MPD2     N 4316   4.154   3.369  14.719  0.1196  0.7364 -0.0846
  282MPD2    H5 4317   4.084   3.443  14.714 -0.6241 -0.1496 -2.4509
  282MPD2    N1 4318   4.112   3.396  15.200  0.2849  0.2820 -0.3710
  282MPD2    H7 4319   4.044   3.469  15.182  0.1016  0.0250 -0.7198
  283TMC3    C1 4320   4.023   3.393  15.420 -0.7628  0.3790 -1.4082
  283TMC3    C2 4321   4.035   3.533  15.439 -0.5808 -0.6385 -0.0893
  283TMC3    C3 4322   4.002   3.584  15.566 -0.0280 -0.1053  0.1075
  283TMC3    C4 4323   3.978   3.316  15.523  0.3663  0.3311 -0.5904
  283TMC3    C5 4324   3.946   3.376  15.645  0.0330  0.2732 -0.1844
  283TMC3    C6 4325   3.969   3.506  15.672  0.3113 -0.3190 -0.6702
  283TMC3     C 4326   4.110   3.336  15.321 -1.1271  0.6893 -0.5856
  283TMC3     O 4327   4.145   3.222  15.349 -0.1115 -0.3662  0.2341
  283TMC3     H 4328   4.083   3.599  15.367 -0.6081 -1.0739 -0.5089
  283TMC3    H1 4329   3.986   3.209  15.505 -0.8023  0.2418 -0.6005
  283TMC3    H2 4330   3.955   3.554  15.769 -1.5838 -1.1260 -0.5457
  283TMC3    C7 4331   3.936   3.289  15.753  0.5475 -0.0596 -0.2635
  283TMC3    C8 4332   4.077   3.700  15.614  0.1118  0.1766  0.1566
  283TMC3    O1 4333   3.946   3.346  15.862 -0.0921 -0.1644  0.0729
  283TMC3    O2 4334   4.172   3.679  15.691  0.1552  0.0056 -0.1350
  284MPD2     C 4335   2.412   2.803  12.423 -0.1157 -0.3490  0.6047
  284MPD2    C1 4336   2.375   2.794  12.290  0.3161  0.6134  0.5184
  284MPD2    C2 4337   2.337   2.671  12.243 -0.5401  0.8332  0.4453
  284MPD2    C3 4338   2.335   2.558  12.325  0.2433  0.0889 -0.4165
  284MPD2    C4 4339   2.399   2.565  12.453 -0.5693  0.3754  0.3580
  284MPD2    C5 4340   2.439   2.690  12.497  0.3178 -0.1153  0.4323
  284MPD2     H 4341   2.300   2.657  12.142 -0.0272 -0.0441  0.3732
  284MPD2    H1 4342   2.420   2.476  12.511 -0.9367  0.4354  0.5861
  284MPD2    H2 4343   2.427   2.899  12.470  2.4532 -1.2434  1.6250
  284MPD2    H3 4344   2.479   2.685  12.598 -1.0606  1.2674  1.0441
  284MPD2     N 4345   2.280   2.441  12.278 -0.6309  0.0198  0.2758
  284MPD2    H5 4346   2.282   2.360  12.339  0.6631  0.7546  1.2286
  284MPD2    N1 4347   2.374   2.901  12.194 -0.8251 -0.1942  0.6531
  284MPD2    H7 4348   2.375   2.861  12.101  0.6278  1.4030 -0.0270
  285TMC3    C1 4349   2.416   3.115  12.104  0.0035  0.6905  0.4808
  285TMC3    C2 4350   2.484   3.050  12.001  0.4067  0.2136 -0.0152
  285TMC3    C3 4351   2.503   3.118  11.880 -0.2949 -0.1506 -0.9151
  285TMC3    C4 4352   2.367   3.244  12.091  0.4177 -0.1138 -0.2055
  285TMC3    C5 4353   2.395   3.308  11.969 -0.0923 -0.2306 -0.5975
  285TMC3    C6 4354   2.466   3.249  11.860  0.1246  0.2333 -0.0879
  285TMC3     C 4355   2.391   3.037  12.221 -0.3257  1.2721 -0.4198
  285TMC3     O 4356   2.367   3.090  12.328 -0.0744  0.0018 -0.0325
  285TMC3     H 4357   2.524   2.949  12.010 -1.7062 -0.1215  5.5339
  285TMC3    H1 4358   2.310   3.279  12.175  0.0667  1.5971 -1.1461
  285TMC3    H2 4359   2.467   3.298  11.763  0.1373  0.2404 -0.0843
  285TMC3    C7 4360   2.338   3.441  11.944 -0.9758 -0.1402  0.4527
  285TMC3    C8 4361   2.507   3.027  11.766 -0.1600 -0.3345  0.1582
  285TMC3    O1 4362   2.395   3.509  11.857 -0.7867 -0.6108  0.4114
  285TMC3    O2 4363   2.553   2.916  11.782 -0.4378 -0.2480 -0.1083
  286MPD2     C 4364   3.069   0.936   1.990 -0.5193 -0.5051  0.6393
  286MPD2    C1 4365   3.036   0.972   1.865  0.3227 -0.0619 -0.8511
  286MPD2    C2 4366   3.109   0.925   1.755  0.2359 -0.5676 -0.9049
  286MPD2    C3 4367   3.219   0.843   1.777  0.3305  0.2199 -0.1453
  286MPD2    C4 4368   3.252   0.809   1.909 -0.0316 -1.0299 -0.2759
  286MPD2    C5 4369   3.179   0.856   2.009 -0.9737 -0.5426  0.0650
  286MPD2     H 4370   3.084   0.954   1.653 -2.7962  0.8413  0.2309
  286MPD2    H1 4371   3.335   0.745   1.937 -0.2010 -1.5199 -0.8778
  286MPD2    H2 4372   3.027   0.976   2.081  0.2686  1.7336  0.0183
  286MPD2    H3 4373   3.203   0.828   2.111 -1.9390 -2.9509 -0.3491
  286MPD2     N 4374   3.316   0.802   1.675 -0.1154 -0.3438  0.0370
  286MPD2    H5 4375   3.396   0.746   1.702  0.9173  1.5492  0.8741
  286MPD2    N1 4376   2.926   1.057   1.842  0.1922  0.0003 -1.1023
  286MPD2    H7 4377   2.918   1.099   1.749 -0.9179  1.0594 -0.5396
  287TMC3    C1 4378   3.400   0.780   1.461  0.1638 -0.7079 -0.1576
  287TMC3    C2 4379   3.369   0.743   1.329 -0.1745  0.4515 -0.3442
  287TMC3    C3 4380   3.470   0.691   1.255  0.4286 -0.3662 -0.0277
  287TMC3    C4 4381   3.529   0.779   1.512 -0.0816  0.6453 -0.2889
  287TMC3    C5 4382   3.626   0.718   1.433 -0.2469 -0.2642  0.8470
  287TMC3    C6 4383   3.595   0.675   1.312  0.5575 -0.2865  0.1029
  287TMC3     C 4384   3.293   0.827   1.542  0.2024  0.4509 -0.6044
  287TMC3     O 4385   3.194   0.868   1.481 -0.4569 -0.2483  0.4092
  287TMC3     H 4386   3.267   0.753   1.292 -0.2666  0.4588 -0.0936
  287TMC3    H1 4387   3.556   0.797   1.616  0.4256  0.1681 -0.3381
  287TMC3    H2 4388   3.664   0.628   1.244  1.8920  2.5676 -0.5337
  287TMC3    C7 4389   3.765   0.705   1.477 -0.1895  0.3360  0.7206
  287TMC3    C8 4390   3.442   0.621   1.129 -0.2744 -0.5296  0.1878
  287TMC3    O1 4391   3.828   0.619   1.414 -0.6845  0.9858  0.9803
  287TMC3    O2 4392   3.333   0.569   1.122  0.9267  0.2794 -0.2832
  288TMC3    C1 4393   0.137   1.309  14.732 -0.4685 -0.3568  0.2752
  288TMC3    C2 4394   0.006   1.334  14.781  0.1664 -0.5713 -0.1695
  288TMC3    C3 4395   4.667   1.427  14.711 -0.3242  0.3835 -0.3247
  288TMC3    C4 4396   0.178   1.382  14.620 -0.0760  0.5429 -0.4970
  288TMC3    C5 4397   0.093   1.473  14.560  0.0632  0.5096 -0.8222
  288TMC3    C6 4398   4.706   1.483  14.591 -0.6777  0.0191 -0.3066
  288TMC3     C 4399   0.239   1.253  14.825  0.0022 -0.5232  0.0272
  288TMC3     O 4400   0.196   1.230  14.940 -0.0421 -0.0691  0.1487
  288TMC3     H 4401   4.711   1.271  14.862  0.9001  0.0071  0.5921
  288TMC3    H1 4402   0.277   1.370  14.577  0.3568  1.3842  0.2608
  288TMC3    H2 4403   4.649   1.564  14.548 -2.2337 -1.2926 -0.7005
  288TMC3    C7 4404   0.150   1.531  14.434  0.0104  0.2928 -0.2148
  288TMC3    C8 4405   4.548   1.477  14.772  0.6802 -0.5052  0.3329
  288TMC3    O1 4406   0.270   1.561  14.425 -0.2559  0.6467  0.2687
  288TMC3    O2 4407   4.476   1.557  14.709  0.4228  0.1354 -0.3097
  289MPD2     C 4408   4.460   0.761  14.996 -0.9165 -0.0331 -0.1217
  289MPD2    C1 4409   4.543   0.696  14.908  0.1972 -0.0543 -0.2261
  289MPD2    C2 4410   4.494   0.629  14.790  0.1470 -0.0205  0.5087
  289MPD2    C3 4411   4.356   0.630  14.771 -0.1135  0.5486  0.3714
  289MPD2    C4 4412   4.277   0.692  14.851 -0.1998 -0.3895 -0.2631
  289MPD2    C5 4413   4.329   0.749  14.964  0.1493  0.2553  0.5931
  289MPD2     H 4414   4.564   0.586  14.719 -0.7961  0.0110 -0.4330
  289MPD2    H1 4415   4.170   0.703  14.833 -0.1545  0.9062  0.2112
  289MPD2    H2 4416   4.480   0.827  15.079  0.9196 -1.6661  0.7497
  289MPD2    H3 4417   4.259   0.810  15.020  0.3188  0.5052  0.5335
  289MPD2     N 4418   4.296   0.573  14.652 -0.2647  0.5064  0.5964
  289MPD2    H5 4419   4.197   0.591  14.639 -0.0356 -1.4402 -3.9288
  289MPD2    N1 4420   4.678   0.725  14.915 -0.8150  0.7578  0.0856
  289MPD2    H7 4421   4.737   0.694  14.839 -0.0942 -0.4355  1.1278
  290TMC3    C1 4422   4.264   0.476  14.443 -0.2988 -0.5999  0.2684
  290TMC3    C2 4423   4.200   0.592  14.405 -0.1995  0.2592 -0.5464
  290TMC3    C3 4424   4.134   0.588  14.283  0.1326  0.1768  0.6137
  290TMC3    C4 4425   4.260   0.357  14.364  0.4925 -0.3868 -0.4611
  290TMC3    C5 4426   4.169   0.356  14.266  0.9960  0.1828  0.6670
  290TMC3    C6 4427   4.117   0.475  14.212  0.7766 -0.4952  0.8293
  290TMC3     C 4428   4.349   0.490  14.562  0.3822 -0.1387  0.0011
  290TMC3     O 4429   4.455   0.434  14.552 -0.2501  0.0620  0.4881
  290TMC3     H 4430   4.214   0.679  14.468 -2.6547  1.0612 -1.1093
  290TMC3    H1 4431   4.321   0.276  14.403  0.4642 -1.2043 -2.1405
  290TMC3    H2 4432   4.048   0.476  14.129 -0.5871  0.1148  1.9551
  290TMC3    C7 4433   4.123   0.228  14.217 -0.9032  0.2098 -0.8986
  290TMC3    C8 4434   4.031   0.686  14.264  0.1491 -0.7518 -0.7991
  290TMC3    O1 4435   4.154   0.131  14.281  0.1214 -0.4051  0.1889
  290TMC3    O2 4436   3.944   0.667  14.176 -0.1507 -0.3939 -0.4095
  291MPD2     C 4437   4.006   0.274   0.238 -0.4394  0.7368 -0.3481
  291MPD2    C1 4438   4.027   0.169   0.321 -0.4988  0.2575 -0.1860
  291MPD2    C2 4439   4.121   0.175   0.426  0.1404  0.4869  0.0188
  291MPD2    C3 4440   4.189   0.289   0.448 -0.0418  0.6960  0.1454
  291MPD2    C4 4441   4.164   0.398   0.366  0.3995 -0.1474  0.1822
  291MPD2    C5 4442   4.072   0.391   0.262 -0.1809  0.0390 -1.0329
  291MPD2     H 4443   4.159   0.083   0.470  1.3948  1.7384  1.5406
  291MPD2    H1 4444   4.226   0.486   0.377  0.2008  0.1435 -1.0539
  291MPD2    H2 4445   3.936   0.273   0.155  0.8068  1.6928 -1.4168
  291MPD2    H3 4446   4.062   0.485   0.209 -1.7010  1.2342  1.3546
  291MPD2     N 4447   4.290   0.306   0.549 -0.1833  0.2683  0.4703
  291MPD2    H5 4448   4.334   0.397   0.552 -1.7955  1.0527  0.6200
  291MPD2    N1 4449   3.965   0.045   0.307 -0.7758 -0.2693  0.5307
  291MPD2    H7 4450   3.997   4.708   0.365 -1.6467 -0.9373  0.1340
  292TMC3    C1 4451   3.815   4.618   0.257 -0.7895  0.0044 -0.6871
  292TMC3    C2 4452   3.841   4.564   0.381 -0.3272  0.5395 -0.0708
  292TMC3    C3 4453   3.804   4.432   0.402  0.1165 -0.3889 -0.1522
  292TMC3    C4 4454   3.744   4.548   0.158 -0.1494 -0.2855 -0.2230
  292TMC3    C5 4455   3.699   4.419   0.183  0.2451 -0.3438 -0.2681
  292TMC3    C6 4456   3.726   4.364   0.311  0.0554  0.8048  0.1783
  292TMC3     C 4457   3.852   0.019   0.237 -0.1185  0.1126  1.2373
  292TMC3     O 4458   3.788   0.086   0.159 -0.8394  0.4374 -0.3234
  292TMC3     H 4459   3.891   4.612   0.465 -0.5285  0.4973  0.0732
  292TMC3    H1 4460   3.722   4.593   0.062  0.2374 -1.1249 -0.7095
  292TMC3    H2 4461   3.701   4.259   0.319  0.9024  0.6222  0.4834
  292TMC3    C7 4462   3.655   4.345   0.069 -0.2970 -0.2312  1.0182
  292TMC3    C8 4463   3.779   4.401   0.542 -0.2627 -0.5726  0.0650
  292TMC3    O1 4464   3.648   4.393  17.712  0.1962 -0.5682 -0.1151
  292TMC3    O2 4465   3.853   4.456   0.623  0.6773  0.7178 -0.3910
  293MPD2     C 4466   0.462   1.672  12.854 -0.1807 -0.6807 -0.1077
  293MPD2    C1 4467   0.373   1.630  12.952  1.0618 -0.4649 -0.0716
  293MPD2    C2 4468   0.409   1.627  13.080 -0.0920 -0.2740  0.8150
  293MPD2    C3 4469   0.527   1.686  13.123  0.5875 -0.3546 -0.4336
  293MPD2    C4 4470   0.619   1.727  13.025  0.4191  0.9882  0.4192
  293MPD2    C5 4471   0.590   1.710  12.890 -0.3026  0.7604 -0.5447
  293MPD2     H 4472   0.337   1.597  13.155 -2.7857  2.2971 -0.7315
  293MPD2    H1 4473   0.710   1.781  13.047  2.7554 -2.7149 -0.1478
  293MPD2    H2 4474   0.438   1.666  12.748  1.3321  1.4771 -0.5826
  293MPD2    H3 4475   0.665   1.739  12.816 -0.7145  0.4229 -1.0946
  293MPD2     N 4476   0.558   1.711  13.256  0.0517 -0.1734  0.2744
  293MPD2    H5 4477   0.486   1.691  13.326 -0.3010  1.1039  0.2791
  293MPD2    N1 4478   0.244   1.581  12.909 -0.0022 -0.1034 -0.0879
  293MPD2    H7 4479   0.231   1.577  12.808 -0.6295 -0.7701  0.0208
  294TMC3    C1 4480   0.018   1.511  12.912  0.4235 -0.0644 -0.2991
  294TMC3    C2 4481   4.669   1.431  12.978  0.1020 -0.0104  0.7303
  294TMC3    C3 4482   4.539   1.457  12.961  0.0070  0.6847 -0.1728
  294TMC3    C4 4483   4.726   1.618  12.830  0.3969  0.7995 -0.6559
  294TMC3    C5 4484   4.590   1.635  12.808  0.3059 -0.2294 -0.0918
  294TMC3    C6 4485   4.499   1.560  12.883 -0.0463 -0.3371 -0.6457
  294TMC3     C 4486   0.146   1.517  12.983 -0.2302  0.1840  0.3238
  294TMC3     O 4487   0.150   1.489  13.104 -0.0094  0.0167 -0.5471
  294TMC3     H 4488   4.706   1.341  13.027 -0.0778 -0.4147  0.1301
  294TMC3    H1 4489   0.061   1.683  12.785 -1.5915  1.7605 -2.5671
  294TMC3    H2 4490   4.396   1.578  12.856 -0.3695 -1.5023 -0.1581
  294TMC3    C7 4491   4.547   1.646  12.670 -0.0406  0.6113 -0.3585
  294TMC3    C8 4492   4.469   1.333  12.946 -0.0519 -0.2351 -0.2704
  294TMC3    O1 4493   4.478   1.554  12.631  0.2681  0.3859 -0.0248
  294TMC3    O2 4494   4.477   1.255  13.038  0.0048  0.1202 -0.4244
  295MPD2     C 4495   1.443   0.809   0.913  0.3862 -0.5534  0.6338
  295MPD2    C1 4496   1.495   0.696   0.845 -0.4682 -0.1168  0.0148
  295MPD2    C2 4497   1.479   0.576   0.903 -0.4160 -0.3040  0.0686
  295MPD2    C3 4498   1.424   0.551   1.028 -0.5721 -0.2485 -0.0987
  295MPD2    C4 4499   1.378   0.668   1.096 -0.0346  0.1791 -0.1944
  295MPD2    C5 4500   1.387   0.795   1.037  0.2351 -0.0625 -0.2738
  295MPD2     H 4501   1.513   0.491   0.845 -3.9971 -1.6303 -0.0644
  295MPD2    H1 4502   1.324   0.649   1.188 -0.4165  0.5098 -0.3498
  295MPD2    H2 4503   1.444   0.905   0.863 -2.5639 -1.4505 -1.1666
  295MPD2    H3 4504   1.337   0.881   1.080  2.1606 -0.1003  2.0639
  295MPD2     N 4505   1.416   0.425   1.092 -0.7651 -0.1173  0.4005
  295MPD2    H5 4506   1.373   0.419   1.184 -1.5984 -1.3558 -0.0593
  295MPD2    N1 4507   1.570   0.697   0.724 -0.2175 -0.2825 -1.2375
  295MPD2    H7 4508   1.607   0.608   0.691  0.3558 -1.0540  1.4375
  296TMC3    C1 4509   1.431   0.184   1.119  0.0210  0.1784 -0.2706
  296TMC3    C2 4510   1.314   0.165   1.189  0.1121  0.2401 -0.7428
  296TMC3    C3 4511   1.284   0.049   1.253  0.0623  0.5468  0.0971
  296TMC3    C4 4512   1.500   0.065   1.091 -0.0180 -0.2159 -0.3642
  296TMC3    C5 4513   1.457   4.689   1.139  0.3115  0.0896  0.2896
  296TMC3    C6 4514   1.352   4.679   1.226 -0.1361 -0.7723  0.0947
  296TMC3     C 4515   1.449   0.301   1.038 -0.0473 -0.1099  0.0243
  296TMC3     O 4516   1.491   0.272   0.925  0.5022  0.2828 -0.1362
  296TMC3     H 4517   1.240   0.243   1.204 -0.4802  0.2791 -3.9086
  296TMC3    H1 4518   1.586   0.070   1.025 -1.7184 -0.1062 -2.5580
  296TMC3    H2 4519   1.336   4.583   1.273  3.0003 -0.2434  2.2153
  296TMC3    C7 4520   1.534   4.568   1.102 -0.0790 -0.0773  0.4082
  296TMC3    C8 4521   1.188   0.042   1.362 -0.0108 -0.1036  0.1604
  296TMC3    O1 4522   1.634   4.591   1.033 -0.6577 -0.3550  0.2820
  296TMC3    O2 4523   1.158   4.668   1.397  0.4038 -0.4332 -0.3443
  297MPD2     C 4524   3.488   2.045  17.008 -0.5555  0.1289 -0.3680
  297MPD2    C1 4525   3.476   2.120  16.891  0.3542  0.2463 -0.2791
  297MPD2    C2 4526   3.589   2.175  16.828 -0.7439 -1.0129 -0.6253
  297MPD2    C3 4527   3.711   2.159  16.882  0.4857 -0.2412 -0.2777
  297MPD2    C4 4528   3.728   2.083  16.991  0.3800  0.0263  0.3899
  297MPD2    C5 4529   3.617   2.021  17.051 -0.4958  0.0513 -0.2986
  297MPD2     H 4530   3.572   2.232  16.737 -1.2254 -3.5111 -2.1041
  297MPD2    H1 4531   3.820   2.076  17.047  0.1880 -0.0238  0.6972
  297MPD2    H2 4532   3.408   2.002  17.068  1.2988  0.5664  2.3883
  297MPD2    H3 4533   3.644   1.962  17.137  2.1250 -1.0729 -1.9009
  297MPD2     N 4534   3.817   2.245  16.830  0.2221  0.9458 -0.2622
  297MPD2    H5 4535   3.795   2.301  16.748 -1.5141  1.6724  0.6973
  297MPD2    N1 4536   3.357   2.158  16.826  0.8195  0.2381  0.4054
  297MPD2    H7 4537   3.373   2.221  16.748 -3.0408  1.5141  0.6165
  298TMC3    C1 4538   3.129   2.229  16.827 -0.3500  0.5814 -0.3560
  298TMC3    C2 4539   3.159   2.305  16.714 -0.0120  1.5795 -0.0570
  298TMC3    C3 4540   3.066   2.383  16.665 -0.2714 -0.7632 -0.2142
  298TMC3    C4 4541   3.018   2.254  16.903 -0.1279  0.1556  0.5484
  298TMC3    C5 4542   2.937   2.343  16.849 -0.5524  0.3817  0.3450
  298TMC3    C6 4543   2.947   2.399  16.720 -0.7083 -0.1009 -0.5117
  298TMC3     C 4544   3.236   2.143  16.876  0.3714 -0.1648 -0.5194
  298TMC3     O 4545   3.191   2.069  16.962 -0.4036  0.0357  0.1158
  298TMC3     H 4546   3.248   2.297  16.653 -1.5094 -2.9983 -1.6817
  298TMC3    H1 4547   3.004   2.213  17.002  0.6737 -1.1951  0.1153
  298TMC3    H2 4548   2.868   2.454  16.670 -2.4915 -1.3650  0.9123
  298TMC3    C7 4549   2.826   2.382  16.932  0.7107  0.2550  0.7503
  298TMC3    C8 4550   3.093   2.424  16.525  0.5300  0.1401  0.1082
  298TMC3    O1 4551   2.841   2.391  17.055  0.2439 -0.2101  0.3398
  298TMC3    O2 4552   3.169   2.351  16.462  0.6518  0.3634 -0.3260
  299MPD2     C 4553   3.293   1.983  11.414 -0.2574 -0.6665  0.6970
  299MPD2    C1 4554   3.389   2.044  11.337 -0.0036  0.7780 -0.2656
  299MPD2    C2 4555   3.364   2.046  11.201 -0.3437 -0.5248  0.2231
  299MPD2    C3 4556   3.249   1.998  11.138  0.3854  0.0762 -0.0523
  299MPD2    C4 4557   3.165   1.930  11.224 -0.2330  0.0683  0.3788
  299MPD2    C5 4558   3.182   1.930  11.358 -0.2362  0.3960 -0.4236
  299MPD2     H 4559   3.431   2.100  11.136  1.1710 -1.1522  1.2652
  299MPD2    H1 4560   3.072   1.892  11.183 -0.7149  0.3170  1.2527
  299MPD2    H2 4561   3.295   1.976  11.522 -1.9076 -1.0979  0.7023
  299MPD2    H3 4562   3.106   1.885  11.420 -0.5292  0.8335 -0.4698
  299MPD2     N 4563   3.219   2.011  10.998 -0.2948  0.5106 -0.2011
  299MPD2    H5 4564   3.127   1.983  10.966  0.1929 -2.1038  0.6529
  299MPD2    N1 4565   3.500   2.105  11.404 -0.0665  0.5550  0.3152
  299MPD2    H7 4566   3.514   2.088  11.503 -3.5515  0.0731  0.7326
  300TMC3    C1 4567   3.231   2.076  10.770 -0.6402 -0.4101  0.0777
  300TMC3    C2 4568   3.307   2.127  10.673 -0.2058 -0.2512 -0.0657
  300TMC3    C3 4569   3.255   2.173  10.559 -0.6584  0.9211  0.3463
  300TMC3    C4 4570   3.094   2.048  10.752 -0.2555  0.3022 -0.6948
  300TMC3    C5 4571   3.051   2.086  10.620  0.2618  0.4250  0.6872
  300TMC3    C6 4572   3.124   2.147  10.521  0.5022  0.1189 -0.2521
  300TMC3     C 4573   3.290   2.080  10.904  0.2709  0.2542  0.3532
  300TMC3     O 4574   3.408   2.112  10.906 -0.2146  1.2679 -0.5464
  300TMC3     H 4575   3.404   2.166  10.699  0.7842 -0.7954 -2.9496
  300TMC3    H1 4576   3.033   1.983  10.814  0.8670  0.0700  0.1650
  300TMC3    H2 4577   3.068   2.176  10.433  0.8795 -2.1924 -1.2551
  300TMC3    C7 4578   2.906   2.076  10.599 -0.4383  0.7071  0.1949
  300TMC3    C8 4579   3.310   2.296  10.508 -0.4246  0.5363  0.8279
  300TMC3    O1 4580   2.863   2.047  10.486  0.0851  0.0592 -0.1738
  300TMC3    O2 4581   3.315   2.299  10.384 -0.2228 -0.0651 -0.1934
  301MPD2     C 4582   1.998   3.869   0.859  0.7770  0.0580  0.2090
  301MPD2    C1 4583   1.871   3.818   0.832  0.5774 -0.2329 -0.4916
  301MPD2    C2 4584   1.841   3.699   0.894  0.0651  0.7377 -0.1162
  301MPD2    C3 4585   1.927   3.622   0.972 -0.7741 -0.1369  0.0497
  301MPD2    C4 4586   2.045   3.682   1.004 -0.6213 -0.2274  0.3898
  301MPD2    C5 4587   2.080   3.796   0.941 -0.9882  0.0500 -0.0355
  301MPD2     H 4588   1.745   3.656   0.867  1.7839 -2.3022 -1.3669
  301MPD2    H1 4589   2.114   3.635   1.072 -1.8613 -1.7659  0.5785
  301MPD2    H2 4590   2.041   3.959   0.817 -0.2600  0.2052 -0.5556
  301MPD2    H3 4591   2.181   3.834   0.949  0.3677 -2.6824 -3.9772
  301MPD2     N 4592   1.896   3.493   1.017  0.1746  0.1580 -0.0953
  301MPD2    H5 4593   1.972   3.445   1.064  1.3920  1.3560 -0.7971
  301MPD2    N1 4594   1.766   3.880   0.759 -0.0397 -0.9050  0.1481
  301MPD2    H7 4595   1.687   3.823   0.732  0.5780 -1.2243 -0.9788
  302TMC3    C1 4596   1.769   3.293   1.046 -0.2619  0.1170  0.0439
  302TMC3    C2 4597   1.858   3.249   1.142  0.4020 -0.0556 -0.1834
  302TMC3    C3 4598   1.833   3.124   1.193  0.0246 -0.6706 -0.0709
  302TMC3    C4 4599   1.663   3.220   0.999  0.8333  0.6766 -0.6211
  302TMC3    C5 4600   1.644   3.094   1.051 -0.1857  0.4856 -0.7940
  302TMC3    C6 4601   1.728   3.046   1.146  0.0249  0.2933  0.1181
  302TMC3     C 4602   1.774   3.428   0.995  0.0011  0.3352  0.0383
  302TMC3     O 4603   1.684   3.450   0.915  0.1394 -0.1745  0.3444
  302TMC3     H 4604   1.931   3.316   1.185  0.2457 -0.7227  1.1159
  302TMC3    H1 4605   1.600   3.244   0.913 -0.7216  1.7963  0.8340
  302TMC3    H2 4606   1.708   2.948   1.189  0.4301  0.4660  0.6973
  302TMC3    C7 4607   1.566   2.993   0.991 -0.5757 -0.4802 -0.8053
  302TMC3    C8 4608   1.933   3.053   1.271  0.2974 -0.9789 -0.1592
  302TMC3    O1 4609   1.607   2.881   1.000 -0.0202  0.3498 -0.0241
  302TMC3    O2 4610   1.906   2.940   1.305  0.1075  0.2808 -0.9176
  303MPD2     C 4611   0.705   2.375  11.319  0.8006  0.5645 -0.1608
  303MPD2    C1 4612   0.659   2.259  11.253  0.0139  0.9989 -0.2700
  303MPD2    C2 4613   0.572   2.278  11.147  0.3275 -0.2778  1.1825
  303MPD2    C3 4614   0.547   2.411  11.102  0.5930  0.1722  0.4782
  303MPD2    C4 4615   0.598   2.519  11.165 -0.2394 -0.4075 -0.0069
  303MPD2    C5 4616   0.677   2.503  11.272  0.1328  0.2056  0.5617
  303MPD2     H 4617   0.535   2.188  11.100  1.5694  0.8364 -1.9621
  303MPD2    H1 4618   0.574   2.614  11.120 -1.1232 -0.1160  1.0783
  303MPD2    H2 4619   0.763   2.348  11.407  3.2746 -1.2487 -2.3361
  303MPD2    H3 4620   0.713   2.588  11.328  2.7888 -0.5036 -0.0353
  303MPD2     N 4621   0.482   2.431  10.973 -0.1552 -0.2130  0.5852
  303MPD2    H5 4622   0.489   2.524  10.934  0.3734 -0.9151 -1.0142
  303MPD2    N1 4623   0.693   2.128  11.319 -0.4472 -0.1785 -0.1607
  303MPD2    H7 4624   0.747   2.138  11.405  0.8087 -0.4183 -0.9214
  304TMC3    C1 4625   0.733   1.895  11.318 -0.4075  0.3524 -0.2570
  304TMC3    C2 4626   0.692   1.880  11.451 -0.0265 -0.1157  0.1206
  304TMC3    C3 4627   0.711   1.758  11.510 -0.2183  0.1835  0.5065
  304TMC3    C4 4628   0.774   1.789  11.249 -0.7835 -0.7077  0.1599
  304TMC3    C5 4629   0.790   1.668  11.312 -0.0842  0.4051  0.2582
  304TMC3    C6 4630   0.769   1.655  11.447  0.0351 -0.6310  0.5431
  304TMC3     C 4631   0.686   2.011  11.247 -1.0503 -0.3055  0.1448
  304TMC3     O 4632   0.667   2.001  11.127 -0.5027 -0.0117 -0.3464
  304TMC3     H 4633   0.639   1.955  11.508 -0.5607  1.2207 -2.1243
  304TMC3    H1 4634   0.794   1.796  11.143  0.7350  2.5000  0.6448
  304TMC3    H2 4635   0.789   1.560  11.493  1.4778 -0.2644  0.6687
  304TMC3    C7 4636   0.732   1.556  11.242 -0.1220 -0.1298 -0.3432
  304TMC3    C8 4637   0.585   1.702  11.551 -0.2943  0.2108  0.6906
  304TMC3    O1 4638   0.666   1.580  11.140 -0.0128  0.7680 -0.0671
  304TMC3    O2 4639   0.484   1.761  11.511  0.6214 -0.3312  0.6331
  305MPD2     C 4640   4.282   3.777  14.133  0.1149  0.0623 -0.2658
  305MPD2    C1 4641   4.298   3.647  14.177 -0.8415 -0.7384  0.0469
  305MPD2    C2 4642   4.266   3.540  14.091 -0.1082 -0.2819 -0.4888
  305MPD2    C3 4643   4.216   3.572  13.963 -0.4055  0.0218 -0.3365
  305MPD2    C4 4644   4.194   3.702  13.928  0.2859 -0.2587  0.6325
  305MPD2    C5 4645   4.230   3.805  14.009  0.0972  0.1640 -0.4507
  305MPD2     H 4646   4.283   3.441  14.131  3.1554  1.0532  1.3998
  305MPD2    H1 4647   4.141   3.722  13.835  2.5577  4.0211  0.2520
  305MPD2    H2 4648   4.301   3.863  14.198 -1.9377 -1.5438  2.4595
  305MPD2    H3 4649   4.211   3.908  13.981 -0.2855 -0.4823 -2.5197
  305MPD2     N 4650   4.193   3.479  13.860  0.4484  0.1291 -0.0386
  305MPD2    H5 4651   4.151   3.510  13.773  1.2933 -2.2841 -1.3173
  305MPD2    N1 4652   4.355   3.637  14.306  0.3768  0.1964  0.1475
  305MPD2    H7 4653   4.388   3.721  14.353 -1.1266  0.6719  0.3477
  306TMC3    C1 4654   4.443   3.547  14.506 -0.2311  0.6680 -0.1531
  306TMC3    C2 4655   4.516   3.444  14.565 -0.0824  0.1334  0.5278
  306TMC3    C3 4656   4.534   3.442  14.698 -0.3388 -0.4141  0.3458
  306TMC3    C4 4657   4.391   3.649  14.582  0.2677  0.4391  0.2373
  306TMC3    C5 4658   4.414   3.654  14.710 -0.1063  0.6078 -0.6655
  306TMC3    C6 4659   4.491   3.554  14.766 -0.3880 -0.2494  0.3098
  306TMC3     C 4660   4.393   3.522  14.371 -0.4687 -0.0602 -0.9443
  306TMC3     O 4661   4.366   3.404  14.342  0.1535  0.3303  0.1089
  306TMC3     H 4662   4.557   3.363  14.505 -1.1577 -0.3530  0.4471
  306TMC3    H1 4663   4.325   3.719  14.532  1.0348  0.0017 -1.4022
  306TMC3    H2 4664   4.496   3.550  14.874 -1.4178  0.4989  0.3840
  306TMC3    C7 4665   4.365   3.768  14.784  0.3835 -0.2519  0.9181
  306TMC3    C8 4666   4.610   3.334  14.765  0.2600  0.3854  0.3119
  306TMC3    O1 4667   4.258   3.813  14.745  0.3383 -0.1846 -0.2408
  306TMC3    O2 4668   4.625   3.239  14.696 -0.1606  0.5085 -0.3437
  307MPD2     C 4669   2.669   1.074   1.581 -0.4880  0.2336 -0.9092
  307MPD2    C1 4670   2.662   1.161   1.475 -0.1628 -0.1756 -1.0087
  307MPD2    C2 4671   2.540   1.177   1.412  0.1957  0.5271  0.6161
  307MPD2    C3 4672   2.425   1.120   1.467  0.5254 -0.2459 -0.3467
  307MPD2    C4 4673   2.429   1.038   1.583  0.5143  0.3381 -0.4086
  307MPD2    C5 4674   2.555   1.018   1.634 -0.2017  0.1986  0.5985
  307MPD2     H 4675   2.539   1.234   1.320  0.7660  0.9836  0.8970
  307MPD2    H1 4676   2.348   0.992   1.640 -1.9027  1.6468 -2.8195
  307MPD2    H2 4677   2.764   1.042   1.622 -0.4101 -0.0471 -1.3047
  307MPD2    H3 4678   2.577   0.943   1.709 -0.6865  0.5984  1.1472
  307MPD2     N 4679   2.295   1.146   1.416 -0.4436 -0.3106  0.1619
  307MPD2    H5 4680   2.294   1.222   1.350 -1.3770  0.2196  0.7806
  307MPD2    N1 4681   2.779   1.216   1.411 -0.0501 -0.3487  0.1909
  307MPD2    H7 4682   2.763   1.263   1.323  0.6478  1.6417  1.1327
  308TMC3    C1 4683   1.853   1.212   1.320 -0.2363 -0.3616  0.0666
  308TMC3    C2 4684   1.867   1.349   1.348 -0.7829  0.0811 -0.5516
  308TMC3    C3 4685   1.987   1.399   1.408  0.8547  0.4769 -0.2170
  308TMC3    C4 4686   1.946   1.125   1.354  0.2087  0.0518  0.4551
  308TMC3    C5 4687   2.062   1.170   1.406 -0.1833  0.1171  0.1170
  308TMC3    C6 4688   2.078   1.306   1.436  0.6910 -0.1024 -0.1262
  308TMC3     C 4689   1.724   1.152   1.260  0.0887  0.2166 -0.4538
  308TMC3     O 4690   1.718   1.035   1.223 -0.5410 -0.0408 -0.2893
  308TMC3     H 4691   1.786   1.421   1.340 -1.4009 -0.8736 -2.9745
  308TMC3    H1 4692   1.941   1.017   1.339  0.5377  0.4010 -2.1380
  308TMC3    H2 4693   2.176   1.340   1.468  1.3119 -2.1094  0.1129
  308TMC3    C7 4694   2.174   1.084   1.444  0.4057  0.0844 -0.6799
  308TMC3    C8 4695   2.041   1.534   1.390 -0.5588  0.5158  0.0267
  308TMC3    O1 4696   2.153   0.981   1.499 -0.0935  0.2450  0.4980
  308TMC3    O2 4697   2.160   1.551   1.374  0.8507  0.2280  0.8141
  309MPD2     C 4698   1.133   2.625  17.345 -0.2440 -0.3623 -0.4192
  309MPD2    C1 4699   1.143   2.489  17.359  0.2898  0.0081  0.0877
  309MPD2    C2 4700   1.127   2.433  17.482 -0.3316  0.1349 -0.5160
  309MPD2    C3 4701   1.080   2.501  17.599 -0.2791  0.0445 -0.0849
  309MPD2    C4 4702   1.076   2.636  17.583  0.3585 -0.8081 -0.0678
  309MPD2    C5 4703   1.104   2.694  17.459 -0.0168 -0.1083  0.8485
  309MPD2     H 4704   1.142   2.327  17.494 -1.1445 -0.0368 -1.0014
  309MPD2    H1 4705   1.041   2.708  17.656  0.1872 -0.3167 -0.6328
  309MPD2    H2 4706   1.152   2.679  17.253  2.2964  0.3902  0.5580
  309MPD2    H3 4707   1.106   2.802  17.452  0.3083 -0.2164 -0.8231
  309MPD2     N 4708   1.053   2.442  17.719  0.1855 -0.2783 -0.6767
  309MPD2    H5 4709   1.025   2.512   0.032 -0.8038  0.1052 -1.4846
  309MPD2    N1 4710   1.188   2.404  17.249  0.2566  1.1080  0.4134
  309MPD2    H7 4711   1.229   2.314  17.273  1.5105  2.2620  2.6127
  310TMC3    C1 4712   1.216   2.334  17.028 -0.0972  0.2598  0.6814
  310TMC3    C2 4713   1.162   2.328  16.904 -0.8068  0.4879  0.3067
  310TMC3    C3 4714   1.207   2.239  16.813 -0.2905  0.4405 -0.5125
  310TMC3    C4 4715   1.318   2.254  17.067  0.0595 -0.2977 -0.1225
  310TMC3    C5 4716   1.367   2.171  16.976  0.1784 -0.6313  0.3456
  310TMC3    C6 4717   1.314   2.161  16.847 -0.3774  0.4330  0.2364
  310TMC3     C 4718   1.160   2.437  17.121 -0.1183  0.0198 -0.4496
  310TMC3     O 4719   1.090   2.530  17.078  0.0514 -0.5746  0.5228
  310TMC3     H 4720   1.075   2.389  16.883 -0.2326  1.5566  1.0388
  310TMC3    H1 4721   1.367   2.274  17.161  0.9901 -1.0898 -0.4384
  310TMC3    H2 4722   1.351   2.085  16.779 -1.1434  0.0799  0.2139
  310TMC3    C7 4723   1.481   2.088  17.025  0.1346 -0.0893  0.3374
  310TMC3    C8 4724   1.154   2.241  16.682  0.3780  0.5671 -0.0391
  310TMC3    O1 4725   1.543   2.123  17.124 -0.4379 -0.4969  0.2940
  310TMC3    O2 4726   1.054   2.316  16.677 -0.5512  0.3538 -0.0977
  311MPD2     C 4727   3.403   3.642  12.480 -0.2052  0.0780 -0.5720
  311MPD2    C1 4728   3.421   3.569  12.603  0.2560 -0.2929  0.4540
  311MPD2    C2 4729   3.322   3.584  12.698 -0.3141 -1.2299 -0.1491
  311MPD2    C3 4730   3.197   3.646  12.665  0.4624  0.3461 -0.0831
  311MPD2    C4 4731   3.182   3.701  12.538 -0.2247  0.3563  0.3206
  311MPD2    C5 4732   3.288   3.711  12.451  0.2160  0.4625  0.0585
  311MPD2     H 4733   3.333   3.539  12.796 -1.1397 -1.5961 -0.2218
  311MPD2    H1 4734   3.087   3.743  12.506  0.9693  2.6989 -0.2131
  311MPD2    H2 4735   3.471   3.648  12.397  3.4459  0.8086  2.5048
  311MPD2    H3 4736   3.280   3.755  12.352 -0.7635 -1.4525 -0.7098
  311MPD2     N 4737   3.095   3.643  12.763  0.2347 -0.0330 -0.3274
  311MPD2    H5 4738   3.119   3.628  12.861 -0.2997 -0.3384 -0.2465
  311MPD2    N1 4739   3.539   3.499  12.637  0.2518  0.2199  0.6546
  311MPD2    H7 4740   3.535   3.454  12.727 -1.5398  1.5104  1.2148
  312TMC3    C1 4741   2.864   3.625  12.829 -0.1057  0.2556  0.3038
  312TMC3    C2 4742   2.780   3.519  12.809  0.1325  0.3902 -0.4414
  312TMC3    C3 4743   2.698   3.481  12.914 -0.1812 -0.4426  0.3407
  312TMC3    C4 4744   2.888   3.677  12.951 -0.2595 -0.3167  0.7865
  312TMC3    C5 4745   2.822   3.622  13.056  0.2457  0.0255  0.2560
  312TMC3    C6 4746   2.722   3.527  13.043  0.2115 -0.0621 -0.1941
  312TMC3     C 4747   2.960   3.640  12.726 -0.0870 -0.3071  0.3310
  312TMC3     O 4748   2.912   3.644  12.608  0.1767  0.5381 -0.5608
  312TMC3     H 4749   2.772   3.464  12.716 -2.3828 -2.3567  1.3795
  312TMC3    H1 4750   2.956   3.760  12.965  0.5659 -0.9141  0.2849
  312TMC3    H2 4751   2.672   3.499  13.136  0.8364 -2.7686 -0.6881
  312TMC3    C7 4752   2.878   3.660  13.187 -0.1307  0.4560  0.2163
  312TMC3    C8 4753   2.570   3.416  12.885 -0.1627  0.2767 -0.0179
  312TMC3    O1 4754   2.938   3.766  13.190  0.1558 -0.7823 -0.1311
  312TMC3    O2 4755   2.510   3.352  12.972  0.3232 -0.9037 -0.4446
  313MPD2     C 4756   2.088   3.013  11.610 -0.5111  0.2333  0.1993
  313MPD2    C1 4757   2.095   3.082  11.500 -0.2382  0.0414 -0.3844
  313MPD2    C2 4758   2.097   3.009  11.382  0.1022 -0.1106  0.4315
  313MPD2    C3 4759   2.097   2.877  11.381 -0.2348 -0.5633 -0.6908
  313MPD2    C4 4760   2.079   2.805  11.502  0.2943  0.2349  0.1109
  313MPD2    C5 4761   2.087   2.879  11.616  0.0254  0.0202 -0.3356
  313MPD2     H 4762   2.112   3.058  11.287  0.2491  1.1284  1.0941
  313MPD2    H1 4763   2.071   2.697  11.514  2.0632 -0.0037 -0.8662
  313MPD2    H2 4764   2.098   3.067  11.704 -3.1772 -0.4602  0.8780
  313MPD2    H3 4765   2.089   2.833  11.714  1.0863  0.5595 -0.1050
  313MPD2     N 4766   2.094   2.814  11.256  0.3908 -0.1143 -0.2666
  313MPD2    H5 4767   2.102   2.868  11.170  3.0989 -0.7520 -0.4220
  313MPD2    N1 4768   2.095   3.221  11.497  0.2152 -0.5632  0.0557
  313MPD2    H7 4769   2.087   3.260  11.404  0.0892  0.6129  0.5516
  314TMC3    C1 4770   2.108   3.451  11.547  0.2031  0.1118 -0.0568
  314TMC3    C2 4771   2.209   3.538  11.593 -0.2703  0.0647 -0.0268
  314TMC3    C3 4772   2.211   3.673  11.559  0.1369  0.2205  1.3791
  314TMC3    C4 4773   2.015   3.495  11.463 -0.4749 -0.3851 -0.4064
  314TMC3    C5 4774   2.010   3.634  11.443 -0.4844 -0.4713  0.2505
  314TMC3    C6 4775   2.107   3.721  11.487  0.3268 -0.3962 -0.3951
  314TMC3     C 4776   2.108   3.316  11.603  0.1296  0.4054  0.6090
  314TMC3     O 4777   2.126   3.299  11.719  0.0239 -0.4182 -0.0613
  314TMC3     H 4778   2.297   3.493  11.638 -1.4903 -2.0941  0.1516
  314TMC3    H1 4779   1.933   3.437  11.424 -2.1617  1.1826  0.7966
  314TMC3    H2 4780   2.114   3.824  11.456 -1.2673 -0.7498 -1.9538
  314TMC3    C7 4781   1.930   3.673  11.334  0.6627 -0.0034 -0.3867
  314TMC3    C8 4782   2.338   3.740  11.556  0.2630 -0.1338  0.2065
  314TMC3    O1 4783   1.907   3.794  11.326  0.3544  1.1781 -0.4311
  314TMC3    O2 4784   2.343   3.821  11.463  0.7192 -0.3424  0.2725
  315MPD2     C 4785   2.638   1.437  17.745  0.4050  0.1436  0.1008
  315MPD2    C1 4786   2.739   1.431   0.084 -0.0624  0.3614 -0.0991
  315MPD2    C2 4787   2.807   1.548   0.119  0.1802 -0.8264  0.1924
  315MPD2    C3 4788   2.772   1.673   0.073 -0.2096 -0.1130  0.2552
  315MPD2    C4 4789   2.672   1.681  17.729  0.2215  0.0321 -0.1974
  315MPD2    C5 4790   2.602   1.561  17.695 -0.4607  0.1211 -0.6218
  315MPD2     H 4791   2.891   1.537   0.187 -1.5577 -0.4152  2.4336
  315MPD2    H1 4792   2.641   1.778  17.695 -0.2725 -0.3294 -0.7760
  315MPD2    H2 4793   2.578   1.353  17.715  1.9906 -1.0925  0.3920
  315MPD2    H3 4794   2.526   1.572  17.619 -1.5155 -0.6997  0.3143
  315MPD2     N 4795   2.847   1.779   0.131  0.3564 -0.2687  0.3545
  315MPD2    H5 4796   2.902   1.758   0.213 -0.3255 -1.4397  0.5156
  315MPD2    N1 4797   2.770   1.315   0.149 -0.1477  0.0751 -0.5864
  315MPD2    H7 4798   2.841   1.318   0.222 -1.2768  2.2215  0.4096
  316TMC3    C1 4799   2.884   2.008   0.195  0.2070 -0.1896  0.4149
  316TMC3    C2 4800   2.997   1.976   0.260 -0.3537  0.5370 -0.2220
  316TMC3    C3 4801   3.013   2.061   0.361  0.1178 -0.8218  0.0767
  316TMC3    C4 4802   2.798   2.107   0.216 -0.2930  0.1903  0.3185
  316TMC3    C5 4803   2.821   2.191   0.319 -0.5820  0.0464  0.9697
  316TMC3    C6 4804   2.937   2.175   0.389  0.8768  0.2160  0.5243
  316TMC3     C 4805   2.843   1.911   0.091  0.7614  0.3058 -0.0379
  316TMC3     O 4806   2.771   1.960   0.006  0.0087  0.2261 -0.0038
  316TMC3     H 4807   3.079   1.909   0.238 -0.5371 -0.4347  2.0301
  316TMC3    H1 4808   2.707   2.110   0.157 -0.1003  1.1607  0.0760
  316TMC3    H2 4809   2.983   2.247   0.456  1.1117 -1.1846  1.8801
  316TMC3    C7 4810   2.758   2.325   0.332 -0.4263  0.2470  0.0812
  316TMC3    C8 4811   3.130   2.042   0.451  0.2377  0.1770 -0.3248
  316TMC3    O1 4812   2.796   2.382   0.434 -0.4768 -0.2310  0.5287
  316TMC3    O2 4813   3.166   2.133   0.519  0.4057 -0.4496 -0.7297
  317MPD2     C 4814   4.147   0.678  12.992  0.4116  0.7371  0.4030
  317MPD2    C1 4815   4.261   0.603  12.972 -1.0997 -0.2901  0.4836
  317MPD2    C2 4816   4.322   0.545  13.083  0.3081  0.0872  0.2522
  317MPD2    C3 4817   4.275   0.554  13.212 -0.3225 -0.1076 -0.0621
  317MPD2    C4 4818   4.155   0.612  13.227  0.1660 -0.3335 -0.9642
  317MPD2    C5 4819   4.093   0.675  13.120 -0.4553  0.1322 -0.4802
  317MPD2     H 4820   4.415   0.492  13.070 -0.2759 -1.0959  0.8695
  317MPD2    H1 4821   4.111   0.616  13.326 -1.2389 -2.1441 -1.5248
  317MPD2    H2 4822   4.106   0.743  12.916 -2.4483  0.2907  1.5599
  317MPD2    H3 4823   4.007   0.740  13.132 -1.8700 -1.9468  0.6459
  317MPD2     N 4824   4.349   0.501  13.313 -0.4145 -0.5716 -0.6606
  317MPD2    H5 4825   4.424   0.440  13.282 -2.0081 -1.9638 -1.7550
  317MPD2    N1 4826   4.331   0.605  12.848  0.0195  0.0444  0.1251
  317MPD2    H7 4827   4.428   0.575  12.855 -0.6309 -2.1839 -0.4280
  318TMC3    C1 4828   4.443   0.463  13.521  0.2088 -0.3701 -0.5861
  318TMC3    C2 4829   4.432   0.328  13.500 -0.5830  0.2432 -0.3421
  318TMC3    C3 4830   4.498   0.246  13.584 -1.1187 -0.1200  0.0036
  318TMC3    C4 4831   4.520   0.515  13.620  0.0063  0.5937  0.0197
  318TMC3    C5 4832   4.598   0.422  13.695  0.6383 -1.0231  0.0914
  318TMC3    C6 4833   4.586   0.285  13.673 -0.4949  0.4471 -0.2306
  318TMC3     C 4834   4.362   0.551  13.441  0.9980 -0.0697  0.1481
  318TMC3     O 4835   4.336   0.663  13.480  0.0237  0.2834 -0.1898
  318TMC3     H 4836   4.363   0.290  13.425 -0.9299  1.1438 -0.4784
  318TMC3    H1 4837   4.540   0.622  13.623 -1.5804  0.9217 -1.2978
  318TMC3    H2 4838   4.640   0.210  13.729  1.0433  1.1229 -0.8344
  318TMC3    C7 4839   4.717   0.478  13.754 -0.2857  0.2318  0.0181
  318TMC3    C8 4840   4.492   0.102  13.559 -0.2044 -0.9782 -0.2992
  318TMC3    O1 4841   4.715   0.598  13.761  0.5002  0.8410 -0.1625
  318TMC3    O2 4842   4.578   0.029  13.604  0.3034  0.1041  0.2503
  319MPD2     C 4843   1.024   1.562  16.454  0.0482 -0.2011 -0.5678
  319MPD2    C1 4844   0.914   1.538  16.529  0.0634 -0.6503 -0.7971
  319MPD2    C2 4845   0.804   1.466  16.477  0.1950  0.1400  0.2442
  319MPD2    C3 4846   0.806   1.419  16.348  0.2510 -0.7483 -0.4171
  319MPD2    C4 4847   0.917   1.446  16.271  0.6483  0.5154 -0.0229
  319MPD2    C5 4848   1.025   1.510  16.330 -0.2871 -0.1110  0.1404
  319MPD2     H 4849   0.717   1.436  16.534 -0.9287  3.6113  0.3149
  319MPD2    H1 4850   0.910   1.417  16.167  3.7785 -0.8881  0.1731
  319MPD2    H2 4851   1.112   1.611  16.494  1.2983 -0.1088 -3.3824
  319MPD2    H3 4852   1.115   1.513  16.269  1.0044  1.8087  2.1443
  319MPD2     N 4853   0.682   1.369  16.292  0.2184 -0.6396  0.3473
  319MPD2    H5 4854   0.678   1.375  16.190  1.2335 -0.9384  0.2968
  319MPD2    N1 4855   0.899   1.592  16.659  0.3812 -0.2018 -0.3328
  319MPD2    H7 4856   0.812   1.571  16.707  1.1079 -1.9139  0.2261
  320TMC3    C1 4857   0.461   1.288  16.275 -0.1119 -0.0977 -0.2544
  320TMC3    C2 4858   0.401   1.405  16.237  0.0058  0.0498 -0.0831
  320TMC3    C3 4859   0.267   1.411  16.251 -0.3033  0.3422  0.1207
  320TMC3    C4 4860   0.384   1.184  16.317  1.1634  0.8018  0.3218
  320TMC3    C5 4861   0.254   1.196  16.342  0.3025  0.1248 -0.0329
  320TMC3    C6 4862   0.195   1.311  16.312  0.0272 -0.4791 -0.0418
  320TMC3     C 4863   0.578   1.310  16.360  0.3688 -0.0880 -0.5356
  320TMC3     O 4864   0.571   1.273  16.478 -0.2364 -0.3624  0.3504
  320TMC3     H 4865   0.453   1.496  16.209  1.0778 -0.4448  0.3343
  320TMC3    H1 4866   0.431   1.097  16.363 -1.1436 -0.6574 -0.0862
  320TMC3    H2 4867   0.088   1.317  16.324  0.2433 -0.9061  2.0240
  320TMC3    C7 4868   0.183   1.078  16.343  0.0274 -0.1082 -0.2626
  320TMC3    C8 4869   0.200   1.512  16.184 -1.2130 -0.1328  0.5281
  320TMC3    O1 4870   0.232   0.989  16.272  0.2720 -0.2457  0.3183
  320TMC3    O2 4871   0.265   1.606  16.136  1.1140  0.1088  0.3028
  321TMC3    C1 4872   0.936   1.699  16.853  0.6253 -0.4318  0.1867
  321TMC3    C2 4873   0.908   1.604  16.947  0.1393 -0.5238 -0.6417
  321TMC3    C3 4874   0.918   1.632  17.076  0.3939 -0.5179 -0.1260
  321TMC3    C4 4875   0.995   1.817  16.910  0.0522 -0.4038  0.7330
  321TMC3    C5 4876   0.977   1.853  17.036  0.3198  0.0254 -0.3014
  321TMC3    C6 4877   0.915   1.765  17.121 -0.6837  0.5049 -0.1353
  321TMC3     C 4878   0.987   1.670  16.722 -0.7423 -0.0179 -0.4255
  321TMC3     O 4879   1.107   1.679  16.696  0.7844  0.1210 -0.2679
  321TMC3     H 4880   0.905   1.500  16.914 -0.9471 -1.4060  2.2252
  321TMC3    H1 4881   1.046   1.885  16.842  2.5227 -0.7521  2.2465
  321TMC3    H2 4882   0.909   1.788  17.226 -0.3867  0.2129 -0.0549
  321TMC3    C7 4883   1.110   1.892  17.100  0.0906  0.0226  0.5000
  321TMC3    C8 4884   1.019   1.557  17.153 -0.4710 -0.2947 -0.2593
  321TMC3    O1 4885   1.210   1.862  17.031  0.0018  0.5937 -0.4891
  321TMC3    O2 4886   1.049   1.608  17.258 -0.1258 -0.0410  0.2655
  322MPD2     C 4887   4.236   2.935  13.714  0.5233 -0.1234  0.1513
  322MPD2    C1 4888   4.248   2.866  13.837  0.3824  0.0907 -0.1048
  322MPD2    C2 4889   4.212   2.742  13.833 -0.0239 -0.5037  0.4116
  322MPD2    C3 4890   4.178   2.673  13.719  0.7501 -0.0507  0.0406
  322MPD2    C4 4891   4.160   2.739  13.604  0.4538 -0.0286 -0.6502
  322MPD2    C5 4892   4.187   2.872  13.594 -0.2106 -0.1921  0.0374
  322MPD2     H 4893   4.229   2.681  13.922  2.4476 -1.5445 -0.7832
  322MPD2    H1 4894   4.127   2.691  13.512 -2.1663  1.6586 -0.5820
  322MPD2    H2 4895   4.274   3.037  13.717  2.1969 -0.7929  2.4442
  322MPD2    H3 4896   4.181   2.918  13.496  3.8534 -0.1702 -0.2116
  322MPD2     N 4897   4.164   2.533  13.739 -0.9660 -0.2654 -0.7698
  322MPD2    H5 4898   4.169   2.504  13.836 -1.0207 -1.9426 -1.2599
  322MPD2    N1 4899   4.282   2.942  13.956  0.2985 -0.5774  0.2363
  322MPD2    H7 4900   4.311   3.039  13.949  1.0671 -0.6941  1.8992
  323TMC3    C1 4901   4.330   2.988  14.187  0.5065  0.4285 -0.6668
  323TMC3    C2 4902   4.411   3.091  14.156 -0.4500  0.3476 -0.4628
  323TMC3    C3 4903   4.472   3.157  14.257 -0.5097  0.0387 -0.2888
  323TMC3    C4 4904   4.327   2.948  14.325 -1.2286 -0.8681  0.5966
  323TMC3    C5 4905   4.402   3.005  14.417 -0.2015 -0.3284  0.1294
  323TMC3    C6 4906   4.458   3.124  14.389  0.2500  1.1640 -0.0468
  323TMC3     C 4907   4.276   2.895  14.088  0.1498 -0.0705 -0.5169
  323TMC3     O 4908   4.224   2.788  14.131  0.0875  0.1631 -0.2173
  323TMC3     H 4909   4.423   3.109  14.049  1.5965  2.0657  0.0711
  323TMC3    H1 4910   4.276   2.856  14.351 -2.2265 -0.3668  0.3876
  323TMC3    H2 4911   4.513   3.178  14.465 -0.6091  2.1400 -0.1120
  323TMC3    C7 4912   4.483   2.914  14.502 -0.9798 -0.0185 -0.0170
  323TMC3    C8 4913   4.592   3.233  14.223  0.2825 -0.3057 -0.6310
  323TMC3    O1 4914   4.454   2.797  14.501  0.2228  0.5813  0.6701
  323TMC3    O2 4915   4.674   3.243  14.313 -0.5265 -0.3009  0.1970
  324MPD2     C 4916   1.039   4.129  14.923  0.0283  0.4412  0.4670
  324MPD2    C1 4917   1.048   4.195  14.802  0.8932 -0.7122  0.3004
  324MPD2    C2 4918   0.942   4.239  14.735 -0.0036 -0.3751  0.3686
  324MPD2    C3 4919   0.815   4.219  14.788  0.5841  0.4300  0.5158
  324MPD2    C4 4920   0.803   4.150  14.905  0.0241  0.1684 -0.2994
  324MPD2    C5 4921   0.912   4.098  14.969  0.2773 -0.4098 -0.8043
  324MPD2     H 4922   0.953   4.284  14.637  0.3072 -0.7752  0.2159
  324MPD2    H1 4923   0.708   4.114  14.945  0.4394  0.6448  1.1249
  324MPD2    H2 4924   1.121   4.098  14.987 -0.6547 -0.8060  0.7377
  324MPD2    H3 4925   0.904   4.034  15.056  2.9682  1.4603  0.8280
  324MPD2     N 4926   0.698   4.267  14.721  0.1435  0.3448 -0.1294
  324MPD2    H5 4927   0.612   4.238  14.766 -2.0647  3.1272 -2.6010
  324MPD2    N1 4928   1.174   4.214  14.737 -0.8159  0.0539  0.1092
  324MPD2    H7 4929   1.176   4.260  14.647 -0.0890  1.5206  0.8868
  325TMC3    C1 4930   0.561   4.378  14.571 -0.7750  0.1658  0.2278
  325TMC3    C2 4931   0.464   4.281  14.575 -0.3035 -0.4060  0.0234
  325TMC3    C3 4932   0.339   4.313  14.526  0.0722  0.1753 -0.3960
  325TMC3    C4 4933   0.544   4.494  14.495  0.3224 -0.1653  0.2312
  325TMC3    C5 4934   0.413   4.521  14.462 -1.1085 -0.0580  0.0241
  325TMC3    C6 4935   0.312   4.434  14.471 -0.2569 -0.0229 -1.2780
  325TMC3     C 4936   0.698   4.355  14.624 -0.2608 -0.6593  0.0737
  325TMC3     O 4937   0.790   4.410  14.563 -0.0285 -0.2521 -0.2156
  325TMC3     H 4938   0.490   4.177  14.592 -1.2630 -0.5651  0.5356
  325TMC3    H1 4939   0.621   4.570  14.489 -0.1550  0.2756 -0.3389
  325TMC3    H2 4940   0.215   4.455  14.427  0.2039  2.4611 -1.1111
  325TMC3    C7 4941   0.379   4.656  14.431 -0.0474 -0.1106  0.6051
  325TMC3    C8 4942   0.259   4.207  14.470  0.6695 -0.3104  0.1866
  325TMC3    O1 4943   0.472   4.735  14.428  0.2109 -0.7837  0.5922
  325TMC3    O2 4944   0.297   4.091  14.488  0.1720  0.0229 -0.0676
  326MPD2     C 4945   1.801   0.500  11.448  0.3503  0.1121  0.0316
  326MPD2    C1 4946   1.818   0.563  11.327  0.2333  0.4090  0.3354
  326MPD2    C2 4947   1.949   0.594  11.291  0.4807 -0.7203 -0.0611
  326MPD2    C3 4948   2.060   0.567  11.373 -0.1394  0.1682 -0.4791
  326MPD2    C4 4949   2.032   0.505  11.491  0.0759 -0.2814  0.1365
  326MPD2    C5 4950   1.907   0.468  11.523 -0.5262  0.0151  0.2727
  326MPD2     H 4951   1.962   0.661  11.207 -0.9030 -0.0405  0.2678
  326MPD2    H1 4952   2.112   0.469  11.555 -1.0549 -0.9027  1.1967
  326MPD2    H2 4953   1.702   0.473  11.483  0.5613  2.0828  2.1437
  326MPD2    H3 4954   1.885   0.393  11.598 -2.0706  2.1416  1.9557
  326MPD2     N 4955   2.192   0.603  11.343  0.3789 -0.1929 -1.1052
  326MPD2    H5 4956   2.267   0.582  11.410 -0.2460  0.1537 -0.2955
  326MPD2    N1 4957   1.717   0.605  11.245 -0.1585 -0.9598  0.5431
  326MPD2    H7 4958   1.742   0.640  11.153 -0.3729 -0.3334  0.7285
  327TMC3    C1 4959   1.510   0.608  11.155 -0.3299 -0.6977 -0.5324
  327TMC3    C2 4960   1.425   0.710  11.121  0.1872  0.3283  0.4126
  327TMC3    C3 4961   1.419   0.745  10.988 -0.0211  0.4755  0.2460
  327TMC3    C4 4962   1.567   0.525  11.066 -0.0312  0.7905 -0.4654
  327TMC3    C5 4963   1.571   0.568  10.935  0.7163  0.4417  0.1641
  327TMC3    C6 4964   1.507   0.687  10.896 -0.2296 -0.1690  0.1580
  327TMC3     C 4965   1.586   0.613  11.275  0.2776 -0.0009 -0.8380
  327TMC3     O 4966   1.524   0.609  11.379 -0.4744  0.1450  0.0026
  327TMC3     H 4967   1.368   0.769  11.192 -0.9807  1.0252 -1.1253
  327TMC3    H1 4968   1.614   0.435  11.104 -1.8594  0.0330  0.0272
  327TMC3    H2 4969   1.524   0.724  10.796 -1.2195 -0.4560 -0.1167
  327TMC3    C7 4970   1.687   0.535  10.858  0.0643 -0.1975  0.0763
  327TMC3    C8 4971   1.349   0.875  10.963 -0.6037 -0.5715 -0.4066
  327TMC3    O1 4972   1.691   0.575  10.740 -0.0000 -0.1904  0.3707
  327TMC3    O2 4973   1.388   0.945  10.868  0.0627 -0.1326  0.7972
  328MPD2     C 4974   0.186   0.015  17.430  1.1240  0.0862 -0.2064
  328MPD2    C1 4975   0.112   4.638  17.442 -0.1267 -0.2689  0.4405
  328MPD2    C2 4976   0.014   4.614  17.356  0.2585  0.3604 -0.0636
  328MPD2    C3 4977   4.714   4.710  17.266  0.3707  0.7639  0.3114
  328MPD2    C4 4978   0.043   0.081  17.256 -0.6404 -0.1084  0.2944
  328MPD2    C5 4979   0.153   0.107  17.333  0.5812  0.4937  0.4516
  328MPD2     H 4980   4.711   4.516  17.341 -0.6397  0.7517 -0.0593
  328MPD2    H1 4981   0.031   0.145  17.169  0.8888  0.9862  0.8984
  328MPD2    H2 4982   0.261   0.045  17.502  1.3915 -1.0359 -0.0332
  328MPD2    H3 4983   0.208   0.201  17.322  0.0431  0.9661  1.8794
  328MPD2     N 4984   4.606   4.711  17.173  0.0289 -0.0658  0.1086
  328MPD2    H5 4985   4.582   0.063  17.135 -0.0463 -1.8299 -4.0468
  328MPD2    N1 4986   0.159   4.559  17.549  0.2169  0.7073  0.2211
  328MPD2    H7 4987   0.224   4.600  17.615 -0.3777 -0.0338  1.2563
  329TMC3    C1 4988   0.136   4.368  17.696  0.6814 -0.4582 -0.3452
  329TMC3    C2 4989   0.234   4.420   0.025  0.0120  0.0250  0.1451
  329TMC3    C3 4990   0.232   4.390   0.153  0.5510 -0.3540  0.6877
  329TMC3    C4 4991   0.042   4.281  17.739  0.1360 -0.2486 -0.6761
  329TMC3    C5 4992   0.036   4.259   0.118 -0.3841 -0.4360 -0.6717
  329TMC3    C6 4993   0.124   4.323   0.206  0.0980 -0.0915 -1.4048
  329TMC3     C 4994   0.103   4.429  17.568 -0.0975 -0.1819  0.0414
  329TMC3     O 4995   0.029   4.359  17.499 -0.4346  0.3561  0.1498
  329TMC3     H 4996   0.314   4.480  17.738  1.3314 -2.3340 -0.6820
  329TMC3    H1 4997   4.697   4.251  17.678 -0.2041 -0.5129 -0.0681
  329TMC3    H2 4998   0.127   4.294   0.311  0.5415  0.6614 -1.2129
  329TMC3    C7 4999   4.654   4.212   0.181 -0.7343 -0.0346  0.2102
  329TMC3    C8 5000   0.309   4.472   0.241  0.5579 -0.0595 -1.0557
  329TMC3    O1 5001   4.660   4.186   0.299 -0.2387  0.2997 -0.0423
  329TMC3    O2 5002   0.421   4.505   0.199 -0.2992  0.1663  0.2159
  330TMC3    C1 5003   2.822   4.694   9.826  0.7172 -0.2790  0.1091
  330TMC3    C2 5004   2.688   4.710   9.787  0.6414 -1.2718  0.5325
  330TMC3    C3 5005   2.614   4.594   9.799 -0.5768  0.6703 -0.4518
  330TMC3    C4 5006   2.872   4.576   9.860  0.3283  0.4644  0.2623
  330TMC3    C5 5007   2.799   4.462   9.866  0.4005 -1.1395  0.5447
  330TMC3    C6 5008   2.666   4.474   9.840  0.5161 -0.1672 -0.4413
  330TMC3     C 5009   2.906   0.068   9.864  0.2326 -0.5298 -0.7613
  330TMC3     O 5010   2.982   0.054   9.955 -0.7820  0.7820  0.1165
  330TMC3     H 5011   2.642   0.068   9.771  4.7497  0.5529 -0.2200
  330TMC3    H1 5012   2.975   4.579   9.896  0.9634  0.4492 -1.5299
  330TMC3    H2 5013   2.605   4.384   9.835  1.0742 -0.6146  0.7591
  330TMC3    C7 5014   2.850   4.329   9.890 -0.6020 -0.1270 -0.4783
  330TMC3    C8 5015   2.470   4.608   9.771  0.0128  0.2977 -0.0657
  330TMC3    O1 5016   2.773   4.236   9.910  0.1542  0.5147  0.4799
  330TMC3    O2 5017   2.445   4.709   9.710 -0.1257  0.2133  0.2591
  331MPD2     C 5018   0.884   4.479  12.993  0.1482 -0.1736  0.3872
  331MPD2    C1 5019   0.766   4.447  12.935  0.5848  0.1004 -1.0966
  331MPD2    C2 5020   0.741   4.314  12.921 -0.0251  0.0526  0.8088
  331MPD2    C3 5021   0.829   4.215  12.949  0.2172 -0.6125 -0.0597
  331MPD2    C4 5022   0.947   4.247  13.009  0.2569 -0.5541  0.2932
  331MPD2    C5 5023   0.966   4.383  13.035  0.7003  0.2561  0.3208
  331MPD2     H 5024   0.643   4.279  12.891  0.0337  0.5133  0.0886
  331MPD2    H1 5025   1.013   4.171  13.050  1.8216  2.2709  2.9596
  331MPD2    H2 5026   0.922   4.578  13.019  1.7876 -0.5280 -0.6903
  331MPD2    H3 5027   1.047   4.427  13.093  1.7639  0.3327 -1.2204
  331MPD2     N 5028   0.788   4.081  12.928  0.4461 -0.2780  0.2377
  331MPD2    H5 5029   0.689   4.073  12.910  0.2581 -0.1788  1.2406
  331MPD2    N1 5030   0.691   4.551  12.882  0.8489  0.4097 -0.2478
  331MPD2    H7 5031   0.741   4.635  12.857 -0.8901  1.3775 -0.4224
  332TMC3    C1 5032   0.783   3.847  12.905 -0.1669  0.4094  0.1645
  332TMC3    C2 5033   0.665   3.855  12.835  0.0809 -0.2421  0.4100
  332TMC3    C3 5034   0.594   3.740  12.807 -0.6749  0.0841  0.4428
  332TMC3    C4 5035   0.825   3.722  12.943 -0.1195  0.1401  1.3648
  332TMC3    C5 5036   0.746   3.612  12.921 -1.0455 -0.3987  0.7013
  332TMC3    C6 5037   0.628   3.617  12.851  0.8933 -0.4735  0.3298
  332TMC3     C 5038   0.862   3.968  12.941 -0.4571  0.2953  0.1922
  332TMC3     O 5039   0.984   3.955  12.963 -0.2850  0.9035  0.2322
  332TMC3     H 5040   0.629   3.948  12.792  0.1300 -1.1911 -1.7055
  332TMC3    H1 5041   0.917   3.702  12.997  0.9074 -1.3360 -0.8699
  332TMC3    H2 5042   0.572   3.525  12.839  0.5626 -0.2857  0.4039
  332TMC3    C7 5043   0.802   3.481  12.938 -0.6432 -0.2097 -0.7720
  332TMC3    C8 5044   0.490   3.753  12.700  0.0556  0.7881  0.4715
  332TMC3    O1 5045   0.719   3.397  12.960 -0.3035 -0.3562 -0.3144
  332TMC3    O2 5046   0.503   3.845  12.626 -0.0263 -0.1731  0.8491
  333MPD2     C 5047   0.553   3.929  11.450 -0.8724 -0.2859 -0.2989
  333MPD2    C1 5048   0.618   3.840  11.365  0.5185  0.4200 -0.6149
  333MPD2    C2 5049   0.577   3.707  11.375 -0.0942  0.4656  0.4043
  333MPD2    C3 5050   0.476   3.668  11.466  0.1898  0.5222  0.0184
  333MPD2    C4 5051   0.418   3.761  11.544 -0.2442 -0.5535  0.2318
  333MPD2    C5 5052   0.459   3.892  11.530  0.3023 -0.5528  0.4363
  333MPD2     H 5053   0.599   3.630  11.301 -0.9586  0.5812  0.0285
  333MPD2    H1 5054   0.336   3.736  11.611  0.1825  0.2814  1.0684
  333MPD2    H2 5055   0.565   4.036  11.442  2.3001 -0.5985  0.4235
  333MPD2    H3 5056   0.404   3.968  11.585  1.0729  0.6635 -0.4636
  333MPD2     N 5057   0.456   3.530  11.474  0.2378 -0.1586  0.4015
  333MPD2    H5 5058   0.520   3.470  11.423  1.2455  1.1318  0.1199
  333MPD2    N1 5059   0.706   3.899  11.272  0.5691 -0.2789  0.1255
  333MPD2    H7 5060   0.717   4.000  11.271 -2.2447  0.0345 -0.2437
  334TMC3    C1 5061   0.852   3.908  11.085 -0.3002 -0.4017 -0.3345
  334TMC3    C2 5062   0.951   3.848  11.019  0.5018 -0.1988  0.5342
  334TMC3    C3 5063   1.040   3.925  10.948  0.6713 -0.3245 -0.1425
  334TMC3    C4 5064   0.836   4.042  11.075  0.9612 -0.4695 -0.1395
  334TMC3    C5 5065   0.924   4.113  10.995 -0.5172 -0.1957 -0.3234
  334TMC3    C6 5066   1.025   4.058  10.931  0.4773  0.5271 -0.0332
  334TMC3     C 5067   0.786   3.829  11.181 -0.2021 -0.1171 -0.0856
  334TMC3     O 5068   0.806   3.709  11.187 -0.7547 -0.9862 -0.7592
  334TMC3     H 5069   0.970   3.742  11.032 -1.8546 -0.9305 -2.1940
  334TMC3    H1 5070   0.760   4.093  11.133 -1.0521 -2.3367 -1.1271
  334TMC3    H2 5071   1.084   4.121  10.864 -1.7295 -0.6069 -3.0504
  334TMC3    C7 5072   0.913   4.259  10.988  0.8390  0.2409 -0.0632
  334TMC3    C8 5073   1.162   3.861  10.911 -0.4144 -0.0733  0.2124
  334TMC3    O1 5074   1.007   4.328  10.944 -0.1919 -0.0324 -1.1138
  334TMC3    O2 5075   1.193   3.741  10.907 -0.8387  0.1868  0.4549
  335TMC3    C1 5076   1.041   4.589   0.110  0.0387  0.2721  0.4722
  335TMC3    C2 5077   0.914   4.580   0.057  0.1318  0.3348 -0.5139
  335TMC3    C3 5078   0.853   4.698   0.020 -0.1990  0.1537 -0.0508
  335TMC3    C4 5079   1.114   4.702   0.103  0.3111 -0.2667 -0.5866
  335TMC3    C5 5080   1.049   0.074   0.066 -0.3355  1.4597  0.3690
  335TMC3    C6 5081   0.922   0.082   0.020  0.3720 -0.2784  0.4223
  335TMC3     C 5082   1.101   4.472   0.173  0.5509  0.0842 -0.1271
  335TMC3     O 5083   1.226   4.465   0.162  0.4665  0.1822 -0.1543
  335TMC3     H 5084   0.859   4.489   0.079  0.4351 -0.0425 -1.3199
  335TMC3    H1 5085   1.219   4.707   0.131  0.6682  0.5559 -2.0427
  335TMC3    H2 5086   0.893   0.180  17.737  0.8113  0.8776  3.0312
  335TMC3    C7 5087   1.134   0.172  17.754  0.3815  0.6089 -0.5680
  335TMC3    C8 5088   0.748   4.701  17.671 -0.2737  0.0349  0.7241
  335TMC3    O1 5089   1.155   0.143  17.633  0.6436 -0.5808 -0.4028
  335TMC3    O2 5090   0.730   0.066  17.616 -0.3109 -0.4136  0.8274
  336MPD2     C 5091   0.538   2.725  16.215  0.5420  0.2593 -0.3118
  336MPD2    C1 5092   0.482   2.627  16.144 -0.7034 -0.0949 -0.3707
  336MPD2    C2 5093   0.530   2.494  16.169 -0.0861  0.2267 -0.1881
  336MPD2    C3 5094   0.620   2.462  16.272  0.1645 -0.0645 -0.0356
  336MPD2    C4 5095   0.648   2.566  16.360  0.0639  0.6022 -0.2011
  336MPD2    C5 5096   0.615   2.694  16.327  0.1141 -0.4298 -0.1649
  336MPD2     H 5097   0.494   2.408  16.113  1.6451 -0.5972 -0.0523
  336MPD2    H1 5098   0.710   2.555  16.448 -0.3385  2.3858  0.3038
  336MPD2    H2 5099   0.516   2.830  16.206  0.0868 -0.0668 -3.2577
  336MPD2    H3 5100   0.642   2.775  16.395 -0.3953  0.1425 -0.6452
  336MPD2     N 5101   0.662   2.332  16.301 -0.2450  0.3092 -0.7090
  336MPD2    H5 5102   0.705   2.326  16.393  0.8127  1.0163 -1.1563
  336MPD2    N1 5103   0.395   2.651  16.034  0.0212  0.1143 -0.0626
  336MPD2    H7 5104   0.357   2.567  15.991  3.5621 -0.8619 -1.2301
  337TMC3    C1 5105   0.321   2.760  15.838 -0.5211 -0.2395 -0.1587
  337TMC3    C2 5106   0.242   2.649  15.803  0.7302  0.2544 -0.2742
  337TMC3    C3 5107   0.217   2.632  15.667 -0.0513  0.1439  0.6034
  337TMC3    C4 5108   0.338   2.866  15.751  0.0056  0.1791 -0.2063
  337TMC3    C5 5109   0.265   2.856  15.632 -0.3004 -0.2472 -0.0029
  337TMC3    C6 5110   0.234   2.739  15.580 -0.0164 -0.4572  0.3364
  337TMC3     C 5111   0.369   2.775  15.974  0.4230  0.8342 -0.4594
  337TMC3     O 5112   0.408   2.883  16.010 -0.1798 -0.0488 -0.1309
  337TMC3     H 5113   0.219   2.572  15.875 -2.2247  0.6550 -0.7594
  337TMC3    H1 5114   0.361   2.961  15.797  0.2069  0.3826 -0.7322
  337TMC3    H2 5115   0.203   2.749  15.477 -1.0417 -0.4500  0.6513
  337TMC3    C7 5116   0.201   2.975  15.583 -0.3519  0.2928 -0.3950
  337TMC3    C8 5117   0.087   2.572  15.654  0.1345  0.1191  0.6111
  337TMC3    O1 5118   0.078   2.962  15.577 -0.5213 -0.7643 -0.4271
  337TMC3    O2 5119   0.037   2.505  15.748  0.3926 -0.1155 -0.3326
  338MPD2     C 5120   0.933   1.888   1.318  0.6685  0.2889  0.6620
  338MPD2    C1 5121   0.915   1.872   1.183 -0.0856 -0.0800  0.1057
  338MPD2    C2 5122   0.803   1.804   1.141  0.1051  0.4061  0.5057
  338MPD2    C3 5123   0.717   1.745   1.231  0.9321 -0.1286  0.1433
  338MPD2    C4 5124   0.737   1.772   1.366  0.0927 -0.1020 -0.2469
  338MPD2    C5 5125   0.845   1.841   1.410  0.0148 -0.5383 -0.5193
  338MPD2     H 5126   0.779   1.780   1.038 -0.7740  0.0673  0.7860
  338MPD2    H1 5127   0.674   1.728   1.443  0.6436 -0.4027  0.0329
  338MPD2    H2 5128   1.028   1.928   1.353 -0.3544  0.8933  2.7529
  338MPD2    H3 5129   0.859   1.846   1.518  0.0681 -1.2383 -0.4986
  338MPD2     N 5130   0.609   1.674   1.187 -0.0077 -0.0849 -0.5536
  338MPD2    H5 5131   0.592   1.670   1.087 -0.1945  0.8261 -0.5625
  338MPD2    N1 5132   1.016   1.919   1.096 -0.2491  0.2391 -0.0494
  338MPD2    H7 5133   1.097   1.965   1.136  0.6878 -0.1781 -1.4648
  339TMC3    C1 5134   0.503   1.473   1.160  0.5789  0.1417  1.4449
  339TMC3    C2 5135   0.589   1.365   1.176  0.4549  0.0311  0.3148
  339TMC3    C3 5136   0.648   1.311   1.066 -0.0444  0.6295 -0.3339
  339TMC3    C4 5137   0.482   1.523   1.033 -0.1391 -0.4004 -0.1025
  339TMC3    C5 5138   0.558   1.476   0.923 -0.5642  0.0918 -0.2239
  339TMC3    C6 5139   0.638   1.362   0.940 -0.1462 -0.1710 -0.9304
  339TMC3     C 5140   0.540   1.574   1.255 -0.2710 -0.3613  0.4717
  339TMC3     O 5141   0.549   1.532   1.370  0.5431  0.4491 -0.2057
  339TMC3     H 5142   0.614   1.326   1.274  4.6193 -0.3893 -0.9224
  339TMC3    H1 5143   0.419   1.610   1.018  2.5455  1.8114  1.3055
  339TMC3    H2 5144   0.690   1.309   0.861 -0.9200 -0.0820 -1.4876
  339TMC3    C7 5145   0.612   1.581   0.842  0.1349 -0.3560 -0.4380
  339TMC3    C8 5146   0.762   1.226   1.086  0.1627  0.6742  0.3407
  339TMC3    O1 5147   0.610   1.694   0.888  0.3891  0.3963  0.0962
  339TMC3    O2 5148   0.864   1.248   1.023  0.0282  0.2395  0.6767
  340MPD2     C 5149   0.035   3.960  10.392 -0.1139 -0.2865 -0.6953
  340MPD2    C1 5150   0.164   3.976  10.346  0.0691  0.6274  0.1693
  340MPD2    C2 5151   0.240   4.079  10.400  0.2662  0.4942 -0.5456
  340MPD2    C3 5152   0.185   4.170  10.489 -0.5816  0.1861 -0.0017
  340MPD2    C4 5153   0.055   4.157  10.533  0.6436 -0.0024  0.3809
  340MPD2    C5 5154   4.724   4.051  10.482  0.2509  0.1195 -0.4000
  340MPD2     H 5155   0.345   4.081  10.374  0.6720 -0.0101  1.0689
  340MPD2    H1 5156   0.003   4.232  10.591 -1.0126 -1.3675  0.6500
  340MPD2    H2 5157   4.710   3.883  10.351 -0.6400  0.5817 -1.4919
  340MPD2    H3 5158   4.621   4.048  10.516  0.7276  0.4267  1.0847
  340MPD2     N 5159   0.257   4.276  10.557  0.2305  0.2603 -0.1659
  340MPD2    H5 5160   0.209   4.323  10.633 -0.5592  2.7563 -2.1954
  340MPD2    N1 5161   0.217   3.883  10.247 -0.2574  0.2147 -0.8869
  340MPD2    H7 5162   0.149   3.818  10.208  2.1164 -2.6724 -0.2877
  341TMC3    C1 5163   0.386   3.744  10.148  0.4867 -0.2088  0.4274
  341TMC3    C2 5164   0.307   3.634  10.161  0.0616 -0.1724 -0.1252
  341TMC3    C3 5165   0.325   3.526  10.088  0.0743  0.8220 -0.3182
  341TMC3    C4 5166   0.492   3.734  10.059  0.0432 -0.2587  0.6245
  341TMC3    C5 5167   0.515   3.617   9.993 -0.3913 -0.8567 -0.0129
  341TMC3    C6 5168   0.428   3.513  10.000 -0.4959  0.0183  0.4578
  341TMC3     C 5169   0.349   3.865  10.215 -0.8335  0.3170  0.1136
  341TMC3     O 5170   0.447   3.929  10.248  0.4039  0.7505  0.2214
  341TMC3     H 5171   0.212   3.643  10.212  0.9383 -3.9973  2.1536
  341TMC3    H1 5172   0.555   3.821  10.050 -1.6711  0.6298 -2.7884
  341TMC3    H2 5173   0.460   3.424   9.947 -1.8005 -0.1423 -0.0595
  341TMC3    C7 5174   0.633   3.607   9.914 -0.1402 -0.3284 -0.0172
  341TMC3    C8 5175   0.216   3.425  10.099 -0.2009  0.0169 -0.3467
  341TMC3    O1 5176   0.660   3.705   9.850 -0.1182 -0.0020 -0.1098
  341TMC3    O2 5177   0.126   3.443  10.175 -0.0996 -0.1655 -0.9819
  342MPD2     C 5178   3.456   2.736  17.745  0.1004  0.0639  0.4156
  342MPD2    C1 5179   3.571   2.761  17.670  0.4041  0.2301 -0.2321
  342MPD2    C2 5180   3.625   2.888  17.677  0.2169  0.3612  0.2723
  342MPD2    C3 5181   3.555   2.988  17.746  0.2047  0.3612  0.3244
  342MPD2    C4 5182   3.436   2.961   0.062 -0.5994 -0.3795 -0.2736
  342MPD2    C5 5183   3.394   2.832   0.059  0.4330  0.3409  0.5127
  342MPD2     H 5184   3.718   2.906  17.626  0.3042 -0.8028  0.0330
  342MPD2    H1 5185   3.385   3.031   0.127  1.5426  0.1656  0.7881
  342MPD2    H2 5186   3.411   2.638   0.003  1.9815 -0.8261  0.2078
  342MPD2    H3 5187   3.321   2.801   0.132 -0.8123  0.7264 -0.5629
  342MPD2     N 5188   3.600   3.121   0.002 -0.6666 -0.0900  0.4974
  342MPD2    H5 5189   3.540   3.187   0.051  0.1738  0.9126  0.1907
  342MPD2    N1 5190   3.630   2.662  17.586 -0.0208 -0.2958 -0.2544
  342MPD2    H7 5191   3.712   2.688  17.533 -0.3434  0.2340 -0.4947
  343TMC3    C1 5192   3.663   2.452  17.464 -0.6783  0.2124  0.5094
  343TMC3    C2 5193   3.774   2.499  17.410  0.2632  0.2263  0.2215
  343TMC3    C3 5194   3.862   2.414  17.349  0.4160 -0.1599  0.3244
  343TMC3    C4 5195   3.619   2.324  17.441 -0.8639 -0.6365 -0.0836
  343TMC3    C5 5196   3.709   2.240  17.379  0.4349 -0.1658 -0.6544
  343TMC3    C6 5197   3.829   2.282  17.324  0.2662  0.2886 -0.2008
  343TMC3     C 5198   3.577   2.534  17.555  0.0676  0.2364  0.1474
  343TMC3     O 5199   3.479   2.489  17.605  0.2509  0.0762  0.1196
  343TMC3     H 5200   3.809   2.601  17.424 -1.2477  0.4187  2.6231
  343TMC3    H1 5201   3.536   2.274  17.489 -0.2980 -1.2610  0.2509
  343TMC3    H2 5202   3.897   2.214  17.273 -0.1843 -0.8847  0.7629
  343TMC3    C7 5203   3.709   2.096  17.389  0.6088  0.0562  0.3058
  343TMC3    C8 5204   4.005   2.441  17.325  0.4637  0.0139  0.5779
  343TMC3    O1 5205   3.814   2.040  17.373 -0.2478  0.5074  0.3756
  343TMC3    O2 5206   4.047   2.533  17.392  0.0987 -0.4801 -0.2524
  344MPD2     C 5207   3.592   2.862  11.499  0.5475 -0.2134 -0.0631
  344MPD2    C1 5208   3.678   2.786  11.418  0.0009  1.1394 -0.8519
  344MPD2    C2 5209   3.730   2.839  11.303  0.3504  0.0505 -0.0550
  344MPD2    C3 5210   3.695   2.972  11.271  0.2313  0.0416  0.1255
  344MPD2    C4 5211   3.629   3.051  11.366 -0.1308  0.0682 -0.5933
  344MPD2    C5 5212   3.570   2.989  11.476 -0.6006  0.4156 -1.1446
  344MPD2     H 5213   3.795   2.788  11.233 -0.6257  2.1589 -2.5617
  344MPD2    H1 5214   3.612   3.156  11.345 -0.8383  0.0859  0.0749
  344MPD2    H2 5215   3.538   2.824  11.586 -1.0800 -1.1245 -1.4831
  344MPD2    H3 5216   3.512   3.046  11.548 -0.2561 -0.0103 -0.5361
  344MPD2     N 5217   3.749   3.043  11.160  0.3399  0.3360 -0.2347
  344MPD2    H5 5218   3.747   3.144  11.172 -0.7872  0.4115 -1.0213
  344MPD2    N1 5219   3.717   2.655  11.453  0.2054 -0.0971  0.3161
  344MPD2    H7 5220   3.777   2.611  11.385  0.3345 -0.1385  0.4574
  345TMC3    C1 5221   3.853   3.097  10.959 -0.3169 -1.3647 -0.5289
  345TMC3    C2 5222   3.927   3.203  11.008 -0.4232 -0.6490  0.5964
  345TMC3    C3 5223   4.006   3.276  10.923  0.6779 -0.5893  0.1477
  345TMC3    C4 5224   3.853   3.084  10.818 -0.6362  0.4997 -0.5694
  345TMC3    C5 5225   3.919   3.174  10.734 -0.6237  0.4899  0.4457
  345TMC3    C6 5226   4.007   3.260  10.794  0.8035  0.0155 -0.6448
  345TMC3     C 5227   3.806   2.993  11.047  0.2724  0.2615 -0.3316
  345TMC3     O 5228   3.797   2.881  11.009  0.0769 -0.4581 -0.0256
  345TMC3     H 5229   3.949   3.210  11.114 -0.2208  1.8280  0.3912
  345TMC3    H1 5230   3.795   3.003  10.777 -1.3523  0.7759 -0.1279
  345TMC3    H2 5231   4.070   3.322  10.731 -0.9161  0.6143 -1.7982
  345TMC3    C7 5232   3.857   3.225  10.614 -0.6133  1.2155  0.0184
  345TMC3    C8 5233   4.044   3.417  10.958 -0.3289 -0.2803  0.2781
  345TMC3    O1 5234   3.925   3.314  10.552 -0.1004 -0.0670 -0.2915
  345TMC3    O2 5235   4.063   3.498  10.867  0.3162  0.2009 -0.3493
  346MPD2     C 5236   4.225   4.170  14.303  0.7603  0.2732 -0.1106
  346MPD2    C1 5237   4.234   4.302  14.272 -0.2474 -0.4140  0.0478
  346MPD2    C2 5238   4.228   4.398  14.373 -0.1849  0.6495  0.2847
  346MPD2    C3 5239   4.231   4.364  14.507  0.1224 -0.3168 -0.1125
  346MPD2    C4 5240   4.228   4.227  14.537  0.2206  0.0187  0.0353
  346MPD2    C5 5241   4.215   4.131  14.436  0.2387  0.4956 -0.2181
  346MPD2     H 5242   4.247   4.500  14.340  1.8205  0.1327 -0.1576
  346MPD2    H1 5243   4.249   4.182  14.634  0.2272  0.0149  0.0321
  346MPD2    H2 5244   4.221   4.082  14.240  1.5418 -0.6723  1.1854
  346MPD2    H3 5245   4.214   4.024  14.453  1.2198  0.9648  2.7385
  346MPD2     N 5246   4.249   4.464  14.605  0.4449  0.4770  0.2169
  346MPD2    H5 5247   4.252   4.554  14.559  0.3415 -0.1406 -1.0009
  346MPD2    N1 5248   4.269   4.346  14.140  0.9631  0.1656  0.4280
  346MPD2    H7 5249   4.302   4.442  14.133  0.0771  0.6244  2.3306
  347TMC3    C1 5250   4.296   4.574  14.823 -0.1397  0.1113  0.0902
  347TMC3    C2 5251   4.341   4.675  14.736  0.4242 -0.2980 -0.8647
  347TMC3    C3 5252   4.436   0.024  14.771 -0.2113 -0.1197  0.4874
  347TMC3    C4 5253   4.357   4.550  14.944  0.1280  0.0409 -1.5029
  347TMC3    C5 5254   4.469   4.621  14.966 -0.9151  0.5931 -0.5775
  347TMC3    C6 5255   4.496   4.730  14.890  0.1547 -0.0321  0.3842
  347TMC3     C 5256   4.255   4.453  14.743 -0.0958  0.1145 -0.3190
  347TMC3     O 5257   4.262   4.348  14.805 -0.3976  0.1809  0.2718
  347TMC3     H 5258   4.292   4.694  14.641 -0.0587  2.4771 -0.0367
  347TMC3    H1 5259   4.325   4.465  15.003  1.3158  1.2125  0.8352
  347TMC3    H2 5260   4.592   0.032  14.918 -0.2378 -0.3275  2.2001
  347TMC3    C7 5261   4.581   4.533  14.981  0.0610 -0.5426 -0.6749
  347TMC3    C8 5262   4.538   0.044  14.658 -0.8777  0.0194 -0.1669
  347TMC3    O1 5263   4.694   4.583  15.004  0.1660 -0.0204 -0.2920
  347TMC3    O2 5264   4.513   4.698  14.577 -0.4470 -0.0192  0.0462
  348MPD2     C 5265   3.683   4.111  11.968  0.1432 -0.3194  0.1435
  348MPD2    C1 5266   3.565   4.088  11.897  0.5947 -0.2792 -0.3977
  348MPD2    C2 5267   3.535   4.171  11.788  0.1416 -0.2227 -0.1901
  348MPD2    C3 5268   3.620   4.281  11.761  0.2520  0.1289  0.0575
  348MPD2    C4 5269   3.718   4.313  11.845 -0.2722 -0.2952  0.2123
  348MPD2    C5 5270   3.758   4.226  11.942 -0.2681  0.5607  0.0661
  348MPD2     H 5271   3.447   4.163  11.726 -0.2382 -1.4225  0.5080
  348MPD2    H1 5272   3.775   4.404  11.831  0.8254 -0.9581  0.3724
  348MPD2    H2 5273   3.717   4.053  12.053  0.7703 -0.0186  0.0961
  348MPD2    H3 5274   3.840   4.256  12.006  1.0009 -0.8598 -0.8675
  348MPD2     N 5275   3.565   4.373  11.672 -0.3700  0.5318 -0.3706
  348MPD2    H5 5276   3.488   4.341  11.615 -1.5418 -1.2471  2.2698
  348MPD2    N1 5277   3.479   3.981  11.913 -0.7444 -0.0741  0.1470
  348MPD2    H7 5278   3.406   3.969  11.843 -0.6877 -0.2641  0.1201
  349TMC3    C1 5279   3.363   3.813  12.027  0.3837  0.4229  0.5583
  349TMC3    C2 5280   3.368   3.684  12.071  0.0141  0.0731  0.1578
  349TMC3    C3 5281   3.252   3.617  12.074  0.2363 -0.5861  0.2373
  349TMC3    C4 5282   3.245   3.877  11.999  0.1453 -0.7304 -0.3303
  349TMC3    C5 5283   3.129   3.801  11.998  0.4499 -0.3740  0.1299
  349TMC3    C6 5284   3.137   3.672  12.029  0.9240  0.5892 -0.7017
  349TMC3     C 5285   3.488   3.885  12.009 -0.3696 -0.8882  0.1294
  349TMC3     O 5286   3.584   3.854  12.081  0.0842  0.4306 -0.2154
  349TMC3     H 5287   3.463   3.645  12.106 -0.0877 -0.7248 -0.4648
  349TMC3    H1 5288   3.247   3.983  11.977  0.4209 -1.0569 -1.8869
  349TMC3    H2 5289   3.046   3.613  12.030  1.2034  0.1513 -0.8731
  349TMC3    C7 5290   3.012   3.859  11.935 -0.8555 -0.0364 -0.5123
  349TMC3    C8 5291   3.251   3.502  12.162  0.1705  0.5509 -0.2537
  349TMC3    O1 5292   2.896   3.839  11.971 -0.1287 -0.0756 -0.3210
  349TMC3    O2 5293   3.352   3.463  12.202 -0.0120  0.3299  0.0365
  350MPD2     C 5294   1.301   2.545  10.784  0.3542 -0.5315  0.4448
  350MPD2    C1 5295   1.379   2.430  10.768  0.1066 -0.9219 -1.1452
  350MPD2    C2 5296   1.512   2.438  10.800 -0.3197  0.5428  0.1148
  350MPD2    C3 5297   1.571   2.556  10.843 -0.0271  0.0289 -0.2816
  350MPD2    C4 5298   1.493   2.663  10.862 -0.2891 -0.7197 -0.0664
  350MPD2    C5 5299   1.359   2.659  10.843  0.7829  0.3750 -0.0143
  350MPD2     H 5300   1.571   2.349  10.783 -0.5095  0.6725 -1.2071
  350MPD2    H1 5301   1.539   2.759  10.885 -0.6830 -1.1982  2.7535
  350MPD2    H2 5302   1.195   2.547  10.765  0.2286 -2.0673  1.0019
  350MPD2    H3 5303   1.288   2.740  10.845  1.4817  0.9684  0.8931
  350MPD2     N 5304   1.708   2.556  10.869  0.1565 -0.0562  0.1799
  350MPD2    H5 5305   1.759   2.473  10.842 -0.4362 -0.7214  1.1067
  350MPD2    N1 5306   1.331   2.313  10.703  0.4696  0.3813 -0.1004
  350MPD2    H7 5307   1.402   2.249  10.669 -0.4732  0.0702 -1.4931
  351TMC3    C1 5308   1.158   2.187  10.598 -0.2070 -0.2001 -0.4652
  351TMC3    C2 5309   1.249   2.157  10.500 -0.5860 -0.2905 -0.0990
  351TMC3    C3 5310   1.198   2.092  10.385 -0.9841  0.9642  0.3074
  351TMC3    C4 5311   1.027   2.157  10.576 -0.5280  0.2347  0.5572
  351TMC3    C5 5312   0.987   2.077  10.475 -0.8125 -0.2121 -0.6392
  351TMC3    C6 5313   1.069   2.045  10.369 -0.1332 -0.2018 -0.5237
  351TMC3     C 5314   1.197   2.277  10.703 -0.3456  0.3982 -0.4668
  351TMC3     O 5315   1.104   2.323  10.771  0.1033  0.0245 -0.5652
  351TMC3     H 5316   1.357   2.172  10.504 -0.6380  0.1012 -0.1504
  351TMC3    H1 5317   0.947   2.181  10.646  0.6315  1.2484  1.5311
  351TMC3    H2 5318   1.036   1.986  10.285  0.9555 -1.1444 -0.2793
  351TMC3    C7 5319   0.855   2.020  10.472  0.4694 -0.5512 -0.4164
  351TMC3    C8 5320   1.295   2.074  10.275  0.4905 -0.0565 -0.1782
  351TMC3    O1 5321   0.789   2.042  10.372 -0.3262 -0.1012 -0.2463
  351TMC3    O2 5322   1.411   2.048  10.305 -0.1007 -0.0814  0.0317
  352MPD2     C 5323   1.248   4.679   0.877  0.3215 -0.0337 -0.1286
  352MPD2    C1 5324   1.186   4.554   0.893 -0.2031 -1.0710 -0.7640
  352MPD2    C2 5325   1.250   4.452   0.834 -0.0988 -0.3440  0.4060
  352MPD2    C3 5326   1.368   4.466   0.769  0.4486  0.2946  0.0099
  352MPD2    C4 5327   1.436   4.586   0.770  0.0420  0.0771 -0.1632
  352MPD2    C5 5328   1.376   4.694   0.830  0.5192 -0.1504  0.4342
  352MPD2     H 5329   1.195   4.359   0.819 -0.2186 -0.3965  1.1663
  352MPD2    H1 5330   1.535   4.597   0.729  0.2132 -1.3363 -0.1281
  352MPD2    H2 5331   1.191   0.027   0.907  0.9835 -0.2651  1.7844
  352MPD2    H3 5332   1.418   0.055   0.833  0.8156 -0.3313  2.3712
  352MPD2     N 5333   1.428   4.361   0.702  0.3988 -0.2946  0.3284
  352MPD2    H5 5334   1.518   4.385   0.662 -0.6720  3.3073  0.0281
  352MPD2    N1 5335   1.059   4.544   0.951  0.5789  0.0406 -0.2925
  352MPD2    H7 5336   1.019   4.634   0.975  1.4186  0.3376 -0.0235
  353TMC3    C1 5337   1.476   4.171   0.575 -0.4436  0.5546  0.3206
  353TMC3    C2 5338   1.596   4.153   0.631 -0.8335  0.8354  0.5792
  353TMC3    C3 5339   1.640   4.023   0.638 -0.4674  0.0215 -0.5980
  353TMC3    C4 5340   1.394   4.070   0.536  0.2084  0.0587  0.2046
  353TMC3    C5 5341   1.439   3.938   0.546 -0.3448  0.2464  1.2298
  353TMC3    C6 5342   1.561   3.916   0.596  0.6335 -0.3611  0.1253
  353TMC3     C 5343   1.382   4.242   0.661  0.7216 -0.1853  0.3170
  353TMC3     O 5344   1.280   4.189   0.690  0.0273  0.2748 -0.4959
  353TMC3     H 5345   1.656   4.225   0.686 -0.8687 -0.4653  2.3339
  353TMC3    H1 5346   1.299   4.085   0.485  0.1890  0.0327  0.2323
  353TMC3    H2 5347   1.595   3.813   0.604  2.0582  0.2057  1.4690
  353TMC3    C7 5348   1.335   3.844   0.575 -0.2126  0.2096 -0.1875
  353TMC3    C8 5349   1.768   4.007   0.704  0.7354 -1.1003  0.2337
  353TMC3    O1 5350   1.365   3.727   0.591  0.2350  0.5963  0.5740
  353TMC3    O2 5351   1.855   4.093   0.708  0.2744 -0.5422 -0.0646
  354TMC3    C1 5352   1.881   4.692  13.493  0.2471 -0.0315 -0.7208
  354TMC3    C2 5353   1.800   0.059  13.451 -0.0545 -0.6073  0.8382
  354TMC3    C3 5354   1.812   0.103  13.322 -0.2605 -1.0839 -0.0723
  354TMC3    C4 5355   1.967   4.624  13.412 -0.6457  0.0443 -0.1458
  354TMC3    C5 5356   1.978   4.670  13.286  0.4917 -0.1340 -0.1814
  354TMC3    C6 5357   1.893   0.033  13.235  0.0523  0.4443 -0.0084
  354TMC3     C 5358   1.847   4.634  13.621 -0.5266  0.0499 -0.2042
  354TMC3     O 5359   1.783   4.709  13.701 -0.0571  0.2584  0.0899
  354TMC3     H 5360   1.733   0.108  13.520  1.2367  1.3758  0.6946
  354TMC3    H1 5361   2.057   4.581  13.455 -0.9510 -0.0793  0.3591
  354TMC3    H2 5362   1.917   0.079  13.140  1.0228  1.3515  0.6639
  354TMC3    C7 5363   2.105   4.675  13.230 -0.4123  0.7430 -0.0821
  354TMC3    C8 5364   1.821   0.243  13.298 -0.5782 -0.9078  0.4008
  354TMC3    O1 5365   2.180   4.579  13.235  0.7304 -0.3126  0.2210
  354TMC3    O2 5366   1.929   0.281  13.251 -0.6293 -0.2947  0.1123
  355MPD2     C 5367   1.994   1.437  12.252  0.6008 -0.3654  0.6205
  355MPD2    C1 5368   2.119   1.409  12.208  0.7340  0.2777 -0.7668
  355MPD2    C2 5369   2.202   1.323  12.280  0.2515  0.0798  0.1282
  355MPD2    C3 5370   2.165   1.278  12.403 -0.6685  0.6495 -0.0535
  355MPD2    C4 5371   2.042   1.310  12.449  0.3557 -0.8306  0.1935
  355MPD2    C5 5372   1.952   1.386  12.370 -0.2478  0.0134 -0.3230
  355MPD2     H 5373   2.299   1.297  12.239 -0.5001 -0.5727 -1.2353
  355MPD2    H1 5374   2.012   1.285  12.550  0.0567 -0.0443  0.2983
  355MPD2    H2 5375   1.925   1.492  12.190  2.1875  1.3290  0.3830
  355MPD2    H3 5376   1.854   1.405  12.413  0.0823  0.5428  0.2063
  355MPD2     N 5377   2.262   1.207  12.468 -0.1333 -0.1716 -0.1282
  355MPD2    H5 5378   2.346   1.184  12.416 -0.9255  1.0528 -1.9789
  355MPD2    N1 5379   2.158   1.455  12.078  0.2348 -0.4546 -0.2879
  355MPD2    H7 5380   2.091   1.516  12.031  1.1522  0.2056 -0.7383
  356TMC3    C1 5381   2.399   1.161  12.646 -0.5172  0.4101  0.3083
  356TMC3    C2 5382   2.489   1.181  12.541  0.3941  0.6287 -0.6781
  356TMC3    C3 5383   2.580   1.274  12.554  0.1229  0.2431  0.3032
  356TMC3    C4 5384   2.425   1.220  12.767 -0.3370  0.3464 -0.1391
  356TMC3    C5 5385   2.527   1.314  12.768  0.9378  0.3419 -0.2701
  356TMC3    C6 5386   2.600   1.345  12.661  0.7912 -0.3805  0.1265
  356TMC3     C 5387   2.262   1.182  12.601  0.5949 -0.1283 -0.4471
  356TMC3     O 5388   2.177   1.212  12.681  0.4429 -0.3128  0.4858
  356TMC3     H 5389   2.481   1.115  12.455 -1.9432  0.3891 -0.2902
  356TMC3    H1 5390   2.357   1.214  12.851 -0.2132  0.9015  0.0023
  356TMC3    H2 5391   2.682   1.413  12.679  0.3124  0.2943 -0.2361
  356TMC3    C7 5392   2.587   1.351  12.898 -0.0858  0.4713 -0.0504
  356TMC3    C8 5393   2.622   1.326  12.425 -0.3373 -0.3289  0.3946
  356TMC3    O1 5394   2.576   1.260  12.977 -0.3257  0.2451  0.4774
  356TMC3    O2 5395   2.588   1.257  12.329 -0.1825  0.1125 -0.3918
  357MPD2     C 5396   2.582   0.580   0.011  0.0867  0.2380 -1.2034
  357MPD2    C1 5397   2.639   0.546   0.137 -0.1220  0.6374  1.0325
  357MPD2    C2 5398   2.623   0.629   0.241 -0.3358  0.3851 -0.1986
  357MPD2    C3 5399   2.561   0.750   0.226  0.8277  0.0385 -0.1930
  357MPD2    C4 5400   2.515   0.786   0.101 -0.5734 -0.3771 -0.2501
  357MPD2    C5 5401   2.516   0.697  17.750  0.1544  0.7518  0.1667
  357MPD2     H 5402   2.663   0.608   0.339 -0.8478 -0.0696 -0.0856
  357MPD2    H1 5403   2.466   0.883   0.096 -1.0575 -0.7310 -2.3018
  357MPD2    H2 5404   2.583   0.522  17.675 -2.5083 -4.2465  1.6228
  357MPD2    H3 5405   2.479   0.727  17.653 -0.7237  1.6532  0.7807
  357MPD2     N 5406   2.547   0.833   0.339  0.3029 -0.6740 -0.3851
  357MPD2    H5 5407   2.512   0.927   0.325 -0.9968 -0.8553  1.5253
  357MPD2    N1 5408   2.717   0.433   0.162  0.5964  0.1022 -0.2278
  357MPD2    H7 5409   2.754   0.422   0.256 -0.7250 -3.8474 -0.1661
  358TMC3    C1 5410   2.802   0.230   0.154 -0.1529  0.1495  0.2147
  358TMC3    C2 5411   2.715   0.119   0.178  0.0338 -1.2378  0.1343
  358TMC3    C3 5412   2.690   0.079   0.305 -0.3014  0.4973  0.6466
  358TMC3    C4 5413   2.873   0.284   0.261  0.4256  0.5950  0.9667
  358TMC3    C5 5414   2.844   0.238   0.388  0.2971 -0.0826  0.0636
  358TMC3    C6 5415   2.735   0.157   0.407  0.4722  0.1009 -0.0388
  358TMC3     C 5416   2.727   0.325   0.082  0.4020  0.3924  0.5529
  358TMC3     O 5417   2.663   0.300  17.738  0.2548  0.7029 -0.1273
  358TMC3     H 5418   2.671   0.057   0.100 -1.9641  0.2331  0.1146
  358TMC3    H1 5419   2.960   0.340   0.229  0.5054 -0.0412  0.0428
  358TMC3    H2 5420   2.712   0.117   0.505 -0.0501  1.1363  0.2531
  358TMC3    C7 5421   2.901   0.311   0.498 -0.6306 -0.3112 -0.1679
  358TMC3    C8 5422   2.557   0.016   0.323  0.1860  0.3922 -0.1913
  358TMC3    O1 5423   2.951   0.418   0.466  0.5467  0.4617 -0.0174
  358TMC3    O2 5424   2.479   0.060   0.404  0.4743  0.0335  0.6261
  359MPD2     C 5425   2.472   0.466  12.364  0.7434  0.0135 -0.7731
  359MPD2    C1 5426   2.518   0.332  12.358 -0.0832  0.3641  0.0675
  359MPD2    C2 5427   2.444   0.219  12.385  1.0076  0.1748 -0.4728
  359MPD2    C3 5428   2.308   0.240  12.402  0.1498 -0.2430 -0.4095
  359MPD2    C4 5429   2.256   0.369  12.418  0.2692  0.5441  0.1958
  359MPD2    C5 5430   2.336   0.477  12.388  0.3398 -0.6229 -0.1306
  359MPD2     H 5431   2.495   0.124  12.376  0.1764 -0.2295 -0.9788
  359MPD2    H1 5432   2.150   0.386  12.438  0.1319  0.8467 -0.7670
  359MPD2    H2 5433   2.527   0.558  12.349 -0.6216  1.1920  1.4353
  359MPD2    H3 5434   2.298   0.578  12.402  1.8154 -0.0095 -0.4896
  359MPD2     N 5435   2.229   0.123  12.416  0.0092 -0.0008 -0.0798
  359MPD2    H5 5436   2.129   0.144  12.415 -0.4722 -2.2776 -0.3734
  359MPD2    N1 5437   2.655   0.299  12.327 -0.2751  0.8403  0.6186
  359MPD2    H7 5438   2.681   0.202  12.332 -1.7419  0.3698 -0.8647
  360TMC3    C1 5439   2.865   0.302  12.232 -0.0567 -0.2903 -0.2460
  360TMC3    C2 5440   2.985   0.362  12.208  0.1000 -0.5732  0.5923
  360TMC3    C3 5441   3.069   0.336  12.107  0.1180 -0.0265 -0.2106
  360TMC3    C4 5442   2.840   0.190  12.160 -0.7527  0.3876 -0.0035
  360TMC3    C5 5443   2.935   0.146  12.062 -0.0842  0.0763  0.5879
  360TMC3    C6 5444   3.044   0.224  12.031  0.6439  0.2253  0.6331
  360TMC3     C 5445   2.752   0.386  12.283  0.0861 -0.0735  0.4129
  360TMC3     O 5446   2.749   0.508  12.287  0.0215 -0.1478 -0.1895
  360TMC3     H 5447   2.999   0.453  12.266  2.5922 -0.9451  0.5988
  360TMC3    H1 5448   2.738   0.153  12.156  0.2188 -2.2733 -0.0842
  360TMC3    H2 5449   3.093   0.212  11.935  0.7570  0.6956  0.6298
  360TMC3    C7 5450   2.875   0.090  11.948  0.1937 -0.3375 -0.1683
  360TMC3    C8 5451   3.146   0.443  12.058  0.0050  0.1029 -0.4968
  360TMC3    O1 5452   2.876   0.167  11.853 -0.3630  0.2064 -0.2406
  360TMC3    O2 5453   3.092   0.555  12.067 -0.3962 -0.0143  0.1958
  361MPD2     C 5454   0.285   3.445  16.527  0.3218 -0.1883 -0.8564
  361MPD2    C1 5455   0.245   3.477  16.656 -0.9574  0.3036  0.6972
  361MPD2    C2 5456   0.266   3.387  16.761  0.5115 -0.4735 -0.5889
  361MPD2    C3 5457   0.329   3.265  16.744  0.8405 -0.0055  0.5153
  361MPD2    C4 5458   0.368   3.243  16.617 -0.2438  0.2187  0.0073
  361MPD2    C5 5459   0.349   3.330  16.507 -0.1634 -0.3936  0.1375
  361MPD2     H 5460   0.235   3.414  16.861 -1.4579 -3.7774 -0.2877
  361MPD2    H1 5461   0.425   3.154  16.595  2.5777  1.1254  3.6479
  361MPD2    H2 5462   0.273   3.510  16.441 -0.1695  1.3585  0.3693
  361MPD2    H3 5463   0.391   3.297  16.412 -1.6868  2.3896 -1.5003
  361MPD2     N 5464   0.360   3.168  16.850 -0.1310  0.0061 -0.2773
  361MPD2    H5 5465   0.395   3.078  16.819  0.6535  0.5282 -0.9246
  361MPD2    N1 5466   0.165   3.587  16.680 -0.7090  0.5018  0.1922
  361MPD2    H7 5467   0.141   3.610  16.776  0.2026 -2.4081  1.1454
  362TMC3    C1 5468   0.005   3.756  16.631  0.6724 -0.0748  0.1597
  362TMC3    C2 5469   4.711   3.740  16.764  0.5858 -0.1462  0.7270
  362TMC3    C3 5470   4.595   3.801  16.800  0.2975 -0.1221  0.2831
  362TMC3    C4 5471   4.659   3.799  16.539 -0.6387  0.3897 -0.1555
  362TMC3    C5 5472   4.540   3.842  16.575  0.3364 -0.6567  0.3382
  362TMC3    C6 5473   4.502   3.853  16.708 -0.5476  0.4142  0.2237
  362TMC3     C 5474   0.128   3.682  16.587 -0.3600  0.1385  0.2107
  362TMC3     O 5475   0.159   3.708  16.475 -0.5108  0.0744 -0.4339
  362TMC3     H 5476   0.044   3.723  16.843  0.2663  1.1391  1.3025
  362TMC3    H1 5477   4.699   3.810  16.439  2.5912  0.1232  1.1273
  362TMC3    H2 5478   4.408   3.900  16.735  0.4908  1.6097  1.8044
  362TMC3    C7 5479   4.439   3.901  16.483  0.5680 -1.0995  0.5393
  362TMC3    C8 5480   4.562   3.786  16.949 -0.6037 -0.1169 -0.1288
  362TMC3    O1 5481   4.348   3.968  16.534  0.6625  0.4497  0.2193
  362TMC3    O2 5482   4.642   3.712  17.009 -0.4816  0.6749 -0.1685
  363TMC3    C1 5483   2.363   2.360  10.236  0.4364 -0.4280 -0.8310
  363TMC3    C2 5484   2.364   2.226  10.250 -0.2176  0.5489 -0.3362
  363TMC3    C3 5485   2.242   2.161  10.240 -0.4131 -0.5386  0.2667
  363TMC3    C4 5486   2.246   2.432  10.227  0.2173 -0.4572 -0.0377
  363TMC3    C5 5487   2.132   2.360  10.233  0.1890 -0.0808  0.3365
  363TMC3    C6 5488   2.123   2.222  10.233  0.6863  0.2549 -0.1106
  363TMC3     C 5489   2.492   2.440  10.240 -0.6751  0.0384 -0.2587
  363TMC3     O 5490   2.490   2.562  10.243  0.1232 -0.2235  0.1620
  363TMC3     H 5491   2.456   2.169  10.265  0.3103  1.1754 -1.1983
  363TMC3    H1 5492   2.245   2.537  10.201 -3.2308 -0.4434  0.1511
  363TMC3    H2 5493   2.026   2.174  10.237 -0.4610  2.4693 -1.0351
  363TMC3    C7 5494   2.007   2.432  10.226  0.0752  0.0759 -0.2363
  363TMC3    C8 5495   2.230   2.025  10.289  0.2004  0.4296  0.0713
  363TMC3    O1 5496   1.906   2.362  10.227  0.3557  0.0532  0.1462
  363TMC3    O2 5497   2.120   1.994  10.337 -0.4980  0.0855 -0.8115
  364MPD2     C 5498   0.943   1.183  11.023 -0.1041  0.6424  0.4484
  364MPD2    C1 5499   1.064   1.208  10.958  0.0088  0.9588  0.1084
  364MPD2    C2 5500   1.160   1.114  10.958  0.7067  0.2721 -0.0027
  364MPD2    C3 5501   1.135   0.999  11.028 -0.8940  0.8941 -0.1122
  364MPD2    C4 5502   1.014   0.976  11.087  0.1523  0.1266  0.0181
  364MPD2    C5 5503   0.919   1.068  11.083  0.1485 -0.7087  0.7140
  364MPD2     H 5504   1.251   1.137  10.905  2.2658 -0.5432  2.3112
  364MPD2    H1 5505   0.998   0.886  11.145  0.5642  0.2380  0.2989
  364MPD2    H2 5506   0.860   1.252  11.019  0.0576  0.8792  1.0892
  364MPD2    H3 5507   0.819   1.063  11.125 -0.2513  0.0335 -0.1491
  364MPD2     N 5508   1.233   0.893  11.036 -0.0563 -0.8444  1.1096
  364MPD2    H5 5509   1.203   0.811  11.088  0.6773 -2.0945 -0.4534
  364MPD2    N1 5510   1.066   1.325  10.873  0.6436  0.0691  0.3324
  364MPD2    H7 5511   0.990   1.390  10.890 -0.3047 -0.0590 -3.2413
  365TMC3    C1 5512   1.128   1.477  10.705  0.1958  0.5824  0.0120
  365TMC3    C2 5513   1.155   1.491  10.569  0.1493 -0.1490  0.5445
  365TMC3    C3 5514   1.162   1.619  10.523 -0.4101 -0.3946 -0.1612
  365TMC3    C4 5515   1.094   1.581  10.790  0.0902  0.2360 -0.0107
  365TMC3    C5 5516   1.098   1.708  10.732 -0.2058  0.4679 -0.2861
  365TMC3    C6 5517   1.133   1.727  10.600  0.6712 -0.2755  0.4704
  365TMC3     C 5518   1.149   1.346  10.759 -0.6101  0.1766  0.1032
  365TMC3     O 5519   1.222   1.269  10.696  0.1088 -0.1449 -0.2329
  365TMC3     H 5520   1.166   1.403  10.507 -0.4207 -1.0986  1.7947
  365TMC3    H1 5521   1.072   1.565  10.895  0.5462  1.9116  0.3456
  365TMC3    H2 5522   1.151   1.827  10.561 -2.0116  0.4889  1.2429
  365TMC3    C7 5523   1.055   1.826  10.811 -0.4837  0.1885  0.5914
  365TMC3    C8 5524   1.201   1.647  10.383  1.3480  0.0958 -0.4786
  365TMC3    O1 5525   1.049   1.927  10.743 -0.1557  0.1688 -0.0885
  365TMC3    O2 5526   1.171   1.760  10.344 -0.0680  0.3097  0.3196
  366MPD2     C 5527   4.711   1.754  15.680  0.1715  0.3463  0.5513
  366MPD2    C1 5528   0.080   1.828  15.634 -0.0207 -0.0156 -0.5683
  366MPD2    C2 5529   0.191   1.762  15.589  1.4656 -0.7697 -0.2778
  366MPD2    C3 5530   0.209   1.628  15.614 -0.0942 -0.4440  0.1081
  366MPD2    C4 5531   0.104   1.551  15.667 -0.5313  0.0768 -0.4515
  366MPD2    C5 5532   4.726   1.617  15.705 -0.3484  0.1890 -0.8059
  366MPD2     H 5533   0.278   1.818  15.557  0.3340  0.8392 -0.5389
  366MPD2    H1 5534   0.115   1.450  15.705 -0.7107  0.1024 -0.3304
  366MPD2    H2 5535   4.616   1.797  15.712  0.4163  0.7332  0.7627
  366MPD2    H3 5536   4.646   1.554  15.744 -0.1265  1.2505  1.3855
  366MPD2     N 5537   0.326   1.569  15.573 -0.0980 -0.2453  0.0393
  366MPD2    H5 5538   0.402   1.627  15.539 -0.9529 -0.1548 -1.7169
  366MPD2    N1 5539   0.075   1.963  15.616 -0.0572  0.6275  0.2761
  366MPD2    H7 5540   0.159   2.013  15.588 -0.2370  0.7054 -0.1355
  367TMC3    C1 5541   4.731   2.161  15.529  0.0504 -0.0601 -0.2598
  367TMC3    C2 5542   0.120   2.202  15.561  0.0247 -0.1299  0.5630
  367TMC3    C3 5543   0.181   2.271  15.462 -0.4096  1.2587  0.9941
  367TMC3    C4 5544   4.671   2.172  15.404 -0.1055  0.1351 -0.0035
  367TMC3    C5 5545   0.010   2.229  15.309 -0.8860  0.0712 -0.4666
  367TMC3    C6 5546   0.126   2.289  15.343 -0.0518 -0.2619  0.6044
  367TMC3     C 5547   4.697   2.036  15.588  0.1485  0.0971 -0.2929
  367TMC3     O 5548   4.583   1.998  15.576 -0.1055  0.3489 -0.2932
  367TMC3     H 5549   0.156   2.184  15.661  0.9970 -0.0330  0.2293
  367TMC3    H1 5550   4.581   2.120  15.375 -0.6940  0.4251  1.3232
  367TMC3    H2 5551   0.183   2.337  15.264 -0.2428 -0.8789  0.0872
  367TMC3    C7 5552   4.700   2.247  15.176  0.3294  0.0931  0.5893
  367TMC3    C8 5553   0.302   2.340  15.506 -0.1325 -0.4168  0.8467
  367TMC3    O1 5554   0.008   2.343  15.120  0.5485  0.1735 -0.4838
  367TMC3    O2 5555   0.346   2.306  15.613 -0.2012  0.5492  0.4823
  368MPD2     C 5556   1.132   4.058  13.608 -0.5160 -0.1553 -0.5061
  368MPD2    C1 5557   1.160   4.188  13.572  0.1642  0.0785 -0.4790
  368MPD2    C2 5558   1.234   4.213  13.460 -0.5121  0.8346 -0.1642
  368MPD2    C3 5559   1.290   4.105  13.392 -0.0261  0.0325  0.0404
  368MPD2    C4 5560   1.273   3.978  13.446 -0.0886 -0.0642 -0.2088
  368MPD2    C5 5561   1.193   3.949  13.549 -0.2547  0.0424 -0.1090
  368MPD2     H 5562   1.255   4.314  13.424  0.6632  0.3813 -0.7581
  368MPD2    H1 5563   1.329   3.898  13.399  3.6922  3.5196 -1.8251
  368MPD2    H2 5564   1.069   4.038  13.694  0.3888 -0.7639  0.0070
  368MPD2    H3 5565   1.180   3.848  13.586  1.9512  0.3446  1.5173
  368MPD2     N 5566   1.389   4.128  13.290 -0.2239  0.0065 -0.3254
  368MPD2    H5 5567   1.433   4.044  13.253 -0.4408 -0.8329  1.3185
  368MPD2    N1 5568   1.106   4.296  13.648 -0.1791  0.3910 -0.2397
  368MPD2    H7 5569   1.036   4.268  13.716 -0.7311 -0.1142 -1.0206
  369TMC3    C1 5570   1.043   4.505  13.731 -0.0766 -0.8484  0.0994
  369TMC3    C2 5571   1.021   4.621  13.661  0.6378 -0.5813 -0.0468
  369TMC3    C3 5572   0.900   4.640  13.600  0.4142  0.3776  0.5409
  369TMC3    C4 5573   0.931   4.434  13.767  0.4797 -0.0371  0.4940
  369TMC3    C5 5574   0.815   4.455  13.706  0.2197  0.0607  0.0517
  369TMC3    C6 5575   0.796   4.552  13.617  0.8868  0.0083 -0.3824
  369TMC3     C 5576   1.133   4.429  13.647 -0.3742 -0.0706  0.9663
  369TMC3     O 5577   1.220   4.497  13.591  0.3053 -0.0676 -0.1810
  369TMC3     H 5578   1.099   4.695  13.653 -1.2915  1.4358 -0.3197
  369TMC3    H1 5579   0.948   4.354  13.838 -0.0196 -1.4991 -1.0411
  369TMC3    H2 5580   0.703   4.577  13.567  1.5846  1.9647 -0.7256
  369TMC3    C7 5581   0.723   4.346  13.730 -0.4266 -0.6433 -0.3071
  369TMC3    C8 5582   0.910   4.702  13.477 -0.6206  0.1438 -0.6752
  369TMC3    O1 5583   0.704   4.305  13.845  0.1411 -0.4175  0.1795
  369TMC3    O2 5584   0.812   0.032  13.445  0.2545 -0.1493 -0.6885
  370TMC3    C1 5585   0.853   4.457  16.598 -0.8434 -0.0217  0.3488
  370TMC3    C2 5586   0.781   4.393  16.704  0.1195  0.0170  0.4687
  370TMC3    C3 5587   0.712   4.277  16.676 -0.1622  0.2102 -0.1140
  370TMC3    C4 5588   0.848   4.417  16.466 -0.4434  0.4959 -0.3881
  370TMC3    C5 5589   0.775   4.298  16.451 -0.5157 -0.1577  0.5935
  370TMC3    C6 5590   0.711   4.224  16.548 -0.5835 -0.5510 -0.7736
  370TMC3     C 5591   0.980   4.516  16.638  0.0798  0.6470 -0.5140
  370TMC3     O 5592   1.023   4.477  16.745 -0.1873 -0.2187  0.0448
  370TMC3     H 5593   0.789   4.441  16.801 -2.2950  0.5949  0.3753
  370TMC3    H1 5594   0.879   4.482  16.385 -1.2748  0.9945 -0.3019
  370TMC3    H2 5595   0.653   4.137  16.520 -0.2689 -1.4265  1.3185
  370TMC3    C7 5596   0.785   4.248  16.316  0.4419 -0.5840 -0.8230
  370TMC3    C8 5597   0.678   4.180  16.779 -0.0265 -0.2484 -0.1611
  370TMC3    O1 5598   0.801   4.331  16.229  0.1047 -0.5185 -0.1103
  370TMC3    O2 5599   0.658   4.065  16.734 -0.2169  0.1307  0.0397
  371TMC3    C1 5600   2.408   2.813  15.972 -0.1717 -0.1515  0.3723
  371TMC3    C2 5601   2.302   2.825  16.063 -0.2165  0.0706 -0.3017
  371TMC3    C3 5602   2.190   2.898  16.024  0.1696 -0.3654  0.6396
  371TMC3    C4 5603   2.394   2.862  15.842 -0.2498 -1.2585  0.0171
  371TMC3    C5 5604   2.278   2.933  15.811  0.9422 -1.2066 -0.8816
  371TMC3    C6 5605   2.177   2.959  15.901 -0.5122  0.4438  0.4861
  371TMC3     C 5606   2.459   2.679  15.972  0.5333  0.2974  0.6726
  371TMC3     O 5607   2.577   2.661  15.947 -0.2315  0.1407 -0.0168
  371TMC3     H 5608   2.304   2.782  16.162  0.9039  0.9450  0.0552
  371TMC3    H1 5609   2.472   2.820  15.778  0.2089  0.1210 -0.3324
  371TMC3    H2 5610   2.080   2.981  15.858 -0.5860 -1.6220 -0.4526
  371TMC3    C7 5611   2.264   3.009  15.683  0.4439 -0.4928  0.2605
  371TMC3    C8 5612   2.069   2.880  16.100 -0.2147  0.3419  0.6493
  371TMC3    O1 5613   2.180   3.095  15.673 -0.2311 -0.4033 -0.0297
  371TMC3    O2 5614   2.066   2.773  16.162 -0.3058 -0.5486 -0.3039
  372MPD2     C 5615   1.561   4.215  13.661 -0.7727  0.4270 -0.5280
  372MPD2    C1 5616   1.584   4.080  13.691 -0.0945 -0.4626  0.5328
  372MPD2    C2 5617   1.505   4.023  13.791  0.1488 -0.3440 -0.1329
  372MPD2    C3 5618   1.408   4.097  13.854  1.0100 -0.4853  0.0739
  372MPD2    C4 5619   1.399   4.231  13.837 -0.0917 -0.7219 -0.0614
  372MPD2    C5 5620   1.481   4.289  13.742  0.4363  0.0927  0.0365
  372MPD2     H 5621   1.511   3.916  13.806 -0.8334 -0.9586 -4.2261
  372MPD2    H1 5622   1.327   4.296  13.886 -0.7615 -1.9389  0.5734
  372MPD2    H2 5623   1.623   4.256  13.583  0.9135 -3.2156 -1.1241
  372MPD2    H3 5624   1.461   4.392  13.718  0.2527  0.2242  0.7585
  372MPD2     N 5625   1.312   4.029  13.930  0.9597 -0.7461  0.1031
  372MPD2    H5 5626   1.331   3.934  13.959  3.2140 -0.3775 -0.2265
  372MPD2    N1 5627   1.677   3.996  13.625 -0.2380  0.0017  0.3706
  372MPD2    H7 5628   1.674   3.900  13.657 -0.4956  0.7804  2.6939
  373TMC3    C1 5629   1.121   3.964  14.040 -0.6424  0.9263  0.3164
  373TMC3    C2 5630   1.134   3.944  14.175  0.3078  0.3739 -0.3570
  373TMC3    C3 5631   1.139   3.819  14.225  1.1357  0.7390 -0.2480
  373TMC3    C4 5632   1.135   3.855  13.955 -0.4389  0.3371 -0.1194
  373TMC3    C5 5633   1.147   3.733  14.015  0.5190 -0.2943 -1.0803
  373TMC3    C6 5634   1.150   3.709  14.149 -0.3256 -0.2843  0.4790
  373TMC3     C 5635   1.198   4.077  13.988  0.5007 -0.3341  0.2588
  373TMC3     O 5636   1.143   4.185  13.979  0.0366  0.3134 -0.6378
  373TMC3     H 5637   1.145   4.019  14.252  0.8529 -2.6245  2.4735
  373TMC3    H1 5638   1.144   3.857  13.847  0.4058 -0.7234 -0.0704
  373TMC3    H2 5639   1.194   3.618  14.190 -0.9968 -2.0674 -2.7558
  373TMC3    C7 5640   1.199   3.629  13.929  0.4933  0.7231 -1.0719
  373TMC3    C8 5641   1.185   3.806  14.360 -0.2596 -0.0640  0.9224
  373TMC3    O1 5642   1.264   3.668  13.834  0.2583 -0.3104 -0.2017
  373TMC3    O2 5643   1.236   3.901  14.419  0.3260 -0.1345  0.3041
  374TMC3    C1 5644   1.830   4.732  10.163 -0.5835  0.1864 -0.8149
  374TMC3    C2 5645   1.967   0.002  10.147  0.7612  0.4686 -0.4373
  374TMC3    C3 5646   2.015   0.093  10.054 -0.2110  0.1191 -0.7512
  374TMC3    C4 5647   1.743   0.067  10.086 -0.6273 -0.1074 -0.2855
  374TMC3    C5 5648   1.790   0.155   9.996  0.4435 -0.0252 -0.5776
  374TMC3    C6 5649   1.929   0.173   9.983  0.6022 -0.1820  0.0197
  374TMC3     C 5650   1.773   4.608  10.215 -0.0265 -0.0641  0.7364
  374TMC3     O 5651   1.651   4.597  10.212 -0.0578 -0.2575  0.0050
  374TMC3     H 5652   2.034   4.703  10.223  0.4315  0.5937 -0.0887
  374TMC3    H1 5653   1.638   0.045  10.095 -0.7324 -0.0159 -1.3323
  374TMC3    H2 5654   1.965   0.242   9.907 -2.3461  0.1063 -1.1206
  374TMC3    C7 5655   1.693   0.209   9.903  0.1143  0.5806 -0.0995
  374TMC3    C8 5656   2.160   0.114  10.035 -0.3253  0.0475 -0.1574
  374TMC3    O1 5657   1.577   0.176   9.918 -0.2787  0.8083  0.1661
  374TMC3    O2 5658   2.184   0.217   9.974 -0.3935 -0.7295 -0.0530
  375MPD2     C 5659   2.148   0.770  17.138 -0.4928  0.1036 -0.3874
  375MPD2    C1 5660   2.100   0.644  17.128 -0.7687  0.1994  1.1170
  375MPD2    C2 5661   2.179   0.541  17.082  0.5323 -0.5698  0.7128
  375MPD2    C3 5662   2.301   0.569  17.019 -0.2398 -0.2173 -0.4307
  375MPD2    C4 5663   2.353   0.699  17.043  0.2966  0.3689 -0.3209
  375MPD2    C5 5664   2.278   0.796  17.103 -0.6917 -0.4059 -0.5413
  375MPD2     H 5665   2.149   0.437  17.090 -1.8432 -0.0157 -0.7880
  375MPD2    H1 5666   2.451   0.723  17.002  0.5479 -0.7729 -0.3819
  375MPD2    H2 5667   2.085   0.852  17.173  2.3932  1.8275  0.7582
  375MPD2    H3 5668   2.311   0.898  17.119  0.6923 -0.8416 -0.5856
  375MPD2     N 5669   2.375   0.472  16.954 -0.2285  0.0166 -1.3188
  375MPD2    H5 5670   2.473   0.498  16.943  0.2393 -1.7778 -1.3251
  375MPD2    N1 5671   1.970   0.605  17.165 -0.1553  0.6993 -0.3628
  375MPD2    H7 5672   1.954   0.505  17.156  0.7419  0.4658  0.6324
  376TMC3    C1 5673   2.416   0.266  16.832  0.3369  1.2880 -0.5970
  376TMC3    C2 5674   2.541   0.240  16.885  0.5759  0.0142 -0.5756
  376TMC3    C3 5675   2.609   0.142  16.842  0.1649 -0.6210  0.0666
  376TMC3    C4 5676   2.367   0.181  16.744 -0.1089  0.1889  0.3320
  376TMC3    C5 5677   2.457   0.084  16.688 -0.3439  0.0518  0.3502
  376TMC3    C6 5678   2.579   0.065  16.737 -0.8670  0.5648  0.3392
  376TMC3     C 5679   2.322   0.358  16.898  0.3193 -0.8649 -0.2065
  376TMC3     O 5680   2.204   0.316  16.896 -0.3811  0.2152 -0.1307
  376TMC3     H 5681   2.569   0.303  16.969  3.8262  0.0721 -1.7286
  376TMC3    H1 5682   2.270   0.203  16.700  0.4646  0.6551 -0.6800
  376TMC3    H2 5683   2.645   4.738  16.682  1.7923  0.9455  3.0506
  376TMC3    C7 5684   2.429   0.047  16.556 -0.2352 -1.0731  0.0671
  376TMC3    C8 5685   2.752   0.153  16.861 -0.2303 -0.9524  0.9121
  376TMC3    O1 5686   2.523   0.020  16.483  0.4622 -0.6135 -0.6369
  376TMC3    O2 5687   2.794   0.267  16.864 -0.3142  0.0257 -0.6795
  377MPD2     C 5688   4.734   4.680  13.123  0.0958 -0.0811 -0.6029
  377MPD2    C1 5689   0.120   4.693  13.182 -0.0798 -0.1876  0.2301
  377MPD2    C2 5690   0.156   4.609  13.286  0.3373  0.4575  0.4729
  377MPD2    C3 5691   0.062   4.508  13.322 -0.9138 -0.0868  0.0504
  377MPD2    C4 5692   4.674   4.507  13.269  0.6319  0.7954  0.3872
  377MPD2    C5 5693   4.641   4.592  13.173  0.0992  0.5653  0.1893
  377MPD2     H 5694   0.254   4.619  13.333  1.0812 -0.3147 -0.9226
  377MPD2    H1 5695   4.595   4.434  13.280  0.1649  1.1531 -0.5568
  377MPD2    H2 5696   4.697   0.009  13.046 -0.0903  0.4742 -0.0201
  377MPD2    H3 5697   4.548   4.582  13.118 -0.5972  1.2732  1.2385
  377MPD2     N 5698   0.094   4.392  13.399  0.1047 -0.5789 -0.3392
  377MPD2    H5 5699   0.015   4.333  13.420 -0.8558  0.5890 -0.6508
  377MPD2    N1 5700   0.202   0.067  13.137  0.0676  0.1015  0.4125
  377MPD2    H7 5701   0.170   0.133  13.066 -0.1243 -0.0090  0.3975
  378TMC3    C1 5702   0.301   0.327  12.923 -0.1751  0.0227 -0.2967
  378TMC3    C2 5703   0.295   0.277  13.052  0.4305 -0.5629  0.5929
  378TMC3    C3 5704   0.391   0.187  13.095  0.4418  0.4626  0.1802
  378TMC3    C4 5705   0.400   0.295  12.841 -0.2039  0.3169  0.5859
  378TMC3    C5 5706   0.505   0.227  12.895 -0.6904  0.4555  0.6114
  378TMC3    C6 5707   0.495   0.156  13.011  0.1608 -0.3807 -0.0142
  378TMC3     C 5708   0.172   0.330  12.858 -0.5934  0.0298  0.4855
  378TMC3     O 5709   0.084   0.304  12.932  0.3779 -0.0519 -0.6421
  378TMC3     H 5710   0.221   0.304  13.126 -0.3361  0.3681 -0.5069
  378TMC3    H1 5711   0.416   0.356  12.753  0.3778  0.7736  1.0114
  378TMC3    H2 5712   0.566   0.082  13.046 -0.4879  0.1265  2.4118
  378TMC3    C7 5713   0.624   0.189  12.816  0.6825 -1.1783 -0.5487
  378TMC3    C8 5714   0.334   0.072  13.164 -0.4381 -0.1343 -0.0976
  378TMC3    O1 5715   0.708   0.125  12.876  0.2647  0.0947 -0.1596
  378TMC3    O2 5716   0.408   4.739  13.227 -0.3320 -0.1630 -0.2272
  379MPD2     C 5717   1.148   2.193  16.175  0.4030  0.3837  0.5604
  379MPD2    C1 5718   1.085   2.283  16.259 -0.0903  0.2670 -0.5933
  379MPD2    C2 5719   1.098   2.275  16.395 -0.3371 -0.8648  0.1585
  379MPD2    C3 5720   1.195   2.189  16.452  0.1670 -0.3676 -0.5508
  379MPD2    C4 5721   1.266   2.107  16.364 -0.1171 -0.5295  0.1439
  379MPD2    C5 5722   1.233   2.106  16.234 -0.1972  0.0731  0.3510
  379MPD2     H 5723   1.040   2.342  16.458 -1.1348 -1.3374 -0.0715
  379MPD2    H1 5724   1.351   2.044  16.391 -0.8986 -1.4664  0.4193
  379MPD2    H2 5725   1.130   2.195  16.068 -2.8185 -1.4143  1.0683
  379MPD2    H3 5726   1.294   2.042  16.171 -1.6769 -0.2316 -0.7856
  379MPD2     N 5727   1.228   2.178  16.589  0.1406  0.2776  0.3142
  379MPD2    H5 5728   1.312   2.125  16.612 -0.6820 -1.6844 -1.1857
  379MPD2    N1 5729   0.985   2.376  16.216  0.3307 -0.6011 -0.4980
  379MPD2    H7 5730   0.932   2.433  16.281 -0.9909 -0.5751 -1.5825
  380TMC3    C1 5731   0.876   2.518  16.086 -0.0115 -0.3140 -0.0395
  380TMC3    C2 5732   0.949   2.613  16.153  0.4214 -0.5956  0.0286
  380TMC3    C3 5733   0.980   2.727  16.083  0.6171 -0.1536  0.0299
  380TMC3    C4 5734   0.818   2.535  15.963 -0.3660 -0.0687  0.4711
  380TMC3    C5 5735   0.837   2.658  15.901 -0.3854 -0.1201 -0.4667
  380TMC3    C6 5736   0.929   2.748  15.955 -0.0892  0.3130 -0.2232
  380TMC3     C 5737   0.951   2.393  16.086 -0.3582 -0.2504 -0.4164
  380TMC3     O 5738   0.989   2.352  15.980  0.3067 -0.4429 -0.5617
  380TMC3     H 5739   0.984   2.599  16.254  1.2207 -0.7390 -0.2661
  380TMC3    H1 5740   0.752   2.455  15.930  0.9421 -0.2209 -1.7496
  380TMC3    H2 5741   0.947   2.838  15.898 -0.4167  0.5060 -0.0157
  380TMC3    C7 5742   0.810   2.666  15.759 -0.1542 -0.5160  0.1301
  380TMC3    C8 5743   1.133   2.732  16.064 -0.6560  0.9947 -0.6658
  380TMC3    O1 5744   0.889   2.732  15.697  0.0839  0.6319 -0.4657
  380TMC3    O2 5745   1.174   2.814  15.982 -0.1645  0.2092 -0.0642
  381TMC3    C1 5746   0.727   3.427  16.465 -0.5042 -1.1693  0.4495
  381TMC3    C2 5747   0.786   3.546  16.444 -0.1138  0.4236 -0.2178
  381TMC3    C3 5748   0.822   3.619  16.555  0.0276  0.7457 -0.0106
  381TMC3    C4 5749   0.686   3.384  16.593 -0.0891  0.4480  0.3702
  381TMC3    C5 5750   0.728   3.459  16.700 -0.2950  0.7392 -0.4600
  381TMC3    C6 5751   0.799   3.576  16.678 -0.4966 -0.4316 -0.5679
  381TMC3     C 5752   0.655   3.354  16.361  0.1404  0.7235 -0.4254
  381TMC3     O 5753   0.640   3.231  16.368  0.0402 -0.0815  0.1374
  381TMC3     H 5754   0.817   3.583  16.346 -0.5918 -0.6401 -0.7700
  381TMC3    H1 5755   0.630   3.292  16.608 -1.0695  0.7447 -1.4585
  381TMC3    H2 5756   0.830   3.618  16.773 -2.7326  2.6381 -1.2055
  381TMC3    C7 5757   0.711   3.407  16.832 -0.0214 -0.6653 -0.3018
  381TMC3    C8 5758   0.930   3.706  16.538  0.2872  0.1538 -0.0190
  381TMC3    O1 5759   0.736   3.290  16.842  0.2734  0.0200 -0.3685
  381TMC3    O2 5760   1.012   3.682  16.448 -0.1507 -0.4630  0.1157
  382MPD2     C 5761   0.536   1.044  17.078 -0.2461 -0.2851  0.3068
  382MPD2    C1 5762   0.568   1.069  17.208 -0.5431  0.6195 -0.0370
  382MPD2    C2 5763   0.547   0.967  17.294 -0.7335 -0.0844  0.4053
  382MPD2    C3 5764   0.487   0.847  17.255 -0.5052 -0.4568  0.1100
  382MPD2    C4 5765   0.452   0.828  17.130 -0.3846 -0.0122  0.0625
  382MPD2    C5 5766   0.473   0.927  17.040 -0.7488  0.0420 -0.1076
  382MPD2     H 5767   0.578   0.977  17.397 -4.3569 -0.4422  1.5317
  382MPD2    H1 5768   0.390   0.748  17.090 -1.5631  0.2156  1.4548
  382MPD2    H2 5769   0.561   1.119  17.004  0.1131  1.2934  2.0189
  382MPD2    H3 5770   0.455   0.913  16.934  0.2526  0.9705 -0.3947
  382MPD2     N 5771   0.442   0.742  17.352  0.3253 -0.3387  0.2458
  382MPD2    H5 5772   0.404   0.660  17.306 -1.4505  1.1808 -0.9852
  382MPD2    N1 5773   0.632   1.187  17.264  0.5801 -0.4550  0.2841
  382MPD2    H7 5774   0.645   1.183  17.365 -0.6627  0.5318  0.4795
  383TMC3    C1 5775   0.391   0.645  17.557  0.3415  0.5607  0.7039
  383TMC3    C2 5776   0.262   0.611  17.515  0.5821 -0.7464  0.6400
  383TMC3    C3 5777   0.194   0.530  17.602  0.3739  0.0511  0.1162
  383TMC3    C4 5778   0.440   0.610  17.676 -0.4627 -0.0279  0.6508
  383TMC3    C5 5779   0.371   0.532   0.001  0.1953  0.2906  0.5036
  383TMC3    C6 5780   0.252   0.475  17.714 -0.1375  0.1231 -0.3923
  383TMC3     C 5781   0.456   0.752  17.485  0.0561 -0.0081  1.2609
  383TMC3     O 5782   0.517   0.845  17.541  0.0100 -0.0349 -0.5145
  383TMC3     H 5783   0.231   0.656  17.421  1.1788 -0.9786  0.3292
  383TMC3    H1 5784   0.541   0.637  17.704 -0.8562  0.2064  1.8120
  383TMC3    H2 5785   0.200   0.416   0.033  0.9020 -0.6839 -0.3011
  383TMC3    C7 5786   0.417   0.482   0.129  0.1223 -0.1852  0.4310
  383TMC3    C8 5787   0.059   0.496  17.558 -0.3657 -0.0903 -0.0371
  383TMC3    O1 5788   0.407   0.362   0.156 -0.2339 -1.2296 -0.4892
  383TMC3    O2 5789   0.016   0.538  17.454 -0.4590 -0.1102 -0.2633
  384MPD2     C 5790   0.740   2.689  12.394  0.2090  0.3696  0.4385
  384MPD2    C1 5791   0.824   2.591  12.346 -0.1924  0.7382 -0.6994
  384MPD2    C2 5792   0.948   2.623  12.287 -0.5932  0.9926  0.1899
  384MPD2    C3 5793   0.981   2.758  12.280  0.8090  0.7591 -0.0278
  384MPD2    C4 5794   0.901   2.854  12.343 -0.7537  0.0774  0.0146
  384MPD2    C5 5795   0.779   2.819  12.396 -0.5626  0.8559 -0.1973
  384MPD2     H 5796   1.014   2.555  12.234  1.2970  4.0707 -1.4133
  384MPD2    H1 5797   0.925   2.960  12.338  0.4480 -0.1689  0.7836
  384MPD2    H2 5798   0.643   2.669  12.440 -0.6892  0.6262 -1.3524
  384MPD2    H3 5799   0.715   2.891  12.445 -1.2706 -0.5960  1.0213
  384MPD2     N 5800   1.107   2.811  12.224 -0.3159 -0.1978  0.2646
  384MPD2    H5 5801   1.132   2.908  12.240 -0.0709 -0.0584 -0.9168
  384MPD2    N1 5802   0.783   2.456  12.368 -0.0567 -0.6719 -0.1148
  384MPD2    H7 5803   0.698   2.438  12.420 -0.1435  0.8187  0.2545
  385TMC3    C1 5804   1.332   2.804  12.175  0.0086  0.0789  0.1400
  385TMC3    C2 5805   1.424   2.762  12.084 -0.7118 -0.0325  0.2856
  385TMC3    C3 5806   1.557   2.756  12.123  0.4855  0.3746  0.2294
  385TMC3    C4 5807   1.365   2.832  12.309 -0.0039 -0.0213 -0.3135
  385TMC3    C5 5808   1.494   2.814  12.346  0.3440 -0.1540  0.4262
  385TMC3    C6 5809   1.588   2.778  12.258 -0.2089  0.4795 -0.2782
  385TMC3     C 5810   1.208   2.736  12.168  0.0045 -0.5294  0.2497
  385TMC3     O 5811   1.202   2.627  12.107  0.2992 -0.1484  0.1414
  385TMC3     H 5812   1.386   2.730  11.988  1.4983  1.6482 -1.1450
  385TMC3    H1 5813   1.290   2.856  12.384  1.5249  0.1878  1.1618
  385TMC3    H2 5814   1.685   2.750  12.299 -1.1198 -0.0512  1.5228
  385TMC3    C7 5815   1.507   2.766  12.481  0.3135  0.1753 -0.2697
  385TMC3    C8 5816   1.637   2.643  12.073  0.2534  1.0285  1.0328
  385TMC3    O1 5817   1.564   2.831  12.566 -0.3224 -0.0849 -0.9611
  385TMC3    O2 5818   1.761   2.639  12.080 -0.2707 -0.1980 -0.0605
  386TMC3    C1 5819   1.620   0.085  11.989 -0.7891  0.2433 -0.2246
  386TMC3    C2 5820   1.621   0.131  11.859 -0.3022  0.4281 -0.4497
  386TMC3    C3 5821   1.548   0.239  11.822 -0.2854  0.2600  0.2236
  386TMC3    C4 5822   1.536   0.141  12.080  0.4593  0.0705  0.1263
  386TMC3    C5 5823   1.458   0.247  12.039  0.0000  0.2230 -0.0864
  386TMC3    C6 5824   1.463   0.300  11.914  0.1550  0.2212 -0.9192
  386TMC3     C 5825   1.640   4.679  12.001 -0.0779 -0.0811  0.1239
  386TMC3     O 5826   1.729   4.640  11.924  0.2814 -0.0641 -0.4552
  386TMC3     H 5827   1.683   0.074  11.790  0.2825  1.8250 -1.0771
  386TMC3    H1 5828   1.526   0.101  12.181  0.8542  1.2488  0.6323
  386TMC3    H2 5829   1.413   0.392  11.887 -0.2355 -0.1728 -1.5467
  386TMC3    C7 5830   1.347   0.272  12.134  0.1065  0.5102  0.9208
  386TMC3    C8 5831   1.514   0.277  11.684 -0.7693  0.0180  0.2460
  386TMC3    O1 5832   1.372   0.236  12.248  0.2178 -0.2661  0.2630
  386TMC3    O2 5833   1.420   0.351  11.662  0.1105  0.4228  0.2236
  387MPD2     C 5834   3.749   4.653  10.082 -0.3011 -0.0110 -0.2830
  387MPD2    C1 5835   3.854   4.580  10.037  0.9133 -0.1316  0.0389
  387MPD2    C2 5836   3.848   4.439  10.045  0.1654  0.3403 -0.3333
  387MPD2    C3 5837   3.730   4.381  10.087  0.1212 -0.4448  0.5723
  387MPD2    C4 5838   3.622   4.455  10.125  0.7150  0.0644 -0.4838
  387MPD2    C5 5839   3.626   4.591  10.117 -0.1061 -0.0720 -0.5666
  387MPD2     H 5840   3.928   4.375  10.012 -1.1666 -1.1976 -0.5624
  387MPD2    H1 5841   3.525   4.421  10.160  1.3057 -1.3462 -0.2287
  387MPD2    H2 5842   3.752   0.021  10.066 -0.3217 -0.3891 -2.7113
  387MPD2    H3 5843   3.541   4.643  10.159 -0.9683 -1.1815 -0.9264
  387MPD2     N 5844   3.725   4.235  10.077 -0.0832 -0.0414 -0.2685
  387MPD2    H5 5845   3.809   4.184  10.048 -0.9549 -1.2047 -0.7629
  387MPD2    N1 5846   3.984   4.631  10.019  0.3704 -0.4200 -0.4714
  387MPD2    H7 5847   4.062   4.567  10.011 -0.2702 -1.5208  1.9925
  388TMC3    C1 5848   4.155   0.043  10.095  0.1062 -0.1833  0.0863
  388TMC3    C2 5849   4.178   0.173  10.133  0.5025  0.5502  0.4320
  388TMC3    C3 5850   4.280   0.193  10.226 -0.5916 -0.2843 -0.0128
  388TMC3    C4 5851   4.221   4.681  10.155 -0.2794  0.2020  0.0227
  388TMC3    C5 5852   4.310   4.709  10.254 -0.7538 -0.2223  0.0606
  388TMC3    C6 5853   4.345   0.094  10.295  0.4222 -0.1745 -0.2094
  388TMC3     C 5854   4.018   0.023  10.048 -0.0122  0.9138  0.0126
  388TMC3     O 5855   3.947   0.123  10.057  0.6530  0.1575  0.3250
  388TMC3     H 5856   4.124   0.256  10.090  1.4266  1.4211  0.9575
  388TMC3    H1 5857   4.192   4.580  10.130 -0.1899 -0.0001  0.7223
  388TMC3    H2 5858   4.410   0.109  10.380  2.1326 -1.4068 -1.3011
  388TMC3    C7 5859   4.360   4.603  10.333  0.2625 -0.1879  0.2320
  388TMC3    C8 5860   4.264   0.317  10.304  0.0373 -0.5747  0.4765
  388TMC3    O1 5861   4.474   4.614  10.372 -0.1886  0.2113 -0.2628
  388TMC3    O2 5862   4.152   0.367  10.290  0.4745 -0.2947  0.1048
  389MPD2     C 5863   3.196   2.963  11.577 -0.7120 -0.1267  1.0496
  389MPD2    C1 5864   3.201   2.890  11.465 -0.4304  0.1757 -0.5810
  389MPD2    C2 5865   3.159   2.759  11.463 -0.0189 -1.1740 -0.1953
  389MPD2    C3 5866   3.102   2.702  11.574  0.4112 -0.6019 -0.2595
  389MPD2    C4 5867   3.098   2.784  11.688 -0.7653 -0.2168 -0.1340
  389MPD2    C5 5868   3.137   2.910  11.688  0.4240 -0.0964 -0.0962
  389MPD2     H 5869   3.183   2.693  11.380 -1.7275 -0.9962 -0.8452
  389MPD2    H1 5870   3.048   2.748  11.777  0.0502  0.9841  0.7975
  389MPD2    H2 5871   3.232   3.065  11.578  0.5266 -0.5541 -0.2263
  389MPD2    H3 5872   3.122   2.975  11.773  1.6995  0.2489 -0.1376
  389MPD2     N 5873   3.044   2.573  11.574 -0.3934  0.0240  0.3821
  389MPD2    H5 5874   3.002   2.522  11.652 -0.3955  1.7570  1.5155
  389MPD2    N1 5875   3.258   2.954  11.355  0.1148 -0.4319 -0.3324
  389MPD2    H7 5876   3.285   3.052  11.366  0.4001 -0.4589 -0.7780
  390TMC3    C1 5877   2.975   2.375  11.493  0.1910  0.2840  0.3619
  390TMC3    C2 5878   3.029   2.298  11.593  0.2460 -0.4634  0.0066
  390TMC3    C3 5879   3.012   2.159  11.598 -0.3941 -0.1296 -0.4728
  390TMC3    C4 5880   2.885   2.318  11.403  0.5472 -0.7962  0.3683
  390TMC3    C5 5881   2.876   2.181  11.404  0.7636 -0.6274  0.3567
  390TMC3    C6 5882   2.938   2.097  11.492 -0.6564 -0.0182  0.2312
  390TMC3     C 5883   3.028   2.502  11.461 -0.7044  0.8452 -0.7072
  390TMC3     O 5884   3.049   2.529  11.345 -0.8146  0.0743  1.0788
  390TMC3     H 5885   3.095   2.344  11.666 -0.4455 -0.5815  0.7117
  390TMC3    H1 5886   2.846   2.375  11.320  1.1265 -2.2664 -0.9180
  390TMC3    H2 5887   2.911   1.993  11.506 -3.3784  1.0104  2.6496
  390TMC3    C7 5888   2.752   2.121  11.386  0.5676 -0.3116  0.4609
  390TMC3    C8 5889   2.984   2.093  11.727  0.6046  0.1632  0.4307
  390TMC3    O1 5890   2.749   2.024  11.310 -0.7635  0.3911  0.1271
  390TMC3    O2 5891   2.993   1.972  11.722  0.5513  0.3444  0.7175
  391MPD2     C 5892   2.858   4.544  11.439  0.3785 -0.1447  0.4022
  391MPD2    C1 5893   2.969   4.562  11.363 -0.2180  0.4637 -0.7123
  391MPD2    C2 5894   2.971   4.597  11.230  0.3565 -0.0232  1.0878
  391MPD2    C3 5895   2.853   4.601  11.164 -0.3583 -0.2580  0.1081
  391MPD2    C4 5896   2.732   4.579  11.236 -0.3340  0.1446  0.4968
  391MPD2    C5 5897   2.733   4.546  11.372  0.1282  0.5625 -0.1954
  391MPD2     H 5898   3.064   4.605  11.174 -0.0212 -0.4410  0.3946
  391MPD2    H1 5899   2.640   4.573  11.179 -0.7633  1.3297  1.0719
  391MPD2    H2 5900   2.863   4.502  11.539  0.0614 -1.1830 -0.0174
  391MPD2    H3 5901   2.642   4.514  11.421  0.3423  0.8866  0.4103
  391MPD2     N 5902   2.848   4.649  11.027 -0.0439  0.2732  0.1645
  391MPD2    H5 5903   2.939   4.669  10.985 -1.4247 -0.0005 -2.9069
  391MPD2    N1 5904   3.089   4.558  11.436  0.5633 -0.4152 -0.3627
  391MPD2    H7 5905   3.094   4.587  11.533  0.6056  0.8362 -0.7452
  392TMC3    C1 5906   2.778   4.718  10.812  0.1057 -0.3717  0.0103
  392TMC3    C2 5907   2.683   4.713  10.715  0.3742  0.5471 -0.8923
  392TMC3    C3 5908   2.699   0.054  10.603  0.3641 -0.5057  0.3372
  392TMC3    C4 5909   2.886   0.067  10.795 -0.3969  0.0924 -0.6629
  392TMC3    C5 5910   2.893   0.150  10.683  0.6208  0.5378 -0.6282
  392TMC3    C6 5911   2.804   0.139  10.585 -0.7969 -0.1656  0.7574
  392TMC3     C 5912   2.739   4.681  10.944  1.4021  0.2684 -0.4948
  392TMC3     O 5913   2.624   4.657  10.961  0.5204  0.5002  0.1472
  392TMC3     H 5914   2.597   4.650  10.729  0.3207  1.0242  0.9422
  392TMC3    H1 5915   2.954   0.080  10.879 -0.6709 -1.4838 -0.1823
  392TMC3    H2 5916   2.814   0.208  10.501 -1.5253 -0.5683  0.3478
  392TMC3    C7 5917   2.988   0.256  10.691  0.3222  0.5906  0.1657
  392TMC3    C8 5918   2.610   0.027  10.490 -0.4966 -0.1113  0.4044
  392TMC3    O1 5919   3.083   0.242  10.766 -0.5286 -0.1191 -0.1446
  392TMC3    O2 5920   2.520   4.687  10.500 -0.5005 -0.0108  0.0249
  393TMC3    C1 5921   1.430   2.842  11.227 -0.0443  1.0043 -0.2083
  393TMC3    C2 5922   1.318   2.852  11.306  0.3124  0.2043 -0.0731
  393TMC3    C3 5923   1.257   2.739  11.351  0.5037  0.6511  0.0269
  393TMC3    C4 5924   1.492   2.715  11.218 -0.2421  0.3992 -0.1258
  393TMC3    C5 5925   1.427   2.605  11.264 -0.3370  0.2310  0.5113
  393TMC3    C6 5926   1.304   2.619  11.329 -0.1532  0.0597 -0.1958
  393TMC3     C 5927   1.454   2.961  11.146  0.1295  0.0563  0.9046
  393TMC3     O 5928   1.401   3.067  11.176  0.0972  0.0110  0.4106
  393TMC3     H 5929   1.274   2.951  11.317 -0.2709 -0.2500  1.7473
  393TMC3    H1 5930   1.581   2.698  11.158  0.5534  0.3535  1.0620
  393TMC3    H2 5931   1.261   2.537  11.385 -0.1351  0.0527 -0.1921
  393TMC3    C7 5932   1.464   2.467  11.246  0.7218 -0.2147 -0.0598
  393TMC3    C8 5933   1.136   2.751  11.418  0.1273 -0.0456 -0.0144
  393TMC3    O1 5934   1.374   2.386  11.263  0.0899 -0.0073  0.2392
  393TMC3    O2 5935   1.059   2.654  11.413 -0.1210 -0.2135  0.1354
  394TMC3    C1 5936   3.368   2.978  11.142  1.2740 -0.6951  1.0493
  394TMC3    C2 5937   3.443   2.913  11.048  0.1359  0.2441 -0.0106
  394TMC3    C3 5938   3.494   2.989  10.947  0.3820 -0.1432 -0.0034
  394TMC3    C4 5939   3.349   3.112  11.141  0.4517  0.6065  0.4416
  394TMC3    C5 5940   3.399   3.180  11.040 -0.4022  0.3391 -0.1509
  394TMC3    C6 5941   3.471   3.123  10.944 -0.6843 -0.2131 -0.4911
  394TMC3     C 5942   3.294   2.889  11.244 -0.5924  0.2747 -0.0368
  394TMC3     O 5943   3.307   2.767  11.223  0.1062  0.4218 -0.3551
  394TMC3     H 5944   3.482   2.816  11.078 -0.4436 -0.0013 -0.0590
  394TMC3    H1 5945   3.270   3.161  11.197 -1.4945 -0.3174 -1.4916
  394TMC3    H2 5946   3.488   3.174  10.850  0.2893  2.6144  1.2211
  394TMC3    C7 5947   3.341   3.298  10.989  0.7182 -0.1057  0.4412
  394TMC3    C8 5948   3.524   2.922  10.825 -1.2523  0.2155 -0.2948
  394TMC3    O1 5949   3.414   3.379  10.930  0.4077 -0.1280  0.1401
  394TMC3    O2 5950   3.564   2.997  10.740  0.4355 -0.2707 -0.0567
  395TMC3    C1 5951   3.202   0.298  14.892  0.1607 -0.4340  0.1816
  395TMC3    C2 5952   3.103   0.375  14.846 -0.1584 -1.3933 -0.5090
  395TMC3    C3 5953   3.106   0.515  14.868  0.1215 -0.3981  0.3756
  395TMC3    C4 5954   3.301   0.349  14.974  0.1187  1.0166 -0.2113
  395TMC3    C5 5955   3.294   0.485  15.001 -0.6153  0.0782  0.5855
  395TMC3    C6 5956   3.210   0.563  14.933 -0.0099  0.0703  0.7957
  395TMC3     C 5957   3.174   0.156  14.905  0.5016 -0.5053 -0.1864
  395TMC3     O 5958   3.188   0.087  14.804  0.1997  0.4465 -0.8245
  395TMC3     H 5959   3.020   0.326  14.796 -0.1918 -1.6384 -0.2126
  395TMC3    H1 5960   3.368   0.285  15.031  0.7417  1.3861 -0.5355
  395TMC3    H2 5961   3.226   0.668  14.957  0.5611  0.1003  0.2869
  395TMC3    C7 5962   3.415   0.562  15.052  0.1866  0.7668 -0.6052
  395TMC3    C8 5963   3.013   0.606  14.796 -0.4038  0.2041  0.1652
  395TMC3    O1 5964   3.397   0.661  15.122 -0.1060  0.2462  0.6288
  395TMC3    O2 5965   3.009   0.722  14.831 -0.2770  0.6883 -0.1172
  396MPD2     C 5966   3.206   0.831  17.181 -0.2499 -0.0291  0.1022
  396MPD2    C1 5967   3.338   0.860  17.195 -1.0482 -0.4692 -0.2779
  396MPD2    C2 5968   3.382   0.985  17.166 -0.2170 -0.6146 -0.2238
  396MPD2    C3 5969   3.299   1.078  17.118 -0.1735  0.3572  0.4515
  396MPD2    C4 5970   3.168   1.048  17.101  0.2396 -0.1052  0.2948
  396MPD2    C5 5971   3.120   0.926  17.128 -0.5639 -0.8076 -0.2305
  396MPD2     H 5972   3.487   1.006  17.185 -1.0610  1.5691  1.9220
  396MPD2    H1 5973   3.110   1.132  17.064  1.4527  1.1320  1.2161
  396MPD2    H2 5974   3.167   0.731  17.195 -0.3769  0.1791  1.2780
  396MPD2    H3 5975   3.016   0.898  17.116 -1.0269  1.3524 -1.3241
  396MPD2     N 5976   3.356   1.201  17.091 -0.1787  0.0234  0.1872
  396MPD2    H5 5977   3.454   1.213  17.116 -0.2061 -0.5017  0.5459
  396MPD2    N1 5978   3.414   0.752  17.242  0.3467  0.6164 -0.2674
  396MPD2    H7 5979   3.362   0.667  17.259  0.3552  0.8726  1.0617
  397TMC3    C1 5980   3.593   0.615  17.273 -0.4193  0.0006  0.3404
  397TMC3    C2 5981   3.620   0.549  17.157  0.5268 -0.6485  0.1604
  397TMC3    C3 5982   3.557   0.430  17.127 -0.1440  0.0684  0.1360
  397TMC3    C4 5983   3.520   0.547  17.369 -0.2554  0.7393  0.1743
  397TMC3    C5 5984   3.466   0.422  17.344  0.0562  0.3357 -0.3885
  397TMC3    C6 5985   3.491   0.363  17.224 -0.0196  0.3236  0.4828
  397TMC3     C 5986   3.548   0.746  17.241  0.6805 -0.5361  0.5480
  397TMC3     O 5987   3.634   0.826  17.202 -0.1934 -0.2005  0.3996
  397TMC3     H 5988   3.656   0.608  17.074 -2.7305  0.1652 -0.7055
  397TMC3    H1 5989   3.485   0.602  17.456 -0.4286 -0.5708  0.9362
  397TMC3    H2 5990   3.427   0.278  17.205  0.9419 -0.2385 -0.2103
  397TMC3    C7 5991   3.407   0.348  17.453 -0.3459  0.1273 -1.0046
  397TMC3    C8 5992   3.478   0.441  17.003  0.1645 -0.0263 -0.1617
  397TMC3    O1 5993   3.456   0.367  17.564  0.0295  0.2563 -0.4474
  397TMC3    O2 5994   3.357   0.437  17.017 -0.4738 -0.4952  0.2236
  398MPD2     C 5995   1.845   2.253   0.464 -0.2324  0.0194 -0.4464
  398MPD2    C1 5996   1.862   2.131   0.522 -0.5151 -0.0820  0.3976
  398MPD2    C2 5997   1.971   2.111   0.606 -0.3333 -0.2801 -0.4808
  398MPD2    C3 5998   2.046   2.217   0.652  0.1221  0.8300 -0.3393
  398MPD2    C4 5999   2.013   2.343   0.612 -0.1158 -0.5567 -0.2860
  398MPD2    C5 6000   1.921   2.357   0.510  0.2514  0.8056 -0.4739
  398MPD2     H 6001   2.004   2.009   0.621  0.8858  0.2769  0.6375
  398MPD2    H1 6002   2.075   2.430   0.633  0.7106 -1.2130 -0.0373
  398MPD2    H2 6003   1.767   2.280   0.395 -0.5247 -1.2504 -0.6085
  398MPD2    H3 6004   1.909   2.451   0.457  0.8747  0.9430 -0.3711
  398MPD2     N 6005   2.149   2.189   0.742  0.7421 -0.3808 -0.0216
  398MPD2    H5 6006   2.157   2.089   0.759  1.9966  0.0420  1.9036
  398MPD2    N1 6007   1.781   2.020   0.493 -0.1625  0.2415  0.3165
  398MPD2    H7 6008   1.789   1.942   0.557  1.0043  0.7157  0.7460
  399TMC3    C1 6009   1.605   1.894   0.421 -0.6050 -0.5983 -0.0130
  399TMC3    C2 6010   1.614   1.832   0.547 -0.9407  0.0173  0.5543
  399TMC3    C3 6011   1.597   1.698   0.553  0.1409 -0.4380 -0.1271
  399TMC3    C4 6012   1.566   1.835   0.310 -0.0530  0.0813 -0.2660
  399TMC3    C5 6013   1.571   1.698   0.320  0.7293  0.1978 -0.4223
  399TMC3    C6 6014   1.588   1.627   0.437  0.5463  0.1157 -0.3883
  399TMC3     C 6015   1.674   2.022   0.404  0.5532 -0.2842  0.3420
  399TMC3     O 6016   1.651   2.091   0.306  0.4308 -0.0118 -0.6598
  399TMC3     H 6017   1.626   1.897   0.633 -1.8814 -1.5784  1.8692
  399TMC3    H1 6018   1.583   1.881   0.214 -0.6443 -1.7529 -1.2609
  399TMC3    H2 6019   1.597   1.519   0.438 -0.1144  0.1005  2.8116
  399TMC3    C7 6020   1.535   1.615   0.204  0.0702  0.4641 -0.8340
  399TMC3    C8 6021   1.667   1.636   0.671 -1.1318  0.3487  0.0678
  399TMC3    O1 6022   1.551   1.497   0.213 -0.2682 -0.4250 -0.2304
  399TMC3    O2 6023   1.740   1.716   0.735  0.1404  0.1956  0.1173
  400TMC3    C1 6024   4.395   4.642  17.093  0.4846 -0.0697  0.4049
  400TMC3    C2 6025   4.300   4.545  17.098  0.0943 -0.0322  0.0604
  400TMC3    C3 6026   4.180   4.577  17.055 -0.0065  0.7853 -0.1918
  400TMC3    C4 6027   4.377   0.030  17.035 -0.5778  0.2515  0.6519
  400TMC3    C5 6028   4.248   0.065  17.009  0.1115  0.0807  0.1306
  400TMC3    C6 6029   4.150   4.703  17.011 -0.6916  0.0576  0.1431
  400TMC3     C 6030   4.519   4.607  17.153  0.2110  0.3987 -0.5959
  400TMC3     O 6031   4.545   4.488  17.169 -1.1912  0.0035 -0.3195
  400TMC3     H 6032   4.319   4.441  17.125 -1.6616  0.3232  2.7232
  400TMC3    H1 6033   4.453   0.107  17.032 -0.6681  0.4101  2.4679
  400TMC3    H2 6034   4.047   4.727  16.988 -0.4359 -1.7686 -2.8609
  400TMC3    C7 6035   4.214   0.190  16.948 -0.0580 -0.1101  0.3472
  400TMC3    C8 6036   4.089   4.468  17.026  0.5056  1.0320 -0.3219
  400TMC3    O1 6037   4.113   0.186  16.877 -0.2745 -0.4895  0.4380
  400TMC3    O2 6038   4.110   4.357  17.078  0.0559  0.5706  0.2545
  401MPD2     C 6039   2.795   3.907   0.205  0.5401  0.2937 -0.4955
  401MPD2    C1 6040   2.811   3.796   0.279 -0.0120 -0.2524 -0.2927
  401MPD2    C2 6041   2.754   3.674   0.242  0.4692  0.2174 -0.2187
  401MPD2    C3 6042   2.661   3.668   0.134 -0.2905  0.0964 -0.0530
  401MPD2    C4 6043   2.658   3.778   0.055 -0.1335 -0.1215  0.3188
  401MPD2    C5 6044   2.721   3.896   0.093 -0.2435 -0.4067  0.4432
  401MPD2     H 6045   2.769   3.588   0.306  0.3254  0.4529  0.1277
  401MPD2    H1 6046   2.602   3.779  17.718 -0.7547 -3.0526  0.6580
  401MPD2    H2 6047   2.837   4.004   0.229  0.8048 -0.3352  1.6516
  401MPD2    H3 6048   2.710   3.980   0.025 -0.3988  1.0734  2.2739
  401MPD2     N 6049   2.602   3.540   0.103 -0.0193 -0.5426 -0.6357
  401MPD2    H5 6050   2.599   3.460   0.166 -2.6601 -0.3497 -0.4873
  401MPD2    N1 6051   2.906   3.792   0.384  0.2037  0.6828 -0.6016
  401MPD2    H7 6052   2.919   3.698   0.420  0.3968  0.5129 -1.1183
  402TMC3    C1 6053   2.469   3.389  17.734 -0.1805 -0.2649  0.0343
  402TMC3    C2 6054   2.449   3.325   0.092  0.4289  0.1950  0.0585
  402TMC3    C3 6055   2.446   3.186   0.092  0.3779  0.2894  0.5956
  402TMC3    C4 6056   2.493   3.318  17.618 -0.0012 -0.5021 -0.2579
  402TMC3    C5 6057   2.492   3.182  17.619  0.1711 -0.2680  0.3043
  402TMC3    C6 6058   2.469   3.111  17.734 -0.1257 -0.2791  0.2201
  402TMC3     C 6059   2.537   3.515  17.738  0.2910 -0.0376  0.7923
  402TMC3     O 6060   2.544   3.580  17.635 -0.7407  0.4454 -0.6189
  402TMC3     H 6061   2.420   3.378   0.182  1.8127  1.3613 -0.1847
  402TMC3    H1 6062   2.522   3.372  17.529 -0.6837 -3.5200 -2.3044
  402TMC3    H2 6063   2.456   3.004  17.728  1.8683 -0.4953 -0.1378
  402TMC3    C7 6064   2.522   3.113  17.491  0.0421 -0.0812 -0.6716
  402TMC3    C8 6065   2.480   3.130   0.213  0.1002 -0.1490  0.7325
  402TMC3    O1 6066   2.516   3.187  17.395  0.0617  0.0499 -0.4804
  402TMC3    O2 6067   2.573   3.049   0.215 -0.2113 -0.4661  0.2393
  403MPD2     C 6068   0.793   2.328  13.652 -0.4122 -0.5324  0.7792
  403MPD2    C1 6069   0.863   2.210  13.684  0.3029  0.5326  0.2650
  403MPD2    C2 6070   0.988   2.208  13.746  0.1852  0.3686 -0.3922
  403MPD2    C3 6071   1.041   2.326  13.793 -0.2326 -0.5227  0.3413
  403MPD2    C4 6072   0.974   2.441  13.743  0.0009 -0.2824  0.1332
  403MPD2    C5 6073   0.856   2.447  13.681  0.5443 -0.7607  0.5699
  403MPD2     H 6074   1.044   2.115  13.757 -0.5804  0.0446  0.8323
  403MPD2    H1 6075   1.029   2.532  13.763 -1.4351  0.5626  0.2091
  403MPD2    H2 6076   0.696   2.320  13.603 -0.0837 -1.6542  0.3114
  403MPD2    H3 6077   0.802   2.538  13.658 -0.6739 -1.6096  0.0580
  403MPD2     N 6078   1.159   2.326  13.871 -0.0485  0.4140  0.1625
  403MPD2    H5 6079   1.204   2.237  13.890 -0.8337  0.0954  0.5341
  403MPD2    N1 6080   0.805   2.086  13.661 -0.3229 -0.3051 -0.3321
  403MPD2    H7 6081   0.860   2.004  13.682  0.1325 -0.0167 -0.3989
  404TMC3    C1 6082   0.639   1.926  13.617 -0.6190  0.2232 -0.0870
  404TMC3    C2 6083   0.530   1.859  13.677 -0.1512  0.0016  0.4587
  404TMC3    C3 6084   0.493   1.737  13.638  0.4973 -0.0359 -0.2023
  404TMC3    C4 6085   0.704   1.870  13.508  0.7497 -0.8450 -0.2772
  404TMC3    C5 6086   0.655   1.756  13.457 -0.4846 -0.1244  0.0535
  404TMC3    C6 6087   0.558   1.686  13.525 -0.1869 -0.1365  0.2980
  404TMC3     C 6088   0.671   2.061  13.643 -0.0883 -0.1680  0.0651
  404TMC3     O 6089   0.578   2.138  13.673 -0.1633 -0.2432  0.3265
  404TMC3     H 6090   0.479   1.916  13.754  0.5621 -0.1447  1.0350
  404TMC3    H1 6091   0.786   1.924  13.462 -0.3957 -0.1909 -1.5609
  404TMC3    H2 6092   0.510   1.606  13.470 -0.2176 -0.6757  1.1181
  404TMC3    C7 6093   0.679   1.744  13.317 -1.0882  0.2337  0.7649
  404TMC3    C8 6094   0.509   1.638  13.742 -0.1926 -0.4956  0.2531
  404TMC3    O1 6095   0.793   1.738  13.274 -0.6258  0.4796 -0.2651
  404TMC3    O2 6096   0.531   1.528  13.696 -0.4473 -0.0436  0.3547
  405MPD2     C 6097   1.800   3.134  14.877 -0.3073  0.4427  0.2920
  405MPD2    C1 6098   1.737   3.029  14.835  0.4003  0.7842  0.4485
  405MPD2    C2 6099   1.657   3.042  14.724  0.3209  0.4496  0.1619
  405MPD2    C3 6100   1.647   3.163  14.649  0.2882  0.1177 -0.0158
  405MPD2    C4 6101   1.726   3.266  14.690  0.1285  0.1527  0.2255
  405MPD2    C5 6102   1.800   3.248  14.806  0.4826  0.5088  0.4653
  405MPD2     H 6103   1.590   2.962  14.693 -0.3616  0.6652  1.0623
  405MPD2    H1 6104   1.731   3.366  14.648  3.2483 -1.1001 -2.3850
  405MPD2    H2 6105   1.866   3.128  14.962 -1.5917 -1.6249  1.1253
  405MPD2    H3 6106   1.852   3.334  14.848 -0.4357  0.1240  2.3850
  405MPD2     N 6107   1.555   3.165  14.543 -0.4422 -0.0344 -0.4338
  405MPD2    H5 6108   1.489   3.088  14.547  0.4199 -0.8600 -1.9644
  405MPD2    N1 6109   1.740   2.905  14.903 -0.5880 -0.5874  0.5773
  405MPD2    H7 6110   1.785   2.913  14.994  0.1645  0.1295  0.1534
  406TMC3    C1 6111   1.210   3.236  14.300 -0.2750 -1.0569  0.3263
  406TMC3    C2 6112   1.197   3.107  14.276  0.0175 -0.0506 -0.1927
  406TMC3    C3 6113   1.315   3.035  14.278  0.0995  0.5941 -0.7385
  406TMC3    C4 6114   1.326   3.294  14.339  0.4221 -0.4196 -0.5489
  406TMC3    C5 6115   1.428   3.213  14.363  0.6817 -0.0169  0.1775
  406TMC3    C6 6116   1.430   3.079  14.334  0.4166  0.3541 -0.0132
  406TMC3     C 6117   1.093   3.305  14.348  0.1265  0.3946 -0.2874
  406TMC3     O 6118   1.077   3.425  14.329  0.3400  0.3374  0.0827
  406TMC3     H 6119   1.104   3.059  14.247  1.3143 -2.8287  0.2898
  406TMC3    H1 6120   1.332   3.403  14.339 -0.6891 -0.3582 -2.0008
  406TMC3    H2 6121   1.516   3.014  14.337  0.7326  0.7651 -0.0675
  406TMC3    C7 6122   1.527   3.263  14.455 -0.3109 -0.4012  0.0638
  406TMC3    C8 6123   1.300   2.888  14.270 -0.3445  0.1931  0.8220
  406TMC3    O1 6124   1.576   3.370  14.430 -0.1193  0.0152  0.5373
  406TMC3    O2 6125   1.204   2.848  14.204  0.7068  0.0030 -0.0046
  407MPD2     C 6126   3.465   0.135   9.861  0.4553  0.8534 -0.8381
  407MPD2    C1 6127   3.586   0.175   9.913 -0.1878 -0.3756  1.3370
  407MPD2    C2 6128   3.585   0.237  10.039 -0.1437  0.4576  0.0610
  407MPD2    C3 6129   3.465   0.263  10.108  0.7783 -0.2304  0.5585
  407MPD2    C4 6130   3.347   0.221  10.052  0.2215  0.0338 -0.3341
  407MPD2    C5 6131   3.351   0.150   9.933 -0.1148 -0.1204 -0.0419
  407MPD2     H 6132   3.682   0.264  10.080  1.4265 -0.1091 -3.3468
  407MPD2    H1 6133   3.256   0.236  10.107  0.6695 -0.0786  0.4319
  407MPD2    H2 6134   3.460   0.084   9.765 -0.1331  0.6492 -0.6997
  407MPD2    H3 6135   3.257   0.118   9.889  1.4755 -2.5700 -1.6492
  407MPD2     N 6136   3.467   0.348  10.221 -0.1755  0.5437  0.4437
  407MPD2    H5 6137   3.378   0.385  10.253 -0.9181 -1.7144  1.0020
  407MPD2    N1 6138   3.710   0.157   9.844  0.1698 -0.3956 -0.4314
  407MPD2    H7 6139   3.795   0.196   9.883 -0.0364  0.9583 -1.3198
  408TMC3    C1 6140   3.863   0.060   9.713  0.5090 -0.1950  0.1870
  408TMC3    C2 6141   3.914   4.682   9.691  0.2173  0.6788 -0.3238
  408TMC3    C3 6142   4.046   4.664   9.678 -0.9713  0.1145 -0.4141
  408TMC3    C4 6143   3.938   0.170   9.727  0.1394 -0.2911  0.4740
  408TMC3    C5 6144   4.071   0.152   9.694 -0.3985 -0.1311  0.2448
  408TMC3    C6 6145   4.132   0.031   9.678 -0.4522 -0.5520  0.8761
  408TMC3     C 6146   3.727   0.063   9.753  0.3069 -0.2736 -0.1876
  408TMC3     O 6147   3.651   4.716   9.711 -0.3654  0.3732  0.5195
  408TMC3     H 6148   3.846   4.600   9.671  0.6583 -0.0149  0.9637
  408TMC3    H1 6149   3.891   0.268   9.731 -1.1562 -0.8705 -0.8905
  408TMC3    H2 6150   4.236   0.026   9.650 -0.9522 -0.8629 -0.8729
  408TMC3    C7 6151   4.169   0.236   9.765  0.1416  0.4975 -1.1279
  408TMC3    C8 6152   4.099   4.532   9.707 -0.2021 -0.1810 -0.5230
  408TMC3    O1 6153   4.281   0.185   9.778 -0.0124  0.4432 -0.1321
  408TMC3    O2 6154   4.019   4.438   9.690 -0.2546 -0.2011  0.1556
  409MPD2     C 6155   3.640   4.488  16.983 -0.2626  0.2315 -0.3500
  409MPD2    C1 6156   3.699   4.495  17.106  0.0121  0.0824 -0.3814
  409MPD2    C2 6157   3.760   4.610  17.145 -0.7179  0.0216  0.0090
  409MPD2    C3 6158   3.763   4.722  17.066  0.1314  0.0964 -0.3047
  409MPD2    C4 6159   3.697   4.719  16.945 -0.5346  0.5607 -0.2211
  409MPD2    C5 6160   3.643   4.602  16.905 -0.0835  0.1932 -0.1163
  409MPD2     H 6161   3.815   4.604  17.238 -0.9631 -1.9482  0.0219
  409MPD2    H1 6162   3.707   0.053  16.866 -0.1645  0.6100 -0.1278
  409MPD2    H2 6163   3.601   4.396  16.941 -2.8309  1.1087  0.1173
  409MPD2    H3 6164   3.593   4.585  16.811  0.6882  1.8245 -0.8096
  409MPD2     N 6165   3.828   0.101  17.102  0.0690 -0.3958  0.1147
  409MPD2    H5 6166   3.818   0.184  17.045 -0.8648 -0.2629  0.4603
  409MPD2    N1 6167   3.701   4.390  17.196 -0.6053 -0.8324 -0.5281
  409MPD2    H7 6168   3.763   4.409  17.274  0.5987  1.0718 -1.9717
  410TMC3    C1 6169   3.950   0.246  17.244  0.1031  0.5895 -0.6406
  410TMC3    C2 6170   4.065   0.261  17.315 -0.8294 -0.4558  0.5226
  410TMC3    C3 6171   4.142   0.374  17.289 -0.5591 -0.4669  0.5960
  410TMC3    C4 6172   3.904   0.341  17.154 -0.3385 -0.2722 -0.1069
  410TMC3    C5 6173   3.982   0.454  17.144  0.5085  0.7670  0.3494
  410TMC3    C6 6174   4.099   0.475  17.207  0.1552 -0.5725  0.6924
  410TMC3     C 6175   3.909   0.108  17.213  0.2288 -0.4906  0.1592
  410TMC3     O 6176   3.965   0.020  17.276  0.0131  0.7539 -0.2628
  410TMC3     H 6177   4.096   0.191  17.392  0.6626  2.0226  2.1682
  410TMC3    H1 6178   3.802   0.339  17.118  0.1076  0.7964 -1.4250
  410TMC3    H2 6179   4.173   0.549  17.182  0.9297 -1.5423  0.0942
  410TMC3    C7 6180   3.961   0.536  17.019  0.1347  0.9747  0.6283
  410TMC3    C8 6181   4.282   0.367  17.338  0.1361 -0.8057  0.3961
  410TMC3    O1 6182   3.867   0.484  16.958  0.0368 -0.0568  0.6694
  410TMC3    O2 6183   4.360   0.449  17.300 -0.3499  0.0714  0.2099
  411MPD2     C 6184   4.007   1.304  14.920 -0.0140  0.2736 -0.1109
  411MPD2    C1 6185   3.889   1.265  14.971  0.5721 -0.6299 -0.1304
  411MPD2    C2 6186   3.862   1.132  14.971 -0.5650  0.3707 -0.3544
  411MPD2    C3 6187   3.932   1.044  14.887  0.4247 -0.1763 -0.4628
  411MPD2    C4 6188   4.050   1.085  14.837 -0.3875  0.8820 -0.2340
  411MPD2    C5 6189   4.089   1.216  14.860 -0.1044  0.5279 -0.0226
  411MPD2     H 6190   3.767   1.100  15.011  1.1554 -2.2664  1.5446
  411MPD2    H1 6191   4.100   1.020  14.766 -1.2520 -0.3190  0.2592
  411MPD2    H2 6192   4.038   1.407  14.913 -0.9854  0.5414 -0.4717
  411MPD2    H3 6193   4.188   1.241  14.823  0.6396 -0.4987  1.2648
  411MPD2     N 6194   3.879   0.928  14.832  0.3894  0.5118 -0.5819
  411MPD2    H5 6195   3.944   0.867  14.783  0.9797 -0.0590  0.9121
  411MPD2    N1 6196   3.795   1.359  15.013 -0.4271  0.4611 -0.5116
  411MPD2    H7 6197   3.810   1.458  14.999 -0.0621  0.0661 -2.9605
  412TMC3    C1 6198   3.718   0.767  14.757 -0.2635 -0.5189  0.4038
  412TMC3    C2 6199   3.592   0.704  14.777 -0.6121 -0.1195 -1.0162
  412TMC3    C3 6200   3.581   0.579  14.732  0.1417  0.5008  0.0068
  412TMC3    C4 6201   3.823   0.707  14.691 -0.0613 -0.6777  0.4914
  412TMC3    C5 6202   3.794   0.589  14.630 -0.2356  0.4463 -0.2179
  412TMC3    C6 6203   3.679   0.521  14.657  0.0728 -0.1514 -0.4422
  412TMC3     C 6204   3.749   0.891  14.842  0.6821 -0.4653  0.2137
  412TMC3     O 6205   3.673   0.922  14.930  0.1169  0.2165 -0.5926
  412TMC3     H 6206   3.514   0.751  14.835  0.1071  0.4155 -0.4721
  412TMC3    H1 6207   3.909   0.764  14.657  0.4300 -0.6244  1.8337
  412TMC3    H2 6208   3.661   0.421  14.619  1.3609  0.0564 -1.6128
  412TMC3    C7 6209   3.917   0.515  14.591  0.0906 -0.3956 -0.1866
  412TMC3    C8 6210   3.448   0.568  14.668  0.1588  0.4508  0.3156
  412TMC3    O1 6211   4.018   0.551  14.651  0.1062 -0.2970  0.2727
  412TMC3    O2 6212   3.373   0.663  14.693  0.2688  0.1408  0.1787
  413MPD2     C 6213   0.565   4.135  15.758 -0.4133  0.2463  0.8100
  413MPD2    C1 6214   0.506   4.027  15.704 -0.2573 -0.3572 -0.1000
  413MPD2    C2 6215   0.585   3.919  15.664  0.1043  0.5298  0.0008
  413MPD2    C3 6216   0.721   3.923  15.666 -0.3260  0.2689 -0.3227
  413MPD2    C4 6217   0.780   4.037  15.720 -0.1488  0.2915  0.4739
  413MPD2    C5 6218   0.703   4.142  15.760 -0.2908  0.4749 -0.7987
  413MPD2     H 6219   0.541   3.834  15.614  1.9542  0.0083 -0.7404
  413MPD2    H1 6220   0.888   4.049  15.719  0.1202 -2.2632  0.2613
  413MPD2    H2 6221   0.505   4.219  15.791 -1.2868 -0.7484  1.7716
  413MPD2    H3 6222   0.758   4.231  15.789 -0.1679 -0.4723  1.8771
  413MPD2     N 6223   0.795   3.815  15.619 -0.8981  0.0263 -0.4488
  413MPD2    H5 6224   0.744   3.733  15.587  0.4244 -1.1404  0.4055
  413MPD2    N1 6225   0.364   4.030  15.685 -0.2370  0.2321 -0.4270
  413MPD2    H7 6226   0.320   4.115  15.720  1.2850  0.2634  1.4004
  414TMC3    C1 6227   0.969   3.662  15.579 -0.0299 -0.4074 -0.0183
  414TMC3    C2 6228   1.056   3.597  15.660  0.3494 -0.0539 -0.2322
  414TMC3    C3 6229   1.058   3.458  15.662 -0.0052  0.0802 -0.1132
  414TMC3    C4 6230   0.892   3.597  15.486  0.6498  0.0877 -0.5539
  414TMC3    C5 6231   0.895   3.463  15.486  0.2708  0.5364  0.5797
  414TMC3    C6 6232   0.972   3.389  15.577 -0.4813  0.7330 -0.0538
  414TMC3     C 6233   0.927   3.791  15.630 -0.0311 -0.8853 -0.2085
  414TMC3     O 6234   1.012   3.852  15.689  0.3351 -0.6470 -0.6284
  414TMC3     H 6235   1.122   3.658  15.720  0.3913  0.1497 -0.4870
  414TMC3    H1 6236   0.832   3.643  15.408 -0.4407  1.3814  1.0272
  414TMC3    H2 6237   0.968   3.281  15.585  2.6165  0.6145 -0.0212
  414TMC3    C7 6238   0.803   3.392  15.395  0.0693  0.6146 -0.1908
  414TMC3    C8 6239   1.168   3.373  15.722 -1.5612  0.2918  0.7819
  414TMC3    O1 6240   0.687   3.373  15.424 -0.1528  0.0881  0.3431
  414TMC3    O2 6241   1.177   3.256  15.694  0.4006 -0.7067 -1.0189
  415TMC3    C1 6242   0.397   2.375  10.752  0.5280  0.7189 -0.4733
  415TMC3    C2 6243   0.501   2.410  10.671  1.1761 -0.7055  0.2218
  415TMC3    C3 6244   0.486   2.372  10.538  0.7740  0.4856  0.0266
  415TMC3    C4 6245   0.281   2.305  10.708 -1.1167  0.0544  0.0409
  415TMC3    C5 6246   0.275   2.265  10.578 -0.3907 -0.3413 -0.0159
  415TMC3    C6 6247   0.373   2.308  10.496 -0.9587  0.5549 -0.0979
  415TMC3     C 6248   0.430   2.335  10.882  0.5200 -0.3167 -0.2789
  415TMC3     O 6249   0.402   2.218  10.912  0.3212  0.2538 -0.2919
  415TMC3     H 6250   0.603   2.428  10.703  0.8168 -1.2193  1.6465
  415TMC3    H1 6251   0.199   2.283  10.776 -0.9333 -1.6936 -0.3107
  415TMC3    H2 6252   0.352   2.284  10.392  0.9606 -0.2205 -0.2936
  415TMC3    C7 6253   0.223   2.133  10.543 -0.2003  0.5345  0.3303
  415TMC3    C8 6254   0.589   2.370  10.438 -0.2698  0.3752  0.3123
  415TMC3    O1 6255   0.192   2.117  10.427  0.0499 -0.0944  0.1687
  415TMC3    O2 6256   0.572   2.294  10.347 -0.2082  0.1391 -0.3015
  416MPD2     C 6257   2.753   0.578  11.808  0.0499 -0.1863 -0.2367
  416MPD2    C1 6258   2.655   0.623  11.729  0.0742 -0.0286  0.5855
  416MPD2    C2 6259   2.624   0.560  11.605  0.3441  0.2490 -0.3462
  416MPD2    C3 6260   2.699   0.456  11.563  0.0698 -0.4331 -1.0710
  416MPD2    C4 6261   2.804   0.416  11.630  0.2636 -0.0202 -0.5771
  416MPD2    C5 6262   2.828   0.472  11.755  0.2448 -0.4097 -0.2541
  416MPD2     H 6263   2.544   0.603  11.546  1.7696  2.8947 -0.3519
  416MPD2    H1 6264   2.849   0.321  11.605  1.6160  0.3024  0.6056
  416MPD2    H2 6265   2.775   0.617  11.907 -2.5307 -0.4367  0.4287
  416MPD2    H3 6266   2.906   0.433  11.820  0.5412  1.0455  0.2685
  416MPD2     N 6267   2.662   0.373  11.449  0.9263  0.1817  0.7287
  416MPD2    H5 6268   2.724   0.293  11.442 -0.5244 -0.9193  0.5101
  416MPD2    N1 6269   2.576   0.729  11.779 -0.1881  0.1577 -0.2269
  416MPD2    H7 6270   2.601   0.752  11.874  0.2724 -2.0379  0.1821
  417TMC3    C1 6271   2.400   0.885  11.816  0.9250  0.6370 -0.9703
  417TMC3    C2 6272   2.411   0.868  11.954 -0.3854 -0.5837  0.0977
  417TMC3    C3 6273   2.340   0.955  12.039 -0.2736  0.5948  0.3506
  417TMC3    C4 6274   2.310   0.971  11.771  0.3181 -1.0018 -0.3092
  417TMC3    C5 6275   2.235   1.047  11.854 -0.0550 -0.3585  0.2906
  417TMC3    C6 6276   2.251   1.042  11.985 -0.6582 -0.0400  0.6076
  417TMC3     C 6277   2.482   0.812  11.719  0.2960  0.7028  0.0894
  417TMC3     O 6278   2.452   0.830  11.598  0.8700 -0.7539  0.5161
  417TMC3     H 6279   2.463   0.789  12.007 -0.3294 -1.8292 -1.8061
  417TMC3    H1 6280   2.280   0.967  11.667  0.5228 -1.5238 -0.3487
  417TMC3    H2 6281   2.192   1.113  12.043  0.0451 -1.1026  2.6204
  417TMC3    C7 6282   2.150   1.143  11.785  0.1430  0.1821  0.3279
  417TMC3    C8 6283   2.335   0.943  12.182 -0.0132  0.3204 -0.4340
  417TMC3    O1 6284   2.186   1.199  11.683 -0.3629  0.5911 -0.3013
  417TMC3    O2 6285   2.229   0.973  12.236  0.4553  0.1332  0.1232
  418TMC3    C1 6286   2.539   2.121   0.945 -0.5382  0.0622 -0.3050
  418TMC3    C2 6287   2.466   2.209   0.872  0.3585 -1.0791 -0.8658
  418TMC3    C3 6288   2.329   2.208   0.885  0.3894 -0.6119  0.1821
  418TMC3    C4 6289   2.486   2.038   1.039  0.0524 -0.1552  0.2322
  418TMC3    C5 6290   2.352   2.047   1.059  0.0560 -0.7286  0.3342
  418TMC3    C6 6291   2.274   2.121   0.972  0.3020 -0.0704 -0.2156
  418TMC3     C 6292   2.675   2.094   0.893 -0.4702  0.7028  0.9683
  418TMC3     O 6293   2.733   2.175   0.819 -0.6626  0.4046  1.0144
  418TMC3     H 6294   2.506   2.271   0.793  1.3196 -0.1074  0.3778
  418TMC3    H1 6295   2.548   1.980   1.106  0.3496 -0.2461 -0.1242
  418TMC3    H2 6296   2.167   2.124   0.986  0.3747  0.6223  0.1961
  418TMC3    C7 6297   2.298   1.971   1.172  1.1458 -0.5769 -0.0014
  418TMC3    C8 6298   2.245   2.277   0.789  0.1681 -0.7266 -0.2385
  418TMC3    O1 6299   2.361   1.878   1.219 -0.3591 -0.2378 -0.2329
  418TMC3    O2 6300   2.261   2.394   0.762  0.1030 -0.4037  0.8137
  419MPD2     C 6301   0.177   1.194  12.629  0.2777  0.3526 -0.4673
  419MPD2    C1 6302   0.082   1.096  12.604 -0.6749  0.6986  0.5906
  419MPD2    C2 6303   0.022   1.034  12.712 -0.5688  0.1110  0.7027
  419MPD2    C3 6304   0.063   1.069  12.846  0.6342 -0.3508 -0.1270
  419MPD2    C4 6305   0.153   1.171  12.865 -0.2452 -0.2500 -0.2916
  419MPD2    C5 6306   0.211   1.230  12.758 -0.4304  0.1887  0.0155
  419MPD2     H 6307   4.691   0.953  12.694  1.9102 -1.9724  0.2995
  419MPD2    H1 6308   0.172   1.210  12.965  1.1397  0.0353 -0.6777
  419MPD2    H2 6309   0.222   1.242  12.543  1.0447  0.6855  0.1258
  419MPD2    H3 6310   0.270   1.320  12.774 -1.3700  0.4450  2.0822
  419MPD2     N 6311   0.008   1.014  12.959  0.4157  0.2965  0.1087
  419MPD2    H5 6312   0.043   1.049  13.048 -2.1120  1.7542  0.5406
  419MPD2    N1 6313   0.051   1.048  12.475  0.2071 -0.4241 -0.1256
  419MPD2    H7 6314   4.705   0.994  12.465 -0.4190  0.3239  1.1312
  420TMC3    C1 6315   4.604   0.889  13.084  0.0262  0.1686  0.3783
  420TMC3    C2 6316   4.472   0.887  13.107 -0.2317 -0.1568 -0.0603
  420TMC3    C3 6317   4.417   0.887  13.234  0.0688  0.4739 -1.1256
  420TMC3    C4 6318   4.691   0.911  13.187 -0.1399  0.5860 -0.1746
  420TMC3    C5 6319   4.639   0.899  13.318 -0.2978  0.4787  0.1663
  420TMC3    C6 6320   4.503   0.887  13.342  0.1352  0.2190  0.3084
  420TMC3     C 6321   4.639   0.925  12.954  0.2377 -0.2542  0.5957
  420TMC3     O 6322   4.560   0.904  12.864 -0.0897 -0.0361 -0.2700
  420TMC3     H 6323   4.407   0.865  13.023  0.7673 -1.8862 -0.3787
  420TMC3    H1 6324   0.059   0.919  13.176 -0.0206 -1.3897 -0.6027
  420TMC3    H2 6325   4.456   0.889  13.440  1.1160  3.0279  0.7088
  420TMC3    C7 6326   4.715   0.912  13.444 -0.0046 -0.0883 -0.7047
  420TMC3    C8 6327   4.281   0.948  13.247  0.7802  0.0639 -0.2443
  420TMC3    O1 6328   4.652   0.937  13.547  0.0997 -0.7950 -0.3486
  420TMC3    O2 6329   4.243   1.020  13.154 -0.0009  0.1413 -0.2554
  421TMC3    C1 6330   1.349   2.410  13.989 -0.1270  0.1823 -0.8600
  421TMC3    C2 6331   1.405   2.520  14.049 -0.1332 -0.1594  0.5751
  421TMC3    C3 6332   1.534   2.521  14.065  0.4158  0.4205  0.3981
  421TMC3    C4 6333   1.425   2.303  13.941  0.1546  0.0026 -1.1857
  421TMC3    C5 6334   1.563   2.309  13.964 -0.6994 -0.6440  0.3217
  421TMC3    C6 6335   1.625   2.417  14.018  0.2633 -1.1360  0.1947
  421TMC3     C 6336   1.219   2.440  13.928 -0.2062  0.1443  0.5713
  421TMC3     O 6337   1.174   2.551  13.948  0.3033 -0.4450 -0.4527
  421TMC3     H 6338   1.347   2.606  14.079 -0.2418 -0.0248 -0.0108
  421TMC3    H1 6339   1.379   2.220  13.888  1.4862 -1.2516 -0.3537
  421TMC3    H2 6340   1.731   2.415  14.039  0.2504  0.2800  0.4114
  421TMC3    C7 6341   1.635   2.186  13.999  0.6408 -0.3673  0.2650
  421TMC3    C8 6342   1.603   2.643  14.105  0.3572 -0.4171  0.6546
  421TMC3    O1 6343   1.757   2.196  14.017  0.5892  0.3434 -0.4329
  421TMC3    O2 6344   1.711   2.626  14.154 -0.1564  0.9651  0.7989
  422TMC3    C1 6345   3.971   3.570  12.639  0.3968  0.5150  0.0610
  422TMC3    C2 6346   3.964   3.629  12.758 -0.0754  0.3964  0.2340
  422TMC3    C3 6347   3.842   3.611  12.821 -0.3531 -1.7622  1.6762
  422TMC3    C4 6348   3.880   3.489  12.580 -0.2727  0.2055  0.5093
  422TMC3    C5 6349   3.767   3.471  12.652 -0.2205 -0.1882 -0.2056
  422TMC3    C6 6350   3.751   3.526  12.780  0.5992 -0.3186  0.1978
  422TMC3     C 6351   4.055   3.655  12.555 -0.1605 -0.3613 -0.0087
  422TMC3     O 6352   4.151   3.710  12.602 -0.0941  0.0085  0.0076
  422TMC3     H 6353   4.041   3.690  12.802 -0.0156 -0.3630  1.1913
  422TMC3    H1 6354   3.896   3.442  12.484 -3.2179 -0.4113  0.3063
  422TMC3    H2 6355   3.665   3.513  12.844  1.2581  2.2465  1.6052
  422TMC3    C7 6356   3.660   3.499  12.564  0.3777 -0.3633 -0.4715
  422TMC3    C8 6357   3.797   3.722  12.901 -0.1484 -0.1024  0.1305
  422TMC3    O1 6358   3.693   3.558  12.460 -0.0923 -0.4272  0.1216
  422TMC3    O2 6359   3.882   3.798  12.950 -0.1091  0.0737 -0.0301
  423MPD2     C 6360   0.360   4.037   0.901  0.0393 -0.5619  0.5618
  423MPD2    C1 6361   0.483   4.071   0.847  0.2166  0.2201  0.4518
  423MPD2    C2 6362   0.523   4.003   0.737 -0.1414 -0.0393  0.4734
  423MPD2    C3 6363   0.442   3.908   0.680 -0.1210 -0.2462  0.4905
  423MPD2    C4 6364   0.313   3.881   0.727 -0.7715 -0.7462 -0.0956
  423MPD2    C5 6365   0.277   3.951   0.831  0.3690 -0.0774  0.5159
  423MPD2     H 6366   0.617   4.030   0.692 -1.1695  3.1100  0.2283
  423MPD2    H1 6367   0.243   3.816   0.677 -0.0135 -1.6158 -0.0319
  423MPD2    H2 6368   0.326   4.083   0.993  2.0534  1.0807  0.4812
  423MPD2    H3 6369   0.176   3.939   0.868  0.2413  0.2547  0.2757
  423MPD2     N 6370   0.481   3.850   0.560  0.0041  1.0283 -0.0840
  423MPD2    H5 6371   0.419   3.782   0.518  2.5540 -0.9886 -0.5503
  423MPD2    N1 6372   0.569   4.164   0.906 -0.1446 -0.0352 -0.1163
  423MPD2    H7 6373   0.662   4.161   0.865 -0.7660 -2.9950 -1.3391
  424TMC3    C1 6374   0.644   4.344   1.042 -0.0697  0.4127  0.7742
  424TMC3    C2 6375   0.756   4.347   0.967  0.2411  0.4429  0.1605
  424TMC3    C3 6376   0.858   4.435   1.016 -0.1903  0.0525  0.2587
  424TMC3    C4 6377   0.622   4.423   1.152  0.3647 -0.4321  0.4356
  424TMC3    C5 6378   0.730   4.505   1.189 -0.2356 -0.8490 -0.5912
  424TMC3    C6 6379   0.850   4.506   1.126  0.5701 -0.0957 -0.4014
  424TMC3     C 6380   0.534   4.255   1.004  0.3203  0.3567  0.1215
  424TMC3     O 6381   0.431   4.280   1.061  0.3145 -0.3124  0.0754
  424TMC3     H 6382   0.779   4.291   0.877  0.9905 -0.4044  0.8762
  424TMC3    H1 6383   0.524   4.424   1.199 -0.4310 -1.7093 -1.1750
  424TMC3    H2 6384   0.938   4.563   1.154  1.2324 -0.8407 -0.9712
  424TMC3    C7 6385   0.718   4.604   1.291 -0.6632 -0.1542 -0.3452
  424TMC3    C8 6386   0.986   4.424   0.962 -0.5286 -0.1647  0.2367
  424TMC3    O1 6387   0.818   4.671   1.302  0.3854  0.5435  0.0306
  424TMC3    O2 6388   1.012   4.308   0.936  0.0170 -0.2226 -0.4597
  425MPD2     C 6389   4.506   3.459  17.704  0.1134 -0.2725 -0.5383
  425MPD2    C1 6390   4.457   3.355   0.018  0.0569  0.5562  0.4950
  425MPD2    C2 6391   4.322   3.351   0.065 -0.0000  0.6732  0.1919
  425MPD2    C3 6392   4.240   3.463   0.034  0.0664  0.4609 -0.4952
  425MPD2    C4 6393   4.297   3.575  17.723 -0.6100  0.0258  0.7867
  425MPD2    C5 6394   4.436   3.578  17.689  0.6042  0.0098  0.8536
  425MPD2     H 6395   4.279   3.257   0.095  0.6817 -0.2072 -1.6091
  425MPD2    H1 6396   4.242   3.666  17.704 -1.7491 -0.6519  0.8418
  425MPD2    H2 6397   4.606   3.445  17.664  0.2515  0.3299 -0.4073
  425MPD2    H3 6398   4.467   3.668  17.638  0.4158 -0.6969 -0.5113
  425MPD2     N 6399   4.101   3.438   0.049  0.4130 -0.0367 -0.6730
  425MPD2    H5 6400   4.071   3.344   0.070  0.5078 -0.1343 -0.9666
  425MPD2    N1 6401   4.542   3.241   0.032 -0.5256  0.2417 -0.4277
  425MPD2    H7 6402   4.620   3.240  17.723  0.3785  0.1863  0.6808
  426TMC3    C1 6403   4.600   3.018   0.093 -0.4957 -0.5914 -0.5666
  426TMC3    C2 6404   4.645   3.003  17.720 -0.4818 -0.4387  0.4941
  426TMC3    C3 6405   4.735   2.906  17.703  1.0091  0.0926  0.7368
  426TMC3    C4 6406   4.643   2.937   0.197 -0.4002  0.1707 -0.3779
  426TMC3    C5 6407   0.006   2.852   0.169  0.0951 -0.0541 -0.4674
  426TMC3    C6 6408   0.058   2.839   0.044 -0.5419  0.8887 -0.5502
  426TMC3     C 6409   4.522   3.135   0.120  1.1587 -0.0966 -0.0500
  426TMC3     O 6410   4.482   3.140   0.237  0.2210 -0.0522  0.4057
  426TMC3     H 6411   4.585   3.030  17.634  2.3271  0.3808 -1.1930
  426TMC3    H1 6412   4.616   2.958   0.300 -0.8293 -0.9680 -0.2655
  426TMC3    H2 6413   0.147   2.782   0.022 -0.4473  1.8214 -2.5646
  426TMC3    C7 6414   0.086   2.787   0.274  0.0705 -0.0627 -0.8626
  426TMC3    C8 6415   0.023   2.875  17.564 -0.1108  0.3196 -0.1297
  426TMC3    O1 6416   0.205   2.776   0.256 -0.0053  0.5099  0.2124
  426TMC3    O2 6417   0.042   2.759  17.535  0.0810 -0.3685 -0.4017
  427MPD2     C 6418   2.776   1.160  15.220 -0.4483  0.5268 -0.4891
  427MPD2    C1 6419   2.746   1.135  15.351 -0.0783 -0.7322 -0.0746
  427MPD2    C2 6420   2.610   1.151  15.401 -0.1189 -0.5662 -1.2551
  427MPD2    C3 6421   2.510   1.198  15.308  0.3519  0.1845 -0.2634
  427MPD2    C4 6422   2.543   1.211  15.174 -0.2013 -0.3848  0.7131
  427MPD2    C5 6423   2.674   1.198  15.140  0.0811 -0.2758 -0.1171
  427MPD2     H 6424   2.594   1.157  15.508 -0.2045  0.8556 -1.3472
  427MPD2    H1 6425   2.472   1.234  15.095  0.7879  0.9535  0.2271
  427MPD2    H2 6426   2.877   1.145  15.183  0.3185 -1.5382  2.4773
  427MPD2    H3 6427   2.693   1.214  15.034 -0.2784 -0.0870 -0.1544
  427MPD2     N 6428   2.380   1.241  15.338 -0.5098 -0.1794 -0.3313
  427MPD2    H5 6429   2.320   1.265  15.260  1.7098  1.7007 -1.4570
  427MPD2    N1 6430   2.842   1.100  15.444  0.2049  0.1756  0.1706
  427MPD2    H7 6431   2.808   1.098  15.539 -2.0013 -0.0973 -0.6233
  428TMC3    C1 6432   3.041   1.006  15.531  0.1765  0.2043 -0.3987
  428TMC3    C2 6433   2.974   0.901  15.586  0.4008 -0.8093  0.3064
  428TMC3    C3 6434   3.025   0.843  15.702  0.3521 -0.7094 -0.8430
  428TMC3    C4 6435   3.153   1.070  15.589 -0.1668 -0.1338  0.3502
  428TMC3    C5 6436   3.204   1.003  15.696 -0.2054 -0.6071  0.1691
  428TMC3    C6 6437   3.139   0.902  15.757  0.3257 -0.3521 -0.1103
  428TMC3     C 6438   2.972   1.066  15.416 -0.1441 -1.0220  0.0199
  428TMC3     O 6439   3.046   1.080  15.319 -0.0047  0.0520 -0.1868
  428TMC3     H 6440   2.887   0.860  15.536  0.2269  1.7589 -1.4943
  428TMC3    H1 6441   3.195   1.164  15.554 -1.1667  0.6594  1.2776
  428TMC3    H2 6442   3.195   0.865  15.842  2.8662  0.7799 -1.2899
  428TMC3    C7 6443   3.335   1.044  15.753  0.0259  0.6389 -0.1660
  428TMC3    C8 6444   2.983   0.716  15.751 -0.2088 -0.0489  0.0026
  428TMC3    O1 6445   3.357   1.012  15.866  0.8669 -0.1123 -0.4425
  428TMC3    O2 6446   2.928   0.641  15.677  0.2756 -0.7361 -0.2595
  429MPD2     C 6447   4.467   0.713   0.135  0.6839  0.3169 -0.4464
  429MPD2    C1 6448   4.469   0.628   0.024 -0.2506 -0.7122 -0.1604
  429MPD2    C2 6449   4.496   0.672  17.654  0.2344 -1.4117  0.4613
  429MPD2    C3 6450   4.537   0.807  17.643 -0.3288  0.2278 -0.6059
  429MPD2    C4 6451   4.544   0.891  17.752 -0.6044 -0.4101 -0.5032
  429MPD2    C5 6452   4.498   0.845   0.115  0.4823  0.4975  0.0913
  429MPD2     H 6453   4.481   0.603  17.571 -1.0501  1.1996 -1.4835
  429MPD2    H1 6454   4.576   0.994  17.742 -0.8897 -0.6424 -3.8031
  429MPD2    H2 6455   4.436   0.677   0.233 -2.9705  0.5668 -1.5210
  429MPD2    H3 6456   4.501   0.911   0.202 -0.7400  1.2182 -0.4189
  429MPD2     N 6457   4.575   0.840  17.511  0.1363  0.1130 -0.4930
  429MPD2    H5 6458   4.537   0.778  17.440 -0.9729  0.3904 -0.1384
  429MPD2    N1 6459   4.441   0.489   0.041 -0.1140  0.2993  0.4098
  429MPD2    H7 6460   4.444   0.420  17.722 -2.3734 -0.0663  0.6793
  430TMC3    C1 6461   4.675   0.946  17.321  0.2591 -0.5866  0.0641
  430TMC3    C2 6462   4.679   1.063  17.256  0.9254  0.5289 -0.1453
  430TMC3    C3 6463   4.677   1.063  17.122  0.1989 -0.2969  0.3342
  430TMC3    C4 6464   4.672   0.829  17.255 -0.0993  0.1004  0.2497
  430TMC3    C5 6465   4.657   0.828  17.118 -0.4046  0.0065 -0.0096
  430TMC3    C6 6466   4.650   0.946  17.053  0.4964 -1.1762 -0.4939
  430TMC3     C 6467   4.651   0.945  17.468  1.6779 -0.8474 -0.5339
  430TMC3     O 6468   4.678   1.045  17.530  0.2658 -0.4455  0.7853
  430TMC3     H 6469   4.722   1.152  17.303  1.0042 -0.4416  1.6273
  430TMC3    H1 6470   4.641   0.735  17.301  0.2024 -1.3644 -2.5625
  430TMC3    H2 6471   4.637   0.956  16.946 -2.2293 -0.6701 -0.1353
  430TMC3    C7 6472   4.591   0.717  17.062  0.1902 -0.0504  0.2470
  430TMC3    C8 6473   4.647   1.187  17.046 -0.1469 -0.6520 -0.3647
  430TMC3    O1 6474   4.626   0.603  17.087  0.8625 -0.4350  0.5117
  430TMC3    O2 6475   4.630   1.174  16.926 -0.5944  0.3283  0.1868
  431MPD2     C 6476   4.348   1.095  12.810 -0.4913 -0.2506 -0.5949
  431MPD2    C1 6477   4.378   1.213  12.748 -0.4750 -0.0756  0.0166
  431MPD2    C2 6478   4.380   1.220  12.612  0.2719 -0.1828  0.8768
  431MPD2    C3 6479   4.351   1.112  12.537 -0.0597  0.2470 -0.9395
  431MPD2    C4 6480   4.314   0.995  12.599  0.0358 -0.5297 -0.4050
  431MPD2    C5 6481   4.305   0.987  12.737  0.4186  0.2225 -0.5799
  431MPD2     H 6482   4.410   1.306  12.553 -2.0497  0.2058  0.2837
  431MPD2    H1 6483   4.281   0.913  12.538  1.2631 -2.0100  0.9271
  431MPD2    H2 6484   4.339   1.088  12.918 -0.9311 -0.8011 -0.6678
  431MPD2    H3 6485   4.259   0.899  12.781 -0.7413  1.7095  1.1846
  431MPD2     N 6486   4.366   1.103  12.397 -0.7384  0.1406  0.0258
  431MPD2    H5 6487   4.382   1.008  12.365 -0.2853 -0.1401  1.0910
  431MPD2    N1 6488   4.420   1.330  12.821  0.2833 -0.3394 -0.4505
  431MPD2    H7 6489   4.438   1.405  12.755  0.1549  0.5846  0.5621
  432TMC3    C1 6490   4.510   1.172  12.224  0.3442 -0.3214  0.2799
  432TMC3    C2 6491   4.540   1.269  12.131 -0.7461  0.5450  0.3867
  432TMC3    C3 6492   4.672   1.283  12.107  0.1002  0.4914  0.2933
  432TMC3    C4 6493   4.603   1.089  12.292  0.9119 -0.2176  1.0109
  432TMC3    C5 6494   4.735   1.105  12.253 -0.1988 -0.2349 -0.7334
  432TMC3    C6 6495   0.027   1.197  12.160 -0.0515 -0.0625 -0.4142
  432TMC3     C 6496   4.405   1.207  12.318  0.2411  0.5682  0.4988
  432TMC3     O 6497   4.376   1.325  12.320  0.1896  0.2442 -0.3318
  432TMC3     H 6498   4.469   1.346  12.104 -0.1817  0.8183 -0.2978
  432TMC3    H1 6499   4.575   1.014  12.365  0.9552  0.4889  1.7565
  432TMC3    H2 6500   0.130   1.216  12.133 -0.8602  1.5325 -2.3719
  432TMC3    C7 6501   0.098   1.100  12.353  0.0546 -0.4590 -0.8105
  432TMC3    C8 6502   4.716   1.416  12.125  0.8055 -1.0654 -0.2105
  432TMC3    O1 6503   0.194   1.172  12.336 -0.1116  0.4815 -0.1910
  432TMC3    O2 6504   4.644   1.510  12.090 -0.3745 -0.2193  0.0540
  433MPD2     C 6505   3.279   0.159  11.025  0.3932 -0.4045  0.1469
  433MPD2    C1 6506   3.387   0.074  11.042 -0.4831 -0.4239 -0.8222
  433MPD2    C2 6507   3.506   0.135  11.084 -0.0841  0.2820  0.6772
  433MPD2    C3 6508   3.514   0.275  11.109 -0.8514  0.8924 -0.3188
  433MPD2    C4 6509   3.402   0.353  11.097 -0.3714 -0.1674 -0.6071
  433MPD2    C5 6510   3.288   0.290  11.051 -0.1213  0.1628 -0.0373
  433MPD2     H 6511   3.600   0.082  11.092 -0.1985 -0.2345 -1.4931
  433MPD2    H1 6512   3.410   0.460  11.112 -2.5771  0.1685 -1.6859
  433MPD2    H2 6513   3.184   0.127  10.984  0.4784 -1.1135  0.4953
  433MPD2    H3 6514   3.195   0.344  11.036 -0.5000 -1.2847 -2.8665
  433MPD2     N 6515   3.639   0.317  11.168 -0.6328  0.1095  0.6256
  433MPD2    H5 6516   3.708   0.245  11.186  1.9039  2.8684  1.9561
  433MPD2    N1 6517   3.379   4.677  11.016  0.8562 -0.9660 -0.2653
  433MPD2    H7 6518   3.300   4.645  10.961  0.1417  1.2165 -0.4902
  434TMC3    C1 6519   3.490   4.468  10.976  0.4959 -0.3673  0.2757
  434TMC3    C2 6520   3.604   4.402  10.978  0.1293 -0.5434 -0.0568
  434TMC3    C3 6521   3.609   4.273  10.941 -0.4780 -0.1698  0.2926
  434TMC3    C4 6522   3.374   4.409  10.916  0.1517 -0.1696  0.3300
  434TMC3    C5 6523   3.377   4.275  10.893 -0.0405 -0.2627  0.3253
  434TMC3    C6 6524   3.492   4.211  10.901 -0.2685 -0.7144 -0.1523
  434TMC3     C 6525   3.482   4.592  11.045  0.3176 -0.1308  0.5088
  434TMC3     O 6526   3.558   4.601  11.143  0.1169 -0.1556 -0.0886
  434TMC3     H 6527   3.694   4.444  11.023  1.0689 -2.8767  0.2377
  434TMC3    H1 6528   3.277   4.458  10.910  0.6652  0.6095 -1.4101
  434TMC3    H2 6529   3.493   4.109  10.863 -0.0058  0.3414 -2.9425
  434TMC3    C7 6530   3.250   4.212  10.850  0.1991  0.4712 -0.1077
  434TMC3    C8 6531   3.722   4.202  10.993  0.8159 -0.9040  0.4586
  434TMC3    O1 6532   3.182   4.282  10.779  0.3362 -0.2171 -0.1418
  434TMC3    O2 6533   3.822   4.272  11.006 -0.1678 -0.4478 -0.0261
  435MPD2     C 6534   0.888   4.573  15.768  0.4574  0.3512  0.5049
  435MPD2    C1 6535   0.855   4.517  15.889 -0.2433  0.2059  0.4716
  435MPD2    C2 6536   0.951   4.453  15.966 -0.3285  0.3179  0.2323
  435MPD2    C3 6537   1.084   4.441  15.919  0.3838 -0.8246  0.8019
  435MPD2    C4 6538   1.113   4.491  15.794  0.3183 -0.3230  0.5900
  435MPD2    C5 6539   1.014   4.560  15.723  0.1684  0.4504 -0.0766
  435MPD2     H 6540   0.932   4.408  16.062  0.9967  1.3378  0.9772
  435MPD2    H1 6541   1.206   4.475  15.741 -1.8675 -1.1749 -2.9811
  435MPD2    H2 6542   0.826   4.644  15.714  3.0551  0.9906 -1.6404
  435MPD2    H3 6543   1.049   4.605  15.631  1.2611  1.1414  0.6825
  435MPD2     N 6544   1.176   4.367  16.000  0.0577  0.2028  0.3696
  435MPD2    H5 6545   1.155   4.357  16.099  0.0860 -2.6040  0.0687
  435MPD2    N1 6546   0.722   4.508  15.941 -0.5267  0.2953 -0.2235
  435MPD2    H7 6547   0.706   4.452  16.024 -0.1555  0.1570 -0.2421
  436TMC3    C1 6548   0.379   4.361  16.080  0.2673  0.4545  0.2151
  436TMC3    C2 6549   0.489   4.437  16.052 -0.7220  0.0935 -0.2385
  436TMC3    C3 6550   0.484   4.511  15.936  0.1876 -0.1290 -0.6402
  436TMC3    C4 6551   0.262   4.371  16.007 -0.3461  0.0950  0.0581
  436TMC3    C5 6552   0.264   4.450  15.898  0.2294  0.3509 -0.0422
  436TMC3    C6 6553   0.372   4.526  15.863  0.5924 -0.1135  0.0851
  436TMC3     C 6554   0.362   4.324  16.220 -0.8183  0.0276 -0.6632
  436TMC3     O 6555   0.460   4.286  16.284  0.1361  0.2480 -0.2074
  436TMC3     H 6556   0.577   4.435  16.114 -1.3218  1.0650  0.6517
  436TMC3    H1 6557   0.183   4.299  16.025 -1.6970  1.3148 -0.9615
  436TMC3    H2 6558   0.375   4.573  15.765 -1.8713  0.3172  0.2208
  436TMC3    C7 6559   0.208   4.383  15.784 -0.5124  0.3131  0.4234
  436TMC3    C8 6560   0.610   4.554  15.872  0.2390  0.5267  0.2087
  436TMC3    O1 6561   0.249   4.268  15.770 -0.5291  0.7591  0.5272
  436TMC3    O2 6562   0.606   4.588  15.755  0.1299  0.8883  0.2244
  437TMC3    C1 6563   3.879   1.815  13.213  0.5910  0.1067  0.2006
  437TMC3    C2 6564   3.785   1.908  13.255  0.5166  0.3782  0.0185
  437TMC3    C3 6565   3.742   1.997  13.154  0.6039  0.1362  0.0776
  437TMC3    C4 6566   3.924   1.811  13.084  0.7347  0.2770  0.1337
  437TMC3    C5 6567   3.876   1.904  12.990 -0.5035  0.0651  0.5345
  437TMC3    C6 6568   3.784   1.994  13.024 -0.2144 -0.3872 -0.0905
  437TMC3     C 6569   3.917   1.702  13.292 -0.0412 -0.1191 -0.0433
  437TMC3     O 6570   4.002   1.625  13.248 -0.2079 -0.0958  0.8631
  437TMC3     H 6571   3.742   1.909  13.354  1.0714 -1.1540  0.2699
  437TMC3    H1 6572   4.005   1.747  13.051  2.2713  3.3316 -2.0655
  437TMC3    H2 6573   3.754   2.069  12.952  0.6469 -0.8969 -0.9751
  437TMC3    C7 6574   3.958   1.937  12.872 -0.8419 -0.5781  0.1214
  437TMC3    C8 6575   3.669   2.110  13.209 -0.7102 -0.3540 -0.3659
  437TMC3    O1 6576   3.906   1.993  12.775 -0.9469 -0.0822 -0.5156
  437TMC3    O2 6577   3.681   2.133  13.326  0.2026 -0.0700 -0.5456
  438MPD2     C 6578   1.985   2.565  17.375  0.5132  1.0644 -0.5468
  438MPD2    C1 6579   2.070   2.447  17.396  0.0426  0.1570  0.4982
  438MPD2    C2 6580   2.099   2.406  17.526 -0.6660  0.3526 -0.3834
  438MPD2    C3 6581   2.039   2.471  17.633 -0.3299 -1.1883 -0.3402
  438MPD2    C4 6582   1.955   2.576  17.610  0.9719  0.5357 -0.4027
  438MPD2    C5 6583   1.937   2.628  17.485 -0.1535 -0.0246 -0.0927
  438MPD2     H 6584   2.172   2.327  17.542  0.5345  1.0926 -2.2318
  438MPD2    H1 6585   1.920   2.628  17.698  1.0968 -0.2028  0.0829
  438MPD2    H2 6586   1.946   2.611  17.285 -1.4040 -1.9842 -1.2741
  438MPD2    H3 6587   1.883   2.720  17.464  0.2409  0.0890 -0.6343
  438MPD2     N 6588   2.071   2.441   0.016 -0.1445  0.5185 -0.1638
  438MPD2    H5 6589   2.029   2.496   0.090  0.6182  1.6825 -0.6104
  438MPD2    N1 6590   2.131   2.371  17.293 -0.7387  0.5258  0.5179
  438MPD2    H7 6591   2.177   2.284  17.321 -1.3753 -0.2303 -0.7621
  439TMC3    C1 6592   2.226   2.312  17.087  0.6151 -0.5468  0.3183
  439TMC3    C2 6593   2.207   2.314  16.954 -0.4124 -0.4404 -0.3369
  439TMC3    C3 6594   2.228   2.204  16.878  0.7092  0.3173 -0.5103
  439TMC3    C4 6595   2.261   2.199  17.152 -0.2143 -0.0741 -0.4726
  439TMC3    C5 6596   2.284   2.091  17.073 -0.5531  0.0509  0.5535
  439TMC3    C6 6597   2.254   2.083  16.933  0.2461  0.5868 -0.1604
  439TMC3     C 6598   2.155   2.416  17.164 -0.0064  0.5518  0.0733
  439TMC3     O 6599   2.115   2.518  17.108  0.1568  0.0692  0.0752
  439TMC3     H 6600   2.168   2.405  16.911  1.4219  0.2958 -0.4259
  439TMC3    H1 6601   2.255   2.182  17.259  0.0478  1.8359 -0.1599
  439TMC3    H2 6602   2.286   1.993  16.882 -1.5993  0.5868 -1.3095
  439TMC3    C7 6603   2.343   1.983  17.149 -0.5117  0.5626 -0.5314
  439TMC3    C8 6604   2.260   2.206  16.736  0.2536 -1.1234 -0.1196
  439TMC3    O1 6605   2.439   2.007  17.219  0.0015 -0.3241 -0.0243
  439TMC3    O2 6606   2.340   2.118  16.699  0.0929  0.3752  0.1092
  440MPD2     C 6607   1.236   2.960  15.087 -0.8862  0.2149  0.1214
  440MPD2    C1 6608   1.197   2.954  15.219  0.0102  0.1071  0.0694
  440MPD2    C2 6609   1.299   2.953  15.315  0.3790  0.2152  0.9290
  440MPD2    C3 6610   1.433   2.962  15.277 -0.3535  0.0860 -0.2834
  440MPD2    C4 6611   1.469   2.984  15.144 -0.1726  0.2969  0.5891
  440MPD2    C5 6612   1.365   2.965  15.052 -0.3596  0.1794  0.3214
  440MPD2     H 6613   1.277   2.932  15.419 -0.1869  1.6039  1.0780
  440MPD2    H1 6614   1.572   3.000  15.116 -0.1365 -0.1722  0.4569
  440MPD2    H2 6615   1.157   2.943  15.015 -0.6105  1.6905 -0.5197
  440MPD2    H3 6616   1.380   2.968  14.945  0.4330 -0.9571  0.3996
  440MPD2     N 6617   1.525   2.936  15.383  0.3288  0.4205 -0.4152
  440MPD2    H5 6618   1.485   2.936  15.477  2.4831  1.2768  0.4965
  440MPD2    N1 6619   1.064   2.958  15.266  0.5349  0.2135 -0.0756
  440MPD2    H7 6620   1.057   2.967  15.367 -2.4133  1.1775 -0.3896
  441TMC3    C1 6621   1.711   2.911  15.497  0.2666  0.4070  0.6854
  441TMC3    C2 6622   1.778   3.010  15.564 -0.1523 -0.2474 -0.8419
  441TMC3    C3 6623   1.774   3.002  15.699 -0.4701  0.1566  0.2877
  441TMC3    C4 6624   1.653   2.805  15.561  0.0450 -0.9176  0.3337
  441TMC3    C5 6625   1.658   2.798  15.695  0.1599 -0.2937  0.7614
  441TMC3    C6 6626   1.715   2.897  15.760 -0.2561 -0.5879 -0.5596
  441TMC3     C 6627   1.660   2.938  15.366  0.6470 -0.2569  0.5923
  441TMC3     O 6628   1.728   2.982  15.273  0.4762  0.4224  0.0308
  441TMC3     H 6629   1.814   3.103  15.524  2.0872 -1.0467 -0.6434
  441TMC3    H1 6630   1.594   2.731  15.509 -0.3186 -0.3879 -0.0131
  441TMC3    H2 6631   1.701   2.904  15.868 -2.1053  0.6395 -0.8707
  441TMC3    C7 6632   1.570   2.717  15.769  0.6677  0.1649 -0.1877
  441TMC3    C8 6633   1.757   3.121  15.775  0.3028 -0.0083  0.5836
  441TMC3    O1 6634   1.482   2.663  15.704 -0.4249  0.3743 -0.1099
  441TMC3    O2 6635   1.856   3.176  15.825  0.2755  0.1181 -0.3472
  442MPD2     C 6636   4.479   2.835  17.299  0.1233  0.2086  0.0903
  442MPD2    C1 6637   4.413   2.905  17.199 -0.4947  0.1548 -0.0212
  442MPD2    C2 6638   4.351   2.842  17.094 -0.0253 -0.7729  0.2224
  442MPD2    C3 6639   4.354   2.704  17.083 -0.3801  0.5641  0.1967
  442MPD2    C4 6640   4.422   2.637  17.181  0.3154  0.9276  0.1911
  442MPD2    C5 6641   4.491   2.703  17.281 -0.3483 -0.4746  0.2562
  442MPD2     H 6642   4.273   2.887  17.034 -0.2141 -1.5258 -0.1048
  442MPD2    H1 6643   4.439   2.530  17.170 -0.7333  0.8687 -0.9017
  442MPD2    H2 6644   4.537   2.887  17.374 -1.1654  0.8902  0.6196
  442MPD2    H3 6645   4.568   2.656  17.342  0.9457  0.2055 -0.8589
  442MPD2     N 6646   4.276   2.625  16.987 -0.0654 -0.3082  0.2152
  442MPD2    H5 6647   4.274   2.524  16.991 -0.2512 -0.2844  0.6947
  442MPD2    N1 6648   4.393   3.043  17.211 -0.9142 -0.4081  0.1973
  442MPD2    H7 6649   4.355   3.088  17.129  0.1849  0.6167  0.2608
  443TMC3    C1 6650   4.385   3.257  17.317  0.8206 -0.5101  0.1204
  443TMC3    C2 6651   4.409   3.316  17.196  0.3235  0.5883  0.1186
  443TMC3    C3 6652   4.336   3.427  17.161 -0.0927 -0.9668  0.6453
  443TMC3    C4 6653   4.291   3.311  17.409  0.4800 -0.0724 -0.0558
  443TMC3    C5 6654   4.222   3.424  17.370  0.2744  0.3886  0.2691
  443TMC3    C6 6655   4.251   3.484  17.250 -0.6166 -0.1983 -0.5737
  443TMC3     C 6656   4.413   3.109  17.328  0.5242 -0.6625 -0.5115
  443TMC3     O 6657   4.419   3.076  17.444 -0.0299  0.3977 -0.3658
  443TMC3     H 6658   4.479   3.264  17.132  0.8609  0.2560  0.9752
  443TMC3    H1 6659   4.272   3.250  17.496 -0.7463  0.4728  0.0550
  443TMC3    H2 6660   4.196   3.571  17.215 -1.9774  0.5779  3.4636
  443TMC3    C7 6661   4.082   3.421  17.421 -0.0906 -0.8843 -0.2910
  443TMC3    C8 6662   4.330   3.471  17.019  0.0064  0.5773  0.2953
  443TMC3    O1 6663   4.049   3.320  17.479  0.2801 -0.9374  1.0522
  443TMC3    O2 6664   4.221   3.516  16.971 -0.9438 -0.4957  0.2010
  444MPD2     C 6665   4.287   2.379  17.351  0.9171 -0.5832 -0.4811
  444MPD2    C1 6666   4.210   2.327  17.251 -0.7589 -0.0874 -0.3409
  444MPD2    C2 6667   4.266   2.249  17.159  0.0993 -0.7891 -0.1260
  444MPD2    C3 6668   4.401   2.214  17.164  0.4004  0.1453  0.4707
  444MPD2    C4 6669   4.478   2.260  17.274 -0.6963 -0.0230  0.2549
  444MPD2    C5 6670   4.419   2.342  17.365  0.3179  0.4579  0.4666
  444MPD2     H 6671   4.194   2.191  17.103 -0.2550 -0.0525 -0.4196
  444MPD2    H1 6672   4.582   2.237  17.287 -0.5775  1.3283  1.7145
  444MPD2    H2 6673   4.250   2.449  17.425 -0.2794 -1.0770 -0.6099
  444MPD2    H3 6674   4.479   2.377  17.448  0.8860 -1.7277  0.9831
  444MPD2     N 6675   4.453   2.126  17.062 -0.2315  0.6527  0.0029
  444MPD2    H5 6676   4.386   2.085  16.998  0.4691 -0.1224 -0.2335
  444MPD2    N1 6677   4.073   2.358  17.236 -0.6795 -0.2033 -0.7078
  444MPD2    H7 6678   4.029   2.306  17.161 -0.4228  0.6767 -1.4657
  445TMC3    C1 6679   4.604   1.989  16.938  0.2203  0.3361  0.4353
  445TMC3    C2 6680   4.506   1.972  16.839 -0.1286  0.3116 -0.0722
  445TMC3    C3 6681   4.530   1.878  16.741  0.4732  0.1690  0.6520
  445TMC3    C4 6682   4.722   1.921  16.927 -0.1639 -0.0020  0.4235
  445TMC3    C5 6683   0.002   1.831  16.827 -0.3281 -0.0588  0.7270
  445TMC3    C6 6684   4.644   1.800  16.733  0.7722 -0.8274 -0.3611
  445TMC3     C 6685   4.579   2.080  17.051  0.0819 -0.2650  0.1307
  445TMC3     O 6686   4.681   2.114  17.116 -0.3266 -1.2002  0.0386
  445TMC3     H 6687   4.408   2.017  16.852 -0.4818  0.2179 -2.3942
  445TMC3    H1 6688   0.051   1.953  17.005  2.4747 -1.6354 -1.1891
  445TMC3    H2 6689   4.659   1.723  16.659 -1.0488 -0.5397 -1.0249
  445TMC3    C7 6690   0.136   1.805  16.784  0.4446 -0.3529 -0.2897
  445TMC3    C8 6691   4.417   1.839  16.656 -0.0998 -0.3545  1.1040
  445TMC3    O1 6692   0.152   1.785  16.666  0.4642  1.0851  0.1488
  445TMC3    O2 6693   4.410   1.721  16.614  0.0878  0.1534 -0.4882
  446MPD2     C 6694   3.497   4.081  11.393 -0.2578  0.4778 -0.0684
  446MPD2    C1 6695   3.447   4.182  11.318 -0.4222 -0.0781 -0.3311
  446MPD2    C2 6696   3.527   4.293  11.295  0.4035 -0.4326 -0.1245
  446MPD2    C3 6697   3.658   4.295  11.336 -0.0591 -0.3644 -0.8280
  446MPD2    C4 6698   3.701   4.194  11.409  0.0987  0.1109 -0.3944
  446MPD2    C5 6699   3.628   4.088  11.438  0.3837 -0.5067 -0.3382
  446MPD2     H 6700   3.489   4.375  11.235  2.1543 -0.1090 -0.7837
  446MPD2    H1 6701   3.803   4.183  11.444  0.1151  0.9590 -0.1863
  446MPD2    H2 6702   3.446   3.986  11.408  0.4924  0.1871  0.5957
  446MPD2    H3 6703   3.681   4.007  11.487 -0.3687 -0.4036  0.6336
  446MPD2     N 6704   3.743   4.403  11.289 -0.1237  0.6318  0.2827
  446MPD2    H5 6705   3.707   4.473  11.225  1.8376  2.2845  0.9926
  446MPD2    N1 6706   3.316   4.183  11.268 -0.2085 -0.3737 -0.1875
  446MPD2    H7 6707   3.283   4.267  11.221 -0.0090  0.1830  0.6634
  447TMC3    C1 6708   3.956   4.490  11.213 -0.0665  0.1580 -0.2703
  447TMC3    C2 6709   3.901   4.585  11.130  0.3406  0.2087  0.0586
  447TMC3    C3 6710   3.989   4.669  11.063 -0.3172  0.3443  0.4881
  447TMC3    C4 6711   4.092   4.485  11.222 -0.4405 -0.0783  0.6982
  447TMC3    C5 6712   4.181   4.566  11.153  0.2141  0.7897 -0.3377
  447TMC3    C6 6713   4.129   4.659  11.063 -0.0093  0.6422  0.0092
  447TMC3     C 6714   3.885   4.399  11.296  0.5895  0.4504  0.5798
  447TMC3     O 6715   3.954   4.341  11.377  0.7005 -0.3369 -0.2179
  447TMC3     H 6716   3.798   4.614  11.145 -0.1508 -0.2418 -2.3730
  447TMC3    H1 6717   4.141   4.423  11.296 -0.0941 -1.3498 -0.6130
  447TMC3    H2 6718   4.186   4.729  11.003 -1.0604  1.4490 -0.0506
  447TMC3    C7 6719   4.310   4.517  11.125  0.4154 -0.1292  0.0374
  447TMC3    C8 6720   3.923   0.045  11.000 -0.6082  0.0855  0.1285
  447TMC3    O1 6721   4.324   4.401  11.155  0.2140  0.1520  0.7031
  447TMC3    O2 6722   3.800   0.042  10.979  0.3107 -0.5413 -0.4024
  448TMC3    C1 6723   2.053   3.886   0.081  0.6292 -0.3297 -0.3525
  448TMC3    C2 6724   2.015   3.763   0.041  0.0427 -0.2459  0.7418
  448TMC3    C3 6725   2.088   3.656   0.085 -0.2657  0.3187  0.1625
  448TMC3    C4 6726   2.152   3.908   0.175 -0.1897 -0.0030 -0.3717
  448TMC3    C5 6727   2.222   3.800   0.212  0.5774 -0.7342  0.3097
  448TMC3    C6 6728   2.195   3.671   0.168  0.1396  0.6667  1.1444
  448TMC3     C 6729   2.032   4.002  17.751 -0.1490  0.2441 -0.1100
  448TMC3     O 6730   2.093   4.103   0.031 -0.2053 -0.0586 -0.1567
  448TMC3     H 6731   1.936   3.752  17.723  0.1658 -0.9153  0.7068
  448TMC3    H1 6732   2.192   4.007   0.195 -0.0230 -0.4683  1.5075
  448TMC3    H2 6733   2.253   3.584   0.197  1.1319  1.2265  0.8321
  448TMC3    C7 6734   2.344   3.823   0.286 -0.0680  1.1633  0.4795
  448TMC3    C8 6735   2.085   3.530   0.009  0.7014 -0.2284 -0.1289
  448TMC3    O1 6736   2.399   3.929   0.258 -0.6360  0.3725 -0.2825
  448TMC3    O2 6737   2.169   3.446   0.042  0.2126 -0.4483  0.5457
  449MPD2     C 6738   3.029   1.730  13.951 -0.4964 -0.5388 -0.4011
  449MPD2    C1 6739   2.998   1.826  14.049  0.1315 -0.5621 -1.1032
  449MPD2    C2 6740   2.866   1.874  14.053 -0.2885 -0.2562 -0.0179
  449MPD2    C3 6741   2.774   1.832  13.961  0.0811 -0.8006 -0.3032
  449MPD2    C4 6742   2.810   1.743  13.863 -0.4123 -0.3130 -0.5473
  449MPD2    C5 6743   2.934   1.690  13.861  0.0919 -0.0358  0.2386
  449MPD2     H 6744   2.840   1.945  14.131  1.1962 -1.3876  1.4904
  449MPD2    H1 6745   2.740   1.709  13.786  1.8874  1.1360 -3.2872
  449MPD2    H2 6746   3.130   1.692  13.940 -0.0432  0.7923 -0.7456
  449MPD2    H3 6747   2.969   1.626  13.780  3.6866  1.1392  0.8566
  449MPD2     N 6748   2.650   1.899  13.955  0.2911 -0.0692  1.0380
  449MPD2    H5 6749   2.631   1.967  14.028 -3.1043 -0.3549  0.4099
  449MPD2    N1 6750   3.090   1.875  14.137  0.1323 -0.6628  0.3469
  449MPD2    H7 6751   3.057   1.936  14.212  1.1839 -1.0327  1.1016
  450TMC3    C1 6752   3.283   1.946  14.236 -0.2428 -0.7153  0.2450
  450TMC3    C2 6753   3.388   2.023  14.181 -0.1787 -0.5502  0.2601
  450TMC3    C3 6754   3.401   2.155  14.222 -0.5038  0.3250  0.6541
  450TMC3    C4 6755   3.201   2.005  14.324 -0.3741  0.0937  0.4603
  450TMC3    C5 6756   3.203   2.142  14.337  0.5106  0.3646  0.6057
  450TMC3    C6 6757   3.305   2.218  14.298 -0.6781  0.0865  0.0672
  450TMC3     C 6758   3.225   1.852  14.139 -0.4585 -0.7267  0.0230
  450TMC3     O 6759   3.295   1.801  14.053 -0.2216 -0.0091 -0.1141
  450TMC3     H 6760   3.458   1.969  14.120  0.0161  2.2538 -2.0016
  450TMC3    H1 6761   3.128   1.948  14.379  1.0380 -1.9125  0.2746
  450TMC3    H2 6762   3.307   2.323  14.323 -0.6380  0.6804 -2.4296
  450TMC3    C7 6763   3.069   2.196  14.305 -0.9194  0.1180 -0.5925
  450TMC3    C8 6764   3.435   2.244  14.115  0.6447  0.6565  0.8180
  450TMC3    O1 6765   2.985   2.107  14.295  0.3350 -0.5733  0.9133
  450TMC3    O2 6766   3.381   2.354  14.125  0.3083 -0.1476  0.3781
  451MPD2     C 6767   0.842   0.711   1.013 -0.2812 -0.6195  0.1599
  451MPD2    C1 6768   0.785   0.597   0.970 -0.1093 -0.0716 -0.6531
  451MPD2    C2 6769   0.858   0.513   0.888  0.4298 -0.2667 -0.2400
  451MPD2    C3 6770   0.991   0.530   0.857  0.5121 -0.1576  0.0117
  451MPD2    C4 6771   1.054   0.643   0.912  0.4661 -0.0194  0.2339
  451MPD2    C5 6772   0.980   0.728   0.996  0.3297  0.2005 -0.7685
  451MPD2     H 6773   0.814   0.430   0.835  0.1351 -0.3536  0.1430
  451MPD2    H1 6774   1.158   0.663   0.887  0.3885 -1.9149 -1.5797
  451MPD2    H2 6775   0.785   0.783   1.072 -0.8352 -1.7960  1.0523
  451MPD2    H3 6776   1.025   0.815   1.041  2.0776 -1.5928  0.9729
  451MPD2     N 6777   1.046   0.448   0.756  0.3714 -0.6818 -0.7176
  451MPD2    H5 6778   1.128   0.483   0.708  1.0011  0.0117  0.8545
  451MPD2    N1 6779   0.648   0.571   1.002  0.1661  0.8558  0.3749
  451MPD2    H7 6780   0.609   0.641   1.064 -1.1914 -2.0698  2.8189
  452TMC3    C1 6781   1.036   0.284   0.583  0.0831  0.6762 -0.0163
  452TMC3    C2 6782   0.997   0.158   0.557 -0.0524 -0.1764 -0.6357
  452TMC3    C3 6783   0.914   0.121   0.455 -0.3800  0.0631  0.3942
  452TMC3    C4 6784   0.988   0.382   0.499 -0.1765 -0.0180  0.3181
  452TMC3    C5 6785   0.910   0.349   0.397  0.6811  0.4763  0.1881
  452TMC3    C6 6786   0.875   0.219   0.364  0.3324 -0.1764 -0.6831
  452TMC3     C 6787   1.002   0.321   0.716  0.0943  0.6239  0.0385
  452TMC3     O 6788   0.928   0.246   0.771 -0.5742  0.0394 -0.1736
  452TMC3     H 6789   1.037   0.081   0.622 -2.6608  1.2947  2.6850
  452TMC3    H1 6790   1.010   0.485   0.524  1.1912 -0.4260  0.7500
  452TMC3    H2 6791   0.799   0.191   0.292  0.9968  0.6135 -1.6954
  452TMC3    C7 6792   0.891   0.460   0.303 -0.5156  0.2828  0.1464
  452TMC3    C8 6793   0.815   0.022   0.488 -0.5539 -0.9069  0.4143
  452TMC3    O1 6794   0.944   0.566   0.318  0.5387  0.1176 -0.1642
  452TMC3    O2 6795   0.754   4.688   0.408 -0.0311  0.4931  0.2520
  453TMC3    C1 6796   0.461   3.267  12.569  0.1101  0.1143  0.6175
  453TMC3    C2 6797   0.365   3.170  12.554  0.5551 -0.0127 -0.5720
  453TMC3    C3 6798   0.296   3.170  12.432  0.1079  0.2455  1.5405
  453TMC3    C4 6799   0.490   3.355  12.467  0.1497  0.5455  0.8106
  453TMC3    C5 6800   0.425   3.343  12.350  0.4510 -0.2693 -0.1412
  453TMC3    C6 6801   0.326   3.252  12.320 -1.2925 -0.6518 -0.6004
  453TMC3     C 6802   0.581   3.240  12.647 -0.0539 -0.0904  0.0920
  453TMC3     O 6803   0.655   3.337  12.674  0.5174  0.0121  0.0398
  453TMC3     H 6804   0.360   3.087  12.623  1.1590 -0.2011 -0.7539
  453TMC3    H1 6805   0.579   3.413  12.485  1.6506 -1.6035  0.3708
  453TMC3    H2 6806   0.273   3.248  12.226 -0.5137  1.2078 -1.1109
  453TMC3    C7 6807   0.447   3.450  12.245  0.1974  0.5541 -0.5271
  453TMC3    C8 6808   0.256   3.037  12.397 -0.5552 -0.6263 -0.4103
  453TMC3    O1 6809   0.410   3.428  12.129 -0.0726 -0.1198 -0.9672
  453TMC3    O2 6810   0.207   2.968  12.489  0.6379 -0.7000 -0.5323
  454MPD2     C 6811   0.259   2.333  16.311  0.3790 -0.5680 -0.4517
  454MPD2    C1 6812   0.146   2.402  16.288  0.2045 -0.2067 -1.1458
  454MPD2    C2 6813   0.089   2.486  16.380 -0.9880  0.1049  0.2911
  454MPD2    C3 6814   0.147   2.489  16.510 -0.3907  0.0033  0.1984
  454MPD2    C4 6815   0.265   2.415  16.539  0.1974  0.7117  0.8878
  454MPD2    C5 6816   0.319   2.346  16.434 -0.8742  0.2930  0.4876
  454MPD2     H 6817   4.731   2.524  16.349 -0.9666  0.3563  0.5309
  454MPD2    H1 6818   0.306   2.423  16.638 -0.2892  0.7469  1.0869
  454MPD2    H2 6819   0.305   2.253  16.253 -0.7915 -2.1369  0.7875
  454MPD2    H3 6820   0.416   2.299  16.445 -1.4705 -1.0988 -0.1662
  454MPD2     N 6821   0.093   2.567  16.615  0.3581  0.1782 -0.1333
  454MPD2    H5 6822   0.144   2.562  16.702 -1.4008 -1.0598  0.8011
  454MPD2    N1 6823   0.076   2.376  16.172  0.4971  0.5141 -0.1384
  454MPD2    H7 6824   4.719   2.405  16.168  0.5661  0.5471 -1.6803
  455TMC3    C1 6825   4.671   2.661  16.748 -0.4438 -0.4255 -0.1736
  455TMC3    C2 6826   0.043   2.660  16.824 -0.2188 -0.0070 -0.0003
  455TMC3    C3 6827   0.035   2.591  16.943 -0.4068 -0.2411  0.0263
  455TMC3    C4 6828   4.556   2.593  16.792 -0.3998 -0.1688 -0.1117
  455TMC3    C5 6829   4.562   2.495  16.893 -0.6495 -0.0203 -0.5654
  455TMC3    C6 6830   4.680   2.497  16.964 -0.2218  0.4662  0.3967
  455TMC3     C 6831   4.710   2.631  16.608 -0.7718  0.0485  0.3421
  455TMC3     O 6832   4.620   2.614  16.532  0.4363  0.0100 -0.1419
  455TMC3     H 6833   0.123   2.730  16.800  0.6642 -0.6928  0.9505
  455TMC3    H1 6834   4.471   2.581  16.726  1.1349 -2.3704 -1.6659
  455TMC3    H2 6835   4.689   2.437  17.054  1.8434  2.3397  1.4449
  455TMC3    C7 6836   4.513   2.374  16.831 -0.4366 -0.6242  0.6334
  455TMC3    C8 6837   0.076   2.662  17.066  0.4499  0.4958 -0.7455
  455TMC3    O1 6838   4.393   2.364  16.825  0.1068 -0.1374  0.6920
  455TMC3    O2 6839   0.048   2.608  17.172 -0.4552 -0.0198  0.2323
  456MPD2     C 6840   2.532   2.519  16.790 -0.0421 -0.0374  0.5509
  456MPD2    C1 6841   2.604   2.479  16.891  0.4792  0.7031 -0.0586
  456MPD2    C2 6842   2.561   2.508  17.020 -0.1376  0.8420  0.5103
  456MPD2    C3 6843   2.459   2.602  17.034  0.1303  0.1030 -0.3636
  456MPD2    C4 6844   2.390   2.640  16.919  0.3616 -0.4890  0.3114
  456MPD2    C5 6845   2.426   2.597  16.794 -0.2827 -0.1237 -0.3555
  456MPD2     H 6846   2.621   2.481  17.106  0.3021  0.9058  0.2242
  456MPD2    H1 6847   2.293   2.690  16.919 -1.0257 -3.1559 -1.6125
  456MPD2    H2 6848   2.558   2.485  16.690  1.8868 -2.2576  1.8194
  456MPD2    H3 6849   2.378   2.642  16.708 -1.4095  0.0141  0.3537
  456MPD2     N 6850   2.415   2.643  17.161  0.1355 -0.5509  0.5427
  456MPD2    H5 6851   2.456   2.606  17.247 -1.6050 -0.2721  1.4998
  456MPD2    N1 6852   2.718   2.403  16.855  0.3031  0.1971 -0.0525
  456MPD2    H7 6853   2.735   2.378  16.758 -2.1225  0.2683 -0.5003
  457TMC3    C1 6854   2.288   2.763  17.320 -0.4109  0.5376 -0.1485
  457TMC3    C2 6855   2.242   2.885  17.345 -0.0746 -0.3519 -0.1030
  457TMC3    C3 6856   2.227   2.915  17.479 -0.3338  0.1257  0.3718
  457TMC3    C4 6857   2.325   2.673  17.417 -0.2459 -0.9441 -1.1755
  457TMC3    C5 6858   2.301   2.701  17.542 -0.9463 -0.0764 -0.8316
  457TMC3    C6 6859   2.247   2.823  17.575  0.0239 -0.9153  0.4850
  457TMC3     C 6860   2.325   2.744  17.182  1.1598  0.3921  0.1618
  457TMC3     O 6861   2.275   2.827  17.106 -0.2760  0.4690 -0.5042
  457TMC3     H 6862   2.236   2.958  17.265 -1.8336  0.1572  0.5126
  457TMC3    H1 6863   2.365   2.576  17.390  1.5443  0.3180 -3.1401
  457TMC3    H2 6864   2.223   2.849  17.677  1.3986  2.4897 -0.0871
  457TMC3    C7 6865   2.380   2.624  17.636  0.1406  0.2640 -0.7481
  457TMC3    C8 6866   2.169   3.039  17.522 -0.9262 -0.1271  0.4859
  457TMC3    O1 6867   2.434   2.518  17.599  0.8023  0.4999  0.3261
  457TMC3    O2 6868   2.194   3.075  17.639 -0.8806  0.2910 -0.1824
  458MPD2     C 6869   4.447   2.042  12.719  0.2368  0.0614  0.7454
  458MPD2    C1 6870   4.450   1.978  12.843 -0.4057  0.6634 -0.1574
  458MPD2    C2 6871   4.328   1.946  12.892  0.6863  0.1886  0.8160
  458MPD2    C3 6872   4.205   1.971  12.837  0.0796 -0.9458  0.7190
  458MPD2    C4 6873   4.210   2.033  12.711 -0.4273 -0.3102  0.5818
  458MPD2    C5 6874   4.329   2.064  12.658  0.5191 -0.1053 -0.2465
  458MPD2     H 6875   4.323   1.903  12.992 -0.4494 -1.5226  0.0383
  458MPD2    H1 6876   4.120   2.065  12.660 -1.0364  0.0954  1.9171
  458MPD2    H2 6877   4.538   2.080  12.674 -0.0925  0.9018  0.8033
  458MPD2    H3 6878   4.332   2.111  12.561  1.0912 -0.8338 -0.5835
  458MPD2     N 6879   4.095   1.927  12.906  0.0321 -0.1165  0.4639
  458MPD2    H5 6880   4.107   1.871  12.990  2.6794  1.7404  1.3508
  458MPD2    N1 6881   4.578   1.960  12.910 -0.2069  0.7451 -0.3712
  458MPD2    H7 6882   4.660   1.999  12.865  0.1883  0.9717  0.5506
  459TMC3    C1 6883   4.731   1.871  13.081  0.0989 -0.4900  0.5015
  459TMC3    C2 6884   0.080   1.969  13.047 -0.5288 -0.5187 -0.0131
  459TMC3    C3 6885   0.201   1.968  13.122 -0.1208  0.5116  0.4337
  459TMC3    C4 6886   0.002   1.786  13.186 -0.1953 -0.3327  0.4491
  459TMC3    C5 6887   0.115   1.795  13.260 -0.4895 -0.2244 -0.2568
  459TMC3    C6 6888   0.217   1.883  13.229 -0.4658  0.0848  0.3605
  459TMC3     C 6889   4.595   1.895  13.036 -0.1603 -0.1175 -0.1116
  459TMC3     O 6890   4.512   1.821  13.091  0.7384  0.6093 -0.2969
  459TMC3     H 6891   0.078   2.052  12.977  0.5264 -1.9972 -1.8180
  459TMC3    H1 6892   4.671   1.705  13.199  0.4905 -1.0845 -0.5508
  459TMC3    H2 6893   0.304   1.889  13.293  1.0283 -1.5225 -1.5197
  459TMC3    C7 6894   0.153   1.692  13.353  0.3848 -0.3260  0.3325
  459TMC3    C8 6895   0.323   2.017  13.060 -0.3893  0.3913 -0.3891
  459TMC3    O1 6896   0.270   1.683  13.384  0.4368  0.8673  0.7156
  459TMC3    O2 6897   0.332   2.014  12.935  0.4020  0.0536  0.0533
  460MPD2     C 6898   4.085   0.374  10.974  0.6256  0.6864  0.4712
  460MPD2    C1 6899   3.992   0.278  10.946  0.2277 -0.4463 -0.0614
  460MPD2    C2 6900   3.870   0.314  10.887  0.0519 -0.0541 -0.1249
  460MPD2    C3 6901   3.853   0.448  10.846 -0.4535  0.3244  0.2088
  460MPD2    C4 6902   3.947   0.538  10.875 -0.2992  0.8961  0.1995
  460MPD2    C5 6903   4.057   0.506  10.943  0.2443 -0.0625 -0.3858
  460MPD2     H 6904   3.788   0.244  10.876  0.3850 -0.6109  0.9943
  460MPD2    H1 6905   3.937   0.644  10.851 -2.7899  0.1646 -1.9723
  460MPD2    H2 6906   4.175   0.349  11.030 -0.3452 -1.6717  0.9550
  460MPD2    H3 6907   4.139   0.575  10.955  1.2763 -1.7271  2.2304
  460MPD2     N 6908   3.749   0.467  10.753 -0.2251 -0.0834  0.9182
  460MPD2    H5 6909   3.668   0.406  10.746 -0.1532  0.0096 -0.7692
  460MPD2    N1 6910   4.015   0.149  10.985 -0.1788 -0.0122  0.4393
  460MPD2    H7 6911   4.105   0.133  11.029  0.3009 -0.2198 -0.6369
  461TMC3    C1 6912   3.626   0.578  10.598  0.2872  0.1900 -0.0900
  461TMC3    C2 6913   3.629   0.475  10.515 -0.4306 -0.2825 -0.8975
  461TMC3    C3 6914   3.540   0.468  10.413  0.0739  0.0671 -0.0511
  461TMC3    C4 6915   3.540   0.681  10.589  0.8035 -0.1220 -0.3327
  461TMC3    C5 6916   3.444   0.667  10.491  0.0062 -0.1821 -0.0572
  461TMC3    C6 6917   3.443   0.565  10.402  0.3624 -0.9004 -0.2960
  461TMC3     C 6918   3.732   0.588  10.692  0.8999  0.2353  0.8588
  461TMC3     O 6919   3.779   0.699  10.720  0.1576 -0.4012  0.3401
  461TMC3     H 6920   3.710   0.403  10.513  1.0106  1.3498 -1.1211
  461TMC3    H1 6921   3.535   0.762  10.660  0.4358  0.1112 -0.6253
  461TMC3    H2 6922   3.373   0.561  10.319  1.5669  0.7445 -1.3830
  461TMC3    C7 6923   3.361   0.775  10.482 -0.1855 -0.5808  0.4005
  461TMC3    C8 6924   3.577   0.376  10.298 -0.4687 -0.2628 -0.0264
  461TMC3    O1 6925   3.381   0.882  10.539 -0.0366  0.4703 -0.4956
  461TMC3    O2 6926   3.687   0.322  10.286 -0.0385  0.7457  0.4456
  462TMC3    C1 6927   4.538   0.426   0.838 -0.2750 -0.6592  0.8685
  462TMC3    C2 6928   4.652   0.349   0.854 -0.3796  0.4182 -0.0633
  462TMC3    C3 6929   4.660   0.222   0.808  0.4263 -0.2735  0.2644
  462TMC3    C4 6930   4.433   0.385   0.758 -0.1478  0.1740  0.0491
  462TMC3    C5 6931   4.441   0.253   0.723 -0.0611  0.3033 -0.1594
  462TMC3    C6 6932   4.551   0.169   0.749 -0.0502  1.0604 -0.3042
  462TMC3     C 6933   4.553   0.565   0.865  0.0257 -0.0103 -0.6302
  462TMC3     O 6934   4.609   0.596   0.973  0.7925 -0.7731 -0.1982
  462TMC3     H 6935   4.719   0.387   0.930 -0.5632  1.4390 -0.4092
  462TMC3    H1 6936   4.344   0.446   0.750  0.6033  0.9664 -2.3186
  462TMC3    H2 6937   4.554   0.074   0.697 -0.7897  0.5460  0.5833
  462TMC3    C7 6938   4.341   0.205   0.631 -0.3392  0.0436 -0.8310
  462TMC3    C8 6939   0.046   0.201   0.737  0.5257 -0.5590 -0.0134
  462TMC3    O1 6940   4.298   0.095   0.640 -0.0906  0.1232  0.5912
  462TMC3    O2 6941   0.125   0.296   0.747  0.2052 -0.3526  0.1604
  463MPD2     C 6942   0.675   4.122   1.296 -0.0423 -0.0611 -0.4288
  463MPD2    C1 6943   0.648   3.992   1.257 -0.2294 -0.3078 -0.2217
  463MPD2    C2 6944   0.741   3.914   1.198 -0.0766 -0.4800  0.3949
  463MPD2    C3 6945   0.865   3.964   1.164  0.1142 -0.4978  0.1478
  463MPD2    C4 6946   0.899   4.093   1.207 -0.8083  0.2834 -0.1773
  463MPD2    C5 6947   0.805   4.167   1.277  0.6529 -0.2771  0.1130
  463MPD2     H 6948   0.718   3.812   1.170 -0.6376 -0.5629  1.1704
  463MPD2    H1 6949   0.999   4.127   1.183  0.2081 -1.2338  1.9540
  463MPD2    H2 6950   0.606   4.197   1.331 -0.1240  0.6020 -1.9825
  463MPD2    H3 6951   0.840   4.266   1.307  2.1750 -0.8161  0.1345
  463MPD2     N 6952   0.975   3.898   1.101  0.9193 -0.3512  0.5501
  463MPD2    H5 6953   1.054   3.955   1.076  0.7397 -0.5853 -0.5581
  463MPD2    N1 6954   0.514   3.936   1.272  0.1343  0.1675 -0.3665
  463MPD2    H7 6955   0.497   3.848   1.224 -1.6716  1.2032 -1.6467
  464TMC3    C1 6956   0.278   3.933   1.304  0.2835 -0.1873  0.3135
  464TMC3    C2 6957   0.166   4.009   1.327 -0.2430 -0.8101 -0.3170
  464TMC3    C3 6958   0.048   3.966   1.280 -0.1784 -0.0252 -0.5677
  464TMC3    C4 6959   0.276   3.823   1.223 -0.0783 -0.4086 -0.1239
  464TMC3    C5 6960   0.152   3.777   1.184 -0.6592  0.4365 -0.0707
  464TMC3    C6 6961   0.039   3.850   1.201 -0.3260  0.0349 -0.4252
  464TMC3     C 6962   0.404   3.999   1.327 -0.0069  0.8485  0.0623
  464TMC3     O 6963   0.394   4.093   1.407  0.4321  0.3389  0.4970
  464TMC3     H 6964   0.161   4.101   1.384  0.0286 -0.3745 -1.0061
  464TMC3    H1 6965   0.360   3.763   1.191 -0.1510 -1.0314  0.8585
  464TMC3    H2 6966   4.686   3.820   1.154 -0.4801  2.1123 -1.4584
  464TMC3    C7 6967   0.154   3.668   1.088  0.4312  0.0713  0.2341
  464TMC3    C8 6968   4.686   4.069   1.269 -0.0450 -0.6737 -0.2297
  464TMC3    O1 6969   0.250   3.650   1.015  0.0306 -0.1822 -0.2773
  464TMC3    O2 6970   4.595   4.055   1.188 -0.4510  0.3609  0.5622
  465MPD2     C 6971   1.647   2.349  16.728 -0.3765  0.3188 -0.2455
  465MPD2    C1 6972   1.591   2.417  16.839 -0.0184  0.6008  0.4401
  465MPD2    C2 6973   1.478   2.501  16.828  0.2249  0.9001  0.0032
  465MPD2    C3 6974   1.422   2.517  16.703 -0.3595  0.4510  0.0343
  465MPD2    C4 6975   1.472   2.445  16.600 -0.4480 -0.3562 -0.2241
  465MPD2    C5 6976   1.581   2.366  16.612 -0.0732 -0.5272 -0.5602
  465MPD2     H 6977   1.449   2.563  16.911 -0.0233 -1.0238  1.3541
  465MPD2    H1 6978   1.428   2.449  16.500 -2.0895 -1.2603  0.4641
  465MPD2    H2 6979   1.729   2.278  16.729 -0.4577  0.2065 -1.7264
  465MPD2    H3 6980   1.618   2.310  16.526  0.8777 -1.9234  0.7667
  465MPD2     N 6981   1.299   2.584  16.700  0.6182  0.2517  0.1997
  465MPD2    H5 6982   1.269   2.625  16.788  0.5502 -2.9057  1.6519
  465MPD2    N1 6983   1.640   2.407  16.970 -0.1806  1.1473 -0.0273
  465MPD2    H7 6984   1.595   2.464  17.041 -0.1349 -1.4353  2.1138
  466TMC3    C1 6985   0.926   2.732  16.783 -0.6631 -0.6915  0.1820
  466TMC3    C2 6986   0.864   2.778  16.674  0.4912  0.5215  0.5247
  466TMC3    C3 6987   0.914   2.772  16.542 -0.3285  0.2158  0.0987
  466TMC3    C4 6988   1.038   2.654  16.759 -0.1193 -0.7148 -0.1925
  466TMC3    C5 6989   1.086   2.655  16.631  0.2947 -0.0141  0.0626
  466TMC3    C6 6990   1.027   2.710  16.523 -0.0893  0.5106 -0.0013
  466TMC3     C 6991   0.922   2.831  16.897  0.2244  0.5278  0.5477
  466TMC3     O 6992   0.866   2.936  16.865 -0.3690  0.0813 -0.3082
  466TMC3     H 6993   0.762   2.812  16.683  0.0176 -0.5575 -0.7967
  466TMC3    H1 6994   1.083   2.613  16.848  0.4048  1.9469  0.7675
  466TMC3    H2 6995   1.064   2.703  16.422 -1.6424 -1.3020 -0.4555
  466TMC3    C7 6996   1.215   2.598  16.600  0.5815 -0.5650  0.5087
  466TMC3    C8 6997   0.921   2.892  16.473  0.1382  0.2457 -0.4118
  466TMC3    O1 6998   1.241   2.589  16.478  0.5832 -0.0985  0.1385
  466TMC3    O2 6999   0.966   2.895  16.362 -0.3189 -0.0027  0.1553
  467TMC3    C1 7000   2.400   1.600  14.213  1.7116 -0.3833 -1.0329
  467TMC3    C2 7001   2.349   1.626  14.092  0.1568  0.1820 -0.6990
  467TMC3    C3 7002   2.216   1.620  14.085  0.7148  0.7457  0.6161
  467TMC3    C4 7003   2.332   1.561  14.328  0.2844 -0.0420 -0.2176
  467TMC3    C5 7004   2.199   1.537  14.304  0.9412 -0.6949  0.5931
  467TMC3    C6 7005   2.132   1.560  14.188 -0.0256  0.6985 -0.2597
  467TMC3     C 7006   2.545   1.583  14.211 -0.0640 -1.0395 -0.3534
  467TMC3     O 7007   2.595   1.581  14.320 -0.2837  0.2792 -0.1680
  467TMC3     H 7008   2.408   1.666  14.010  1.1821  0.1542  0.0235
  467TMC3    H1 7009   2.381   1.517  14.414 -0.4395 -2.0574 -0.8344
  467TMC3    H2 7010   2.024   1.563  14.178 -0.1463  0.1348  0.9070
  467TMC3    C7 7011   2.150   1.416  14.377 -0.2127  0.2544  0.6428
  467TMC3    C8 7012   2.145   1.676  13.972  1.4888 -0.5211  0.2394
  467TMC3    O1 7013   2.224   1.321  14.376  0.0234  0.1271 -0.5149
  467TMC3    O2 7014   2.069   1.773  13.991 -0.3180  0.5464 -0.3963
  468MPD2     C 7015   0.641   4.685  11.059  0.7133 -1.0343  0.3678
  468MPD2    C1 7016   0.777   4.665  11.030  0.5430  0.0931 -0.6840
  468MPD2    C2 7017   0.828   4.539  11.008 -0.2976  0.0418 -1.5592
  468MPD2    C3 7018   0.746   4.432  11.003 -0.0707 -0.4869  0.0408
  468MPD2    C4 7019   0.609   4.451  11.009 -0.1723 -1.0367 -0.4715
  468MPD2    C5 7020   0.556   4.576  11.039 -0.4090  0.0927  0.1911
  468MPD2     H 7021   0.936   4.531  11.009 -0.1270  2.2824 -0.7044
  468MPD2    H1 7022   0.536   4.375  10.987 -0.7752 -0.6247  0.1241
  468MPD2    H2 7023   0.607   0.047  11.079  2.7854  0.0375 -1.5797
  468MPD2    H3 7024   0.450   4.581  11.060 -0.9635 -0.6775 -2.4178
  468MPD2     N 7025   0.782   4.297  10.998 -0.6084 -0.0779  0.6821
  468MPD2    H5 7026   0.710   4.226  10.994 -1.0833  0.4069  0.5732
  468MPD2    N1 7027   0.867   0.035  11.024  0.5183  0.2511 -0.4927
  468MPD2    H7 7028   0.953   0.012  10.975 -0.2725  0.6381 -2.0568
  469TMC3    C1 7029   0.946   0.259  11.036  0.6625  0.3061  0.2002
  469TMC3    C2 7030   1.073   0.212  11.009  0.2541 -0.1662  0.8365
  469TMC3    C3 7031   1.183   0.298  11.028 -0.1451 -0.0568 -0.6432
  469TMC3    C4 7032   0.937   0.390  11.093  0.1132  0.4559 -0.6596
  469TMC3    C5 7033   1.044   0.465  11.120 -0.4547 -0.3406 -0.0416
  469TMC3    C6 7034   1.170   0.421  11.087 -0.1296  1.4253  0.1431
  469TMC3     C 7035   0.838   0.168  11.074 -0.4038 -0.0511  0.4114
  469TMC3     O 7036   0.748   0.198  11.148  0.1148 -0.0349  0.0195
  469TMC3     H 7037   1.104   0.120  10.960  0.7544  0.6093 -0.3022
  469TMC3    H1 7038   0.838   0.416  11.127 -0.1734 -0.3486 -0.8625
  469TMC3    H2 7039   1.261   0.478  11.105  1.8716 -2.0703  1.1877
  469TMC3    C7 7040   1.030   0.589  11.194 -1.0200 -0.1705 -0.1935
  469TMC3    C8 7041   1.297   0.220  11.069 -0.4826  0.3448  0.3120
  469TMC3    O1 7042   1.107   0.676  11.165  0.1070 -0.0370 -0.2288
  469TMC3    O2 7043   1.352   0.146  10.987 -0.6918  0.4151 -0.2654
  470TMC3    C1 7044   3.644   0.010   0.722 -0.0160  0.3995  0.1402
  470TMC3    C2 7045   3.675   0.142   0.738 -0.0029  0.4580  0.6143
  470TMC3    C3 7046   3.721   0.176   0.864  0.2715  0.5371 -0.1248
  470TMC3    C4 7047   3.650   4.654   0.823 -0.4412  0.7569  0.0206
  470TMC3    C5 7048   3.676   4.699   0.953 -0.7500 -0.0333  0.2481
  470TMC3    C6 7049   3.710   0.090   0.971  0.0844 -0.4408 -0.4303
  470TMC3     C 7050   3.584   4.721   0.593 -0.9562 -0.3431 -0.4336
  470TMC3     O 7051   3.621   0.047   0.498  0.3616 -0.1365 -0.6413
  470TMC3     H 7052   3.654   0.216   0.663 -1.3024  2.0288  2.5540
  470TMC3    H1 7053   3.646   4.546   0.809  1.2049  0.3268  3.0065
  470TMC3    H2 7054   3.742   0.115   1.071  1.2747  1.0340 -1.1886
  470TMC3    C7 7055   3.723   4.608   1.062 -0.7926  0.3017  0.3145
  470TMC3    C8 7056   3.780   0.305   0.899  0.2305  0.1854 -0.3775
  470TMC3    O1 7057   3.780   4.501   1.037  0.2164 -0.5558  0.1658
  470TMC3    O2 7058   3.769   0.342   1.012  0.3334 -0.6320  0.2465
  471MPD2     C 7059   4.461   1.653  17.033  0.5692 -0.0053  0.1284
  471MPD2    C1 7060   4.423   1.537  16.982 -0.1863  0.1869 -0.1560
  471MPD2    C2 7061   4.501   1.424  16.988 -1.1878  0.5999  0.0007
  471MPD2    C3 7062   4.608   1.430  17.075  0.0414 -0.2386  0.0011
  471MPD2    C4 7063   4.653   1.544  17.140  0.4570 -0.0290  0.5085
  471MPD2    C5 7064   4.580   1.657  17.106  0.2449  0.0699 -0.0361
  471MPD2     H 7065   4.468   1.336  16.934 -0.8057 -0.1187  0.9550
  471MPD2    H1 7066   4.734   1.554  17.211  1.1682 -1.5775 -0.0850
  471MPD2    H2 7067   4.401   1.742  17.021 -1.9394 -1.1504  3.9931
  471MPD2    H3 7068   4.604   1.755  17.146  0.4714 -0.0515  0.1233
  471MPD2     N 7069   4.668   1.306  17.121  0.6515  0.9355 -0.2342
  471MPD2    H5 7070   4.707   1.314  17.214 -2.6758 -1.7997  1.3776
  471MPD2    N1 7071   4.302   1.528  16.911  0.6660 -0.0310  0.2516
  471MPD2    H7 7072   4.280   1.441  16.864  1.9476  0.7913 -1.8587
  472TMC3    C1 7073   4.080   1.556  16.875  0.2871  0.1882  0.1197
  472TMC3    C2 7074   3.990   1.595  16.777 -0.5479 -0.2573  0.5094
  472TMC3    C3 7075   3.917   1.499  16.713 -0.3243  0.5128  0.1293
  472TMC3    C4 7076   4.078   1.425  16.914  0.1145  0.1157  0.5615
  472TMC3    C5 7077   4.019   1.331  16.837  0.9323 -0.2429 -0.4146
  472TMC3    C6 7078   3.934   1.364  16.734 -0.4773  0.0957  0.4574
  472TMC3     C 7079   4.209   1.629  16.892 -0.0941  0.4099 -0.5508
  472TMC3     O 7080   4.215   1.751  16.902  0.4635  0.0841 -0.6940
  472TMC3     H 7081   3.976   1.699  16.750 -1.6211 -0.9808 -1.7302
  472TMC3    H1 7082   4.122   1.396  17.009 -1.6141  1.6626  1.8501
  472TMC3    H2 7083   3.884   1.291  16.671 -1.1565  0.1473  0.9370
  472TMC3    C7 7084   4.042   1.183  16.870 -0.4216  0.2189 -0.5297
  472TMC3    C8 7085   3.783   1.537  16.656  0.0906  0.2825  0.2610
  472TMC3    O1 7086   4.111   1.164  16.970  0.1410  0.2419  0.2635
  472TMC3    O2 7087   3.775   1.655  16.636  0.5301  0.2397  0.7422
  473MPD2     C 7088   3.679   3.517  13.772  0.3128  0.2606  0.1506
  473MPD2    C1 7089   3.649   3.646  13.725 -0.9784 -0.2882  0.3579
  473MPD2    C2 7090   3.712   3.754  13.780 -0.1073  1.1251 -0.2048
  473MPD2    C3 7091   3.814   3.739  13.878 -0.1485 -0.4503  0.3173
  473MPD2    C4 7092   3.838   3.609  13.924  0.2841  0.1303  0.8108
  473MPD2    C5 7093   3.774   3.494  13.871  0.0917  0.0930  0.1667
  473MPD2     H 7094   3.682   3.848  13.735 -0.9972  0.7929 -0.3064
  473MPD2    H1 7095   3.919   3.586  13.992  1.3987  1.2871 -0.1342
  473MPD2    H2 7096   3.632   3.428  13.734  0.0763  0.3719  0.1848
  473MPD2    H3 7097   3.793   3.392  13.904 -2.8375 -0.0338  1.4860
  473MPD2     N 7098   3.879   3.845  13.944 -0.4384  0.3180  0.9438
  473MPD2    H5 7099   3.938   3.839  14.026  0.1239  0.3023  0.5364
  473MPD2    N1 7100   3.551   3.679  13.616  0.2384  0.4655  0.1038
  473MPD2    H7 7101   3.543   3.778  13.595 -0.7206 -0.1339 -2.3389
  474TMC3    C1 7102   3.924   4.059  14.009  0.2771  0.5879 -0.4402
  474TMC3    C2 7103   3.948   4.188  13.964  0.5958  0.3886 -0.5852
  474TMC3    C3 7104   3.936   4.291  14.053 -0.4559 -0.3393  0.0739
  474TMC3    C4 7105   3.894   4.031  14.137 -0.2121  0.2716  0.2786
  474TMC3    C5 7106   3.900   4.135  14.222 -0.3834 -0.1606 -0.2067
  474TMC3    C6 7107   3.897   4.263  14.177 -0.2715 -0.5453 -0.2554
  474TMC3     C 7108   3.880   3.973  13.903  0.7707  0.3682  0.4356
  474TMC3     O 7109   3.812   4.022  13.811  0.6570 -0.0057 -0.4826
  474TMC3     H 7110   3.972   4.213  13.861  1.6595  1.4179 -0.0822
  474TMC3    H1 7111   3.869   3.932  14.174 -1.2972  0.5985  0.4029
  474TMC3    H2 7112   3.847   4.340  14.234  0.1213 -0.0859 -0.5376
  474TMC3    C7 7113   3.822   4.114  14.343  0.8436  0.0760  0.7031
  474TMC3    C8 7114   3.895   4.415  13.988 -0.0024 -0.0102  0.7437
  474TMC3    O1 7115   3.733   4.034  14.341 -0.0487 -0.0028  0.5976
  474TMC3    O2 7116   3.865   4.420  13.867  0.7853  0.1343  0.2507
  475MPD2     C 7117   1.717   2.125  10.955 -0.4679 -0.0137  0.1434
  475MPD2    C1 7118   1.813   2.223  10.996  0.4501 -0.1650 -0.5967
  475MPD2    C2 7119   1.776   2.320  11.091  0.5836  0.5843  0.6478
  475MPD2    C3 7120   1.642   2.330  11.131 -0.3161  0.5292 -0.4874
  475MPD2    C4 7121   1.551   2.241  11.086 -0.2219 -0.2398 -0.2409
  475MPD2    C5 7122   1.592   2.134  11.005 -0.6783 -0.4834  0.1699
  475MPD2     H 7123   1.844   2.393  11.132  1.9403  0.5711 -1.5767
  475MPD2    H1 7124   1.443   2.247  11.100  0.1984  1.2448  2.3478
  475MPD2    H2 7125   1.737   2.044  10.885 -2.4807  0.3840 -0.8605
  475MPD2    H3 7126   1.516   2.063  10.975 -0.2238 -0.4609 -1.0102
  475MPD2     N 7127   1.595   2.448  11.196  0.1085 -0.2624  0.2134
  475MPD2    H5 7128   1.656   2.529  11.205  0.4984 -0.6065  0.6147
  475MPD2    N1 7129   1.944   2.210  10.939  0.5259 -0.0478 -0.5493
  475MPD2    H7 7130   1.959   2.115  10.906  1.8092  0.2859 -0.9537
  476TMC3    C1 7131   2.050   2.440  10.979  0.4325 -0.1722 -0.2197
  476TMC3    C2 7132   1.951   2.498  10.913 -0.2538 -0.1632  0.4400
  476TMC3    C3 7133   1.924   2.631  10.934 -0.8754 -0.6873  0.4899
  476TMC3    C4 7134   2.122   2.508  11.064 -0.2826  0.7854 -0.3567
  476TMC3    C5 7135   2.092   2.640  11.098 -0.3687  0.6721 -0.7939
  476TMC3    C6 7136   1.990   2.702  11.029 -0.4781 -0.0432 -0.0608
  476TMC3     C 7137   2.058   2.289  10.972  0.1836 -0.6723 -0.5381
  476TMC3     O 7138   2.177   2.249  10.975 -0.1944 -0.0895 -0.3934
  476TMC3     H 7139   1.911   2.447  10.826  0.3892  0.7906 -0.4179
  476TMC3    H1 7140   2.186   2.451  11.131 -0.8570 -0.6473 -1.0234
  476TMC3    H2 7141   1.953   2.802  11.047  1.4672  0.9043 -1.2871
  476TMC3    C7 7142   2.099   2.681  11.236 -0.3866 -0.8698  0.4564
  476TMC3    C8 7143   1.779   2.658  10.936  1.0212 -0.6599  0.0357
  476TMC3    O1 7144   2.084   2.592  11.318 -0.2339 -0.1877  0.3757
  476TMC3    O2 7145   1.739   2.747  11.007  0.3110  0.4629 -0.2372
  477MPD2     C 7146   4.615   4.064  12.096 -0.0097 -0.7723  0.2130
  477MPD2    C1 7147   4.543   3.972  12.032 -0.2812 -0.1034  0.0193
  477MPD2    C2 7148   4.514   3.849  12.098 -0.3458 -0.4251  0.4941
  477MPD2    C3 7149   4.557   3.823  12.221 -0.6781  0.2801  0.5555
  477MPD2    C4 7150   4.644   3.916  12.282 -0.1159 -0.4593  1.1683
  477MPD2    C5 7151   4.669   4.032  12.219 -0.2119 -0.0504 -0.1915
  477MPD2     H 7152   4.445   3.779  12.053 -0.5324 -0.8674  1.4740
  477MPD2    H1 7153   4.697   3.901  12.375 -0.0504 -1.2979  0.9965
  477MPD2    H2 7154   4.647   4.164  12.066  1.9846 -0.5975  2.8609
  477MPD2    H3 7155   4.725   4.109  12.272 -1.1918  0.6005 -0.0965
  477MPD2     N 7156   4.512   3.699  12.280  0.2468  0.3730  0.4130
  477MPD2    H5 7157   4.462   3.633  12.221  1.7235 -1.8911  1.6947
  477MPD2    N1 7158   4.492   4.015  11.907  0.3121  0.2949 -0.4408
  477MPD2    H7 7159   4.505   4.113  11.882 -2.6094  0.7348 -0.2439
  478TMC3    C1 7160   4.345   4.005  11.712 -0.2180  0.6063  0.5441
  478TMC3    C2 7161   4.396   4.126  11.675  0.9252 -0.0598  0.1250
  478TMC3    C3 7162   4.305   4.210  11.614  0.0074 -0.3777 -0.0449
  478TMC3    C4 7163   4.228   3.957  11.671  0.9198 -0.3036  0.0687
  478TMC3    C5 7164   4.153   4.030  11.580  0.2110  0.4421 -0.4382
  478TMC3    C6 7165   4.198   4.156  11.541  0.1075  0.0024  1.0446
  478TMC3     C 7166   4.402   3.936  11.829  1.3797 -0.2414  0.1546
  478TMC3     O 7167   4.359   3.823  11.847 -0.1214  0.2744  0.1898
  478TMC3     H 7168   4.480   4.173  11.724 -0.6630 -0.1634  2.9526
  478TMC3    H1 7169   4.203   3.852  11.680 -1.1973  0.0388 -1.8649
  478TMC3    H2 7170   4.129   4.218  11.484  2.5087  0.5975 -1.2213
  478TMC3    C7 7171   4.050   3.959  11.507 -0.0129  0.9356  0.1108
  478TMC3    C8 7172   4.365   4.329  11.561 -0.1173 -0.2673  0.4636
  478TMC3    O1 7173   4.013   3.850  11.550 -0.2987 -0.1600 -0.2281
  478TMC3    O2 7174   4.488   4.335  11.548  0.2034 -0.1868 -0.5261
  479MPD2     C 7175   3.577   1.273  15.587  0.0344  0.3711  0.0714
  479MPD2    C1 7176   3.512   1.216  15.692 -0.2380 -0.4333 -0.9939
  479MPD2    C2 7177   3.543   1.244  15.818  0.6714 -0.2736  0.1528
  479MPD2    C3 7178   3.631   1.352  15.841 -0.4226 -0.4131 -0.5131
  479MPD2    C4 7179   3.701   1.408  15.737  0.1266  0.1168  0.2252
  479MPD2    C5 7180   3.673   1.362  15.614 -0.3134 -0.0451  0.5675
  479MPD2     H 7181   3.488   1.192  15.896  0.1150 -1.0583 -0.7676
  479MPD2    H1 7182   3.770   1.489  15.757  0.3848  0.1236 -0.6900
  479MPD2    H2 7183   3.554   1.250  15.484  0.6920 -1.0911  0.2430
  479MPD2    H3 7184   3.731   1.403  15.532 -2.1212  0.3960 -0.4832
  479MPD2     N 7185   3.673   1.393  15.971 -0.0460 -0.3848  0.6976
  479MPD2    H5 7186   3.743   1.467  15.975 -0.4376  0.1067 -1.4588
  479MPD2    N1 7187   3.406   1.127  15.664  0.3538 -0.3343  0.1123
  479MPD2    H7 7188   3.381   1.119  15.566 -0.5647  2.3578  0.1265
  480TMC3    C1 7189   3.315   1.232  16.217 -0.2972  0.8588  0.7199
  480TMC3    C2 7190   3.222   1.293  16.148 -0.0361  0.0229 -0.2594
  480TMC3    C3 7191   3.260   1.371  16.044  0.4664 -0.5388 -0.2448
  480TMC3    C4 7192   3.445   1.275  16.219  0.4321  0.0596  0.0349
  480TMC3    C5 7193   3.477   1.362  16.114  0.3318 -0.6412  0.1935
  480TMC3    C6 7194   3.392   1.412  16.021  0.1442  0.2529  0.2709
  480TMC3     C 7195   3.286   1.102  16.279  0.0651 -0.6136  0.6123
  480TMC3     O 7196   3.388   1.033  16.292 -0.0584 -0.1762 -0.0697
  480TMC3     H 7197   3.118   1.265  16.142 -0.1832  0.4179  0.5126
  480TMC3    H1 7198   3.523   1.225  16.275  0.3848 -0.8753 -0.7210
  480TMC3    H2 7199   3.430   1.481  15.946  1.4992 -2.1419 -1.2456
  480TMC3    C7 7200   3.618   1.366  16.092  0.1258 -0.1536  0.5425
  480TMC3    C8 7201   3.156   1.419  15.952  1.0414 -0.0022  0.7393
  480TMC3    O1 7202   3.679   1.363  16.198 -0.3176 -0.3375 -0.0749
  480TMC3    O2 7203   3.040   1.438  15.985  0.2404 -0.2731  0.4741
  481MPD2     C 7204   0.487   0.647  14.558  0.5562  0.1800  0.6164
  481MPD2    C1 7205   0.350   0.624  14.581 -0.0470 -0.6224  0.9623
  481MPD2    C2 7206   0.304   0.575  14.711 -0.3756  0.0301 -0.5347
  481MPD2    C3 7207   0.402   0.572  14.818 -0.4556  0.4226  0.9323
  481MPD2    C4 7208   0.531   0.600  14.798 -0.4186 -0.0870  0.8298
  481MPD2    C5 7209   0.567   0.643  14.672  0.1595  0.5870 -0.8236
  481MPD2     H 7210   0.201   0.545  14.729 -0.0128 -1.1363 -0.3887
  481MPD2    H1 7211   0.599   0.592  14.882 -3.0141 -1.8228  2.7559
  481MPD2    H2 7212   0.535   0.681  14.467  0.5691  2.0354  1.3139
  481MPD2    H3 7213   0.673   0.667  14.662  0.6229 -1.0209  0.3004
  481MPD2     N 7214   0.367   0.537  14.956  0.1457  1.1563 -0.0818
  481MPD2    H5 7215   0.439   0.520  15.026 -0.4271 -0.0421  0.2308
  481MPD2    N1 7216   0.256   0.644  14.473  0.3507 -0.0036 -0.1873
  481MPD2    H7 7217   0.288   0.669  14.380  1.1470  0.9954  0.3624
  482TMC3    C1 7218   0.068   0.687  14.344 -0.2095 -0.0858  0.3749
  482TMC3    C2 7219   4.697   0.610  14.313 -0.3677  0.9470  0.2334
  482TMC3    C3 7220   4.664   0.602  14.188  0.0642 -0.3400  0.2641
  482TMC3    C4 7221   0.131   0.765  14.259 -0.4822  0.3201  0.0704
  482TMC3    C5 7222   0.076   0.772  14.135  0.3199  0.8825  0.0062
  482TMC3    C6 7223   4.723   0.676  14.092  0.2360 -0.3708 -0.1409
  482TMC3     C 7224   0.122   0.658  14.474 -0.4415 -0.1380  0.3729
  482TMC3     O 7225   0.047   0.642  14.572  0.4325  0.0464 -0.1496
  482TMC3     H 7226   4.659   0.544  14.391  1.6258 -1.3173 -0.7486
  482TMC3    H1 7227   0.211   0.834  14.285  0.3866 -1.4634  2.1973
  482TMC3    H2 7228   4.706   0.651  13.988 -0.0520  0.5525 -0.3135
  482TMC3    C7 7229   0.177   0.810  14.036 -0.1132  0.0222 -0.1733
  482TMC3    C8 7230   4.579   0.491  14.139 -0.0960 -0.5264  0.1075
  482TMC3    O1 7231   0.289   0.848  14.066  0.1754  0.1128 -0.1767
  482TMC3    O2 7232   4.588   0.384  14.195 -0.0102  0.4240  0.5116
  483TMC3    C1 7233   3.044   3.868   0.551  0.0080 -0.1533 -0.2702
  483TMC3    C2 7234   3.062   3.961   0.651 -0.3577 -0.3383 -0.5324
  483TMC3    C3 7235   3.163   3.944   0.738 -0.3090  0.0533  0.3820
  483TMC3    C4 7236   3.108   3.753   0.547  0.4510 -0.0466  0.4241
  483TMC3    C5 7237   3.206   3.734   0.642  0.4560 -0.0636  0.3330
  483TMC3    C6 7238   3.226   3.822   0.749 -0.1728  0.4620  0.0527
  483TMC3     C 7239   2.962   3.907   0.440  0.3589  0.0995 -0.1146
  483TMC3     O 7240   2.930   4.023   0.432  0.2695 -0.2553  0.2283
  483TMC3     H 7241   3.023   4.061   0.634  0.1036 -0.2173 -0.8799
  483TMC3    H1 7242   3.106   3.698   0.454 -1.0390  4.1489 -1.9782
  483TMC3    H2 7243   3.307   3.803   0.817 -0.9097 -0.4289  0.6797
  483TMC3    C7 7244   3.305   3.632   0.638 -0.6416 -0.0162 -0.3080
  483TMC3    C8 7245   3.258   4.052   0.726  0.4903  0.2006  0.4277
  483TMC3    O1 7246   3.422   3.656   0.672  0.5449  0.6546 -0.3516
  483TMC3    O2 7247   3.244   4.122   0.623  0.4144 -0.0451  0.1036
  484MPD2     C 7248   0.638   2.061  13.237 -0.2598 -0.8227 -1.0637
  484MPD2    C1 7249   0.554   2.069  13.126 -0.6245  0.2374 -0.5097
  484MPD2    C2 7250   0.601   2.078  12.998  0.1060 -0.5080  0.8717
  484MPD2    C3 7251   0.738   2.083  12.982  0.7026  0.0568  0.0551
  484MPD2    C4 7252   0.818   2.064  13.091  0.6883 -0.0926  0.0755
  484MPD2    C5 7253   0.771   2.066  13.223  0.3786  0.5217  0.2221
  484MPD2     H 7254   0.543   2.070  12.907  2.6473 -0.8018 -0.7464
  484MPD2    H1 7255   0.924   2.044  13.079  0.6353  0.3072 -1.0004
  484MPD2    H2 7256   0.602   2.032  13.335  0.9198  0.5625 -0.2087
  484MPD2    H3 7257   0.846   2.055  13.300  1.1966 -0.1957 -0.6621
  484MPD2     N 7258   0.800   2.116  12.863  0.9847  0.2224  0.3936
  484MPD2    H5 7259   0.900   2.106  12.846  0.8046 -0.7828 -0.0612
  484MPD2    N1 7260   0.416   2.043  13.156 -0.3193  0.0334 -0.4988
  484MPD2    H7 7261   0.391   2.042  13.254 -1.3751 -0.6392 -0.7831
  485TMC3    C1 7262   0.819   2.170  12.635 -0.7205 -0.5264  0.1190
  485TMC3    C2 7263   0.949   2.136  12.651 -0.5014  1.3055  0.6224
  485TMC3    C3 7264   1.032   2.153  12.545  0.3352  0.8960  0.3222
  485TMC3    C4 7265   0.775   2.234  12.518 -0.9172  0.5799 -0.3776
  485TMC3    C5 7266   0.858   2.233  12.408  0.6761 -0.5513 -0.2692
  485TMC3    C6 7267   0.987   2.196  12.419  0.0251 -0.3192  0.4314
  485TMC3     C 7268   0.735   2.172  12.753 -0.4553 -0.0368 -0.1069
  485TMC3     O 7269   0.620   2.219  12.742 -0.6866 -0.1791 -0.1648
  485TMC3     H 7270   0.993   2.080  12.733 -1.4921 -0.0886  0.2072
  485TMC3    H1 7271   0.674   2.274  12.513 -1.6737 -0.8892  3.2616
  485TMC3    H2 7272   1.063   2.220  12.345 -0.1821  1.7151  0.8891
  485TMC3    C7 7273   0.851   2.344  12.317  0.1232  0.1212 -0.4053
  485TMC3    C8 7274   1.160   2.217  12.569  0.1460 -0.9550 -0.2108
  485TMC3    O1 7275   0.926   2.343  12.220 -0.2478 -0.1116 -0.2418
  485TMC3    O2 7276   1.241   2.209  12.478  0.2812  0.2748 -0.1935
  486MPD2     C 7277   2.175   1.106  13.553  0.0806  0.4441 -0.3234
  486MPD2    C1 7278   2.223   1.087  13.418  0.4736 -0.2176 -0.1114
  486MPD2    C2 7279   2.193   1.177  13.321 -0.2197  0.5631  0.2539
  486MPD2    C3 7280   2.104   1.281  13.349 -0.5481 -0.5477 -0.4077
  486MPD2    C4 7281   2.053   1.293  13.472  0.4790  0.1796  0.6934
  486MPD2    C5 7282   2.091   1.214  13.570 -0.0627  0.1206  0.1383
  486MPD2     H 7283   2.233   1.189  13.221  0.3849 -1.1002  0.2926
  486MPD2    H1 7284   2.000   1.385  13.494  0.2937 -0.5117  3.1204
  486MPD2    H2 7285   2.201   1.040  13.636 -2.2262 -0.5849 -0.4175
  486MPD2    H3 7286   2.051   1.243  13.666 -0.0029  2.4661 -0.5616
  486MPD2     N 7287   2.100   1.378  13.248  0.6097 -0.1962 -0.0996
  486MPD2    H5 7288   2.167   1.370  13.173  2.0180  0.3822  1.0974
  486MPD2    N1 7289   2.311   0.976  13.399  0.6861 -0.0998  0.1472
  486MPD2    H7 7290   2.340   0.922  13.480  5.7592  0.6213 -1.1892
  487TMC3    C1 7291   2.432   0.825  13.275  0.2389  0.7020  0.1840
  487TMC3    C2 7292   2.426   0.730  13.172  0.0431  0.6661 -0.6336
  487TMC3    C3 7293   2.531   0.647  13.156  0.1020  0.4221  0.2550
  487TMC3    C4 7294   2.534   0.823  13.368  0.0961 -0.0645 -0.4306
  487TMC3    C5 7295   2.632   0.730  13.344  0.4051 -0.5775  0.0059
  487TMC3    C6 7296   2.634   0.642  13.239 -0.4075  1.3278  0.3086
  487TMC3     C 7297   2.326   0.924  13.273  0.2662  0.3170  0.3174
  487TMC3     O 7298   2.272   0.955  13.169  0.8019  0.0906  0.5211
  487TMC3     H 7299   2.342   0.723  13.102  1.6791 -0.0289 -2.5290
  487TMC3    H1 7300   2.549   0.909  13.433 -0.8573 -0.1505 -0.1077
  487TMC3    H2 7301   2.724   0.588  13.214 -0.8775 -0.0574  1.6357
  487TMC3    C7 7302   2.728   0.700  13.452  0.2236 -0.2225  0.5872
  487TMC3    C8 7303   2.511   0.530  13.072  0.6349  0.3806  0.0432
  487TMC3    O1 7304   2.750   0.793  13.531 -0.1848 -0.1370 -0.4009
  487TMC3    O2 7305   2.612   0.492  13.016  1.0278 -0.3213  0.8050
  488MPD2     C 7306   3.715   2.612  16.782  0.1335  0.4458  0.2374
  488MPD2    C1 7307   3.786   2.713  16.837  0.5693 -0.2696  0.4254
  488MPD2    C2 7308   3.768   2.747  16.968 -0.6412 -0.3355 -0.0053
  488MPD2    C3 7309   3.689   2.670  17.047 -0.8586  0.5511  0.7623
  488MPD2    C4 7310   3.626   2.555  16.997  0.0981  0.4103  0.3654
  488MPD2    C5 7311   3.639   2.526  16.859  0.8480 -0.1513  0.1460
  488MPD2     H 7312   3.811   2.836  17.012 -1.9735  0.5861 -0.6016
  488MPD2    H1 7313   3.547   2.497  17.042  0.6263 -0.3263  0.3439
  488MPD2    H2 7314   3.714   2.597  16.675  0.4753  1.1311  0.1364
  488MPD2    H3 7315   3.576   2.452  16.813  0.4780  0.6761 -0.6830
  488MPD2     N 7316   3.656   2.733  17.167 -0.5286  0.1974 -0.3835
  488MPD2    H5 7317   3.706   2.817  17.197  1.1171 -0.1227 -2.2291
  488MPD2    N1 7318   3.858   2.803  16.758  0.4222  0.2432  0.3110
  488MPD2    H7 7319   3.889   2.892  16.795  1.2854 -0.4329  1.2216
  489TMC3    C1 7320   3.487   2.836  17.295 -0.1898 -0.2409  0.0883
  489TMC3    C2 7321   3.546   2.954  17.268  0.0375  0.2097  0.8819
  489TMC3    C3 7322   3.509   3.061  17.339  0.6467  0.6286 -0.0854
  489TMC3    C4 7323   3.382   2.821  17.379 -0.3584 -0.0192 -0.3407
  489TMC3    C5 7324   3.329   2.939  17.429  0.8589 -0.2767  0.1142
  489TMC3    C6 7325   3.397   3.063  17.419  0.1477 -0.0036  0.3292
  489TMC3     C 7326   3.535   2.712  17.234  0.3428  0.0676 -0.1321
  489TMC3     O 7327   3.465   2.611  17.234  0.1969  1.1571 -0.2832
  489TMC3     H 7328   3.615   2.965  17.185 -1.0425 -0.3588 -0.0998
  489TMC3    H1 7329   3.351   2.722  17.410 -1.0318 -0.3600 -2.0795
  489TMC3    H2 7330   3.365   3.154  17.468  1.6329 -1.0214  3.2068
  489TMC3    C7 7331   3.204   2.932  17.503  0.0581  0.0692 -0.0920
  489TMC3    C8 7332   3.614   3.165  17.352  0.0275 -0.3856 -0.3414
  489TMC3    O1 7333   3.150   2.820  17.505  0.7363  0.9278  0.5317
  489TMC3    O2 7334   3.712   3.151  17.282 -0.1093 -0.1522 -0.0267
  490MPD2     C 7335   0.165   1.426  17.600  0.4673 -0.1493  0.6087
  490MPD2    C1 7336   0.051   1.452  17.672 -0.0247  0.4106  0.1366
  490MPD2    C2 7337   0.058   1.533   0.028 -0.3975 -0.1571 -0.7035
  490MPD2    C3 7338   0.177   1.582   0.073  0.2547 -0.4319  0.0963
  490MPD2    C4 7339   0.292   1.540   0.009 -0.1018 -0.6006  0.7463
  490MPD2    C5 7340   0.287   1.463  17.649  0.0304  0.3244  0.1203
  490MPD2     H 7341   4.709   1.560   0.084  0.2760 -2.0050  1.2147
  490MPD2    H1 7342   0.388   1.580   0.041 -0.1883 -1.6319  2.2932
  490MPD2    H2 7343   0.166   1.366  17.510  0.1064 -1.1103  1.2452
  490MPD2    H3 7344   0.378   1.440  17.594 -0.6302 -1.1098 -0.3815
  490MPD2     N 7345   0.198   1.680   0.175  0.0009  0.3426  0.6370
  490MPD2    H5 7346   0.292   1.700   0.207 -0.0419 -1.6296  2.0222
  490MPD2    N1 7347   4.665   1.402  17.641 -0.4884  0.1073  0.0112
  490MPD2    H7 7348   4.599   1.403  17.717  0.9698 -0.7974  1.2853
  491TMC3    C1 7349   4.495   1.306  17.515  0.1100  0.1189 -0.2453
  491TMC3    C2 7350   4.445   1.241  17.628 -0.0327 -1.2177 -0.9215
  491TMC3    C3 7351   4.306   1.219  17.630 -0.0098  0.7329  0.8470
  491TMC3    C4 7352   4.413   1.349  17.416 -0.0315  0.1204 -1.1043
  491TMC3    C5 7353   4.280   1.324  17.421  0.4178 -0.1802 -0.3580
  491TMC3    C6 7354   4.225   1.254  17.522  0.0815  0.4053 -0.2081
  491TMC3     C 7355   4.630   1.361  17.515  0.1428  0.3618 -0.4755
  491TMC3     O 7356   4.688   1.374  17.408 -0.1139  0.0450 -0.3252
  491TMC3     H 7357   4.513   1.214  17.709  1.8734  0.1804 -2.0361
  491TMC3    H1 7358   4.455   1.412  17.338  1.4571 -0.6394 -0.9182
  491TMC3    H2 7359   4.118   1.235  17.525  0.2378 -0.4849 -0.3709
  491TMC3    C7 7360   4.190   1.389  17.331  0.1841 -0.3371 -0.4782
  491TMC3    C8 7361   4.255   1.163   0.001  0.1602  0.2900  0.1937
  491TMC3    O1 7362   4.092   1.324  17.299 -0.1283 -0.5546 -0.2545
  491TMC3    O2 7363   4.140   1.120  17.746 -0.4424 -0.4472 -0.4573
  492MPD2     C 7364   3.833   2.252  12.131 -0.5322 -0.2891  0.4493
  492MPD2    C1 7365   3.757   2.188  12.034 -0.5452 -0.1262  0.2985
  492MPD2    C2 7366   3.655   2.098  12.073  0.5458 -0.3946  0.1593
  492MPD2    C3 7367   3.634   2.075  12.207 -0.2679  0.5155  0.5556
  492MPD2    C4 7368   3.709   2.140  12.298 -0.5023  0.0112 -0.1775
  492MPD2    C5 7369   3.804   2.233  12.263 -0.5260  0.0177 -0.2659
  492MPD2     H 7370   3.599   2.045  11.996 -0.9198 -0.2920  1.1711
  492MPD2    H1 7371   3.695   2.126  12.405  0.6201 -1.4166 -0.2224
  492MPD2    H2 7372   3.924   2.307  12.107 -0.2250  0.4957  3.4685
  492MPD2    H3 7373   3.864   2.289  12.333 -1.6408 -1.2441  1.6999
  492MPD2     N 7374   3.526   1.998  12.254  0.1348  0.2047 -0.1292
  492MPD2    H5 7375   3.496   2.003  12.351 -1.0830 -1.1051 -0.4323
  492MPD2    N1 7376   3.776   2.224  11.902 -0.1590  0.1278 -0.1201
  492MPD2    H7 7377   3.832   2.308  11.888 -0.9634  0.7825  0.6315
  493TMC3    C1 7378   3.735   2.245  11.669  0.3502 -0.1324 -0.3521
  493TMC3    C2 7379   3.739   2.379  11.668 -1.0523 -0.2705 -0.0971
  493TMC3    C3 7380   3.709   2.442  11.547  0.3753  0.0810  0.4709
  493TMC3    C4 7381   3.709   2.171  11.558  0.2383  0.1647  0.1672
  493TMC3    C5 7382   3.683   2.245  11.446 -1.0766  0.1304  0.6296
  493TMC3    C6 7383   3.688   2.376  11.432  0.2023  0.7685  0.0074
  493TMC3     C 7384   3.712   2.171  11.797 -0.0470  0.3125  0.0518
  493TMC3     O 7385   3.642   2.073  11.778 -0.1092 -0.8901  0.1682
  493TMC3     H 7386   3.751   2.440  11.757 -2.1691 -0.8609  0.4577
  493TMC3    H1 7387   3.716   2.063  11.553 -0.6559  0.1898 -1.6189
  493TMC3    H2 7388   3.643   2.432  11.351 -0.2137  1.3142  0.6076
  493TMC3    C7 7389   3.600   2.183  11.345 -0.2519 -0.0374 -0.3369
  493TMC3    C8 7390   3.683   2.582  11.567  0.2159 -0.0662 -0.4077
  493TMC3    O1 7391   3.613   2.219  11.229  0.5047 -0.2589  0.2753
  493TMC3    O2 7392   3.620   2.615  11.665 -0.2340 -0.0912  0.5655
  494TMC3    C1 7393   4.430   3.749   0.497  0.2629  0.4706 -0.3933
  494TMC3    C2 7394   4.478   3.632   0.550 -0.0912  0.3748  0.8008
  494TMC3    C3 7395   4.528   3.542   0.458  0.5138  0.6116 -0.2030
  494TMC3    C4 7396   4.443   3.787   0.368  1.4174  0.1563  0.1526
  494TMC3    C5 7397   4.493   3.692   0.281  0.4761  0.7063 -0.0537
  494TMC3    C6 7398   4.535   3.568   0.325  0.5418  0.9587  0.0445
  494TMC3     C 7399   4.351   3.837   0.576 -0.0278 -0.0799 -0.1119
  494TMC3     O 7400   4.346   3.958   0.552  0.6561 -0.2778 -0.6429
  494TMC3     H 7401   4.473   3.611   0.656  2.1111  0.7224  0.9786
  494TMC3    H1 7402   4.408   3.885   0.336  0.5143  0.1781  1.2085
  494TMC3    H2 7403   4.590   3.503   0.257  0.0289  0.8771 -0.2912
  494TMC3    C7 7404   4.559   3.751   0.164  0.2402 -0.2602  0.5722
  494TMC3    C8 7405   4.652   3.482   0.487  0.1341 -0.2337  0.1723
  494TMC3    O1 7406   4.675   3.712   0.135 -0.1684  0.3213  0.1960
  494TMC3    O2 7407   0.006   3.536   0.548 -0.2005 -0.0651 -0.1542
  495TMC3    C1 7408   3.601   1.457  15.076  1.1210 -0.0788  0.3963
  495TMC3    C2 7409   3.533   1.463  14.961 -0.6459 -0.1356 -0.4091
  495TMC3    C3 7410   3.400   1.487  14.960  1.1028 -0.2081  0.2487
  495TMC3    C4 7411   3.536   1.463  15.194  0.0012  0.0038  0.3384
  495TMC3    C5 7412   3.405   1.498  15.194  0.1206  0.5138 -0.5500
  495TMC3    C6 7413   3.328   1.508  15.080  0.6288 -1.0473 -0.5012
  495TMC3     C 7414   3.686   1.340  15.082  0.0781  0.0367  0.3988
  495TMC3     O 7415   3.671   1.256  15.168 -0.2056  0.4650  0.0440
  495TMC3     H 7416   3.592   1.450  14.871 -0.3651 -0.8284 -0.1204
  495TMC3    H1 7417   3.597   1.457  15.283 -0.2445  3.1289  0.7418
  495TMC3    H2 7418   3.220   1.511  15.076  0.7334  0.2904 -2.5820
  495TMC3    C7 7419   3.353   1.492  15.323  0.3223  0.0283  0.0287
  495TMC3    C8 7420   3.319   1.457  14.843 -0.6260 -0.6563  0.4996
  495TMC3    O1 7421   3.431   1.482  15.420 -0.3179  0.2479 -0.1547
  495TMC3    O2 7422   3.200   1.465  14.857 -0.3590 -0.0861 -0.0440
  496MPD2     C 7423   0.640   1.356  15.920  0.2156  0.4615 -0.2237
  496MPD2    C1 7424   0.659   1.221  15.950 -0.0844 -0.7782 -0.0596
  496MPD2    C2 7425   0.548   1.140  15.958 -0.7648 -0.2256  0.0149
  496MPD2    C3 7426   0.425   1.193  15.929  0.4176  0.2795 -0.0359
  496MPD2    C4 7427   0.407   1.324  15.889 -0.0099  0.0096  0.2983
  496MPD2    C5 7428   0.517   1.411  15.885 -0.2757  0.2265 -0.5509
  496MPD2     H 7429   0.552   1.036  15.988  2.5110  0.4490  1.9603
  496MPD2    H1 7430   0.310   1.365  15.861  1.2303  0.9885 -2.5326
  496MPD2    H2 7431   0.724   1.424  15.913 -0.3495  1.0863 -0.8815
  496MPD2    H3 7432   0.508   1.514  15.853 -1.8963  0.1857 -0.2138
  496MPD2     N 7433   0.312   1.109  15.914 -0.2065 -0.3765  0.2466
  496MPD2    H5 7434   0.225   1.152  15.886 -0.2368  1.1925  2.7619
  496MPD2    N1 7435   0.792   1.173  15.954  0.0107  0.1845  0.0523
  496MPD2    H7 7436   0.865   1.239  15.929  1.8364 -1.3047  1.5402
  497TMC3    C1 7437   0.202   0.886  15.899 -0.4191  0.2785  0.0563
  497TMC3    C2 7438   0.271   0.814  15.804  0.9769  0.1304 -0.4388
  497TMC3    C3 7439   0.264   0.678  15.812 -0.2084  0.2212  0.3186
  497TMC3    C4 7440   0.136   0.819  15.993 -0.0660  0.4042  0.6224
  497TMC3    C5 7441   0.129   0.685  15.997  0.1636 -0.3334 -0.9801
  497TMC3    C6 7442   0.200   0.610  15.917  0.2241  0.4181  0.9053
  497TMC3     C 7443   0.306   0.974  15.956  0.7066  0.5454  0.1120
  497TMC3     O 7444   0.388   0.902  16.011  0.1639  0.4606  0.2447
  497TMC3     H 7445   0.337   0.856  15.729 -0.6259 -0.2779 -2.0839
  497TMC3    H1 7446   0.094   0.876  16.075 -1.6463  1.2570 -0.7892
  497TMC3    H2 7447   0.197   0.504  15.936  1.2135  0.1685 -0.3082
  497TMC3    C7 7448   0.148   0.637  16.131  0.1327  0.2693  0.1217
  497TMC3    C8 7449   0.343   0.587  15.739  0.7035  0.4426 -0.3200
  497TMC3    O1 7450   0.066   0.566  16.178 -0.3064  0.3104  0.6375
  497TMC3    O2 7451   0.357   0.471  15.782  0.2428 -0.0856 -0.0705
  498MPD2     C 7452   1.073   2.418  10.271  0.2779  0.2893 -0.3682
  498MPD2    C1 7453   1.067   2.488  10.389  0.1797 -0.2957 -0.2524
  498MPD2    C2 7454   0.936   2.497  10.452 -0.2812 -0.4676  0.0374
  498MPD2    C3 7455   0.830   2.423  10.403 -0.0220 -0.3809  0.1914
  498MPD2    C4 7456   0.843   2.340  10.292 -0.1564 -0.0245 -0.3751
  498MPD2    C5 7457   0.964   2.339  10.234  0.0688 -0.2875  0.0314
  498MPD2     H 7458   0.927   2.555  10.543 -2.0267  0.0052 -0.4355
  498MPD2    H1 7459   0.766   2.278  10.248 -1.6267  0.6610  1.2481
  498MPD2    H2 7460   1.165   2.412  10.214  0.4111  1.2360 -0.2414
  498MPD2    H3 7461   0.972   2.279  10.144  0.6400 -0.5467  0.2564
  498MPD2     N 7462   0.702   2.437  10.469 -0.1129 -0.2564 -0.6581
  498MPD2    H5 7463   0.700   2.505  10.543 -0.6621 -0.3797 -0.5590
  498MPD2    N1 7464   1.175   2.564  10.439  0.1909 -0.2003  0.0055
  498MPD2    H7 7465   1.149   2.631  10.511  0.9111  0.2464 -0.1491
  499TMC3    C1 7466   1.395   2.649  10.457  0.2007 -0.0357  0.0274
  499TMC3    C2 7467   1.528   2.617  10.467  0.3388  1.0568  0.0538
  499TMC3    C3 7468   1.616   2.712  10.500  0.4419 -0.7576 -0.4177
  499TMC3    C4 7469   1.344   2.770  10.481 -0.3520 -0.1400  0.0617
  499TMC3    C5 7470   1.442   2.866  10.496  0.0208 -0.2690 -0.3310
  499TMC3    C6 7471   1.577   2.841  10.501  0.1572 -0.0901 -0.2785
  499TMC3     C 7472   1.308   2.545  10.402 -0.3631  0.0528 -0.3802
  499TMC3     O 7473   1.358   2.463  10.325  0.0453 -0.2877  0.7587
  499TMC3     H 7474   1.564   2.517  10.444  0.9973  0.5666  3.2888
  499TMC3    H1 7475   1.238   2.788  10.471 -0.0073  0.4100 -2.6392
  499TMC3    H2 7476   1.640   2.928  10.516  1.3502 -1.1445  0.7354
  499TMC3    C7 7477   1.399   3.001  10.457  0.1817 -0.3082 -0.7676
  499TMC3    C8 7478   1.752   2.696  10.540  0.1317 -0.3153 -0.4596
  499TMC3    O1 7479   1.478   3.076  10.401 -0.2674 -0.6234  0.2115
  499TMC3    O2 7480   1.807   2.796  10.582 -0.3823 -0.1639  0.3105
  500MPD2     C 7481   2.645   3.082  10.988  0.0634 -0.0280 -0.0332
  500MPD2    C1 7482   2.643   3.218  10.978 -0.0389 -0.5976 -0.1037
  500MPD2    C2 7483   2.566   3.280  10.875 -0.1791 -0.3840  0.1639
  500MPD2    C3 7484   2.487   3.205  10.790 -0.2923  0.1481  0.4654
  500MPD2    C4 7485   2.495   3.066  10.808 -0.4287  0.8751  0.2101
  500MPD2    C5 7486   2.565   3.007  10.905 -0.2761  0.6380 -0.1229
  500MPD2     H 7487   2.564   3.389  10.870 -1.5769 -0.5015 -1.7218
  500MPD2    H1 7488   2.434   2.998  10.750  0.8622 -1.5907  1.7636
  500MPD2    H2 7489   2.696   3.025  11.065  0.1347 -1.5423 -1.2044
  500MPD2    H3 7490   2.550   2.900  10.907  0.8935  0.5025  1.6003
  500MPD2     N 7491   2.399   3.271  10.709  0.2695 -0.1125  0.3604
  500MPD2    H5 7492   2.377   3.369  10.720 -2.5477 -0.4595 -2.1663
  500MPD2    N1 7493   2.719   3.303  11.061  0.4028  0.3543  0.1881
  500MPD2    H7 7494   2.709   3.401  11.040  0.6926  0.3476  0.0199
  501TMC3    C1 7495   2.854   3.374  11.238  0.2148  0.6847  0.3745
  501TMC3    C2 7496   2.909   3.463  11.153 -0.8310  0.4655 -0.7407
  501TMC3    C3 7497   3.005   3.539  11.204 -0.1150 -0.3951 -0.1493
  501TMC3    C4 7498   2.898   3.348  11.363 -0.4932 -0.2528 -0.5589
  501TMC3    C5 7499   3.004   3.427  11.407 -0.0560  0.1377  0.8033
  501TMC3    C6 7500   3.067   3.514  11.329  0.1090 -0.4255  0.5086
  501TMC3     C 7501   2.778   3.269  11.182 -0.6696  0.0837 -0.7254
  501TMC3     O 7502   2.777   3.162  11.240  0.2393  0.0659 -0.4761
  501TMC3     H 7503   2.877   3.479  11.051  0.7052  0.0699 -1.2933
  501TMC3    H1 7504   2.866   3.261  11.420 -2.7274  0.2614 -1.0294
  501TMC3    H2 7505   3.144   3.580  11.368 -0.8965  0.9809  0.1194
  501TMC3    C7 7506   3.057   3.407  11.545  0.8550  0.3120  0.0632
  501TMC3    C8 7507   3.049   3.652  11.133  0.6564  0.7529 -0.1754
  501TMC3    O1 7508   3.172   3.441  11.565  0.8216 -0.1507 -0.6165
  501TMC3    O2 7509   3.152   3.704  11.169 -0.2449  0.0708 -0.1541
  502TMC3    C1 7510   2.878   2.293  15.348  0.8312 -0.1385  1.2153
  502TMC3    C2 7511   2.881   2.411  15.279 -0.0041 -0.7760 -0.1885
  502TMC3    C3 7512   2.762   2.472  15.259 -0.6905  0.6019  0.5395
  502TMC3    C4 7513   2.766   2.243  15.409 -0.1892 -0.4559 -0.6487
  502TMC3    C5 7514   2.656   2.321  15.403 -0.0073  0.3409 -0.0822
  502TMC3    C6 7515   2.646   2.436  15.326 -0.4174 -0.4892  0.0772
  502TMC3     C 7516   3.012   2.261  15.399 -0.1411  0.1168 -0.1290
  502TMC3     O 7517   3.111   2.283  15.335 -0.0599 -0.1101 -0.6791
  502TMC3     H 7518   2.972   2.449  15.232 -0.4665  0.6040  0.0221
  502TMC3    H1 7519   2.754   2.140  15.443  0.3153 -0.5612 -0.7943
  502TMC3    H2 7520   2.559   2.500  15.332  0.0599  0.0801  0.9657
  502TMC3    C7 7521   2.533   2.282  15.458 -0.3245 -0.2303 -0.5274
  502TMC3    C8 7522   2.768   2.580  15.159  0.4385  0.6277 -0.7467
  502TMC3    O1 7523   2.435   2.321  15.400 -0.7242 -0.2249 -0.4221
  502TMC3    O2 7524   2.881   2.625  15.145 -0.4877  0.0287 -0.0181
  503MPD2     C 7525   0.680   2.467  17.010 -0.4520  0.5398  0.6700
  503MPD2    C1 7526   0.626   2.512  17.124 -0.0084 -0.1279  0.2481
  503MPD2    C2 7527   0.647   2.432  17.236 -0.1096 -0.9229  0.5197
  503MPD2    C3 7528   0.722   2.313  17.231  0.4035  0.1508 -0.0328
  503MPD2    C4 7529   0.786   2.273  17.113  0.8067  0.2562 -0.1515
  503MPD2    C5 7530   0.761   2.355  16.999 -0.0909 -0.0534 -0.1224
  503MPD2     H 7531   0.616   2.467  17.334 -1.4637  2.8486 -1.2502
  503MPD2    H1 7532   0.844   2.182  17.102 -1.9428 -1.5080 -0.0816
  503MPD2    H2 7533   0.685   2.519  16.915  0.3122 -1.0274 -0.1400
  503MPD2    H3 7534   0.805   2.331  16.903  0.1475 -2.9246  0.7039
  503MPD2     N 7535   0.736   2.254  17.361 -0.4727  0.6910 -0.4781
  503MPD2    H5 7536   0.700   2.305  17.441  0.6839 -1.3631  1.3507
  503MPD2    N1 7537   0.575   2.647  17.131 -0.2425  0.1391  0.4854
  503MPD2    H7 7538   0.531   2.669  17.220  1.3901  1.4831  0.9651
  504TMC3    C1 7539   0.842   2.125  17.526  0.7938  0.1698 -0.3819
  504TMC3    C2 7540   0.876   1.996  17.564 -0.9093  0.7514 -0.0180
  504TMC3    C3 7541   0.979   1.977  17.649  0.4489 -0.1661 -0.9411
  504TMC3    C4 7542   0.895   2.233  17.587 -0.1848 -0.1268 -0.1072
  504TMC3    C5 7543   0.992   2.206  17.674  0.1165  0.0588  0.1662
  504TMC3    C6 7544   1.045   2.082  17.711  0.4122 -0.1501  0.3863
  504TMC3     C 7545   0.800   2.138  17.390 -0.4653 -0.5992 -0.1360
  504TMC3     O 7546   0.850   2.049  17.317 -0.3540 -0.3918  0.1735
  504TMC3     H 7547   0.847   1.914  17.500 -0.3322 -0.3738  1.1778
  504TMC3    H1 7548   0.864   2.336  17.571 -0.1065 -0.5533 -2.8318
  504TMC3    H2 7549   1.134   2.077   0.017  0.0400 -0.5076  0.8994
  504TMC3    C7 7550   1.057   2.311   0.005 -0.0954  0.4139  0.4203
  504TMC3    C8 7551   1.003   1.844  17.704  0.1546 -0.2352 -0.2711
  504TMC3    O1 7552   1.096   2.275   0.114  0.1356 -0.1163 -0.0049
  504TMC3    O2 7553   0.954   1.754  17.642  0.5702  0.3411 -0.4366
  505MPD2     C 7554   0.391   1.239  11.545  0.5073 -0.3936 -0.0758
  505MPD2    C1 7555   0.346   1.351  11.484 -0.1201  0.0027  0.0379
  505MPD2    C2 7556   0.402   1.466  11.515  0.1905 -0.6039 -0.0650
  505MPD2    C3 7557   0.510   1.473  11.605 -0.0766  0.3249  0.2759
  505MPD2    C4 7558   0.551   1.355  11.670  0.7295 -0.4220 -0.4405
  505MPD2    C5 7559   0.486   1.241  11.643 -0.3040 -0.1213 -0.0339
  505MPD2     H 7560   0.379   1.553  11.454 -0.6841 -1.2316 -0.6344
  505MPD2    H1 7561   0.632   1.356  11.742 -1.4232  0.3340  1.9578
  505MPD2    H2 7562   0.334   1.147  11.527  0.7311 -0.9117  1.8745
  505MPD2    H3 7563   0.503   1.145  11.691 -1.7323 -0.3872 -0.0586
  505MPD2     N 7564   0.596   1.581  11.626  0.2208 -0.0977 -0.2383
  505MPD2    H5 7565   0.682   1.572  11.678 -0.3167 -0.3804  0.5933
  505MPD2    N1 7566   0.238   1.339  11.400 -0.1800 -0.3601 -0.3190
  505MPD2    H7 7567   0.203   1.244  11.401 -0.9644 -0.0587  1.0138
  506TMC3    C1 7568   0.104   1.378  11.212  0.4610 -0.3680 -0.7203
  506TMC3    C2 7569   0.086   1.462  11.105 -0.6020  0.3118  0.4259
  506TMC3    C3 7570   0.127   1.411  10.984  0.3551 -0.3552 -0.1978
  506TMC3    C4 7571   0.119   1.244  11.198 -0.7860 -0.0826 -0.1396
  506TMC3    C5 7572   0.162   1.192  11.074 -0.9256  0.1056  0.5034
  506TMC3    C6 7573   0.161   1.278  10.970  0.4854 -0.0114  0.4721
  506TMC3     C 7574   0.175   1.434  11.329 -0.0390  0.2206 -0.8749
  506TMC3     O 7575   0.197   1.555  11.324 -0.3768  0.8138 -0.4527
  506TMC3     H 7576   0.062   1.567  11.110  0.3992  0.6201 -1.2624
  506TMC3    H1 7577   0.111   1.181  11.286 -0.7747 -1.2353 -0.9737
  506TMC3    H2 7578   0.171   1.241  10.868 -0.1349  4.1374 -1.0846
  506TMC3    C7 7579   0.284   1.121  11.095  0.3683 -0.1074 -0.4068
  506TMC3    C8 7580   0.077   1.478  10.859  0.6938  0.9678  0.0771
  506TMC3    O1 7581   0.276   0.997  11.124  0.4661  0.1252 -0.6053
  506TMC3    O2 7582   0.062   1.401  10.761 -0.5610  0.0720  0.0533
  507TMC3    C1 7583   1.582   2.566  15.078  0.0820  0.6365 -0.3199
  507TMC3    C2 7584   1.555   2.458  15.005  0.0644 -0.7826 -0.2582
  507TMC3    C3 7585   1.624   2.454  14.888  0.3152 -0.1246  0.3759
  507TMC3    C4 7586   1.669   2.674  15.052  0.3244 -0.1713  0.7317
  507TMC3    C5 7587   1.741   2.665  14.938  0.7005  0.1338 -0.2246
  507TMC3    C6 7588   1.718   2.550  14.856  0.3440 -0.6798 -0.7832
  507TMC3     C 7589   1.496   2.597  15.189  0.4074  0.9329 -0.2156
  507TMC3     O 7590   1.546   2.630  15.293 -0.5652 -0.0070 -0.6476
  507TMC3     H 7591   1.474   2.394  15.039 -1.5664  0.9080 -0.9409
  507TMC3    H1 7592   1.674   2.763  15.114  0.5993  1.3939 -1.5331
  507TMC3    H2 7593   1.762   2.537  14.758  1.5097 -0.4205 -0.2921
  507TMC3    C7 7594   1.723   2.781  14.846 -0.1427 -0.1304  0.1416
  507TMC3    C8 7595   1.541   2.420  14.777 -0.0588  0.1422 -0.1862
  507TMC3    O1 7596   1.701   2.752  14.731  0.4767  0.5404  0.7141
  507TMC3    O2 7597   1.465   2.325  14.791  0.2810  0.1965 -0.1633
  508MPD2     C 7598   2.104   4.721  16.387 -0.4563 -0.6250  0.2968
  508MPD2    C1 7599   2.238   0.003  16.400 -0.4175 -0.3078 -0.1578
  508MPD2    C2 7600   2.307   0.023  16.283 -0.1035  0.2604 -0.0363
  508MPD2    C3 7601   2.245   0.005  16.156  0.1603  0.0633  0.4784
  508MPD2    C4 7602   2.109   4.706  16.142  0.1630 -0.1846 -0.0081
  508MPD2    C5 7603   2.041   4.696  16.262  0.5361 -1.2562 -0.0453
  508MPD2     H 7604   2.407   0.063  16.276 -0.0096  0.0966  0.3508
  508MPD2    H1 7605   2.058   4.699  16.046 -0.3555  2.2435  0.0970
  508MPD2    H2 7606   2.050   4.711  16.480 -0.5925  0.7975  0.3666
  508MPD2    H3 7607   1.934   4.679  16.248  0.0327  2.3527 -0.5119
  508MPD2     N 7608   2.322   0.038  16.041 -0.1025  0.5106 -0.0044
  508MPD2    H5 7609   2.415   0.076  16.051 -0.1242  0.6153 -0.1936
  508MPD2    N1 7610   2.295   0.036  16.527  0.1101  0.3807  0.1751
  508MPD2    H7 7611   2.242   0.019  16.612 -0.0825 -1.3644 -0.3055
  509TMC3    C1 7612   2.288   0.341  15.786  0.5860  0.0675  1.2792
  509TMC3    C2 7613   2.405   0.386  15.841  0.1887  1.2265  0.4480
  509TMC3    C3 7614   2.499   0.302  15.893 -0.1214  0.0921  0.8275
  509TMC3    C4 7615   2.268   0.208  15.777 -0.3005 -0.2812 -0.8595
  509TMC3    C5 7616   2.357   0.122  15.833 -0.0480  0.0396 -0.2304
  509TMC3    C6 7617   2.482   0.164  15.887 -0.0209 -0.1802  0.3669
  509TMC3     C 7618   2.166   0.413  15.802 -0.2207 -0.4839 -0.6894
  509TMC3     O 7619   2.072   0.354  15.848  0.1597 -0.3202 -0.7196
  509TMC3     H 7620   2.402   0.493  15.859 -0.7651  1.4504 -1.0356
  509TMC3    H1 7621   2.178   0.166  15.734  1.0013 -3.5564 -0.4100
  509TMC3    H2 7622   2.557   0.095  15.923 -1.8990 -3.0076 -1.1083
  509TMC3    C7 7623   2.285   0.025  15.911 -0.0054  0.8769  0.0565
  509TMC3    C8 7624   2.550   0.336  16.023 -0.1109 -0.1199  0.3069
  509TMC3    O1 7625   2.184   4.713  15.859  0.5814  0.0357 -0.5510
  509TMC3    O2 7626   2.560   0.243  16.105  0.0109  0.3883 -0.2167
  510MPD2     C 7627   4.673   1.684  15.031  0.4826 -0.2920 -0.8015
  510MPD2    C1 7628   0.023   1.611  15.104  0.4379  0.3810  0.0573
  510MPD2    C2 7629   0.149   1.594  15.055 -0.1329 -0.3077 -0.1412
  510MPD2    C3 7630   0.201   1.644  14.934  0.3378  0.4290 -0.5924
  510MPD2    C4 7631   0.114   1.717  14.858  0.1332 -0.1819  0.0972
  510MPD2    C5 7632   4.722   1.728  14.904 -0.0383  0.3537  0.0991
  510MPD2     H 7633   0.216   1.534  15.114 -1.5329  1.9486  3.7161
  510MPD2    H1 7634   0.133   1.758  14.759  1.1958 -0.6830  0.0986
  510MPD2    H2 7635   4.568   1.686  15.058  1.0329 -2.8305  1.5160
  510MPD2    H3 7636   4.647   1.766  14.835 -0.3886 -0.1649  0.1921
  510MPD2     N 7637   0.331   1.608  14.885  0.2492 -0.7867 -0.0417
  510MPD2    H5 7638   0.393   1.566  14.954  0.1751 -0.3684  0.2768
  510MPD2    N1 7639   4.711   1.552  15.222  0.8355 -0.0472  0.1205
  510MPD2    H7 7640   4.617   1.575  15.253  1.4933 -0.0026  2.1161
  511TMC3    C1 7641   4.697   1.393  15.394  0.2523  0.1350  0.1193
  511TMC3    C2 7642   4.576   1.443  15.425  0.2655  0.2667  0.4256
  511TMC3    C3 7643   4.500   1.367  15.511  0.1109 -0.2893 -0.2770
  511TMC3    C4 7644   0.012   1.279  15.448 -0.0881 -0.0088 -0.2591
  511TMC3    C5 7645   4.664   1.202  15.525  0.0104  0.1976 -0.5252
  511TMC3    C6 7646   4.541   1.249  15.564 -0.0427  0.4237 -0.1845
  511TMC3     C 7647   0.032   1.458  15.294  0.8022 -0.4991 -0.6834
  511TMC3     O 7648   0.140   1.404  15.284  0.3245  0.3618 -0.3110
  511TMC3     H 7649   4.544   1.544  15.403  0.2023  0.3066  0.7007
  511TMC3    H1 7650   0.109   1.239  15.422  0.8036 -0.9022  4.3519
  511TMC3    H2 7651   4.482   1.197  15.639  0.9207 -0.4941 -0.0732
  511TMC3    C7 7652   4.691   1.070  15.565 -0.2684  0.2244 -0.3578
  511TMC3    C8 7653   4.366   1.406  15.554  0.0612 -0.4469  0.4772
  511TMC3    O1 7654   0.071   1.042  15.572 -0.7209 -0.6752  0.3330
  511TMC3    O2 7655   4.288   1.322  15.597  0.3843  0.2314 -0.1725
  512TMC3    C1 7656   3.191   0.699  13.431  0.4714 -0.2277  1.3559
  512TMC3    C2 7657   3.232   0.790  13.519 -0.6204 -0.7226 -0.1326
  512TMC3    C3 7658   3.314   0.748  13.617  0.7671 -0.0504 -0.2923
  512TMC3    C4 7659   3.239   0.571  13.423  0.5775 -0.2933  0.0745
  512TMC3    C5 7660   3.330   0.536  13.517  1.7272  0.3517  0.1872
  512TMC3    C6 7661   3.368   0.620  13.619  0.0447 -0.0056 -0.5172
  512TMC3     C 7662   3.106   0.746  13.325  0.8315 -0.1989  0.6433
  512TMC3     O 7663   3.057   0.860  13.348  0.0022  0.0311 -0.3017
  512TMC3     H 7664   3.198   0.892  13.516  2.1609  0.2660  1.8508
  512TMC3    H1 7665   3.208   0.504  13.343  0.2352 -1.4862  1.1958
  512TMC3    H2 7666   3.435   0.595  13.701 -0.5288  2.3636  0.6879
  512TMC3    C7 7667   3.365   0.392  13.522 -0.1344 -0.5294  0.4327
  512TMC3    C8 7668   3.369   0.852  13.712 -0.1077 -0.5351  0.0629
  512TMC3    O1 7669   3.348   0.324  13.420 -0.0520 -0.6018 -0.1261
  512TMC3    O2 7670   3.293   0.947  13.739  0.2778  0.5121 -0.1646
  513MPD2     C 7671   1.306   0.914  13.602 -0.7339  0.5100  0.0590
  513MPD2    C1 7672   1.392   1.019  13.609 -0.9664 -0.0413  0.2844
  513MPD2    C2 7673   1.444   1.051  13.736 -0.2377  0.2427  0.3253
  513MPD2    C3 7674   1.387   0.996  13.853 -0.0655 -0.2966  0.0519
  513MPD2    C4 7675   1.298   0.893  13.848 -0.4475  0.0984 -0.3252
  513MPD2    C5 7676   1.269   0.849  13.723 -0.1307 -0.0447 -0.0649
  513MPD2     H 7677   1.514   1.133  13.745  2.1633 -1.9782  1.8173
  513MPD2    H1 7678   1.247   0.846  13.931  0.2390 -0.4248 -0.2060
  513MPD2    H2 7679   1.274   0.871  13.508 -2.2698 -0.6527  1.1192
  513MPD2    H3 7680   1.197   0.768  13.714  0.7168 -1.3079  4.1633
  513MPD2     N 7681   1.433   1.059  13.973 -0.6151  0.7686 -0.1031
  513MPD2    H5 7682   1.481   1.148  13.976 -1.2980  1.1132  0.8099
  513MPD2    N1 7683   1.450   1.081  13.500 -0.0382  0.1613 -0.6923
  513MPD2    H7 7684   1.524   1.150  13.514 -0.2800  0.2166  0.3237
  514TMC3    C1 7685   1.511   1.158  13.298 -0.7002 -0.2576  0.0605
  514TMC3    C2 7686   1.460   1.260  13.222  0.4266 -0.3484 -0.1519
  514TMC3    C3 7687   1.520   1.385  13.235  0.2970 -0.0617  0.0933
  514TMC3    C4 7688   1.621   1.186  13.369 -1.1426  0.1551  0.8050
  514TMC3    C5 7689   1.684   1.308  13.375  0.2504 -0.0858 -0.8424
  514TMC3    C6 7690   1.637   1.412  13.302 -0.4772  0.0971  0.3865
  514TMC3     C 7691   1.421   1.072  13.364 -0.3517 -0.2985 -0.4239
  514TMC3     O 7692   1.310   1.042  13.318  0.7422 -0.1758 -0.6397
  514TMC3     H 7693   1.368   1.237  13.170  0.3030  0.9347 -0.5022
  514TMC3    H1 7694   1.672   1.106  13.421 -0.2873 -0.4518 -0.9831
  514TMC3    H2 7695   1.686   1.508  13.295  2.8887 -1.6774 -0.5486
  514TMC3    C7 7696   1.709   1.344  13.512  0.0566 -0.2825 -0.2808
  514TMC3    C8 7697   1.451   1.504  13.185 -0.5693 -0.4965 -0.8636
  514TMC3    O1 7698   1.690   1.255  13.594  0.3806 -0.1575  0.3718
  514TMC3    O2 7699   1.494   1.609  13.225 -0.4086 -0.4084 -0.6934
  515MPD2     C 7700   3.939   1.962  14.935  0.7567 -0.1212  0.4086
  515MPD2    C1 7701   3.863   2.058  14.870  0.4173 -0.2273 -0.1089
  515MPD2    C2 7702   3.921   2.181  14.856  0.2043  0.5371  0.1720
  515MPD2    C3 7703   4.040   2.211  14.909 -0.4675  1.1128 -0.6332
  515MPD2    C4 7704   4.107   2.118  14.985  0.4240  0.3188 -0.8533
  515MPD2    C5 7705   4.052   1.997  14.999 -0.4135 -0.2660 -0.8268
  515MPD2     H 7706   3.861   2.260  14.811 -1.6789 -1.3278 -0.5819
  515MPD2    H1 7707   4.205   2.139  15.027  0.7555  0.5101 -1.7334
  515MPD2    H2 7708   3.905   1.862  14.959 -1.4709 -0.4035 -4.0444
  515MPD2    H3 7709   4.102   1.926  15.063  0.8960  0.7593 -0.7108
  515MPD2     N 7710   4.103   2.337  14.893 -0.7043 -0.3066  0.0920
  515MPD2    H5 7711   4.194   2.351  14.937  0.4109 -2.4043 -1.5787
  515MPD2    N1 7712   3.728   2.043  14.831  0.2290  0.3413 -0.6799
  515MPD2    H7 7713   3.673   2.122  14.799  1.4721  1.0066 -1.1992
  516TMC3    C1 7714   3.514   1.934  14.823 -0.4648 -0.3952  0.1843
  516TMC3    C2 7715   3.469   2.039  14.743 -0.3254  1.1736  0.3578
  516TMC3    C3 7716   3.329   2.071  14.750  0.2351 -0.0679  1.1917
  516TMC3    C4 7717   3.427   1.842  14.879 -1.0377  0.5130 -0.2331
  516TMC3    C5 7718   3.293   1.867  14.874 -0.2195 -0.3317 -0.0422
  516TMC3    C6 7719   3.249   1.988  14.821  0.0132 -0.2659  0.0965
  516TMC3     C 7720   3.653   1.933  14.870 -0.0309 -0.1982 -1.1276
  516TMC3     O 7721   3.687   1.837  14.940 -0.1594  1.1377  0.3749
  516TMC3     H 7722   3.538   2.101  14.687  2.8857 -1.0673  1.8192
  516TMC3    H1 7723   3.450   1.755  14.939  0.4858  0.8839 -0.2805
  516TMC3    H2 7724   3.143   2.005  14.835  0.0309 -1.8442  2.1511
  516TMC3    C7 7725   3.250   1.843  15.007  0.3049  0.4293 -0.7191
  516TMC3    C8 7726   3.274   2.189  14.678  0.0786  0.6926 -0.3994
  516TMC3    O1 7727   3.335   1.859  15.095  0.1658 -0.2557  0.1664
  516TMC3    O2 7728   3.154   2.190  14.656 -0.1206  0.2663 -0.2728
  517MPD2     C 7729   3.490   3.904  17.615 -0.2562  0.4753  0.8862
  517MPD2    C1 7730   3.555   3.874  17.738  1.0082 -0.9412 -0.2979
  517MPD2    C2 7731   3.600   3.981   0.058 -0.0055 -0.1008  0.2397
  517MPD2    C3 7732   3.577   4.113   0.018  0.0513  0.5465 -0.6437
  517MPD2    C4 7733   3.519   4.140  17.653 -0.1405  0.4786  0.6375
  517MPD2    C5 7734   3.478   4.037  17.573  0.7794  0.6560 -0.3583
  517MPD2     H 7735   3.664   3.950   0.140  0.5203  1.7046  0.4968
  517MPD2    H1 7736   3.499   4.238  17.612  0.7998 -0.4170 -1.9465
  517MPD2    H2 7737   3.451   3.820  17.559 -0.6626  2.7403 -2.2292
  517MPD2    H3 7738   3.438   4.051  17.474 -0.7596 -2.2287 -0.1646
  517MPD2     N 7739   3.629   4.219   0.098  0.3277 -0.7210  0.5663
  517MPD2    H5 7740   3.632   4.194   0.197  2.5254  1.9183  1.1753
  517MPD2    N1 7741   3.597   3.745   0.025  0.5552 -0.7289 -0.5544
  517MPD2    H7 7742   3.658   3.736   0.106 -0.4733 -1.0055  0.1864
  518TMC3    C1 7743   3.652   3.513   0.007  0.8114 -0.2574 -0.2219
  518TMC3    C2 7744   3.622   3.391  17.718 -0.1068  0.0265  0.2090
  518TMC3    C3 7745   3.731   3.309  17.713 -0.2212  0.4854 -0.3954
  518TMC3    C4 7746   3.776   3.562   0.032 -0.1799 -0.1850  0.6418
  518TMC3    C5 7747   3.879   3.474   0.017 -0.1014  0.6866 -0.6087
  518TMC3    C6 7748   3.861   3.347  17.744  0.1763 -0.1087 -0.7364
  518TMC3     C 7749   3.563   3.623  17.726 -0.9358 -0.4825 -0.5241
  518TMC3     O 7750   3.474   3.590  17.649  0.0284  0.5407 -0.5816
  518TMC3     H 7751   3.524   3.359  17.684  0.2259  0.1439 -0.8674
  518TMC3    H1 7752   3.811   3.662   0.055 -1.3386 -0.4940  3.8126
  518TMC3    H2 7753   3.940   3.274  17.730  1.4991  0.5188  3.6616
  518TMC3    C7 7754   4.010   3.529   0.012  0.1160 -0.1568  0.1529
  518TMC3    C8 7755   3.715   3.168  17.694  0.3419  0.4424  0.0879
  518TMC3    O1 7756   4.018   3.651  17.743 -0.4399 -0.3267  0.1063
  518TMC3    O2 7757   3.809   3.105  17.646 -0.7480 -0.0625 -0.7984
  519MPD2     C 7758   0.416   2.796  14.409  0.1724 -0.7788  0.1494
  519MPD2    C1 7759   0.318   2.737  14.330  0.0320  0.2834  0.0969
  519MPD2    C2 7760   0.311   2.606  14.334 -0.7253 -0.7902 -0.0195
  519MPD2    C3 7761   0.393   2.531  14.405  0.5601 -0.3995 -0.8630
  519MPD2    C4 7762   0.489   2.586  14.477  0.1143 -0.3673 -0.3944
  519MPD2    C5 7763   0.510   2.722  14.475  0.6340 -0.4097 -0.3343
  519MPD2     H 7764   0.241   2.554  14.269 -0.3525 -0.3302 -0.7873
  519MPD2    H1 7765   0.561   2.526  14.532  0.1291  0.8143  0.8765
  519MPD2    H2 7766   0.415   2.903  14.425 -1.8931 -0.5166 -1.8104
  519MPD2    H3 7767   0.593   2.763  14.531 -0.8958  2.2877 -0.0216
  519MPD2     N 7768   0.400   2.383  14.386 -0.5583 -0.1026  0.1037
  519MPD2    H5 7769   0.478   2.331  14.425 -1.5062  0.2217  2.4164
  519MPD2    N1 7770   0.224   2.809  14.245  0.2320 -0.6447 -0.4630
  519MPD2    H7 7771   0.173   2.747  14.182  0.3161  0.4281 -1.5739
  520TMC3    C1 7772   0.361   2.158  14.341 -0.1789 -0.0020  0.1899
  520TMC3    C2 7773   0.291   2.077  14.256 -0.1428  0.3627  0.0346
  520TMC3    C3 7774   0.368   2.015  14.158 -0.3614 -0.3136  0.1103
  520TMC3    C4 7775   0.497   2.152  14.365 -0.1833 -0.2023 -0.7379
  520TMC3    C5 7776   0.556   2.064  14.277 -0.3545 -0.0618 -0.1861
  520TMC3    C6 7777   0.501   2.006  14.169 -0.4309 -0.8314  0.1641
  520TMC3     C 7778   0.310   2.298  14.334 -0.3555  0.1996 -0.6820
  520TMC3     O 7779   0.235   2.332  14.245  0.1576 -0.7713 -0.2646
  520TMC3     H 7780   0.183   2.081  14.267 -0.2286  1.2950 -1.1672
  520TMC3    H1 7781   0.551   2.193  14.449  0.3407 -0.7882 -0.7850
  520TMC3    H2 7782   0.557   1.944  14.099 -2.4710 -0.4804 -1.7505
  520TMC3    C7 7783   0.698   2.029  14.304 -0.8419  0.2601 -0.9333
  520TMC3    C8 7784   0.310   1.971  14.034 -1.3412  0.2310  0.7711
  520TMC3    O1 7785   0.731   2.037  14.421 -0.1459  0.4735 -0.8512
  520TMC3    O2 7786   0.370   1.888  13.967 -0.1427 -0.2847  0.2491
  521MPD2     C 7787   1.264   0.491   0.146  0.3086 -0.4505  0.3492
  521MPD2    C1 7788   1.235   0.403   0.046  0.0810 -0.1128  0.2209
  521MPD2    C2 7789   1.280   0.435  17.673 -0.8094  0.0765 -0.3982
  521MPD2    C3 7790   1.351   0.547  17.651 -0.1127 -0.9240  0.3874
  521MPD2    C4 7791   1.371   0.632  17.748  0.5747 -0.4577 -0.0586
  521MPD2    C5 7792   1.335   0.601   0.121  0.3724 -0.1922  0.0628
  521MPD2     H 7793   1.255   0.371  17.590  1.8492 -1.1366 -0.2873
  521MPD2    H1 7794   1.428   0.724  17.738  0.4879 -0.4484 -0.4488
  521MPD2    H2 7795   1.234   0.467   0.247 -3.3703 -0.7812 -0.8263
  521MPD2    H3 7796   1.361   0.665   0.204  0.0916 -1.2428  0.9546
  521MPD2     N 7797   1.395   0.563  17.519  0.0051  0.3523  0.5465
  521MPD2    H5 7798   1.379   0.485  17.456  1.6625  2.4420 -2.4502
  521MPD2    N1 7799   1.183   0.274   0.078  0.3716 -0.1799  0.0419
  521MPD2    H7 7800   1.174   0.261   0.178 -0.9377 -0.0100 -0.0500
  522TMC3    C1 7801   1.540   0.628  17.355  0.0153  0.0781 -0.2299
  522TMC3    C2 7802   1.665   0.676  17.329  0.5988 -0.9513  1.3080
  522TMC3    C3 7803   1.745   0.621  17.233  0.3715  0.1211  0.1136
  522TMC3    C4 7804   1.499   0.520  17.287  0.1541  0.1068 -0.8512
  522TMC3    C5 7805   1.591   0.453  17.205  0.1021 -0.1141 -0.3259
  522TMC3    C6 7806   1.716   0.504  17.168 -0.7579 -0.2996 -0.8953
  522TMC3     C 7807   1.479   0.661  17.481 -0.7736  1.0742  0.8913
  522TMC3     O 7808   1.531   0.751  17.546 -0.0560  0.2767 -0.0513
  522TMC3     H 7809   1.690   0.770  17.378 -0.1363 -0.4048  0.6216
  522TMC3    H1 7810   1.397   0.483  17.291  0.5759 -0.9273  0.5959
  522TMC3    H2 7811   1.765   0.458  17.083 -1.1034 -0.2473 -1.1249
  522TMC3    C7 7812   1.551   0.324  17.149 -0.1112  0.1318  0.9237
  522TMC3    C8 7813   1.873   0.685  17.216  0.4571 -0.3106  0.4556
  522TMC3    O1 7814   1.637   0.233  17.163  0.4068  0.1182  0.2737
  522TMC3    O2 7815   1.881   0.798  17.256 -0.1171  0.6876 -0.2962
  523MPD2     C 7816   3.038   0.775  10.311  0.3176  0.2208  0.5950
  523MPD2    C1 7817   3.139   0.829  10.386 -0.7221 -0.3253 -0.2970
  523MPD2    C2 7818   3.132   0.958  10.417 -0.3063  1.0276  0.7566
  523MPD2    C3 7819   3.016   1.030  10.393  0.1564 -0.4967  0.2376
  523MPD2    C4 7820   2.913   0.972  10.334 -0.1426  0.1443 -0.9503
  523MPD2    C5 7821   2.920   0.845  10.283 -0.5541  0.7632  0.1601
  523MPD2     H 7822   3.217   1.012  10.458  2.4429 -2.2745 -0.6354
  523MPD2    H1 7823   2.819   1.021  10.310 -2.1074 -1.3726  3.5085
  523MPD2    H2 7824   3.039   0.671  10.281 -0.2280  0.3274  0.2216
  523MPD2    H3 7825   2.842   0.798  10.225 -0.4546  0.6899  0.0840
  523MPD2     N 7826   2.994   1.166  10.417  0.3060  0.1460  0.7269
  523MPD2    H5 7827   2.908   1.204  10.377 -0.5378  0.4365  2.7940
  523MPD2    N1 7828   3.245   0.743  10.413 -0.6385 -0.2941 -0.0185
  523MPD2    H7 7829   3.236   0.648  10.380  2.1835 -1.0233  1.2914
  524TMC3    C1 7830   3.030   1.383  10.474 -0.1414  0.6535  0.0395
  524TMC3    C2 7831   3.131   1.472  10.497  0.1233 -0.2079  0.0830
  524TMC3    C3 7832   3.095   1.600  10.522 -0.6119  0.0624 -1.6312
  524TMC3    C4 7833   2.901   1.402  10.502  0.1144  0.8083  0.0985
  524TMC3    C5 7834   2.866   1.537  10.519 -0.4284  0.7352 -0.0345
  524TMC3    C6 7835   2.962   1.636  10.542 -0.5611 -0.5801 -0.5460
  524TMC3     C 7836   3.085   1.254  10.460 -0.0211 -0.1606  0.2593
  524TMC3     O 7837   3.204   1.240  10.481  0.5042  0.2357  0.4722
  524TMC3     H 7838   3.234   1.463  10.464  0.6104  1.3160  1.2384
  524TMC3    H1 7839   2.826   1.325  10.489 -1.3201  2.2189  0.0577
  524TMC3    H2 7840   2.928   1.738  10.560 -0.7221 -0.5847 -0.8183
  524TMC3    C7 7841   2.732   1.565  10.558  0.3958  0.1619  0.4078
  524TMC3    C8 7842   3.189   1.707  10.508  0.3322 -0.0944 -0.5801
  524TMC3    O1 7843   2.672   1.490  10.632 -0.2765  0.2785 -0.2691
  524TMC3    O2 7844   3.148   1.814  10.465  1.0331  0.4237  0.2523
  525MPD2     C 7845   1.781   2.020  14.678 -0.1980  0.2105 -0.4971
  525MPD2    C1 7846   1.890   2.022  14.765 -0.5700  0.5735  0.9016
  525MPD2    C2 7847   1.998   2.101  14.735 -0.4093 -0.4833  0.7277
  525MPD2    C3 7848   1.984   2.199  14.630  0.4520 -0.2121  0.3603
  525MPD2    C4 7849   1.875   2.199  14.557 -0.4344  0.0145  0.2033
  525MPD2    C5 7850   1.771   2.117  14.582 -0.2913 -0.4168  0.2677
  525MPD2     H 7851   2.085   2.099  14.799 -1.2430 -2.1374  1.8260
  525MPD2    H1 7852   1.855   2.274  14.482 -0.1367 -0.2205 -0.1107
  525MPD2    H2 7853   1.692   1.959  14.687 -0.1895  0.1422 -0.9012
  525MPD2    H3 7854   1.682   2.131  14.521 -0.2376  0.8204  0.4755
  525MPD2     N 7855   2.079   2.294  14.596  0.2847  0.5893  0.6514
  525MPD2    H5 7856   2.053   2.362  14.524  1.1654 -1.9449 -2.0765
  525MPD2    N1 7857   1.896   1.950  14.886  0.4764  0.2482 -0.8421
  525MPD2    H7 7858   1.985   1.925  14.929  0.7597 -0.2028 -1.6857
  526TMC3    C1 7859   1.814   1.810  15.060  0.3241  0.8065  0.0215
  526TMC3    C2 7860   1.730   1.789  15.165 -0.0463  0.4539 -0.1391
  526TMC3    C3 7861   1.777   1.707  15.274  0.8591 -0.3506 -0.3101
  526TMC3    C4 7862   1.945   1.756  15.062 -0.5059  0.0071 -0.3255
  526TMC3    C5 7863   1.983   1.690  15.180  0.0709  0.3595  0.3380
  526TMC3    C6 7864   1.908   1.671  15.289 -0.6304 -0.2341 -0.2006
  526TMC3     C 7865   1.785   1.910  14.960 -0.1662  0.0188  0.6102
  526TMC3     O 7866   1.673   1.952  14.962 -0.0020 -0.3474  0.0783
  526TMC3     H 7867   1.637   1.844  15.163 -0.2900 -0.0058 -1.4478
  526TMC3    H1 7868   2.018   1.769  14.984  0.2119  2.6791  0.8069
  526TMC3    H2 7869   1.938   1.610  15.373  2.0984  0.8772 -0.3579
  526TMC3    C7 7870   2.119   1.644  15.193  0.5810  0.5007  0.7597
  526TMC3    C8 7871   1.717   1.732  15.407  0.4459 -0.0970 -0.8003
  526TMC3    O1 7872   2.152   1.639  15.313 -0.2214  0.1419 -0.3335
  526TMC3    O2 7873   1.782   1.699  15.510 -0.1985 -0.7401 -0.3441
  527MPD2     C 7874   0.409   0.147   1.582  0.6503  0.7739  0.4093
  527MPD2    C1 7875   0.342   0.039   1.534  0.5068  0.1056 -0.2425
  527MPD2    C2 7876   0.405   4.685   1.461 -1.1089 -0.3790 -0.3340
  527MPD2    C3 7877   0.540   4.700   1.431  0.0861  0.3377  0.5457
  527MPD2    C4 7878   0.610   0.064   1.482  0.0909  0.3130  0.4021
  527MPD2    C5 7879   0.544   0.161   1.556 -0.2924  0.3719  0.0818
  527MPD2     H 7880   0.344   4.601   1.430 -2.0886  0.2260 -0.0269
  527MPD2    H1 7881   0.712   0.084   1.452  0.4633 -1.3341  0.5877
  527MPD2    H2 7882   0.352   0.224   1.633 -1.8793 -0.7504 -0.1217
  527MPD2    H3 7883   0.590   0.248   1.601 -0.7610  0.0534  1.1654
  527MPD2     N 7884   0.592   4.598   1.347 -0.5837 -0.1687  0.9373
  527MPD2    H5 7885   0.531   4.527   1.308  1.5658 -0.5512 -1.7516
  527MPD2    N1 7886   0.207   0.010   1.548  0.2588 -0.0717  0.2672
  527MPD2    H7 7887   0.170   4.666   1.505  0.4090  0.1611 -0.3166
  528TMC3    C1 7888   4.727   0.062   1.518  0.0427  0.1602  0.3185
  528TMC3    C2 7889   0.004   4.731   1.402 -0.4474 -0.1617  0.0186
  528TMC3    C3 7890   4.634   4.710   1.327  0.5141  0.3700 -0.3223
  528TMC3    C4 7891   4.609   0.113   1.554  0.5444  0.1183 -0.6035
  528TMC3    C5 7892   4.502   0.073   1.483 -0.1519  0.3356  0.7126
  528TMC3    C6 7893   4.507   0.001   1.367 -0.1066  0.1218 -0.4137
  528TMC3     C 7894   0.109   0.096   1.590 -0.6395 -0.3316 -0.7573
  528TMC3     O 7895   0.126   0.200   1.652 -0.0521  0.0109 -0.3852
  528TMC3     H 7896   0.102   4.738   1.355 -0.0316 -1.6029  0.6712
  528TMC3    H1 7897   4.594   0.176   1.641  1.5352 -0.8482  0.2629
  528TMC3    H2 7898   4.420   4.702   1.314  0.3098 -3.7833  1.7653
  528TMC3    C7 7899   4.376   0.134   1.534  0.1014 -0.5229 -0.1047
  528TMC3    C8 7900   4.656   4.646   1.202  0.2095 -0.4771 -0.2412
  528TMC3    O1 7901   4.378   0.188   1.643  0.1613 -0.5271 -0.2254
  528TMC3    O2 7902   0.028   4.600   1.184  0.2489 -0.5460  0.2490
  529MPD2     C 7903   3.189   3.104   1.227 -0.5796  0.3445  0.4172
  529MPD2    C1 7904   3.084   3.012   1.200  0.0310  0.6316  0.2184
  529MPD2    C2 7905   2.953   3.054   1.183  0.0532  0.6207 -0.2314
  529MPD2    C3 7906   2.933   3.190   1.200 -0.2435 -0.2767 -0.7645
  529MPD2    C4 7907   3.032   3.275   1.240  0.3955  0.5770  0.3191
  529MPD2    C5 7908   3.160   3.238   1.243  0.4794  0.4356 -0.3068
  529MPD2     H 7909   2.869   2.987   1.167  1.1836 -0.9020  0.1624
  529MPD2    H1 7910   3.020   3.382   1.258  3.9440  0.8968  0.7081
  529MPD2    H2 7911   3.289   3.074   1.254 -1.8494 -0.9769  3.6567
  529MPD2    H3 7912   3.239   3.307   1.269  1.4352  0.3578 -2.9628
  529MPD2     N 7913   2.803   3.252   1.195  0.4832 -0.6359 -0.3172
  529MPD2    H5 7914   2.791   3.352   1.209 -0.7981 -1.1066  2.0371
  529MPD2    N1 7915   3.110   2.877   1.189 -0.3661 -0.5816  0.6733
  529MPD2    H7 7916   3.028   2.818   1.196  0.0087 -1.0234  1.4302
  530TMC3    C1 7917   3.226   2.681   1.151 -0.0216  0.3637 -0.4461
  530TMC3    C2 7918   3.322   2.624   1.065  0.4021 -0.4226 -0.2229
  530TMC3    C3 7919   3.344   2.493   1.074 -0.9879 -0.1284 -0.4022
  530TMC3    C4 7920   3.161   2.612   1.252 -0.1570 -0.4938 -0.3493
  530TMC3    C5 7921   3.199   2.484   1.264  0.2800  0.4861 -0.0510
  530TMC3    C6 7922   3.274   2.420   1.172 -1.0730  0.6764 -0.2149
  530TMC3     C 7923   3.233   2.826   1.155 -0.1082 -0.5519 -0.0916
  530TMC3     O 7924   3.337   2.880   1.118  0.6288  0.2038  0.6036
  530TMC3     H 7925   3.367   2.680   0.983  0.0560  0.2505  0.0439
  530TMC3    H1 7926   3.123   2.673   1.333 -1.8494 -0.0725 -1.4553
  530TMC3    H2 7927   3.300   2.316   1.184  0.9583  1.3164  0.9982
  530TMC3    C7 7928   3.154   2.406   1.378  0.6696 -0.5318 -1.0804
  530TMC3    C8 7929   3.460   2.432   1.006 -0.0989 -0.4760  0.1977
  530TMC3    O1 7930   3.231   2.315   1.406 -0.5284 -0.0548 -0.3677
  530TMC3    O2 7931   3.505   2.497   0.913  0.0756 -0.2356  0.3728
  531MPD2     C 7932   1.742   1.682  13.895 -0.5464  0.0023  0.4063
  531MPD2    C1 7933   1.699   1.552  13.895  0.1790 -0.1092  0.2042
  531MPD2    C2 7934   1.692   1.478  13.777  1.1007 -0.3146 -0.8472
  531MPD2    C3 7935   1.736   1.542  13.658 -0.1647  0.1645  0.5786
  531MPD2    C4 7936   1.765   1.678  13.663  1.0456 -0.6458  0.5081
  531MPD2    C5 7937   1.768   1.750  13.780 -0.3962  0.3159 -0.1413
  531MPD2     H 7938   1.668   1.373  13.786  0.7869 -0.4228 -2.9041
  531MPD2    H1 7939   1.801   1.732  13.576 -2.2039  0.7639  0.0449
  531MPD2    H2 7940   1.740   1.740  13.986 -2.0195  0.2021  0.2473
  531MPD2    H3 7941   1.788   1.857  13.788 -0.2992  0.2050  0.9645
  531MPD2     N 7942   1.740   1.477  13.534  0.6445  0.1236 -0.0237
  531MPD2    H5 7943   1.778   1.527  13.453 -0.7986 -0.2680 -0.9414
  531MPD2    N1 7944   1.665   1.497  14.020  0.3124  0.0132  0.5582
  531MPD2    H7 7945   1.692   1.552  14.101  0.7999  0.0966  0.3372
  532TMC3    C1 7946   1.591   1.304  14.151  0.5625 -0.4677  0.5179
  532TMC3    C2 7947   1.482   1.225  14.169 -0.7804  0.2858 -0.4037
  532TMC3    C3 7948   1.493   1.091  14.196  0.5111  1.0156 -0.5851
  532TMC3    C4 7949   1.708   1.262  14.190 -0.3765  0.3004  0.0906
  532TMC3    C5 7950   1.722   1.127  14.217 -0.0475 -0.3103  0.1859
  532TMC3    C6 7951   1.615   1.036  14.220 -0.2832 -0.1218  1.0100
  532TMC3     C 7952   1.581   1.381  14.033  0.4259  0.1979  0.1218
  532TMC3     O 7953   1.501   1.331  13.952  0.4065  0.4542  0.0708
  532TMC3     H 7954   1.385   1.257  14.133  0.6536  2.6284 -2.1795
  532TMC3    H1 7955   1.797   1.321  14.170 -1.3625  2.6721  2.7496
  532TMC3    H2 7956   1.626   0.928  14.208  4.2937  0.4582  0.0130
  532TMC3    C7 7957   1.853   1.083  14.168 -0.1257 -0.3301  0.0408
  532TMC3    C8 7958   1.423   1.009  14.101  0.2962  0.8347 -0.4960
  532TMC3    O1 7959   1.939   1.165  14.145  0.2731  0.3511  0.3018
  532TMC3    O2 7960   1.392   0.895  14.130 -0.2995 -0.7061  0.0598
  533TMC3    C1 7961   2.238   2.454  14.664  0.0675  0.7040  0.3235
  533TMC3    C2 7962   2.373   2.484  14.680  0.0448 -0.2562 -0.1449
  533TMC3    C3 7963   2.400   2.608  14.728  0.6642  0.2806 -0.0393
  533TMC3    C4 7964   2.148   2.552  14.707  0.2646 -1.0318 -0.1969
  533TMC3    C5 7965   2.178   2.663  14.777  0.6405  0.0021 -0.2866
  533TMC3    C6 7966   2.308   2.697  14.776 -0.6199  0.4921 -0.4337
  533TMC3     C 7967   2.194   2.315  14.662  0.1390  0.4792 -0.1924
  533TMC3     O 7968   2.265   2.236  14.732 -0.4857  0.0754 -0.4435
  533TMC3     H 7969   2.454   2.426  14.638  0.0936 -1.0815  1.0960
  533TMC3    H1 7970   2.045   2.521  14.721  0.1011  0.0991  1.1225
  533TMC3    H2 7971   2.354   2.775  14.835  2.0430  0.2063 -2.1400
  533TMC3    C7 7972   2.113   2.660  14.905 -0.1377 -0.4203 -0.4709
  533TMC3    C8 7973   2.535   2.658  14.727  0.2161  0.0591 -0.2484
  533TMC3    O1 7974   2.040   2.568  14.931 -0.1678  0.3372 -0.5160
  533TMC3    O2 7975   2.551   2.780  14.709  0.0480 -0.0805  0.5788
  534MPD2     C 7976   0.059   3.462   0.892 -0.2927 -0.4986  0.1498
  534MPD2    C1 7977   4.720   3.508   0.995  0.1458 -0.4187  0.4550
  534MPD2    C2 7978   4.590   3.465   1.003  0.1498 -0.3777  0.5373
  534MPD2    C3 7979   4.537   3.373   0.917  0.2797  0.2251  0.6134
  534MPD2    C4 7980   4.623   3.325   0.821  0.6322 -0.4256  0.6119
  534MPD2    C5 7981   0.013   3.367   0.807 -0.1278  0.0058  0.8173
  534MPD2     H 7982   4.527   3.489   1.088 -0.1315 -0.3649  0.3263
  534MPD2    H1 7983   4.596   3.261   0.738  2.4374 -1.4597  0.8039
  534MPD2    H2 7984   0.163   3.486   0.875 -1.2984  1.9796 -2.4696
  534MPD2    H3 7985   0.089   3.330   0.740  0.7066 -0.6117  2.1130
  534MPD2     N 7986   4.415   3.298   0.928  0.4497  0.0592 -0.4505
  534MPD2    H5 7987   4.412   3.218   0.867 -0.2046 -1.3193  1.3938
  534MPD2    N1 7988   0.031   3.601   1.092  0.0030  0.2149  0.0159
  534MPD2    H7 7989   4.716   3.612   1.177  0.6305 -2.8043  0.7927
  535TMC3    C1 7990   4.214   3.213   0.986 -0.2252 -0.2053  0.3569
  535TMC3    C2 7991   4.086   3.253   1.018  0.5426  0.1639  0.1444
  535TMC3    C3 7992   4.006   3.149   1.046  0.4846  0.4188 -0.9387
  535TMC3    C4 7993   4.261   3.086   1.011  1.1347  0.1237  0.4907
  535TMC3    C5 7994   4.173   2.981   1.045  0.0383  0.3105  0.6362
  535TMC3    C6 7995   4.044   3.016   1.070  0.1881 -0.3407  0.7965
  535TMC3     C 7996   4.308   3.322   1.002 -0.0477  0.8139 -0.0420
  535TMC3     O 7997   4.275   3.416   1.069 -0.1911  0.2371  0.1219
  535TMC3     H 7998   4.052   3.355   1.002  0.8076  0.1072 -0.7911
  535TMC3    H1 7999   4.369   3.077   1.006  1.1521  0.7939 -0.3681
  535TMC3    H2 8000   3.972   2.941   1.099 -0.8538  0.5824  0.5889
  535TMC3    C7 8001   4.237   2.852   1.067 -0.2121  0.0429  0.7575
  535TMC3    C8 8002   3.860   3.176   1.038  0.0942 -0.0866  0.4616
  535TMC3    O1 8003   4.353   2.846   1.032  0.1460 -0.7172  0.1508
  535TMC3    O2 8004   3.793   3.072   1.016  0.1886  0.0243 -0.1941
  536MPD2     C 8005   3.593   1.912  16.560  0.0967  0.2343  0.1583
  536MPD2    C1 8006   3.478   1.866  16.628 -0.3502  0.0655  0.8551
  536MPD2    C2 8007   3.354   1.918  16.591 -0.0910  0.3788 -0.0665
  536MPD2    C3 8008   3.351   2.023  16.498  0.7500  0.6226 -0.3000
  536MPD2    C4 8009   3.467   2.065  16.434 -0.2154 -0.2577 -0.9037
  536MPD2    C5 8010   3.587   2.006  16.464  0.2418 -0.2219  2.1607
  536MPD2     H 8011   3.266   1.883  16.645  1.1920 -2.4699  0.2195
  536MPD2    H1 8012   3.466   2.137  16.352 -2.2734 -1.8414 -2.2588
  536MPD2    H2 8013   3.690   1.877  16.592  0.4227 -0.8950 -2.0585
  536MPD2    H3 8014   3.677   2.047  16.420 -1.4533  0.5866 -0.5898
  536MPD2     N 8015   3.234   2.077  16.451 -0.0733 -0.3039  0.5743
  536MPD2    H5 8016   3.238   2.154  16.385 -1.0299  0.5152  1.4564
  536MPD2    N1 8017   3.496   1.773  16.727  0.7188 -0.1995 -0.5485
  536MPD2    H7 8018   3.590   1.737  16.744  0.4734 -1.6833 -2.3265
  537TMC3    C1 8019   3.442   1.622  16.900  0.1176  0.6069 -0.2227
  537TMC3    C2 8020   3.569   1.622  16.940  0.5638 -0.6899  0.3089
  537TMC3    C3 8021   3.605   1.524  17.028  0.0249  0.2027 -0.3718
  537TMC3    C4 8022   3.360   1.511  16.920 -0.1823  0.1391 -0.2721
  537TMC3    C5 8023   3.411   1.403  16.983  0.0050  0.5068 -0.5863
  537TMC3    C6 8024   3.531   1.411  17.048 -0.5877  0.3238  0.0765
  537TMC3     C 8025   3.391   1.714  16.796 -0.4694 -0.0053 -0.1407
  537TMC3     O 8026   3.272   1.742  16.801  0.0574  0.5626  0.7249
  537TMC3     H 8027   3.631   1.708  16.917 -1.2738  0.5568  0.0035
  537TMC3    H1 8028   3.265   1.507  16.869  0.0598 -1.0918 -0.6302
  537TMC3    H2 8029   3.563   1.337  17.120 -3.2858 -0.5478  0.3821
  537TMC3    C7 8030   3.309   1.301  17.008 -0.2227  0.1783 -0.0937
  537TMC3    C8 8031   3.726   1.537  17.109  0.1807  0.3776 -0.9719
  537TMC3    O1 8032   3.199   1.315  16.963  0.2282  0.6063 -0.2644
  537TMC3    O2 8033   3.744   1.445  17.184  0.2174  0.0588  0.4310
  538TMC3    C1 8034   4.180   0.381  11.833  0.2062  0.0141  0.1169
  538TMC3    C2 8035   4.293   0.315  11.798 -0.0120 -0.1392 -0.4074
  538TMC3    C3 8036   4.342   0.352  11.674 -0.6290 -0.3764  0.1721
  538TMC3    C4 8037   4.117   0.478  11.763 -0.0962 -0.2049 -0.3778
  538TMC3    C5 8038   4.171   0.507  11.640 -0.1217 -0.5841  0.1220
  538TMC3    C6 8039   4.283   0.440  11.588 -0.4705 -0.2199 -0.6132
  538TMC3     C 8040   4.122   0.345  11.963 -0.5447 -0.0464 -0.0168
  538TMC3     O 8041   4.200   0.315  12.052  0.3951  0.3122 -0.5602
  538TMC3     H 8042   4.345   0.246  11.863  1.0285  2.8605  1.9547
  538TMC3    H1 8043   4.025   0.522  11.798 -0.7979 -1.2649 -0.8656
  538TMC3    H2 8044   4.327   0.463  11.491  0.4117 -1.5632 -0.5373
  538TMC3    C7 8045   4.081   0.589  11.563 -0.3878  0.7652  0.1286
  538TMC3    C8 8046   4.478   0.301  11.646 -0.2851  0.0471 -0.3691
  538TMC3    O1 8047   3.962   0.600  11.584 -0.0472  0.7702 -0.4915
  538TMC3    O2 8048   4.553   0.288  11.743  0.1858 -0.0635  0.3588
  539MPD2     C 8049   4.398   4.604  11.433  0.0064  0.0455  0.1452
  539MPD2    C1 8050   4.286   4.565  11.499  0.4861  0.3824  0.6917
  539MPD2    C2 8051   4.180   4.657  11.507  0.3973  0.1366  0.2065
  539MPD2    C3 8052   4.179   0.038  11.441 -0.2785 -0.2607  0.4680
  539MPD2    C4 8053   4.300   0.077  11.386 -0.2412  0.5827  0.1476
  539MPD2    C5 8054   4.407   4.731  11.381  0.3243  0.0913  0.0628
  539MPD2     H 8055   4.090   4.625  11.558  0.4595 -0.0800  0.1804
  539MPD2    H1 8056   4.316   0.172  11.337 -0.6506  1.2558  1.3201
  539MPD2    H2 8057   4.485   4.546  11.407  0.0905 -0.1652  0.9039
  539MPD2    H3 8058   4.492   0.022  11.321  0.8980 -0.9126  0.3648
  539MPD2     N 8059   4.064   0.117  11.453 -0.1108 -0.1844 -0.4956
  539MPD2    H5 8060   3.992   0.078  11.514  1.3193 -2.7184 -0.3981
  539MPD2    N1 8061   4.269   4.428  11.550  0.0041  0.0616  0.2031
  539MPD2    H7 8062   4.173   4.402  11.573 -1.0761  1.9505 -2.1899
  540TMC3    C1 8063   3.906   0.277  11.403  0.3775 -0.3658 -0.4765
  540TMC3    C2 8064   3.855   0.346  11.302 -0.7399  0.6531  0.4881
  540TMC3    C3 8065   3.762   0.436  11.335 -0.5586  0.1531 -0.2168
  540TMC3    C4 8066   3.862   0.288  11.532  0.0900 -1.1361 -0.8477
  540TMC3    C5 8067   3.765   0.386  11.560  0.3408  0.4291 -0.3280
  540TMC3    C6 8068   3.716   0.469  11.460  0.3380 -0.1669  0.6351
  540TMC3     C 8069   4.044   0.234  11.385 -0.0347 -0.6089  0.1073
  540TMC3     O 8070   4.111   0.293  11.298  0.0468  0.4952 -0.3774
  540TMC3     H 8071   3.891   0.331  11.201 -1.4767 -0.4085  0.3749
  540TMC3    H1 8072   3.901   0.237  11.620  1.1899  2.4928  0.7616
  540TMC3    H2 8073   3.643   0.543  11.488  0.3859  0.3017 -0.5192
  540TMC3    C7 8074   3.707   0.391  11.690 -0.5811 -0.3461 -0.3855
  540TMC3    C8 8075   3.654   0.445  11.234 -0.4903 -0.6785  0.4006
  540TMC3    O1 8076   3.719   0.294  11.764  0.0463  0.4067 -0.6749
  540TMC3    O2 8077   3.585   0.546  11.240 -0.5740  0.2242 -0.3051
  541MPD2     C 8078   1.568   0.505  13.321 -0.5877 -0.6031 -0.0170
  541MPD2    C1 8079   1.687   0.448  13.290  0.5293  0.1551  0.0930
  541MPD2    C2 8080   1.785   0.526  13.226  0.8791 -0.0744 -0.2123
  541MPD2    C3 8081   1.760   0.656  13.191  0.0705  0.1649  0.8872
  541MPD2    C4 8082   1.637   0.710  13.227 -0.2305  0.7693  0.4775
  541MPD2    C5 8083   1.550   0.635  13.297 -0.1060  0.2626 -0.1146
  541MPD2     H 8084   1.876   0.480  13.188 -0.8146 -0.1469 -4.2084
  541MPD2    H1 8085   1.610   0.807  13.187  1.5787  1.4798  1.0058
  541MPD2    H2 8086   1.487   0.449  13.365  0.2806 -1.2769  0.7192
  541MPD2    H3 8087   1.450   0.670  13.320 -1.3532 -2.1127 -1.9228
  541MPD2     N 8088   1.857   0.734  13.125  0.1294  0.2168  0.7007
  541MPD2    H5 8089   1.812   0.817  13.088 -0.9405 -0.7082 -0.0633
  541MPD2    N1 8090   1.707   0.315  13.337 -0.1019  0.1257 -0.6035
  541MPD2    H7 8091   1.632   0.262  13.379 -0.3384  0.0419 -1.1361
  542TMC3    C1 8092   2.052   0.818  13.035 -0.0485  0.1494 -0.8656
  542TMC3    C2 8093   2.108   0.783  12.912  1.0472 -0.3385 -0.5508
  542TMC3    C3 8094   2.109   0.887  12.820 -0.1803 -0.0995  0.3247
  542TMC3    C4 8095   1.984   0.938  13.057  1.1139 -0.0561  0.0985
  542TMC3    C5 8096   1.982   1.027  12.952  0.9896  0.2712  0.2073
  542TMC3    C6 8097   2.037   0.996  12.832 -0.0483  0.8725  1.1170
  542TMC3     C 8098   1.987   0.703  13.093 -0.1504  0.4408  0.9077
  542TMC3     O 8099   2.056   0.608  13.117 -0.4517 -0.3597 -0.1781
  542TMC3     H 8100   2.173   0.700  12.889 -0.9233 -2.4000  1.1839
  542TMC3    H1 8101   1.946   0.974  13.152  0.8565  1.2890 -0.5196
  542TMC3    H2 8102   2.043   1.063  12.746  0.2704  0.3099  0.7000
  542TMC3    C7 8103   1.923   1.161  12.974  0.5274 -0.1710  0.2149
  542TMC3    C8 8104   2.164   0.859  12.687  0.1892  0.2407  0.5141
  542TMC3    O1 8105   1.847   1.162  13.068  0.4806 -0.5309 -0.7116
  542TMC3    O2 8106   2.109   0.914  12.591  0.0831  0.6026  0.3108
  543TMC3    C1 8107   2.199   2.353   0.192  0.1782 -0.6975 -0.2443
  543TMC3    C2 8108   2.255   2.238   0.237  0.2808  0.0464 -0.1296
  543TMC3    C3 8109   2.326   2.253   0.358  0.6475 -0.3224  0.0558
  543TMC3    C4 8110   2.206   2.475   0.252  0.9583 -0.0915  0.2329
  543TMC3    C5 8111   2.257   2.480   0.374  0.2907 -0.2617  0.5137
  543TMC3    C6 8112   2.311   2.367   0.431 -0.2259 -0.1999  0.4284
  543TMC3     C 8113   2.179   2.354   0.052  0.0427  0.1522 -0.6696
  543TMC3     O 8114   2.248   2.280  17.738  0.1861 -0.2138  1.0757
  543TMC3     H 8115   2.256   2.150   0.174  2.2723 -0.7147  0.9513
  543TMC3    H1 8116   2.200   2.569   0.198 -0.2411 -0.1458  0.2697
  543TMC3    H2 8117   2.344   2.371   0.534  2.4626  0.6992 -0.4694
  543TMC3    C7 8118   2.254   2.603   0.449  0.8507  0.0675  0.6127
  543TMC3    C8 8119   2.391   2.143   0.426 -0.5708 -0.2858  0.6288
  543TMC3    O1 8120   2.174   2.690   0.408  0.6009 -0.0656 -0.3098
  543TMC3    O2 8121   2.438   2.172   0.535  0.0999  0.1499 -0.1058
  544MPD2     C 8122   2.459   1.649   0.554 -0.3190 -0.7785 -0.3372
  544MPD2    C1 8123   2.428   1.658   0.423 -0.3766  0.0520  0.4124
  544MPD2    C2 8124   2.418   1.788   0.368  0.1208  0.6966 -0.8305
  544MPD2    C3 8125   2.411   1.902   0.441  0.3783  0.6471  0.0792
  544MPD2    C4 8126   2.424   1.894   0.576  0.1569  0.5382  0.1023
  544MPD2    C5 8127   2.453   1.772   0.627 -0.0175  0.3411 -0.8668
  544MPD2     H 8128   2.404   1.795   0.261  0.9797 -0.7467 -1.0453
  544MPD2    H1 8129   2.417   1.976   0.647  0.3014 -0.5921  1.4164
  544MPD2    H2 8130   2.471   1.554   0.604  0.2003 -0.2065  0.6245
  544MPD2    H3 8131   2.461   1.772   0.735 -0.4504 -2.1277 -0.8280
  544MPD2     N 8132   2.387   2.020   0.371  0.4408 -0.8009 -0.1739
  544MPD2    H5 8133   2.362   2.008   0.274  1.1925 -0.4752 -0.4096
  544MPD2    N1 8134   2.422   1.535   0.348  0.8332  0.4995  0.2240
  544MPD2    H7 8135   2.442   1.450   0.399  2.5780  0.4728 -0.5128
  545TMC3    C1 8136   2.327   1.395   0.182  0.4487  0.4006  0.1938
  545TMC3    C2 8137   2.274   1.386   0.055 -0.0705  0.2337  0.2207
  545TMC3    C3 8138   2.208   1.275   0.021  0.6263 -0.1468  0.8473
  545TMC3    C4 8139   2.331   1.286   0.262 -0.5468 -0.1747  0.3671
  545TMC3    C5 8140   2.272   1.167   0.216  0.3155  0.0163 -0.0101
  545TMC3    C6 8141   2.208   1.163   0.098  0.6810 -0.7505 -0.0458
  545TMC3     C 8142   2.350   1.529   0.232  0.0618  0.1967  0.2204
  545TMC3     O 8143   2.302   1.622   0.165  0.3089 -0.4811 -0.1536
  545TMC3     H 8144   2.304   1.468  17.747 -3.0548  0.1968 -1.2272
  545TMC3    H1 8145   2.379   1.291   0.360  1.2471  0.5779 -0.5450
  545TMC3    H2 8146   2.154   1.080   0.054 -0.5970  0.2963 -0.4625
  545TMC3    C7 8147   2.252   1.067   0.312  0.0954  0.3099 -0.3588
  545TMC3    C8 8148   2.149   1.273  17.645  0.1320 -0.0355 -0.0593
  545TMC3    O1 8149   2.317   1.075   0.418 -0.1925  0.6519  0.1080
  545TMC3    O2 8150   2.140   1.167  17.590 -0.5915 -0.3534  0.0777
  546MPD2     C 8151   3.499   1.637  17.431 -0.1581 -0.4202  0.5050
  546MPD2    C1 8152   3.394   1.730  17.444 -1.2517  0.0350 -0.0508
  546MPD2    C2 8153   3.422   1.867  17.449 -0.6249  0.7004  0.1075
  546MPD2    C3 8154   3.554   1.903  17.433  0.7045 -0.3730 -0.0441
  546MPD2    C4 8155   3.652   1.808  17.425 -0.9433 -0.5283  0.4464
  546MPD2    C5 8156   3.630   1.676  17.421 -0.1485 -0.3879  0.3135
  546MPD2     H 8157   3.341   1.938  17.442  1.0278  2.8827  3.0495
  546MPD2    H1 8158   3.754   1.845  17.413 -1.5419 -0.2447 -3.7144
  546MPD2    H2 8159   3.477   1.531  17.431 -2.9659  0.1591  2.2678
  546MPD2    H3 8160   3.719   1.614  17.429  1.4780  1.8030 -0.8822
  546MPD2     N 8161   3.584   2.044  17.420  0.1582 -0.0747  0.6163
  546MPD2    H5 8162   3.507   2.110  17.425 -1.6160 -2.1628  0.7600
  546MPD2    N1 8163   3.263   1.673  17.459 -0.2828  0.3580  0.5329
  546MPD2    H7 8164   3.264   1.572  17.450 -0.5858  0.3005  1.0979
  547TMC3    C1 8165   3.038   1.653  17.513  0.6223  0.4271 -0.1701
  547TMC3    C2 8166   2.919   1.701  17.461 -0.2989 -0.7045  0.0199
  547TMC3    C3 8167   2.819   1.612  17.431 -0.0324  1.0820 -0.0775
  547TMC3    C4 8168   3.048   1.519  17.547 -0.4706 -0.5088  0.2638
  547TMC3    C5 8169   2.953   1.432  17.503 -0.4374  0.2547  0.0519
  547TMC3    C6 8170   2.832   1.477  17.445 -0.0643  0.1128  0.6701
  547TMC3     C 8171   3.154   1.739  17.511  0.4553  0.2950 -0.0776
  547TMC3     O 8172   3.139   1.857  17.529  0.0329 -0.1819  0.0661
  547TMC3     H 8173   2.913   1.802  17.422 -0.8799 -1.0132 -0.6808
  547TMC3    H1 8174   3.140   1.493  17.598  0.6866 -1.5267 -2.3719
  547TMC3    H2 8175   2.757   1.407  17.412  0.4231 -0.0491 -0.0798
  547TMC3    C7 8176   2.957   1.300  17.551 -0.1057  0.3742 -0.1695
  547TMC3    C8 8177   2.698   1.664  17.381 -0.2898  0.4093 -0.8306
  547TMC3    O1 8178   3.031   1.277  17.645 -0.3916  0.0654 -0.0178
  547TMC3    O2 8179   2.676   1.785  17.399 -0.2036  0.1094  0.2335
  548MPD2     C 8180   2.600   2.766  12.845 -0.9744  0.4190 -0.1713
  548MPD2    C1 8181   2.527   2.654  12.888  0.5011  0.1884  0.0026
  548MPD2    C2 8182   2.594   2.541  12.903  0.1300  0.2422 -0.2276
  548MPD2    C3 8183   2.734   2.535  12.902 -1.4099 -0.0098 -0.4005
  548MPD2    C4 8184   2.799   2.651  12.863 -0.0519 -0.1409  0.0012
  548MPD2    C5 8185   2.732   2.759  12.824 -0.1746 -0.6566  0.1756
  548MPD2     H 8186   2.541   2.450  12.930 -1.6172  1.5515  0.7741
  548MPD2    H1 8187   2.907   2.647  12.863 -0.1010 -1.4019 -1.1743
  548MPD2    H2 8188   2.549   2.860  12.832 -0.5563  0.5385 -0.9428
  548MPD2    H3 8189   2.790   2.844  12.791 -1.2936  0.0548  0.0498
  548MPD2     N 8190   2.801   2.414  12.939  0.5829  0.5034 -0.1101
  548MPD2    H5 8191   2.741   2.333  12.951  1.3122  0.0270  0.2888
  548MPD2    N1 8192   2.393   2.676  12.909 -0.4159  0.0306 -0.5164
  548MPD2    H7 8193   2.356   2.771  12.903  0.9472  0.6414  0.8601
  549TMC3    C1 8194   2.181   2.635  12.972  0.4568  1.0446  0.3544
  549TMC3    C2 8195   2.152   2.751  12.907 -0.0068 -0.4148 -0.0406
  549TMC3    C3 8196   2.039   2.816  12.952 -0.0683 -0.1286  0.7489
  549TMC3    C4 8197   2.101   2.575  13.064 -0.2097  0.1452  0.5550
  549TMC3    C5 8198   1.991   2.648  13.104 -0.0039 -0.7276  0.6050
  549TMC3    C6 8199   1.965   2.769  13.061 -0.4631  0.1200 -0.2843
  549TMC3     C 8200   2.309   2.580  12.948 -0.3241 -0.2245  0.1934
  549TMC3     O 8201   2.323   2.463  12.980  0.0611  0.9565 -0.4346
  549TMC3     H 8202   2.204   2.780  12.817  1.8311 -1.8994  0.5493
  549TMC3    H1 8203   2.125   2.474  13.096 -0.7075  0.6726  2.6276
  549TMC3    H2 8204   1.874   2.822  13.084  0.2377  0.8537  0.7996
  549TMC3    C7 8205   1.879   2.577  13.153  0.1106  0.2612 -0.2199
  549TMC3    C8 8206   1.966   2.897  12.855 -0.0791 -0.1189  0.5164
  549TMC3    O1 8207   1.807   2.622  13.244  0.3850  1.2593 -0.3269
  549TMC3    O2 8208   1.843   2.909  12.881 -0.0599  0.2860 -0.4377
  550TMC3    C1 8209   1.473   0.552  12.480 -0.0589 -0.1344 -0.0263
  550TMC3    C2 8210   1.536   0.615  12.589 -0.2499 -0.2018 -0.7474
  550TMC3    C3 8211   1.456   0.707  12.643  0.3711 -0.1506  0.4765
  550TMC3    C4 8212   1.354   0.589  12.424 -0.1600 -0.4567  0.0993
  550TMC3    C5 8213   1.282   0.674  12.501  0.3807  0.1997 -0.5512
  550TMC3    C6 8214   1.329   0.735  12.614  0.4037 -1.0033 -0.3619
  550TMC3     C 8215   1.573   0.485  12.398  0.0574  0.3014 -0.4174
  550TMC3     O 8216   1.669   0.434  12.454  0.0553  0.2535  0.0461
  550TMC3     H 8217   1.643   0.614  12.604 -0.0628 -1.5786 -2.2240
  550TMC3    H1 8218   1.323   0.544  12.331  2.9245  0.4342 -1.3621
  550TMC3    H2 8219   1.271   0.794  12.684 -0.7885 -1.9926 -0.5145
  550TMC3    C7 8220   1.157   0.727  12.451  0.3991 -0.5723  0.2162
  550TMC3    C8 8221   1.530   0.824  12.681 -0.1964  0.3218  0.1774
  550TMC3    O1 8222   1.084   0.778  12.531  0.3180 -0.4668 -0.0866
  550TMC3    O2 8223   1.636   0.814  12.736  0.5400  0.0477 -0.0812
  551TMC3    C1 8224   4.057   3.251  13.553  0.1322  0.8555  0.6472
  551TMC3    C2 8225   4.149   3.306  13.467 -0.2575 -0.3898  0.3313
  551TMC3    C3 8226   4.266   3.357  13.519 -0.0308 -0.2326 -0.3063
  551TMC3    C4 8227   4.078   3.246  13.686 -0.8988  0.3497 -0.3811
  551TMC3    C5 8228   4.202   3.298  13.731  0.2589  0.0387  0.4111
  551TMC3    C6 8229   4.298   3.360  13.653  0.2405  0.5932  0.2865
  551TMC3     C 8230   3.929   3.280  13.504  0.2159  1.0752  0.1964
  551TMC3     O 8231   3.835   3.201  13.526 -0.1411 -0.0194  0.5518
  551TMC3     H 8232   4.127   3.309  13.361 -2.8371 -1.2189  0.8433
  551TMC3    H1 8233   3.994   3.218  13.749 -2.5799  0.2170 -2.6988
  551TMC3    H2 8234   4.398   3.381  13.688  0.1014  1.7780 -0.0363
  551TMC3    C7 8235   4.208   3.344  13.869  0.0153 -0.3579 -0.2890
  551TMC3    C8 8236   4.336   3.440  13.432 -0.2801  0.5788  0.4991
  551TMC3    O1 8237   4.234   3.264  13.962 -0.0710 -0.1879  0.4023
  551TMC3    O2 8238   4.334   3.406  13.318  0.7808 -0.4318 -0.0736
  552MPD2     C 8239   1.246   0.936  14.438 -0.3603 -0.6583 -0.1158
  552MPD2    C1 8240   1.244   0.795  14.420 -0.8889  0.0948  0.2151
  552MPD2    C2 8241   1.357   0.724  14.455 -0.1730  0.9224 -0.3790
  552MPD2    C3 8242   1.462   0.791  14.517 -0.2770 -0.1642 -0.0891
  552MPD2    C4 8243   1.458   0.927  14.533  0.0854  0.6655 -0.1988
  552MPD2    C5 8244   1.356   1.003  14.485  0.4240  0.1822  0.0526
  552MPD2     H 8245   1.357   0.616  14.446  2.5269  0.9155 -0.2529
  552MPD2    H1 8246   1.550   0.978  14.563 -0.2643  0.4716  1.2152
  552MPD2    H2 8247   1.149   0.985  14.430  0.9393  2.0002  0.4119
  552MPD2    H3 8248   1.362   1.111  14.491  1.4714  0.1572 -0.5094
  552MPD2     N 8249   1.577   0.729  14.558  0.0998 -0.6771 -0.2590
  552MPD2    H5 8250   1.648   0.786  14.603  1.1335 -1.7367 -0.5536
  552MPD2    N1 8251   1.134   0.733  14.366 -0.0926  0.0168 -0.0545
  552MPD2    H7 8252   1.135   0.631  14.367  3.2705  0.0506  0.0452
  553TMC3    C1 8253   0.948   0.729  14.232  0.2210  0.3990  0.1719
  553TMC3    C2 8254   0.969   0.731  14.100  0.5632 -0.5396 -0.9457
  553TMC3    C3 8255   0.947   0.613  14.028 -0.0203  0.4704 -0.1284
  553TMC3    C4 8256   0.919   0.615  14.300 -0.4158 -0.3113  0.0559
  553TMC3    C5 8257   0.896   0.500  14.230 -0.4257 -0.6507  0.2770
  553TMC3    C6 8258   0.911   0.497  14.093 -0.1955  0.0768 -0.5503
  553TMC3     C 8259   1.043   0.808  14.295 -0.2415  0.2187  0.7178
  553TMC3     O 8260   1.048   0.923  14.248 -0.6470  0.4684 -0.0474
  553TMC3     H 8261   0.989   0.827  14.053  0.9231 -0.1732 -0.0549
  553TMC3    H1 8262   0.917   0.612  14.408 -1.7527  2.3196  0.1149
  553TMC3    H2 8263   0.897   0.401  14.043  0.1867 -0.2558 -0.0259
  553TMC3    C7 8264   0.871   0.377  14.293  0.5268 -0.3149 -0.1132
  553TMC3    C8 8265   1.021   0.596  13.905  0.6401  0.1629  0.6610
  553TMC3    O1 8266   0.795   0.368  14.389  0.1710 -0.2761 -0.3260
  553TMC3    O2 8267   1.123   0.663  13.906  0.3187 -0.2944 -0.6551
  554TMC3    C1 8268   3.509   4.573  11.565  0.2209  0.0944  0.0190
  554TMC3    C2 8269   3.411   4.501  11.494 -0.1037  1.0103 -0.1841
  554TMC3    C3 8270   3.314   4.577  11.435  0.0199  0.1257  0.4356
  554TMC3    C4 8271   3.508   4.710  11.570 -0.0733  0.1539  0.2901
  554TMC3    C5 8272   3.398   0.032  11.522  0.0079 -0.3854  1.0107
  554TMC3    C6 8273   3.294   4.714  11.446  0.2421 -0.0216  0.8151
  554TMC3     C 8274   3.601   4.508  11.656 -0.3045 -0.6015 -0.0973
  554TMC3     O 8275   3.698   4.569  11.697  0.1945 -0.1605  0.3752
  554TMC3     H 8276   3.400   4.394  11.478 -0.6288  0.8374  1.3119
  554TMC3    H1 8277   3.588   0.027  11.617 -0.6387 -0.4348  1.9308
  554TMC3    H2 8278   3.214   0.026  11.395 -0.0186 -0.8517  0.3911
  554TMC3    C7 8279   3.399   0.175  11.499  0.3925 -0.1199  0.1640
  554TMC3    C8 8280   3.204   4.516  11.374 -0.0962 -0.1428  0.4050
  554TMC3    O1 8281   3.503   0.228  11.467  0.1026  0.5622  0.4384
  554TMC3    O2 8282   3.215   4.446  11.269 -0.2155 -0.1508  0.1041
  555TMC3    C1 8283   2.175   3.698  15.158 -0.9111  0.0501  0.5473
  555TMC3    C2 8284   2.100   3.782  15.237 -0.4701  0.0549 -0.8024
  555TMC3    C3 8285   2.112   3.766  15.373  0.5857 -0.3656  0.6534
  555TMC3    C4 8286   2.249   3.596  15.213 -1.2105 -0.3807  0.6051
  555TMC3    C5 8287   2.252   3.585  15.349 -0.5373  0.7046  0.9030
  555TMC3    C6 8288   2.184   3.671  15.429  0.8139  0.8648  0.1854
  555TMC3     C 8289   2.205   3.725  15.022  0.0603 -0.4546  0.3728
  555TMC3     O 8290   2.310   3.689  14.974  0.1152 -0.4011 -0.2412
  555TMC3     H 8291   2.051   3.877  15.218  1.0425  0.5044 -2.4592
  555TMC3    H1 8292   2.305   3.524  15.153 -0.3550  1.1692 -0.4467
  555TMC3    H2 8293   2.177   3.662  15.537 -1.7328 -0.0242 -0.0535
  555TMC3    C7 8294   2.293   3.470  15.417 -0.0625  0.3142 -0.1326
  555TMC3    C8 8295   2.048   3.869  15.458  0.0376 -0.2916 -0.1507
  555TMC3    O1 8296   2.260   3.454  15.535 -0.5573 -0.6885 -0.6524
  555TMC3    O2 8297   1.956   3.925  15.403  0.2420 -0.2014 -0.1315
  556MPD2     C 8298   4.545   1.195  11.061  0.8492  0.7718  0.6437
  556MPD2    C1 8299   4.554   1.092  11.152 -0.4157 -0.1715  0.1416
  556MPD2    C2 8300   4.590   0.966  11.112  0.0589 -0.2849 -0.4970
  556MPD2    C3 8301   4.632   0.944  10.984  0.4213  0.4028 -0.1927
  556MPD2    C4 8302   4.637   1.055  10.900 -0.9884  0.2766 -0.0110
  556MPD2    C5 8303   4.588   1.179  10.936  0.3426  0.1004 -0.5331
  556MPD2     H 8304   4.594   0.880  11.178 -1.9834 -0.1829 -0.2421
  556MPD2    H1 8305   4.672   1.051  10.797 -0.8808 -2.5579  0.1588
  556MPD2    H2 8306   4.506   1.295  11.074  0.9372  1.1599 -2.1872
  556MPD2    H3 8307   4.581   1.271  10.880 -0.3695 -0.3487 -1.1970
  556MPD2     N 8308   4.693   0.822  10.955 -0.0248 -0.0297 -0.8851
  556MPD2    H5 8309   4.671   0.749  11.022  0.4228  1.4309  0.8673
  556MPD2    N1 8310   4.516   1.117  11.285  0.2473  0.2727 -0.2476
  556MPD2    H7 8311   4.533   1.040  11.349 -1.9454  1.1383  1.3978
  557TMC3    C1 8312   0.095   0.656  10.863 -0.5786 -0.2890 -0.2064
  557TMC3    C2 8313   0.121   0.601  10.741  0.1596  0.1529  0.2402
  557TMC3    C3 8314   0.063   0.475  10.720  0.0041  0.1851 -0.4505
  557TMC3    C4 8315   0.053   0.581  10.966 -0.8137 -0.6048 -0.7841
  557TMC3    C5 8316   0.013   0.457  10.941  0.0281  0.9274  0.0381
  557TMC3    C6 8317   0.009   0.399  10.818 -1.1001  0.3659  0.1002
  557TMC3     C 8318   0.043   0.795  10.848  0.3495  0.1962 -0.8695
  557TMC3     O 8319   0.065   0.847  10.737 -0.2647 -1.0132 -0.1136
  557TMC3     H 8320   0.169   0.665  10.668  0.9579 -0.9469 -0.2106
  557TMC3    H1 8321   0.059   0.627  11.065 -0.3178  0.5398 -1.3475
  557TMC3    H2 8322   4.702   0.303  10.797 -4.2265  1.5225  1.7835
  557TMC3    C7 8323   4.707   0.377  11.057 -0.1930 -0.2919  0.0261
  557TMC3    C8 8324   0.095   0.409  10.595 -0.0052  0.0354  0.0401
  557TMC3    O1 8325   4.622   0.297  11.036 -0.4756 -0.2131  0.8073
  557TMC3    O2 8326   0.027   0.316  10.567  0.3442 -0.1222  0.2725
  558TMC3    C1 8327   2.244   3.293  10.538 -0.0152 -0.9811 -0.0749
  558TMC3    C2 8328   2.161   3.362  10.620 -0.6876  0.8080 -0.5566
  558TMC3    C3 8329   2.039   3.403  10.568 -0.4214 -0.0173  0.2165
  558TMC3    C4 8330   2.208   3.263  10.411 -0.2751 -0.2278  0.0641
  558TMC3    C5 8331   2.088   3.308  10.366 -0.2147  0.2183 -0.4497
  558TMC3    C6 8332   2.006   3.388  10.439  0.4716 -0.6414 -0.1275
  558TMC3     C 8333   2.346   3.213  10.599 -0.6104 -0.6480 -1.0432
  558TMC3     O 8334   2.370   3.100  10.553 -0.7680  0.2033 -0.1609
  558TMC3     H 8335   2.186   3.376  10.724 -0.2077  2.2782 -0.8708
  558TMC3    H1 8336   2.270   3.200  10.349 -1.0415  0.5371 -1.4703
  558TMC3    H2 8337   1.914   3.429  10.399  0.2190 -0.4243  0.6567
  558TMC3    C7 8338   2.068   3.317  10.218 -0.3106 -0.2800 -0.2452
  558TMC3    C8 8339   1.956   3.490  10.643  0.1146  0.0246  0.1019
  558TMC3    O1 8340   2.165   3.310  10.147  0.5202  0.5164  0.2941
  558TMC3    O2 8341   1.904   3.579  10.581  0.6009 -0.3552  0.7143
  559MPD2     C 8342   2.551   4.380  10.637 -0.7239  0.2050  0.0937
  559MPD2    C1 8343   2.484   4.365  10.759 -0.5304 -0.3148 -0.3651
  559MPD2    C2 8344   2.553   4.350  10.875  0.3080  0.0787 -0.7182
  559MPD2    C3 8345   2.689   4.330  10.874  0.0186  0.3025  0.5503
  559MPD2    C4 8346   2.757   4.356  10.757  0.6510 -0.0780  0.0012
  559MPD2    C5 8347   2.687   4.381  10.641  0.1511 -0.2605 -0.1024
  559MPD2     H 8348   2.492   4.338  10.964  2.4224 -1.1010  0.5545
  559MPD2    H1 8349   2.864   4.347  10.750  0.8795  2.3044  0.6194
  559MPD2    H2 8350   2.498   4.408  10.547  1.4631  0.7003 -1.0344
  559MPD2    H3 8351   2.739   4.381  10.546  0.3915 -1.4990  0.0285
  559MPD2     N 8352   2.761   4.293  10.996  0.6625  0.2823  0.1531
  559MPD2    H5 8353   2.707   4.266  11.078 -1.5636  0.3303 -1.3121
  559MPD2    N1 8354   2.343   4.364  10.747  0.3368  0.4992 -0.7004
  559MPD2    H7 8355   2.307   4.397  10.659  1.4090 -0.2851 -1.4363
  560TMC3    C1 8356   2.932   4.189  11.119 -0.8196 -0.2881  0.4704
  560TMC3    C2 8357   2.843   4.092  11.161  0.8639 -0.0546  0.0611
  560TMC3    C3 8358   2.891   3.993  11.241  0.0784  0.0714  0.0456
  560TMC3    C4 8359   3.064   4.189  11.153 -0.3606  0.1034  0.0347
  560TMC3    C5 8360   3.108   4.084  11.231  0.0481  0.5504 -0.6403
  560TMC3    C6 8361   3.023   3.982  11.270 -0.4303  0.6012 -0.9319
  560TMC3     C 8362   2.901   4.279  11.011 -0.2635 -0.0192 -0.5035
  560TMC3     O 8363   2.992   4.336  10.960  0.2442 -0.4049 -0.7379
  560TMC3     H 8364   2.737   4.093  11.139  0.5091  0.8212  1.8707
  560TMC3    H1 8365   3.128   4.274  11.134  0.6436 -0.8292 -0.7740
  560TMC3    H2 8366   3.064   3.896  11.322 -1.6639  0.1189 -0.7604
  560TMC3    C7 8367   3.233   4.089  11.307  0.0716 -0.5995 -0.9956
  560TMC3    C8 8368   2.785   3.915  11.316 -0.1833  0.4362  0.1406
  560TMC3    O1 8369   3.236   4.009  11.402  0.4372 -0.0022 -0.5064
  560TMC3    O2 8370   2.669   3.920  11.282  0.0982  0.2070  0.4777
  561TMC3    C1 8371   0.468   3.128  11.476  0.2925 -0.0105 -0.1437
  561TMC3    C2 8372   0.381   3.061  11.554  0.0275 -0.1961  0.1558
  561TMC3    C3 8373   0.304   3.130  11.647  0.3224 -0.0170 -0.0052
  561TMC3    C4 8374   0.475   3.267  11.481  0.1567  0.1963 -0.1741
  561TMC3    C5 8375   0.380   3.331  11.565  0.0541 -0.6862  0.0617
  561TMC3    C6 8376   0.292   3.271  11.645  0.6220  0.0864 -1.6916
  561TMC3     C 8377   0.566   3.056  11.390 -0.0092 -0.3085  0.8912
  561TMC3     O 8378   0.539   2.942  11.361  0.4593 -0.1468 -0.2054
  561TMC3     H 8379   0.386   2.952  11.556 -2.3834 -0.2974  0.8328
  561TMC3    H1 8380   0.544   3.322  11.418 -0.1397  0.3271 -0.3856
  561TMC3    H2 8381   0.216   3.324  11.700  0.4312 -1.0590 -0.8414
  561TMC3    C7 8382   0.381   3.474  11.571 -0.0910  0.4824 -0.7559
  561TMC3    C8 8383   0.221   3.052  11.740 -0.0519  0.7150 -0.3279
  561TMC3    O1 8384   0.321   3.524  11.669  0.0716  0.2912 -0.5544
  561TMC3    O2 8385   0.200   2.936  11.710 -0.2128 -0.1227 -0.1174
  562TMC3    C1 8386   2.190   4.333  16.515  0.4143  0.1756  0.1159
  562TMC3    C2 8387   2.058   4.367  16.493 -0.7688 -0.2170  0.2323
  562TMC3    C3 8388   2.008   4.311  16.376 -0.2579  0.1398  0.1929
  562TMC3    C4 8389   2.252   4.225  16.458  0.5171 -0.4439 -0.3046
  562TMC3    C5 8390   2.187   4.154  16.359 -0.0958  0.3874  0.2747
  562TMC3    C6 8391   2.059   4.202  16.317  0.0048 -0.3283  0.4032
  562TMC3     C 8392   2.247   4.376  16.647  0.3654  0.0890 -0.2471
  562TMC3     O 8393   2.166   4.427  16.718 -0.3589 -0.8273 -0.2577
  562TMC3     H 8394   2.002   4.448  16.538  0.6137  0.6183  0.4270
  562TMC3    H1 8395   2.344   4.186  16.499  2.0195  2.0474 -1.3141
  562TMC3    H2 8396   2.007   4.151  16.237  1.1252  1.8349 -1.7169
  562TMC3    C7 8397   2.243   4.032  16.302 -0.1835  0.4966 -0.4213
  562TMC3    C8 8398   1.884   4.377  16.341 -0.4182  0.4759 -0.2526
  562TMC3    O1 8399   2.165   3.959  16.241  0.1396 -0.1825  0.4492
  562TMC3    O2 8400   1.822   4.433  16.428  0.3254  0.2255 -0.2724
  563MPD2     C 8401   4.044   0.282  15.857  0.6618  0.4599  0.4441
  563MPD2    C1 8402   4.094   0.406  15.882  0.1826  0.8303  0.1298
  563MPD2    C2 8403   4.223   0.404  15.932  0.1641  0.3944 -0.8335
  563MPD2    C3 8404   4.301   0.291  15.947 -0.1432 -1.0078 -0.0426
  563MPD2    C4 8405   4.251   0.168  15.902 -0.0081 -0.2523  0.1430
  563MPD2    C5 8406   4.122   0.169  15.870 -0.6247 -0.7881 -0.2192
  563MPD2     H 8407   4.272   0.500  15.947  1.4850 -0.3294 -0.5045
  563MPD2    H1 8408   4.303   0.073  15.900  0.0000 -0.2519  0.3899
  563MPD2    H2 8409   3.946   0.266  15.812  0.2215 -0.4014  1.7046
  563MPD2    H3 8410   4.068   0.077  15.849 -1.2235 -0.1288 -1.5913
  563MPD2     N 8411   4.425   0.308  16.009  0.5210  0.2972  0.8481
  563MPD2    H5 8412   4.443   0.403  16.040  0.5149  0.1546  1.2886
  563MPD2    N1 8413   4.006   0.516  15.875 -0.4564 -0.0099  0.2637
  563MPD2    H7 8414   3.908   0.494  15.866 -0.4382 -0.2727  0.7415
  564TMC3    C1 8415   3.933   0.702  15.982  0.9251  0.0162 -0.9733
  564TMC3    C2 8416   3.807   0.649  15.945  0.0909 -0.5238 -0.6537
  564TMC3    C3 8417   3.719   0.619  16.046  0.2611  0.2420  0.0574
  564TMC3    C4 8418   3.967   0.719  16.111 -0.4750  0.2412 -0.4156
  564TMC3    C5 8419   3.886   0.689  16.208 -0.3439  1.0469 -0.0464
  564TMC3    C6 8420   3.760   0.646  16.175 -0.3973 -0.2729  0.2074
  564TMC3     C 8421   4.044   0.643  15.903 -0.3782 -0.0830 -0.5359
  564TMC3     O 8422   4.152   0.699  15.910  0.1114 -0.6323  0.0639
  564TMC3     H 8423   3.791   0.644  15.837  0.1133 -0.1609 -0.6745
  564TMC3    H1 8424   4.071   0.730  16.139 -0.1001 -0.1756 -1.6053
  564TMC3    H2 8425   3.687   0.633  16.254 -1.1546 -1.5778 -0.7088
  564TMC3    C7 8426   3.943   0.597  16.314 -0.0780  0.2269  0.0903
  564TMC3    C8 8427   3.661   0.488  16.029 -0.2401 -0.3175 -0.0876
  564TMC3    O1 8428   4.040   0.630  16.376 -0.1336 -0.0802  0.1660
  564TMC3    O2 8429   3.673   0.423  16.133  0.8145 -0.0932 -0.0790
  565TMC3    C1 8430   4.174   2.364  10.505 -0.0836 -0.1252  0.7678
  565TMC3    C2 8431   4.168   2.283  10.611  0.6231  0.1509  0.2542
  565TMC3    C3 8432   4.101   2.171  10.593 -0.3538  0.3201  0.2938
  565TMC3    C4 8433   4.106   2.335  10.389 -0.2705  0.4241  0.1413
  565TMC3    C5 8434   4.022   2.226  10.381  0.5761 -0.3477 -0.0240
  565TMC3    C6 8435   4.020   2.143  10.489  0.2793  0.4434 -0.1362
  565TMC3     C 8436   4.244   2.492  10.504  0.6333  0.2311  0.7177
  565TMC3     O 8437   4.241   2.565  10.405 -0.0995 -0.2469 -0.3096
  565TMC3     H 8438   4.231   2.304  10.696  1.8946 -0.2875 -0.5816
  565TMC3    H1 8439   4.102   2.401  10.304  0.5704  1.2596  0.7551
  565TMC3    H2 8440   3.965   2.050  10.473  1.5079 -0.2071 -0.5810
  565TMC3    C7 8441   3.938   2.201  10.270  0.2610 -0.1358 -0.3763
  565TMC3    C8 8442   4.110   2.085  10.712 -0.9819  0.4417  0.2843
  565TMC3    O1 8443   3.878   2.095  10.256  0.5011  0.1041 -0.1833
  565TMC3    O2 8444   4.149   2.137  10.815  0.1885 -0.0104  0.1776
  566MPD2     C 8445   1.427   3.503  14.691  0.7026  0.4443 -0.2705
  566MPD2    C1 8446   1.470   3.612  14.621 -0.0083  0.0741 -0.0976
  566MPD2    C2 8447   1.380   3.672  14.538  0.3902  0.5195 -0.4905
  566MPD2    C3 8448   1.250   3.630  14.522 -0.0736  0.1788 -0.6126
  566MPD2    C4 8449   1.208   3.516  14.588 -0.0570 -0.6698  0.1647
  566MPD2    C5 8450   1.297   3.457  14.673 -0.3539 -0.7898 -0.3857
  566MPD2     H 8451   1.411   3.752  14.472  3.7969  0.1054  0.6021
  566MPD2    H1 8452   1.116   3.463  14.565 -0.1946 -0.3248 -0.0871
  566MPD2    H2 8453   1.490   3.442  14.754 -0.1093 -0.2841 -0.1621
  566MPD2    H3 8454   1.274   3.363  14.722  0.2345 -0.9749 -0.4652
  566MPD2     N 8455   1.164   3.687  14.421  0.4916  0.1642  0.1451
  566MPD2    H5 8456   1.093   3.626  14.382  0.5948 -0.7254  1.3601
  566MPD2    N1 8457   1.609   3.655  14.642  0.2440 -0.0325  0.7361
  566MPD2    H7 8458   1.669   3.608  14.709  0.2606 -1.2172 -0.1131
  567TMC3    C1 8459   1.820   3.737  14.543 -0.1701  0.3273  0.2394
  567TMC3    C2 8460   1.860   3.743  14.412 -0.6421  0.3340  0.2404
  567TMC3    C3 8461   1.984   3.694  14.369 -0.4764  0.3042  0.1943
  567TMC3    C4 8462   1.885   3.664  14.637 -0.7832 -0.6130 -0.6739
  567TMC3    C5 8463   2.008   3.613  14.595 -0.2770 -0.1620 -0.2032
  567TMC3    C6 8464   2.058   3.635  14.464 -0.2287 -1.0150 -0.3680
  567TMC3     C 8465   1.670   3.758  14.567  0.0819  0.4778  0.6452
  567TMC3     O 8466   1.625   3.830  14.482  0.0849  0.0135 -0.0726
  567TMC3     H 8467   1.802   3.788  14.333 -1.8751  1.7761  1.9799
  567TMC3    H1 8468   1.847   3.673  14.738 -0.9033 -0.2105 -0.7531
  567TMC3    H2 8469   2.156   3.600  14.433 -0.3050 -1.9348  0.4125
  567TMC3    C7 8470   2.101   3.536  14.678  0.4686 -0.0241  0.3322
  567TMC3    C8 8471   1.989   3.663  14.233  0.5561  0.4876  0.0082
  567TMC3    O1 8472   2.222   3.521  14.652 -0.5986  0.2907  0.6397
  567TMC3    O2 8473   1.882   3.661  14.172  0.2299 -0.2523  0.7415
  568MPD2     C 8474   4.439   3.867  16.104  0.5992  0.1758 -0.6534
  568MPD2    C1 8475   4.411   3.921  16.226 -0.5423  0.1750  0.2016
  568MPD2    C2 8476   4.326   4.030  16.238  0.2277  0.3432 -0.0588
  568MPD2    C3 8477   4.256   4.073  16.126  0.0898 -0.1293 -0.2930
  568MPD2    C4 8478   4.271   4.010  16.000 -0.0214 -0.7215 -0.1994
  568MPD2    C5 8479   4.362   3.911  15.997  0.8522 -0.6700 -0.1083
  568MPD2     H 8480   4.320   4.082  16.333 -1.3617 -0.9978  0.5734
  568MPD2    H1 8481   4.205   4.029  15.916  1.2296  0.3613 -0.9333
  568MPD2    H2 8482   4.512   3.787  16.102 -0.8960 -1.1863 -1.4758
  568MPD2    H3 8483   4.377   3.860  15.902  0.4218  1.1426 -1.1355
  568MPD2     N 8484   4.178   4.193  16.130 -0.0804 -0.3489  0.8183
  568MPD2    H5 8485   4.193   4.249  16.214  0.7771  0.2311  0.2709
  568MPD2    N1 8486   4.471   3.867  16.348 -0.1707  0.2170 -0.3838
  568MPD2    H7 8487   4.542   3.797  16.334  0.9061  0.7497  2.3628
  569TMC3    C1 8488   4.032   4.350  16.102  0.3973  0.0812  0.6781
  569TMC3    C2 8489   3.997   4.350  16.231 -0.5491 -0.6631 -0.1609
  569TMC3    C3 8490   3.904   4.448  16.269 -0.0924  0.1469 -0.0138
  569TMC3    C4 8491   3.959   4.422  16.004  0.4325 -0.0995 -0.3832
  569TMC3    C5 8492   3.885   4.525  16.054 -0.1489 -0.2004 -0.3483
  569TMC3    C6 8493   3.851   4.541  16.186  0.8692  0.9089 -1.1864
  569TMC3     C 8494   4.108   4.242  16.034  0.2823  0.3442 -0.9423
  569TMC3     O 8495   4.084   4.212  15.922 -0.1099 -0.1008 -0.2646
  569TMC3     H 8496   4.032   4.282  16.308 -1.8151  1.1525  2.0082
  569TMC3    H1 8497   3.987   4.406  15.900  1.5712  0.2032 -0.1187
  569TMC3    H2 8498   3.794   4.622  16.231 -0.7037 -1.6933  1.5297
  569TMC3    C7 8499   3.823   4.596  15.943  0.5888  0.4213  0.4802
  569TMC3    C8 8500   3.874   4.462  16.411  0.0169  0.0632  0.0339
  569TMC3    O1 8501   3.826   4.538  15.834  0.7881  0.1177 -0.1420
  569TMC3    O2 8502   3.895   4.574  16.459  0.2505  0.1127  0.4490
  570TMC3    C1 8503   3.942   2.897  16.560  0.1486  0.7224  0.5230
  570TMC3    C2 8504   3.938   2.911  16.426 -0.3897  0.0554 -0.5289
  570TMC3    C3 8505   3.998   3.012  16.360  0.0167 -0.7207  0.0624
  570TMC3    C4 8506   4.013   2.989  16.636 -0.1606  0.1961  0.7487
  570TMC3    C5 8507   4.067   3.096  16.572 -0.6947 -0.7284 -0.6771
  570TMC3    C6 8508   4.066   3.111  16.433  0.5331  0.6459  0.4096
  570TMC3     C 8509   3.882   2.789  16.620 -0.2029 -0.2672 -0.3756
  570TMC3     O 8510   3.860   2.691  16.550 -0.1388 -0.6921  0.3710
  570TMC3     H 8511   3.879   2.837  16.373 -3.3623  1.9032  0.2414
  570TMC3    H1 8512   4.024   2.974  16.743 -2.9887 -0.4786  0.9578
  570TMC3    H2 8513   4.090   3.208  16.392  2.1866  0.4068  0.7861
  570TMC3    C7 8514   4.164   3.164  16.649  0.4896  0.5850 -0.3696
  570TMC3    C8 8515   3.969   3.054  16.225  0.8186  0.6150  0.4229
  570TMC3    O1 8516   4.131   3.175  16.765  0.4725 -0.5031 -0.0304
  570TMC3    O2 8517   4.034   3.151  16.179 -0.0161 -0.0900 -0.5712
  571MPD2     C 8518   1.716   0.340  17.540 -0.3037 -0.1727  0.3426
  571MPD2    C1 8519   1.647   0.296  17.651 -0.4379  0.6553 -0.6568
  571MPD2    C2 8520   1.654   0.366   0.014 -0.0475 -0.4990 -0.5133
  571MPD2    C3 8521   1.724   0.485   0.016 -0.1770 -0.1659 -0.1623
  571MPD2    C4 8522   1.791   0.528  17.656 -0.0160  0.7126  0.1020
  571MPD2    C5 8523   1.794   0.456  17.542 -0.1619 -0.4325  0.5908
  571MPD2     H 8524   1.598   0.343   0.104  0.0121  0.0712 -0.3259
  571MPD2    H1 8525   1.853   0.617  17.658  0.6558  0.2776 -1.5971
  571MPD2    H2 8526   1.709   0.285  17.448  3.9856  0.1013 -0.1238
  571MPD2    H3 8527   1.832   0.493  17.448 -1.6789  0.3766  0.3077
  571MPD2     N 8528   1.746   0.564   0.129 -0.8113  0.2834 -0.1868
  571MPD2    H5 8529   1.800   0.648   0.111  0.7393 -0.9463 -1.2764
  571MPD2    N1 8530   1.572   0.175  17.639  0.5648  0.1356  0.2561
  571MPD2    H7 8531   1.574   0.120  17.553 -1.7725  0.8675 -0.2589
  572TMC3    C1 8532   1.723   0.660   0.342 -0.0903 -0.1952  0.2814
  572TMC3    C2 8533   1.668   0.655   0.468 -0.7522 -0.5747  0.9061
  572TMC3    C3 8534   1.674   0.783   0.533  0.0905 -0.0838 -0.7226
  572TMC3    C4 8535   1.801   0.762   0.299  0.2447  0.3212 -0.3023
  572TMC3    C5 8536   1.823   0.872   0.380 -0.1395  0.2729  0.7621
  572TMC3    C6 8537   1.745   0.888   0.488 -0.2788  0.4769 -0.6735
  572TMC3     C 8538   1.696   0.541   0.261 -0.4891  0.3404  0.5326
  572TMC3     O 8539   1.629   0.440   0.290  0.0063  0.2378 -0.4208
  572TMC3     H 8540   1.595   0.580   0.493 -1.5507  0.0653  0.4777
  572TMC3    H1 8541   1.856   0.756   0.206 -2.5031  0.0583 -1.8998
  572TMC3    H2 8542   1.745   0.984   0.537  0.5025 -0.0128  0.2747
  572TMC3    C7 8543   1.887   0.984   0.327 -0.0145  0.1995  0.0328
  572TMC3    C8 8544   1.593   0.811   0.648 -0.3623  0.3982  0.0713
  572TMC3    O1 8545   1.876   0.995   0.206  0.4271  0.4035  0.1071
  572TMC3    O2 8546   1.582   0.930   0.684  0.3958 -0.2316 -0.5184
  573MPD2     C 8547   2.416   4.464   0.159 -0.3567  0.3062 -0.2285
  573MPD2    C1 8548   2.413   4.593   0.207 -0.7561  0.3337 -0.1409
  573MPD2    C2 8549   2.297   4.666   0.208 -0.5399 -0.1405 -0.1308
  573MPD2    C3 8550   2.179   4.615   0.174 -0.3634 -0.1065 -0.1965
  573MPD2    C4 8551   2.178   4.480   0.128  0.1010 -0.4451 -0.3895
  573MPD2    C5 8552   2.292   4.404   0.135 -0.3869 -0.2477 -0.1770
  573MPD2     H 8553   2.294   0.032   0.232  0.6335  0.5961 -3.2376
  573MPD2    H1 8554   2.088   4.433   0.090 -0.4492 -0.2657  0.6805
  573MPD2    H2 8555   2.501   4.397   0.165  1.0086  1.7516 -3.6671
  573MPD2    H3 8556   2.293   4.298   0.112 -0.6027 -0.5003  1.0084
  573MPD2     N 8557   2.068   4.700   0.177  0.1071  0.0561  0.3989
  573MPD2    H5 8558   2.086   0.052   0.217  3.8630 -1.6757  2.6540
  573MPD2    N1 8559   2.543   4.640   0.250  0.4284 -0.3989 -0.1871
  573MPD2    H7 8560   2.624   4.586   0.221  1.0005 -0.5552  1.6801
  574TMC3    C1 8561   1.891   0.074   0.076  0.6174 -0.0263 -0.0927
  574TMC3    C2 8562   1.936   0.156   0.175  0.3893  0.3250 -0.0789
  574TMC3    C3 8563   1.980   0.285   0.144  0.6484  0.3758  0.0248
  574TMC3    C4 8564   1.924   0.113  17.711 -0.4396  0.3036 -0.3047
  574TMC3    C5 8565   2.012   0.219  17.680  0.0278 -0.0657  0.2857
  574TMC3    C6 8566   2.029   0.315   0.020  0.3135  0.9532 -0.4807
  574TMC3     C 8567   1.949   4.682   0.102 -0.0723  0.0500 -0.1538
  574TMC3     O 8568   1.923   4.601   0.016 -0.0027 -0.1355  0.6932
  574TMC3     H 8569   1.917   0.126   0.277  0.2775  1.2161  0.1639
  574TMC3    H1 8570   1.890   0.043  17.636  0.4254 -0.0183 -0.3908
  574TMC3    H2 8571   2.080   0.408  17.750  0.6723  0.3125 -2.0956
  574TMC3    C7 8572   2.082   0.213  17.557  0.1047 -0.1084 -0.3987
  574TMC3    C8 8573   2.006   0.368   0.254 -0.6308 -0.7447  0.7633
  574TMC3    O1 8574   2.064   0.118  17.484 -0.1492 -0.1236  0.2970
  574TMC3    O2 8575   1.970   0.327   0.362  0.3239  0.8806  0.5764
  575TMC3    C1 8576   4.357   1.887  11.519  0.1003  0.0936 -0.9542
  575TMC3    C2 8577   4.307   1.782  11.589 -0.2345 -0.0174 -0.6179
  575TMC3    C3 8578   4.235   1.692  11.520  0.6004  0.8070  0.0902
  575TMC3    C4 8579   4.326   1.911  11.384  0.5206 -0.1705  0.5983
  575TMC3    C5 8580   4.247   1.822  11.324 -0.2792  0.0920 -0.4348
  575TMC3    C6 8581   4.198   1.718  11.396  0.0177  0.3505  0.2426
  575TMC3     C 8582   4.424   1.993  11.599  0.3398  0.1465 -0.2953
  575TMC3     O 8583   4.433   1.968  11.716  0.5200 -0.2347 -0.1578
  575TMC3     H 8584   4.324   1.766  11.695 -0.3024  2.5424 -0.2302
  575TMC3    H1 8585   4.364   1.992  11.323  0.7867 -1.4926 -0.9885
  575TMC3    H2 8586   4.106   1.668  11.368 -0.2598  1.0657 -0.1122
  575TMC3    C7 8587   4.208   1.854  11.181 -0.2438 -0.1178 -0.3141
  575TMC3    C8 8588   4.181   1.582  11.593 -0.3668 -0.2955 -0.2643
  575TMC3    O1 8589   4.217   1.972  11.151  0.0311 -0.1014 -0.3030
  575TMC3    O2 8590   4.178   1.593  11.716 -0.8630  0.7003  0.2968
  576MPD2     C 8591   4.117   3.391  12.939 -0.3427  0.3696 -0.6714
  576MPD2    C1 8592   4.206   3.480  12.896  0.5165  0.1952 -0.6121
  576MPD2    C2 8593   4.227   3.586  12.980 -0.2416  0.6790  0.2011
  576MPD2    C3 8594   4.154   3.608  13.098 -0.7465 -0.7931  0.1381
  576MPD2    C4 8595   4.069   3.505  13.140  0.2156  0.0564  0.2465
  576MPD2    C5 8596   4.046   3.399  13.054  0.3440 -1.4653  0.2670
  576MPD2     H 8597   4.296   3.660  12.942  0.2175  0.0280 -0.2253
  576MPD2    H1 8598   4.014   3.519  13.232 -0.3724  0.5851 -0.1859
  576MPD2    H2 8599   4.105   3.296  12.887 -0.2140  0.4005 -0.7571
  576MPD2    H3 8600   3.967   3.328  13.072 -0.6171 -1.3202 -3.4332
  576MPD2     N 8601   4.181   3.730  13.168  0.7104 -0.4244 -0.0361
  576MPD2    H5 8602   4.244   3.791  13.116 -0.8430  1.0314 -0.1920
  576MPD2    N1 8603   4.277   3.469  12.779  0.1014 -0.1004 -0.0492
  576MPD2    H7 8604   4.341   3.540  12.743  0.8060 -0.7543 -0.1067
  577TMC3    C1 8605   4.363   3.386  12.576 -0.0546 -0.1972  0.2940
  577TMC3    C2 8606   4.408   3.283  12.500 -0.3092 -0.2739  0.2715
  577TMC3    C3 8607   4.500   3.299  12.402  0.3016 -0.0026 -0.0455
  577TMC3    C4 8608   4.400   3.516  12.543 -0.0367 -0.3483 -0.2835
  577TMC3    C5 8609   4.485   3.530  12.438  0.5899  0.1249  0.6017
  577TMC3    C6 8610   4.537   3.425  12.369 -0.3987  0.2129 -0.0529
  577TMC3     C 8611   4.272   3.365  12.690  0.4121  0.3218 -0.4332
  577TMC3     O 8612   4.201   3.269  12.688 -0.0635  0.0155 -0.5741
  577TMC3     H 8613   4.383   3.183  12.534  0.2053 -0.4433  0.1590
  577TMC3    H1 8614   4.349   3.602  12.586  2.0003  1.1843 -0.9121
  577TMC3    H2 8615   4.617   3.440  12.298  0.8762 -1.9894  0.8945
  577TMC3    C7 8616   4.526   3.660  12.412  0.0851 -0.6378  0.0575
  577TMC3    C8 8617   4.555   3.176  12.349  0.0697 -0.3274  0.0160
  577TMC3    O1 8618   4.576   3.718  12.505  0.0039 -0.0772  0.7419
  577TMC3    O2 8619   4.532   3.068  12.396  0.1320  0.5748 -0.0726
  578MPD2     C 8620   2.335   3.249   0.534  0.2168  0.4594 -0.0763
  578MPD2    C1 8621   2.429   3.188   0.457  1.3160 -0.0630 -0.1370
  578MPD2    C2 8622   2.550   3.156   0.506 -0.0257 -0.3481  0.4387
  578MPD2    C3 8623   2.580   3.193   0.638  0.2707  0.0871  0.0907
  578MPD2    C4 8624   2.491   3.254   0.717 -0.4402 -0.0794  0.3167
  578MPD2    C5 8625   2.368   3.278   0.662  0.3534  0.1116  0.0057
  578MPD2     H 8626   2.619   3.107   0.437 -0.4578  1.2302 -1.1081
  578MPD2    H1 8627   2.503   3.264   0.825  1.2792 -1.5360  0.2611
  578MPD2    H2 8628   2.233   3.272   0.507 -0.3314  0.2787  1.8996
  578MPD2    H3 8629   2.289   3.323   0.721 -1.0726 -2.1517 -0.1864
  578MPD2     N 8630   2.710   3.156   0.677 -0.1040 -0.0597  0.1513
  578MPD2    H5 8631   2.763   3.083   0.630  0.1565  1.3719 -1.8033
  578MPD2    N1 8632   2.393   3.169   0.321 -0.6370  0.1541 -0.1441
  578MPD2    H7 8633   2.297   3.201   0.310 -0.7997 -0.1846  0.2775
  579TMC3    C1 8634   2.917   3.186   0.787 -0.1406  0.5086 -0.1097
  579TMC3    C2 8635   3.007   3.276   0.833 -0.2748 -0.4285  0.7669
  579TMC3    C3 8636   3.140   3.241   0.829 -0.0595 -0.1181  0.7625
  579TMC3    C4 8637   2.955   3.059   0.745  0.0888  0.5090  0.0638
  579TMC3    C5 8638   3.076   3.019   0.783 -0.4856 -0.2137  0.1767
  579TMC3    C6 8639   3.176   3.111   0.804  0.6530  0.1967 -0.2008
  579TMC3     C 8640   2.782   3.223   0.773  0.4836 -0.2422 -0.4340
  579TMC3     O 8641   2.745   3.311   0.849 -0.3709  0.0107  0.1454
  579TMC3     H 8642   2.977   3.379   0.848  2.4462  0.5400 -0.5601
  579TMC3    H1 8643   2.884   2.987   0.707  0.4684 -0.4132  1.1297
  579TMC3    H2 8644   3.281   3.081   0.798  1.0643  1.5288  0.3945
  579TMC3    C7 8645   3.114   2.874   0.781 -0.3778 -0.0907 -0.7259
  579TMC3    C8 8646   3.228   3.328   0.909 -0.1689  0.7140  1.0501
  579TMC3    O1 8647   3.227   2.860   0.736 -0.8328 -0.2235  0.2882
  579TMC3    O2 8648   3.188   3.443   0.923 -0.0266 -0.0311 -0.1014
  580TMC3    C1 8649   2.161   2.295  12.141 -0.2716 -0.5796  0.0496
  580TMC3    C2 8650   2.174   2.251  12.009  0.4794 -0.5086  0.5615
  580TMC3    C3 8651   2.155   2.116  11.983 -0.6434  0.0938 -0.3183
  580TMC3    C4 8652   2.157   2.205  12.244 -0.1939  0.1368 -0.0168
  580TMC3    C5 8653   2.138   2.072  12.210 -0.7536  0.6493 -0.1792
  580TMC3    C6 8654   2.127   2.027  12.083  0.0493 -0.4064  0.2430
  580TMC3     C 8655   2.207   2.430  12.163 -1.3884 -0.0707  0.0522
  580TMC3     O 8656   2.170   2.508  12.082  0.2746 -0.1354  0.6044
  580TMC3     H 8657   2.200   2.317  11.928 -4.1222  1.7016  0.8661
  580TMC3    H1 8658   2.166   2.239  12.347  0.4668 -1.3339  0.4094
  580TMC3    H2 8659   2.129   1.923  12.052  1.6754 -0.6537  1.1780
  580TMC3    C7 8660   2.132   1.983  12.317 -0.4756 -0.7385 -0.6420
  580TMC3    C8 8661   2.177   2.058  11.846  0.3937 -0.3227  0.4805
  580TMC3    O1 8662   2.046   2.000  12.401 -0.0990 -0.3894  0.9252
  580TMC3    O2 8663   2.115   1.962  11.804  0.4909  0.9634 -0.0885
  581MPD2     C 8664   0.772   1.962  15.126 -0.2704 -0.7798 -0.4255
  581MPD2    C1 8665   0.652   1.895  15.145 -0.1899  0.3619  0.1361
  581MPD2    C2 8666   0.535   1.947  15.102  0.6819  0.4717  0.2913
  581MPD2    C3 8667   0.534   2.074  15.032  0.1473 -0.4573 -0.8851
  581MPD2    C4 8668   0.652   2.140  15.010  0.1811  0.1218 -0.1385
  581MPD2    C5 8669   0.772   2.085  15.059  0.7511 -0.2294 -0.2144
  581MPD2     H 8670   0.450   1.880  15.098  0.3448  0.8698  0.7284
  581MPD2    H1 8671   0.663   2.235  14.959  0.4256  0.2220  0.0974
  581MPD2    H2 8672   0.866   1.919  15.161  1.6701  2.1107 -2.1184
  581MPD2    H3 8673   0.861   2.141  15.036 -0.9820  2.9704  0.8192
  581MPD2     N 8674   0.419   2.133  14.970 -0.1972  0.3974  0.3082
  581MPD2    H5 8675   0.426   2.219  14.916  0.9015 -1.9747 -3.3474
  581MPD2    N1 8676   0.660   1.771  15.219  0.4092  0.6355  0.0666
  581MPD2    H7 8677   0.746   1.755  15.271 -0.5272  2.3909  2.1328
  582TMC3    C1 8678   0.566   1.575  15.322  0.4034  0.1038 -0.4104
  582TMC3    C2 8679   0.686   1.559  15.387 -0.0812 -0.1432  0.0538
  582TMC3    C3 8680   0.688   1.462  15.487 -0.1935 -0.3314  0.0984
  582TMC3    C4 8681   0.451   1.520  15.371 -0.7330 -0.0567  0.1040
  582TMC3    C5 8682   0.462   1.429  15.469  0.4685 -0.4090 -0.1759
  582TMC3    C6 8683   0.580   1.394  15.525 -0.4989  0.1574  0.0597
  582TMC3     C 8684   0.553   1.682  15.227  0.1019  0.3509 -1.1975
  582TMC3     O 8685   0.456   1.676  15.154 -0.6201 -0.1235  0.2100
  582TMC3     H 8686   0.772   1.622  15.371 -0.6557  0.7270  0.3997
  582TMC3    H1 8687   0.355   1.541  15.326  0.5118  0.8427 -2.1291
  582TMC3    H2 8688   0.573   1.344  15.620 -2.4472  4.3357  2.0973
  582TMC3    C7 8689   0.354   1.438  15.561 -0.3478  0.0710  0.0061
  582TMC3    C8 8690   0.800   1.455  15.577 -0.1866  0.2591 -0.1897
  582TMC3    O1 8691   0.298   1.332  15.595 -0.3329 -0.0610 -0.1710
  582TMC3    O2 8692   0.857   1.348  15.578 -0.0675  0.1923  0.1173
  583MPD2     C 8693   0.704   3.348  17.114 -0.5185 -0.2241 -1.0672
  583MPD2    C1 8694   0.663   3.470  17.054  0.5745 -0.3845  0.4732
  583MPD2    C2 8695   0.618   3.571  17.139 -0.1370 -0.4542  0.0048
  583MPD2    C3 8696   0.617   3.555  17.275  0.3487  1.0636 -0.0922
  583MPD2    C4 8697   0.669   3.440  17.328 -0.7197 -0.0925 -0.4747
  583MPD2    C5 8698   0.714   3.339  17.249  0.0926  0.2067  0.2421
  583MPD2     H 8699   0.589   3.665  17.093  1.2374  0.2680  0.6294
  583MPD2    H1 8700   0.690   3.427  17.434 -1.1639  1.9228 -0.1462
  583MPD2    H2 8701   0.758   3.266  17.068 -0.1737  0.4746 -1.9045
  583MPD2    H3 8702   0.750   3.243  17.284  2.9706  1.6270  1.1171
  583MPD2     N 8703   0.559   3.658  17.348  0.1644 -0.5327  0.3362
  583MPD2    H5 8704   0.518   3.734  17.295  1.3305  0.8302  1.3991
  583MPD2    N1 8705   0.672   3.500  16.920  0.6994 -1.0140  0.0551
  583MPD2    H7 8706   0.643   3.591  16.884 -2.5251 -1.8962  0.3672
  584TMC3    C1 8707   0.439   3.772  17.506 -0.5460 -0.0098  0.6754
  584TMC3    C2 8708   0.489   3.902  17.520 -0.1992 -0.0992 -0.1754
  584TMC3    C3 8709   0.406   4.014  17.492  0.3275  0.3972 -0.3114
  584TMC3    C4 8710   0.319   3.754  17.456 -0.2828  0.2874 -0.4069
  584TMC3    C5 8711   0.231   3.858  17.431 -0.3905 -0.1817  0.3288
  584TMC3    C6 8712   0.276   3.987  17.448  0.0561  0.6938  0.0832
  584TMC3     C 8713   0.531   3.662  17.481 -0.2244 -0.3591  0.2545
  584TMC3     O 8714   0.533   3.570  17.564 -0.1216 -0.2663 -0.2277
  584TMC3     H 8715   0.590   3.924  17.552 -0.0443  0.7605 -1.2567
  584TMC3    H1 8716   0.286   3.651  17.450 -0.8153  0.2669  2.7520
  584TMC3    H2 8717   0.215   4.075  17.429 -1.6771 -0.8713 -1.5987
  584TMC3    C7 8718   0.087   3.831  17.460 -0.8510 -0.6666  0.3543
  584TMC3    C8 8719   0.426   4.138  17.556 -0.4071  0.2271  1.1343
  584TMC3    O1 8720   0.061   3.720  17.492 -0.1069  0.5882  0.1982
  584TMC3    O2 8721   0.450   4.151  17.674  0.2558 -0.2512 -0.4227
  585MPD2     C 8722   0.140   1.734   1.105  0.2007 -0.2272  0.3361
  585MPD2    C1 8723   0.188   1.857   1.062 -0.7271 -1.0128 -0.1795
  585MPD2    C2 8724   0.239   1.859   0.934 -0.4810 -0.4909  0.0401
  585MPD2    C3 8725   0.237   1.749   0.854  0.1407  1.2605  0.1121
  585MPD2    C4 8726   0.187   1.625   0.900  0.0871  0.0721  0.3390
  585MPD2    C5 8727   0.139   1.619   1.028  0.0368 -0.4188  0.2619
  585MPD2     H 8728   0.266   1.955   0.891 -0.6201 -0.3445  0.2844
  585MPD2    H1 8729   0.194   1.532   0.846  0.9429 -0.8874  2.1278
  585MPD2    H2 8730   0.110   1.717   1.208 -1.0102  0.9809  0.1823
  585MPD2    H3 8731   0.101   1.534   1.084  1.3554 -0.5047  1.0300
  585MPD2     N 8732   0.257   1.758   0.715  0.7115  0.1111 -0.0584
  585MPD2    H5 8733   0.231   1.676   0.660  0.1931  0.1228  0.1703
  585MPD2    N1 8734   0.178   1.980   1.144 -1.1952 -0.3992 -0.0555
  585MPD2    H7 8735   0.118   1.973   1.226 -0.9005 -1.6456  0.0453
  586TMC3    C1 8736   0.299   1.864   0.512  0.0778 -0.0170  0.6223
  586TMC3    C2 8737   0.383   1.937   0.444  0.6522  0.0370 -0.6462
  586TMC3    C3 8738   0.359   1.955   0.305 -0.0782  0.6831 -0.0329
  586TMC3    C4 8739   0.186   1.821   0.457  0.2975  0.4491 -0.3712
  586TMC3    C5 8740   0.160   1.846   0.327 -0.2557  0.2670 -0.1534
  586TMC3    C6 8741   0.243   1.914   0.245  0.1589  0.4449 -0.5138
  586TMC3     C 8742   0.316   1.865   0.658 -0.1433  0.2657  0.5656
  586TMC3     O 8743   0.389   1.948   0.713 -0.2710  0.1798  0.3625
  586TMC3     H 8744   0.477   1.970   0.488  1.1071 -1.1022 -0.7547
  586TMC3    H1 8745   0.119   1.755   0.510  1.9766  0.8916  2.2845
  586TMC3    H2 8746   0.220   1.947   0.144  2.5990  0.2374 -1.1390
  586TMC3    C7 8747   0.098   1.739   0.247 -0.0981 -0.2469 -0.0793
  586TMC3    C8 8748   0.464   2.008   0.218  0.0625  0.1442  0.3473
  586TMC3    O1 8749   4.724   1.701   0.267  0.6717 -0.3598  0.2738
  586TMC3    O2 8750   0.572   1.953   0.211 -0.5812  0.1185 -0.1871
  587TMC3    C1 8751   1.757   1.375  16.399 -0.2124  0.7914 -0.0654
  587TMC3    C2 8752   1.756   1.473  16.493  0.6163 -0.0660  0.1831
  587TMC3    C3 8753   1.873   1.499  16.564 -0.2295 -0.3226 -0.2485
  587TMC3    C4 8754   1.876   1.322  16.353 -0.4040  0.3478 -0.8293
  587TMC3    C5 8755   1.990   1.350  16.424  0.1556 -0.1738 -0.1677
  587TMC3    C6 8756   1.991   1.436  16.535 -0.1743 -0.2450 -0.2828
  587TMC3     C 8757   1.639   1.346  16.315  0.1865  0.2056 -0.4836
  587TMC3     O 8758   1.658   1.285  16.209  0.2939 -0.1467  0.5450
  587TMC3     H 8759   1.660   1.507  16.531 -0.3448 -1.0144 -1.4269
  587TMC3    H1 8760   1.870   1.274  16.256 -0.0948 -1.4715  0.0554
  587TMC3    H2 8761   2.088   1.442  16.583  0.7749  1.1358 -2.3784
  587TMC3    C7 8762   2.083   1.243  16.436  0.9631 -0.4045  0.0762
  587TMC3    C8 8763   1.877   1.575  16.683  0.0925 -0.6830  0.0203
  587TMC3    O1 8764   2.193   1.267  16.486 -0.4464 -0.3594 -0.7497
  587TMC3    O2 8765   1.970   1.554  16.761  0.3311 -0.3280  0.3652
  588TMC3    C1 8766   3.682   4.040  10.186 -0.0372 -0.3214  0.2539
  588TMC3    C2 8767   3.589   3.959  10.250 -0.3457 -0.6073 -0.7107
  588TMC3    C3 8768   3.638   3.865  10.333 -0.3622 -0.1011 -0.1134
  588TMC3    C4 8769   3.813   4.047  10.228  0.3647  0.1936  0.0620
  588TMC3    C5 8770   3.858   3.948  10.321  0.4743 -0.3375 -0.7008
  588TMC3    C6 8771   3.773   3.854  10.365 -0.0563  0.9226  0.5143
  588TMC3     C 8772   3.626   4.165  10.131 -0.7356 -0.2860  0.1308
  588TMC3     O 8773   3.510   4.192  10.143 -0.1122 -0.5007  0.1766
  588TMC3     H 8774   3.484   3.965  10.223  0.1914  0.2995 -2.5770
  588TMC3    H1 8775   3.886   4.122  10.200 -0.2975  0.7562 -0.1391
  588TMC3    H2 8776   3.805   3.790  10.446  0.8486  0.7715  0.0385
  588TMC3    C7 8777   3.990   3.976  10.390  0.0403 -0.2347  0.7913
  588TMC3    C8 8778   3.568   3.735  10.339 -0.0633  0.2347 -0.5657
  588TMC3    O1 8779   4.064   3.879  10.403 -0.4772 -0.0027  0.0113
  588TMC3    O2 8780   3.460   3.736  10.278  0.0442  0.1650  0.2018
  589TMC3    C1 8781   3.950   1.045   1.350 -0.0740  0.6188  0.1557
  589TMC3    C2 8782   4.083   1.040   1.392  0.4487 -0.3118 -0.2657
  589TMC3    C3 8783   4.160   0.931   1.353 -0.1275  0.3988 -0.7292
  589TMC3    C4 8784   3.892   0.952   1.271 -0.2788  0.2941 -0.3061
  589TMC3    C5 8785   3.982   0.851   1.228 -0.3455 -0.5821  1.2478
  589TMC3    C6 8786   4.114   0.835   1.272  0.1374  0.3284 -0.0844
  589TMC3     C 8787   3.847   1.128   1.417 -0.4271 -0.1535 -0.2919
  589TMC3     O 8788   3.730   1.120   1.385  0.2822 -0.3935 -0.8509
  589TMC3     H 8789   4.127   1.126   1.440 -0.5600 -0.7199  1.4023
  589TMC3    H1 8790   3.793   0.964   1.229  0.2789 -1.1982 -2.0194
  589TMC3    H2 8791   4.155   0.735   1.261 -0.4561  0.0810 -0.0436
  589TMC3    C7 8792   3.939   0.783   1.108  0.7317  0.0971  0.1124
  589TMC3    C8 8793   4.289   0.922   1.418  0.5482  0.4826 -0.1875
  589TMC3    O1 8794   3.820   0.769   1.084 -0.3956 -0.0299 -0.1067
  589TMC3    O2 8795   4.302   1.001   1.510 -0.3839 -0.3239  0.0554
  590MPD2     C 8796   2.984   4.607  16.902 -0.8226  0.6384  0.2901
  590MPD2    C1 8797   2.938   4.732  16.866  0.4289  0.3243 -0.0815
  590MPD2    C2 8798   3.022   0.075  16.797 -0.3418  0.2866 -0.3374
  590MPD2    C3 8799   3.146   0.026  16.767 -0.2868  0.2075  0.2682
  590MPD2    C4 8800   3.196   4.640  16.806 -0.0011  0.8827  0.3455
  590MPD2    C5 8801   3.105   4.561  16.870 -0.2970 -0.0104  1.3550
  590MPD2     H 8802   2.989   0.173  16.766 -1.7841 -0.4749 -1.2295
  590MPD2    H1 8803   3.289   4.600  16.767 -0.1740  0.8514 -0.0319
  590MPD2    H2 8804   2.908   4.550  16.954 -1.0650 -0.4259 -1.2264
  590MPD2    H3 8805   3.124   4.460  16.904 -3.0395 -1.5786 -1.6830
  590MPD2     N 8806   3.219   0.112  16.687 -0.3344 -0.4038  0.2317
  590MPD2    H5 8807   3.179   0.199  16.655  1.9781  0.5815 -0.0356
  590MPD2    N1 8808   2.805   0.024  16.882 -0.3586 -0.5089 -0.0183
  590MPD2    H7 8809   2.742   4.693  16.919  0.0851 -1.7687 -1.6690
  591TMC3    C1 8810   3.378   0.201  16.545 -0.1649  0.0258  0.5180
  591TMC3    C2 8811   3.441   0.168  16.429 -0.9479 -0.3804 -0.2144
  591TMC3    C3 8812   3.402   0.239  16.322 -0.3477  0.3461  0.3598
  591TMC3    C4 8813   3.307   0.319  16.563  0.2850 -0.5933  0.4064
  591TMC3    C5 8814   3.283   0.392  16.455  0.2413  0.7422  0.2212
  591TMC3    C6 8815   3.328   0.353  16.333  0.7783 -0.6200  0.7588
  591TMC3     C 8816   3.346   0.089  16.633 -0.9855 -0.4699  0.4512
  591TMC3     O 8817   3.411   4.722  16.630  0.0987 -0.2394 -0.4370
  591TMC3     H 8818   3.491   0.072  16.421  0.1177 -0.1560  3.8682
  591TMC3    H1 8819   3.275   0.351  16.662 -1.1213  0.3959 -0.3652
  591TMC3    H2 8820   3.298   0.425  16.259  1.4512  0.1553  1.2380
  591TMC3    C7 8821   3.188   0.495  16.470 -0.4041 -0.2554  0.5055
  591TMC3    C8 8822   3.438   0.185  16.188 -0.4726  0.2217  0.4456
  591TMC3    O1 8823   3.094   0.461  16.541 -0.3382  0.3610 -0.7571
  591TMC3    O2 8824   3.488   0.072  16.191 -0.0186 -0.1604  0.0095
  592MPD2     C 8825   2.773   1.703  12.080  0.3845  0.1077 -0.1597
  592MPD2    C1 8826   2.781   1.743  12.212  0.1799 -0.3697 -0.2854
  592MPD2    C2 8827   2.736   1.669  12.321 -0.0021  1.1302  0.2181
  592MPD2    C3 8828   2.703   1.536  12.304 -1.0335  1.0416  0.3639
  592MPD2    C4 8829   2.684   1.494  12.172 -1.2147  0.0825  0.4467
  592MPD2    C5 8830   2.715   1.577  12.068  0.2043  0.6921 -0.7915
  592MPD2     H 8831   2.749   1.698  12.424  1.6344  1.1390 -0.0012
  592MPD2    H1 8832   2.667   1.389  12.148  1.1012  0.0263 -0.8914
  592MPD2    H2 8833   2.807   1.762  11.995  0.0445 -0.5430 -0.7431
  592MPD2    H3 8834   2.718   1.534  11.969 -1.6280  0.4526 -0.7432
  592MPD2     N 8835   2.669   1.459  12.419  0.4888 -0.4016 -0.3107
  592MPD2    H5 8836   2.703   1.503  12.504  0.3587  0.4793 -0.7129
  592MPD2    N1 8837   2.843   1.865  12.232  0.2717 -0.1551 -0.6193
  592MPD2    H7 8838   2.878   1.918  12.153 -0.6988 -0.5125 -1.2803
  593TMC3    C1 8839   2.946   2.045  12.344 -0.4759 -0.3791 -0.3064
  593TMC3    C2 8840   2.984   2.082  12.474 -0.2059 -0.2047  0.3325
  593TMC3    C3 8841   3.112   2.120  12.497  0.7740  1.0127  0.0863
  593TMC3    C4 8842   3.026   2.065  12.239  0.0669 -0.2144  0.4678
  593TMC3    C5 8843   3.156   2.112  12.260  0.4639  0.3685 -0.1037
  593TMC3    C6 8844   3.192   2.146  12.390 -0.3617  0.4489 -0.4178
  593TMC3     C 8845   2.854   1.932  12.350 -0.1608 -0.4124  0.6114
  593TMC3     O 8846   2.806   1.907  12.458  0.1557 -0.7549 -0.2491
  593TMC3     H 8847   2.912   2.072  12.555  0.0037  0.4522  0.6064
  593TMC3    H1 8848   2.986   2.067  12.139  0.1300 -0.2312  0.4424
  593TMC3    H2 8849   3.297   2.164  12.409 -0.4630  0.2956  0.3067
  593TMC3    C7 8850   3.218   2.203  12.162 -0.8159 -0.1724 -0.0720
  593TMC3    C8 8851   3.131   2.210  12.603  0.1891 -0.1645  0.1378
  593TMC3    O1 8852   3.288   2.296  12.202  0.2607  0.6060 -0.1784
  593TMC3    O2 8853   3.030   2.241  12.663  0.2452  0.1000 -0.9835
  594MPD2     C 8854   2.197   0.717  14.290 -0.4141  0.1210 -0.6881
  594MPD2    C1 8855   2.185   0.760  14.419 -0.5692  0.0736 -0.3457
  594MPD2    C2 8856   2.282   0.842  14.469 -0.0156  0.9892 -0.5160
  594MPD2    C3 8857   2.384   0.889  14.388 -0.6315 -0.1519  0.4034
  594MPD2    C4 8858   2.399   0.839  14.262  0.3333  0.2672 -0.4502
  594MPD2    C5 8859   2.301   0.759  14.208 -0.1846  0.0224  0.5335
  594MPD2     H 8860   2.262   0.890  14.564 -0.2180 -0.9795  0.4337
  594MPD2    H1 8861   2.485   0.859  14.199  0.9059  0.5834  0.4386
  594MPD2    H2 8862   2.116   0.663  14.243 -3.5770  3.4790  0.8986
  594MPD2    H3 8863   2.316   0.730  14.105  0.1476 -1.2760  0.9433
  594MPD2     N 8864   2.453   1.005  14.431 -0.2087  0.7558  0.0868
  594MPD2    H5 8865   2.427   1.041  14.522  2.2086  1.9105  0.3429
  594MPD2    N1 8866   2.082   0.715  14.496 -0.5517  0.7921  0.0563
  594MPD2    H7 8867   2.009   0.661  14.450  1.4188 -2.0735  0.3568
  595TMC3    C1 8868   2.767   1.361  14.470 -1.1680  0.3096  0.3600
  595TMC3    C2 8869   2.727   1.248  14.398  0.7605  0.0501  0.7090
  595TMC3    C3 8870   2.603   1.200  14.427  0.1969  0.0580 -0.3079
  595TMC3    C4 8871   2.684   1.417  14.567  0.4847 -0.0488  0.5297
  595TMC3    C5 8872   2.561   1.372  14.583  0.0086  0.2721  0.4198
  595TMC3    C6 8873   2.524   1.258  14.520  0.4447 -0.0382  0.3496
  595TMC3     C 8874   2.908   1.389  14.504  0.0761  0.0060 -0.6575
  595TMC3     O 8875   2.930   1.493  14.565 -0.2815 -0.2890 -0.2140
  595TMC3     H 8876   2.788   1.193  14.326  0.1782 -0.1353  0.3620
  595TMC3    H1 8877   2.707   1.510  14.617 -0.8618 -0.9169  2.7727
  595TMC3    H2 8878   2.422   1.222  14.533  0.5328 -0.5944 -0.4659
  595TMC3    C7 8879   2.478   1.425  14.693 -0.6998 -0.0631  0.4468
  595TMC3    C8 8880   2.557   1.072  14.365 -0.2031 -0.6876  0.3610
  595TMC3    O1 8881   2.356   1.422  14.679 -0.5256 -0.4328 -0.1436
  595TMC3    O2 8882   2.615   1.038  14.259  0.3054  0.1678 -0.1546
  596MPD2     C 8883   1.500   3.379  16.978  0.3368 -0.3073  0.9432
  596MPD2    C1 8884   1.453   3.505  16.934 -0.2847 -0.8671 -0.3916
  596MPD2    C2 8885   1.452   3.538  16.800  0.7088  0.2266  0.0410
  596MPD2    C3 8886   1.486   3.442  16.710  0.0983  0.1373 -0.0922
  596MPD2    C4 8887   1.530   3.321  16.754 -0.5017 -0.3184 -0.9776
  596MPD2    C5 8888   1.544   3.290  16.884  0.1629  0.1473 -0.0973
  596MPD2     H 8889   1.427   3.640  16.775  0.5174 -0.5791 -3.0894
  596MPD2    H1 8890   1.560   3.240  16.689  0.2522  0.7929 -1.9983
  596MPD2    H2 8891   1.524   3.352  17.080 -1.1781 -2.1046  0.8374
  596MPD2    H3 8892   1.593   3.197  16.908  1.7755  0.9986 -0.1250
  596MPD2     N 8893   1.473   3.447  16.573  0.2368 -0.0622  1.0561
  596MPD2    H5 8894   1.497   3.364  16.519  0.4100  1.3906 -1.0729
  596MPD2    N1 8895   1.414   3.604  17.018 -0.1241 -0.1437  0.0449
  596MPD2    H7 8896   1.387   3.693  16.977  0.1604 -0.4169 -0.7281
  597TMC3    C1 8897   1.381   3.732  17.210  0.6517  0.5050 -0.3431
  597TMC3    C2 8898   1.451   3.827  17.149  0.0199 -0.3212 -0.9544
  597TMC3    C3 8899   1.401   3.957  17.164 -0.5428  0.6559  0.5462
  597TMC3    C4 8900   1.282   3.753  17.304 -0.1827  0.3014 -0.2149
  597TMC3    C5 8901   1.240   3.881  17.315 -0.2608 -0.5048  0.3124
  597TMC3    C6 8902   1.298   3.987  17.244  0.5116 -0.4208 -0.5013
  597TMC3     C 8903   1.392   3.598  17.152  0.5083  0.0919 -0.0058
  597TMC3     O 8904   1.383   3.498  17.222 -0.3339  0.0798 -0.2304
  597TMC3     H 8905   1.528   3.802  17.077  0.6592  0.0924 -0.4114
  597TMC3    H1 8906   1.233   3.670  17.352 -1.4430  0.0373 -1.9432
  597TMC3    H2 8907   1.261   4.088  17.257  4.1563  0.8881 -0.2374
  597TMC3    C7 8908   1.127   3.901  17.402  0.2357  0.3277 -0.6848
  597TMC3    C8 8909   1.498   4.059  17.128 -0.5068 -0.2878 -0.1155
  597TMC3    O1 8910   1.085   3.794  17.450 -0.6011  0.1025 -0.2555
  597TMC3    O2 8911   1.587   4.023  17.047  0.0320  0.0228  0.3733
  598TMC3    C1 8912   4.054   0.279  15.497 -0.0946  0.3775  0.7912
  598TMC3    C2 8913   3.938   0.322  15.434 -0.0795 -0.3668 -0.4845
  598TMC3    C3 8914   3.912   0.452  15.423  0.4136 -0.1707  0.0270
  598TMC3    C4 8915   4.150   0.372  15.535 -0.0666 -0.0890  0.0221
  598TMC3    C5 8916   4.117   0.507  15.525  0.0610  0.5313 -0.6421
  598TMC3    C6 8917   3.999   0.545  15.465 -0.2518  0.1358  0.7432
  598TMC3     C 8918   4.076   0.136  15.529 -0.3048  0.0242  0.0900
  598TMC3     O 8919   3.987   0.063  15.494 -0.5559 -0.0451 -0.2092
  598TMC3     H 8920   3.865   0.243  15.420 -0.5052 -0.4519  2.0532
  598TMC3    H1 8921   4.236   0.337  15.590 -0.1720  1.4320  1.1571
  598TMC3    H2 8922   3.968   0.648  15.451  0.6118  0.0408 -1.7721
  598TMC3    C7 8923   4.223   0.607  15.533 -0.3463  0.0828  0.2618
  598TMC3    C8 8924   3.772   0.501  15.414 -0.1959 -1.0045  0.5315
  598TMC3    O1 8925   4.186   0.717  15.495  0.5512  0.0186  0.0570
  598TMC3    O2 8926   3.739   0.601  15.477 -0.1488 -0.7682 -0.0789
  599MPD2     C 8927   4.099   2.557  16.000  0.1274 -0.1284  0.0293
  599MPD2    C1 8928   4.197   2.500  16.072 -0.1833  0.3429 -0.2835
  599MPD2    C2 8929   4.190   2.504  16.213 -0.0878  0.2917 -0.2563
  599MPD2    C3 8930   4.081   2.556  16.276 -0.0609 -0.7248  0.2449
  599MPD2    C4 8931   3.979   2.613  16.201  0.0504  0.2125  0.3211
  599MPD2    C5 8932   3.987   2.602  16.068  0.6976 -0.2970  0.9540
  599MPD2     H 8933   4.269   2.452  16.266 -0.2587 -0.0402 -0.3257
  599MPD2    H1 8934   3.890   2.650  16.251  0.2115 -1.6797  1.9958
  599MPD2    H2 8935   4.102   2.535  15.894 -1.4879 -1.5465  0.2785
  599MPD2    H3 8936   3.907   2.641  16.006  1.7236 -2.0682 -1.4903
  599MPD2     N 8937   4.059   2.550  16.417 -0.1435 -0.4796  0.4899
  599MPD2    H5 8938   3.977   2.598  16.453 -1.0524 -1.6640  0.0037
  599MPD2    N1 8939   4.306   2.434  16.007  0.6328 -0.0138 -0.1854
  599MPD2    H7 8940   4.279   2.392  15.919  0.6488 -0.1985 -0.1033
  600TMC3    C1 8941   4.072   2.478  16.624 -0.0037 -0.6822  0.0273
  600TMC3    C2 8942   4.024   2.368  16.683 -0.3051 -0.4106 -0.5158
  600TMC3    C3 8943   4.021   2.372  16.819  0.5446  0.2852 -0.4849
  600TMC3    C4 8944   4.132   2.583  16.680  0.0042 -0.0865  0.0472
  600TMC3    C5 8945   4.133   2.573  16.817 -0.4391  0.5713 -0.0316
  600TMC3    C6 8946   4.070   2.479  16.892 -0.2696  0.4117 -0.1432
  600TMC3     C 8947   4.116   2.448  16.490  0.0694  0.4726  0.1052
  600TMC3     O 8948   4.197   2.362  16.472 -0.3377  0.1730 -0.0578
  600TMC3     H 8949   3.996   2.281  16.624  1.0455 -0.9891 -0.3125
  600TMC3    H1 8950   4.173   2.657  16.612  1.4981 -0.6679  0.3395
  600TMC3    H2 8951   4.069   2.485  17.000  0.9821  1.3765 -0.1866
  600TMC3    C7 8952   4.209   2.676  16.880  0.2041  0.2656  0.5452
  600TMC3    C8 8953   3.934   2.274  16.893  1.0746  0.0252  0.0217
  600TMC3    O1 8954   4.214   2.788  16.827 -0.3811 -0.5290 -0.2489
  600TMC3    O2 8955   3.969   2.252  17.012 -0.4134  0.6970 -0.1952
  601MPD2     C 8956   1.987   1.473   0.274  0.4817 -0.0837 -0.3857
  601MPD2    C1 8957   1.911   1.390   0.198  0.1241 -0.3617  0.9912
  601MPD2    C2 8958   1.869   1.269   0.248  0.1632  1.2822 -0.3130
  601MPD2    C3 8959   1.912   1.226   0.368 -0.0672  0.0465  0.3732
  601MPD2    C4 8960   1.972   1.318   0.451  0.1689 -0.4503 -0.4031
  601MPD2    C5 8961   2.015   1.435   0.401 -0.0929 -0.0323 -0.9279
  601MPD2     H 8962   1.796   1.212   0.192 -0.8909  1.3669  0.9675
  601MPD2    H1 8963   1.994   1.279   0.549 -2.7836 -0.7899  0.1350
  601MPD2    H2 8964   2.025   1.567   0.236 -0.1342  0.9931  1.6547
  601MPD2    H3 8965   2.079   1.502   0.458 -1.9643  3.3333 -2.7957
  601MPD2     N 8966   1.901   1.091   0.414  0.0813 -0.0660  0.5546
  601MPD2    H5 8967   1.913   1.068   0.512 -0.5745  0.0316  0.6577
  601MPD2    N1 8968   1.857   1.433   0.073  0.0234 -0.7040  0.5076
  601MPD2    H7 8969   1.774   1.381   0.046  1.0507 -1.5614 -1.0222
  602TMC3    C1 8970   1.778   1.568  17.651  0.7229 -0.1778 -0.6047
  602TMC3    C2 8971   1.775   1.697  17.605 -0.0017  0.3412 -0.4751
  602TMC3    C3 8972   1.704   1.720  17.487 -0.1513  0.2490 -0.0966
  602TMC3    C4 8973   1.718   1.461  17.591 -0.4479  0.4932  0.5430
  602TMC3    C5 8974   1.658   1.489  17.471 -0.1172  0.2766 -0.1616
  602TMC3    C6 8975   1.645   1.616  17.418  0.0510  0.1667  0.0405
  602TMC3     C 8976   1.871   1.554   0.008 -0.6994  0.5988 -0.3676
  602TMC3     O 8977   1.952   1.641   0.030 -0.6372 -0.1718  0.1810
  602TMC3     H 8978   1.807   1.781  17.665  1.9111 -0.4060 -0.4559
  602TMC3    H1 8979   1.736   1.358  17.619 -0.3559  0.1853 -0.6471
  602TMC3    H2 8980   1.593   1.628  17.324 -0.3466  3.0529  0.6102
  602TMC3    C7 8981   1.591   1.386  17.396 -0.4630 -0.2354 -0.5919
  602TMC3    C8 8982   1.658   1.855  17.472  0.1515  0.3086 -0.3565
  602TMC3    O1 8983   1.647   1.277  17.384 -0.4029  0.7817 -0.1672
  602TMC3    O2 8984   1.677   1.933  17.565 -0.0613 -0.4355 -0.5202
  603TMC3    C1 8985   3.763   1.806  11.853  0.0906 -0.3084  0.0822
  603TMC3    C2 8986   3.766   1.791  11.990 -0.7780  0.1044 -0.2568
  603TMC3    C3 8987   3.881   1.832  12.055  0.2733 -0.0943 -0.9136
  603TMC3    C4 8988   3.867   1.864  11.791 -0.1470  0.0387  0.1437
  603TMC3    C5 8989   3.968   1.925  11.863  0.5808  1.0149  0.0132
  603TMC3    C6 8990   3.979   1.903  11.997  0.0678  0.1886 -0.0220
  603TMC3     C 8991   3.655   1.772  11.769 -0.4095 -0.3464 -0.3374
  603TMC3     O 8992   3.688   1.735  11.653 -0.5565 -0.0036 -0.4098
  603TMC3     H 8993   3.684   1.741  12.040 -0.1524  0.1316  0.8000
  603TMC3    H1 8994   3.865   1.880  11.683  0.2717 -0.2848  0.0907
  603TMC3    H2 8995   4.080   1.911  12.036  0.6464 -2.3601 -1.0235
  603TMC3    C7 8996   4.060   2.019  11.805 -0.1339  1.0466 -0.3867
  603TMC3    C8 8997   3.890   1.788  12.191  0.3432 -0.5261  0.1721
  603TMC3    O1 8998   4.132   2.083  11.876  0.2447  0.0526 -0.3012
  603TMC3    O2 8999   3.815   1.694  12.211  0.3778 -0.1585  0.3168
  604MPD2     C 9000   0.116   4.408  16.680  0.1177 -0.3404 -0.6672
  604MPD2    C1 9001   0.052   4.469  16.575 -0.1442 -0.0734 -0.0933
  604MPD2    C2 9002   0.099   4.458  16.439 -1.0279 -0.7442 -0.2252
  604MPD2    C3 9003   0.211   4.389  16.414 -0.6077  0.1804  0.1105
  604MPD2    C4 9004   0.282   4.332  16.519  0.2058  0.1304 -0.6167
  604MPD2    C5 9005   0.227   4.331  16.647 -0.2200 -0.8080  0.8164
  604MPD2     H 9006   0.063   4.523  16.360 -1.2724 -0.6760 -0.0589
  604MPD2    H1 9007   0.369   4.275  16.489 -0.4841 -0.8063 -0.8448
  604MPD2    H2 9008   0.081   4.407  16.782  2.9705 -1.1438  0.2894
  604MPD2    H3 9009   0.258   4.279  16.736  0.1071 -2.6382 -0.3596
  604MPD2     N 9010   0.246   4.380  16.276  0.1768 -0.1056 -0.1521
  604MPD2    H5 9011   0.179   4.419  16.211  3.0482  2.4722 -1.5936
  604MPD2    N1 9012   4.673   4.540  16.609  0.4023  0.3076 -0.0761
  604MPD2    H7 9013   4.658   4.558  16.707  0.8628  0.4594 -0.0360
  605TMC3    C1 9014   4.513   4.708  16.607  0.1039  0.6963 -0.2392
  605TMC3    C2 9015   4.565   0.022  16.719 -0.2496 -0.0655  0.7016
  605TMC3    C3 9016   4.561   0.153  16.751 -0.0942 -0.1342  0.0468
  605TMC3    C4 9017   4.437   0.051  16.524 -0.3783 -0.0330 -0.2100
  605TMC3    C5 9018   4.427   0.183  16.561  0.4983  0.3505 -0.2490
  605TMC3    C6 9019   4.486   0.232  16.671 -0.0445 -0.1007 -0.3565
  605TMC3     C 9020   4.588   4.616  16.530 -0.6051 -0.0936 -0.4000
  605TMC3     O 9021   4.593   4.642  16.406 -0.3135 -0.5252 -0.0438
  605TMC3     H 9022   4.618   4.694  16.785  0.3960 -0.0294  0.2212
  605TMC3    H1 9023   4.398   0.012  16.431  0.6107 -0.9334 -0.2545
  605TMC3    H2 9024   4.465   0.334  16.701  0.4574 -1.2306  3.7766
  605TMC3    C7 9025   4.301   0.247  16.533  0.4115  0.7482  1.0500
  605TMC3    C8 9026   4.668   0.213  16.821 -0.0359  0.1589  0.5692
  605TMC3    O1 9027   4.315   0.359  16.488 -0.0717 -0.3199  0.2632
  605TMC3    O2 9028   4.729   0.141  16.898 -0.2428 -0.7071  0.5258
  606TMC3    C1 9029   1.666   3.436   0.407 -0.2813 -0.2820  0.2223
  606TMC3    C2 9030   1.758   3.404   0.500 -0.2453 -0.5617 -0.0214
  606TMC3    C3 9031   1.735   3.300   0.585  0.2449  0.4877 -0.5602
  606TMC3    C4 9032   1.551   3.360   0.393 -0.1389  0.2587  0.1031
  606TMC3    C5 9033   1.523   3.261   0.484  0.5563  0.3453 -0.2058
  606TMC3    C6 9034   1.621   3.226   0.575 -1.2127 -0.4486  0.0238
  606TMC3     C 9035   1.698   3.542   0.312 -0.1405  0.3702  0.0058
  606TMC3     O 9036   1.786   3.617   0.358  0.4166  0.1684  0.2876
  606TMC3     H 9037   1.839   3.470   0.530  0.4469 -1.4291  0.0311
  606TMC3    H1 9038   1.483   3.372   0.309 -0.8901 -0.8431  0.5539
  606TMC3    H2 9039   1.599   3.139   0.635  0.8880 -0.9906  0.0213
  606TMC3    C7 9040   1.415   3.173   0.453 -0.4780 -0.3036 -0.2683
  606TMC3    C8 9041   1.847   3.261   0.669 -0.0014  0.0938  0.4258
  606TMC3    O1 9042   1.326   3.225   0.386 -0.6976 -0.7795  0.4475
  606TMC3    O2 9043   1.924   3.341   0.711 -0.5198 -0.1273 -0.3467
  607MPD2     C 9044   3.018   1.299  12.185  0.1718  0.3987  0.7312
  607MPD2    C1 9045   3.004   1.367  12.302 -0.0228  0.6620 -0.5093
  607MPD2    C2 9046   2.968   1.296  12.424  0.3693 -0.7924  0.4996
  607MPD2    C3 9047   2.936   1.167  12.411 -0.7447 -0.0783 -0.4636
  607MPD2    C4 9048   2.932   1.107  12.285  0.0328  0.2766 -0.3151
  607MPD2    C5 9049   2.976   1.174  12.177  1.1436  0.3845 -0.4923
  607MPD2     H 9050   2.964   1.353  12.516 -2.2107  0.4488 -0.3698
  607MPD2    H1 9051   2.905   1.003  12.273 -2.4353  0.8704  0.1044
  607MPD2    H2 9052   3.056   1.349  12.097  0.8061 -1.3212  0.0313
  607MPD2    H3 9053   2.983   1.117  12.085 -2.5467  0.2521 -0.6662
  607MPD2     N 9054   2.903   1.104  12.536  0.0768  0.5155  0.0914
  607MPD2    H5 9055   2.918   1.157  12.621 -1.7058  3.2427 -1.2843
  607MPD2    N1 9056   3.048   1.504  12.321  0.6259 -0.0528  0.2716
  607MPD2    H7 9057   3.027   1.536  12.415  0.2022  0.2975  0.0586
  608TMC3    C1 9058   3.153   1.710  12.291 -0.4866 -0.2156  0.3000
  608TMC3    C2 9059   3.154   1.716  12.426  0.2818 -0.2950 -0.0240
  608TMC3    C3 9060   3.268   1.777  12.478  0.1843 -0.0732  0.3587
  608TMC3    C4 9061   3.250   1.767  12.214 -0.8376 -0.0154 -0.2446
  608TMC3    C5 9062   3.359   1.829  12.267  0.0008 -0.0341 -0.0616
  608TMC3    C6 9063   3.370   1.832  12.401  0.0004  0.0930  0.4707
  608TMC3     C 9064   3.106   1.587  12.231 -0.6514  0.2451 -0.7093
  608TMC3     O 9065   3.137   1.570  12.115  0.0457 -0.2368  0.5514
  608TMC3     H 9066   3.071   1.684  12.488 -1.2795  0.9734 -1.4505
  608TMC3    H1 9067   3.236   1.760  12.106  1.5125  0.7173 -0.5887
  608TMC3    H2 9068   3.465   1.852  12.449  0.1398 -0.2813  0.3481
  608TMC3    C7 9069   3.457   1.901  12.184  0.6100 -0.2130  0.2679
  608TMC3    C8 9070   3.285   1.754  12.621 -0.3921  0.6209 -0.8571
  608TMC3    O1 9071   3.467   1.863  12.067 -0.0722  0.0311  0.0210
  608TMC3    O2 9072   3.370   1.818  12.683  0.0668 -0.2797 -0.3302
  609TMC3    C1 9073   1.010   1.441  10.005  0.0599  0.5317 -0.2659
  609TMC3    C2 9074   0.929   1.550   9.971  0.2770  0.4644 -0.7676
  609TMC3    C3 9075   0.967   1.629   9.860 -0.3440 -0.5129  0.0031
  609TMC3    C4 9076   1.110   1.390   9.925  0.4706  0.1347  0.0978
  609TMC3    C5 9077   1.139   1.468   9.819  0.3853 -0.1749 -0.1877
  609TMC3    C6 9078   1.074   1.580   9.787  0.0830  0.1796 -0.5931
  609TMC3     C 9079   0.993   1.372  10.127 -0.1019  0.5272  0.0238
  609TMC3     O 9080   1.049   1.265  10.141 -0.1032 -0.0134 -0.2520
  609TMC3     H 9081   0.847   1.574  10.037  1.6261 -0.0764  1.0833
  609TMC3    H1 9082   1.160   1.298   9.951 -0.0394 -0.5750 -1.4478
  609TMC3    H2 9083   1.118   1.646   9.713  0.7194 -1.4801 -1.6888
  609TMC3    C7 9084   1.237   1.408   9.722 -0.1788 -0.1686  0.2666
  609TMC3    C8 9085   0.873   1.717   9.788 -0.3391 -0.7691 -0.6149
  609TMC3    O1 9086   1.287   1.483   9.639 -0.1323  0.1503  0.0352
  609TMC3    O2 9087   0.908   1.776   9.686 -0.0426  0.0754 -0.3970
  610TMC3    C1 9088   3.593   1.522  13.203  0.6346  0.1537 -0.3696
  610TMC3    C2 9089   3.583   1.544  13.076 -0.0144  0.1087  1.0976
  610TMC3    C3 9090   3.654   1.466  12.986  0.2312 -0.3144  0.6774
  610TMC3    C4 9091   3.658   1.411  13.251 -0.6218 -0.1375  0.4677
  610TMC3    C5 9092   3.735   1.343  13.161  0.4730 -0.0513  1.0913
  610TMC3    C6 9093   3.729   1.360  13.020 -0.0179 -0.0951  0.0629
  610TMC3     C 9094   3.545   1.635  13.280  0.3164 -0.2270  0.1125
  610TMC3     O 9095   3.525   1.740  13.219  0.3891 -0.0414  0.0687
  610TMC3     H 9096   3.523   1.621  13.030  1.0108 -1.0693 -2.2008
  610TMC3    H1 9097   3.691   1.413  13.354  0.6755 -1.3626  0.0689
  610TMC3    H2 9098   3.775   1.286  12.956  0.7775  0.8263 -0.4277
  610TMC3    C7 9099   3.836   1.249  13.212 -0.3233  0.1528 -0.6977
  610TMC3    C8 9100   3.606   1.462  12.852  0.1982  0.1109  0.1133
  610TMC3    O1 9101   3.909   1.201  13.124  0.0089 -0.0962  0.0391
  610TMC3    O2 9102   3.635   1.567  12.795  0.1222  0.2714  0.7471
  611MPD2     C 9103   3.438   1.493  10.898 -0.5093 -0.7524  0.8554
  611MPD2    C1 9104   3.352   1.597  10.894  0.4956 -0.2597 -0.3452
  611MPD2    C2 9105   3.400   1.725  10.896  0.5828  0.4949 -0.3159
  611MPD2    C3 9106   3.536   1.747  10.921 -0.2713 -0.5515  0.5957
  611MPD2    C4 9107   3.625   1.645  10.926  0.1209 -0.1950  0.6422
  611MPD2    C5 9108   3.574   1.517  10.907  0.7738  0.1997  0.8491
  611MPD2     H 9109   3.335   1.810  10.885 -1.4381 -0.9855  0.3229
  611MPD2    H1 9110   3.733   1.648  10.926  0.0831  1.4314  2.2718
  611MPD2    H2 9111   3.408   1.389  10.883 -0.3664 -0.5307 -1.0069
  611MPD2    H3 9112   3.646   1.435  10.905  2.0333  1.3059  0.5766
  611MPD2     N 9113   3.589   1.876  10.930 -0.0071  0.2117 -0.7433
  611MPD2    H5 9114   3.530   1.958  10.920 -1.3139 -0.7346 -0.7414
  611MPD2    N1 9115   3.216   1.561  10.888  0.0212 -0.2807  0.2339
  611MPD2    H7 9116   3.188   1.464  10.882  2.0619 -0.9837  1.8774
  612TMC3    C1 9117   3.749   2.031  10.951 -0.1740 -0.2782 -0.6629
  612TMC3    C2 9118   3.831   2.078  11.045 -0.4871  0.8855  0.4629
  612TMC3    C3 9119   3.883   2.205  11.036 -0.0970  0.0778 -0.5264
  612TMC3    C4 9120   3.709   2.112  10.845  0.1784  0.5602  0.0898
  612TMC3    C5 9121   3.765   2.237  10.840  0.1205  0.5795  0.1987
  612TMC3    C6 9122   3.857   2.278  10.932  0.7311 -0.5302  0.4999
  612TMC3     C 9123   3.719   1.897  10.955  0.0399 -1.1149  0.6599
  612TMC3     O 9124   3.800   1.830  11.018  0.6226  0.0335 -0.0871
  612TMC3     H 9125   3.869   2.011  11.121 -0.3713 -0.6841 -0.9888
  612TMC3    H1 9126   3.646   2.075  10.765  0.2099  0.1266  0.2691
  612TMC3    H2 9127   3.920   2.366  10.930  0.3192 -0.2367  0.4558
  612TMC3    C7 9128   3.756   2.301  10.708  0.1206 -0.1831  0.3433
  612TMC3    C8 9129   3.978   2.255  11.133 -0.4906  0.7063  0.6595
  612TMC3    O1 9130   3.694   2.241  10.625 -0.6222 -0.3569 -0.6704
  612TMC3    O2 9131   4.055   2.349  11.105 -0.0449 -0.5932  0.5477
  613MPD2     C 9132   2.827   4.596  16.497 -0.5115  0.2852  0.6985
  613MPD2    C1 9133   2.759   4.486  16.459 -0.0580  0.0689 -0.0080
  613MPD2    C2 9134   2.834   4.368  16.449  0.3626 -0.1469  0.6555
  613MPD2    C3 9135   2.974   4.369  16.461  0.3810 -0.2630 -0.6530
  613MPD2    C4 9136   3.031   4.485  16.508 -0.0926 -0.2715 -1.1274
  613MPD2    C5 9137   2.954   4.590  16.535 -0.2767 -0.2154  0.1701
  613MPD2     H 9138   2.780   4.283  16.408  1.9357  0.1442 -2.0100
  613MPD2    H1 9139   3.139   4.493  16.519 -0.3711 -1.9357  2.7279
  613MPD2    H2 9140   2.765   4.685  16.503  0.4000  0.9621 -0.0062
  613MPD2    H3 9141   2.995   4.680  16.580 -0.4619  0.1844 -0.4682
  613MPD2     N 9142   3.052   4.263  16.409  0.0812 -0.1113  0.4060
  613MPD2    H5 9143   3.153   4.260  16.421  0.1370 -0.0042 -0.0298
  613MPD2    N1 9144   2.628   4.503  16.403 -0.0174 -1.0798  0.4884
  613MPD2    H7 9145   2.595   4.598  16.405  0.3319 -0.8685 -3.6480
  614TMC3    C1 9146   2.480   4.473  16.226 -0.2050 -0.0683 -0.4588
  614TMC3    C2 9147   2.573   4.523  16.130  0.0260  0.0015 -0.3142
  614TMC3    C3 9148   2.567   4.471  16.004  0.3710 -0.2147 -0.6835
  614TMC3    C4 9149   2.369   4.409  16.184  0.4266  0.5437  0.4420
  614TMC3    C5 9150   2.358   4.364  16.052 -0.1814  0.1476 -0.0491
  614TMC3    C6 9151   2.463   4.387  15.963 -0.8658 -0.3945  0.0271
  614TMC3     C 9152   2.548   4.410  16.339 -0.7995  0.2532  0.3199
  614TMC3     O 9153   2.547   4.287  16.331  0.9005 -0.3630 -0.3835
  614TMC3     H 9154   2.654   4.586  16.164  0.8055 -0.9213 -0.4685
  614TMC3    H1 9155   2.296   4.382  16.259  0.0868  1.6268  0.4951
  614TMC3    H2 9156   2.459   4.338  15.867 -1.7058 -2.2146  0.9763
  614TMC3    C7 9157   2.231   4.317  16.008  0.5449 -0.2183  0.5143
  614TMC3    C8 9158   2.706   4.454  15.946 -0.6997  0.1871  0.2744
  614TMC3    O1 9159   2.133   4.359  16.068  0.0481  0.1819 -0.4908
  614TMC3    O2 9160   2.798   4.504  16.010  0.1687  0.0516  0.4018
  615MPD2     C 9161   2.215   0.428  16.384 -0.6205  0.2913 -0.4765
  615MPD2    C1 9162   2.079   0.426  16.413  0.6481  0.0914 -0.1111
  615MPD2    C2 9163   1.988   0.368  16.324  0.4540  0.6199 -0.4830
  615MPD2    C3 9164   2.030   0.333  16.198 -0.7054 -0.6846 -0.3227
  615MPD2    C4 9165   2.166   0.342  16.168 -0.2651  0.2506 -0.0873
  615MPD2    C5 9166   2.257   0.389  16.252 -0.0808  0.1498  0.5801
  615MPD2     H 9167   1.885   0.346  16.351  0.5376 -0.3474 -0.9538
  615MPD2    H1 9168   2.200   0.306  16.072 -0.0093  1.3962 -0.4266
  615MPD2    H2 9169   2.291   0.471  16.449 -0.4024  0.8362 -1.0842
  615MPD2    H3 9170   2.361   0.397  16.222 -0.5981  2.1207 -0.7114
  615MPD2     N 9171   1.947   0.265  16.100  0.3164 -0.4379  0.9790
  615MPD2    H5 9172   1.987   0.259  16.007  2.9468 -0.2856  2.1032
  615MPD2    N1 9173   2.023   0.482  16.531 -0.0930  0.6600 -0.1484
  615MPD2    H7 9174   1.925   0.500  16.546  0.1189  0.1025  1.9277
  616TMC3    C1 9175   2.027   0.634  16.715 -0.1310 -0.3115 -0.9301
  616TMC3    C2 9176   2.100   0.750  16.756  0.2082 -0.1354  0.0083
  616TMC3    C3 9177   2.031   0.846  16.817 -0.6791 -0.3270 -0.9088
  616TMC3    C4 9178   1.894   0.613  16.734  0.0618  0.2106  0.1835
  616TMC3    C5 9179   1.837   0.712  16.804 -0.4148 -0.0207  0.6708
  616TMC3    C6 9180   1.901   0.833  16.841 -0.5444  0.2427  0.2872
  616TMC3     C 9181   2.104   0.548  16.624  0.0977  0.4737  0.9402
  616TMC3     O 9182   2.226   0.547  16.642  0.0266 -0.3929  0.0170
  616TMC3     H 9183   2.207   0.758  16.740  0.3860 -3.6352 -0.5642
  616TMC3    H1 9184   1.840   0.531  16.688 -0.8374  0.4497  0.8116
  616TMC3    H2 9185   1.844   0.916  16.881  0.7900  0.5289  1.5940
  616TMC3    C7 9186   1.708   0.690  16.862  0.1330  0.1609 -0.2698
  616TMC3    C8 9187   2.088   0.985  16.819 -0.2191  0.4744 -0.2406
  616TMC3    O1 9188   1.694   0.754  16.968 -0.5875  0.5229 -0.2902
  616TMC3    O2 9189   2.010   1.078  16.809 -0.0471 -0.3320  0.6167
  617MPD2     C 9190   0.218   3.349  13.889 -0.2852 -0.0099 -0.1485
  617MPD2    C1 9191   0.225   3.342  14.022 -0.4059  0.0242 -0.0958
  617MPD2    C2 9192   0.110   3.319  14.098  0.1230 -0.4069  0.5457
  617MPD2    C3 9193   4.730   3.308  14.027 -0.0719  0.1302 -0.5498
  617MPD2    C4 9194   4.722   3.329  13.893 -0.0263 -0.0893 -0.1342
  617MPD2    C5 9195   0.098   3.355  13.829 -0.0758  0.0761 -0.6237
  617MPD2     H 9196   0.112   3.300  14.205 -2.6724  0.0535  0.6801
  617MPD2    H1 9197   4.630   3.334  13.835  0.3426  0.2039 -0.6909
  617MPD2    H2 9198   0.309   3.367  13.833 -1.1510  0.1021 -1.5446
  617MPD2    H3 9199   0.105   3.360  13.721 -2.2167 -1.0392 -0.8028
  617MPD2     N 9200   4.608   3.261  14.088  0.6620  0.2058  0.0921
  617MPD2    H5 9201   4.531   3.251  14.022  1.5000  0.7602 -0.9628
  617MPD2    N1 9202   0.351   3.352  14.086  0.1504  0.1184  0.2662
  617MPD2    H7 9203   0.430   3.359  14.022 -1.5340  0.9832 -1.7036
  618TMC3    C1 9204   0.525   3.340  14.245 -0.4758  0.0830 -0.5280
  618TMC3    C2 9205   0.568   3.207  14.249 -0.0070 -0.3155  0.1294
  618TMC3    C3 9206   0.700   3.174  14.217 -0.0658  0.1387  0.7318
  618TMC3    C4 9207   0.617   3.438  14.235 -0.4232  0.7571 -0.3061
  618TMC3    C5 9208   0.747   3.411  14.212  0.5338  0.2387  0.5804
  618TMC3    C6 9209   0.787   3.281  14.192  0.0161 -0.4915  0.1963
  618TMC3     C 9210   0.374   3.369  14.220  0.2752 -0.7833  0.0269
  618TMC3     O 9211   0.306   3.386  14.320  0.2652  0.1288  0.1627
  618TMC3     H 9212   0.491   3.134  14.271 -1.2011  1.1899  0.9741
  618TMC3    H1 9213   0.601   3.545  14.243  0.4261  0.8076  0.7137
  618TMC3    H2 9214   0.888   3.265  14.158 -0.1444  0.4229 -0.7014
  618TMC3    C7 9215   0.819   3.498  14.124  0.6562 -0.1507 -1.0069
  618TMC3    C8 9216   0.729   3.037  14.161 -0.4227  0.8336 -0.6734
  618TMC3    O1 9217   0.898   3.442  14.047  0.0962 -0.4139 -0.5328
  618TMC3    O2 9218   0.848   3.011  14.171 -0.1801 -0.3318 -0.6726
  619MPD2     C 9219   1.455   4.567  14.036 -0.7851  0.3241  0.6204
  619MPD2    C1 9220   1.387   4.680  14.011 -0.3952  1.2432  0.2068
  619MPD2    C2 9221   1.248   4.695  14.025  0.6608 -0.2596 -0.0861
  619MPD2    C3 9222   1.183   4.581  14.068  0.4410  0.3621  0.2172
  619MPD2    C4 9223   1.253   4.473  14.121  0.3690 -0.7569  0.0715
  619MPD2    C5 9224   1.388   4.463  14.094  0.7432 -0.4706  0.9711
  619MPD2     H 9225   1.205   0.054  14.008 -0.5226 -0.6096  0.9130
  619MPD2    H1 9226   1.205   4.391  14.174  0.3642 -0.0100  1.2431
  619MPD2    H2 9227   1.559   4.544  14.017 -0.5456  2.0101 -0.1034
  619MPD2    H3 9228   1.445   4.372  14.107  0.2189 -0.9284  0.0605
  619MPD2     N 9229   1.044   4.593  14.082  0.1582 -1.0138 -0.5765
  619MPD2    H5 9230   1.003   4.527  14.147 -0.0088 -0.4719 -0.1367
  619MPD2    N1 9231   1.451   0.058  13.965  0.7240  0.2956 -0.2580
  619MPD2    H7 9232   1.394   0.134  13.929 -0.9672 -0.3528  0.9952
  620TMC3    C1 9233   1.613   0.195  13.871  0.0961 -0.4257 -0.3629
  620TMC3    C2 9234   1.550   0.224  13.755  0.6431  1.0798  0.1384
  620TMC3    C3 9235   1.588   0.344  13.689 -0.1415 -0.2773 -0.0420
  620TMC3    C4 9236   1.724   0.260  13.916 -0.3770 -0.3905  0.2517
  620TMC3    C5 9237   1.759   0.373  13.854 -0.0910  0.5884 -0.5841
  620TMC3    C6 9238   1.700   0.418  13.734  0.2646  0.3146 -0.2279
  620TMC3     C 9239   1.588   0.072  13.943 -0.0563 -0.3884 -0.4433
  620TMC3     O 9240   1.681   0.011  13.989  0.9230  0.1715 -0.0758
  620TMC3     H 9241   1.474   0.155  13.720  1.8547 -0.3276  0.2757
  620TMC3    H1 9242   1.754   0.263  14.021 -1.6625  1.6478  0.5427
  620TMC3    H2 9243   1.722   0.520  13.706 -1.2421  0.7627  0.2581
  620TMC3    C7 9244   1.810   0.484  13.931  0.0402  0.2008 -0.4098
  620TMC3    C8 9245   1.476   0.421  13.664 -0.5873 -0.3985 -0.4342
  620TMC3    O1 9246   1.769   0.493  14.048  0.1447 -0.6354 -0.0292
  620TMC3    O2 9247   1.475   0.531  13.713  0.3822 -0.6090 -0.0474
  621MPD2     C 9248   1.102   0.327   9.858 -0.2249 -0.1659  0.2604
  621MPD2    C1 9249   1.235   0.300   9.897 -0.2562  0.2313 -0.2189
  621MPD2    C2 9250   1.322   0.410   9.907 -0.1187 -0.6051 -0.4081
  621MPD2    C3 9251   1.278   0.537   9.876  0.7975  0.5337  0.1064
  621MPD2    C4 9252   1.153   0.560   9.815  0.5512  0.4160  0.1489
  621MPD2    C5 9253   1.062   0.450   9.813  0.3706  0.0958  0.4601
  621MPD2     H 9254   1.424   0.399   9.941 -0.1560 -0.6572 -0.3150
  621MPD2    H1 9255   1.111   0.650   9.772  0.1472 -0.3044 -0.9535
  621MPD2    H2 9256   1.032   0.246   9.844 -0.6144  0.1760  0.2163
  621MPD2    H3 9257   0.965   0.459   9.765  0.5957 -1.0330 -0.2115
  621MPD2     N 9258   1.367   0.640   9.899 -0.3422 -0.3973 -0.0190
  621MPD2    H5 9259   1.464   0.616   9.917  0.6179  3.0883 -0.6587
  621MPD2    N1 9260   1.291   0.172   9.928  0.3983  0.2477  0.0319
  621MPD2    H7 9261   1.392   0.163   9.931  0.3956  0.5773  1.0450
  622TMC3    C1 9262   1.298   4.681   9.984 -0.2861  0.4837  1.0599
  622TMC3    C2 9263   1.236   4.584  10.059 -0.0177  0.2419 -0.6650
  622TMC3    C3 9264   1.315   4.476  10.091 -0.2670  0.4070 -0.4713
  622TMC3    C4 9265   1.419   4.658   9.919 -0.6089 -0.6262  0.0376
  622TMC3    C5 9266   1.487   4.537   9.943 -0.3810  0.2521  0.7059
  622TMC3    C6 9267   1.436   4.447  10.028  0.1268 -0.2877 -0.0679
  622TMC3     C 9268   1.216   0.055   9.937  0.1679  0.1308 -0.4994
  622TMC3     O 9269   1.096   0.049   9.951  0.0101  0.2021  0.1571
  622TMC3     H 9270   1.141   4.607  10.105  0.0438  0.6342 -0.7259
  622TMC3    H1 9271   1.456   4.735   9.853  1.7728 -0.9379  1.0026
  622TMC3    H2 9272   1.493   4.360  10.057  1.5240  1.0135  1.0938
  622TMC3    C7 9273   1.583   4.495   9.847  0.1454  0.1525 -0.4511
  622TMC3    C8 9274   1.295   4.405  10.213 -0.1519  0.2837  0.8994
  622TMC3    O1 9275   1.627   4.587   9.773 -0.4549  0.4841  0.3053
  622TMC3    O2 9276   1.390   4.346  10.260 -0.1205  0.2442  0.0021
  623MPD2     C 9277   0.406   0.038  16.177  0.3701  0.0298 -0.4508
  623MPD2    C1 9278   0.326   0.019  16.288  0.6321  0.8856 -0.1512
  623MPD2    C2 9279   0.379   4.718  16.412  0.8863 -0.1022  1.0411
  623MPD2    C3 9280   0.514   4.709  16.427 -0.5442  0.8376  0.5528
  623MPD2    C4 9281   0.595   4.734  16.315  0.9259 -0.2356  0.4001
  623MPD2    C5 9282   0.541   0.017  16.188 -0.7436 -0.4910 -0.3666
  623MPD2     H 9283   0.315   4.690  16.494  1.1423 -1.3276  0.8224
  623MPD2    H1 9284   0.703   4.739  16.325  1.0452  0.7390 -1.3065
  623MPD2    H2 9285   0.368   0.065  16.079  1.4528  2.5653 -0.1866
  623MPD2    H3 9286   0.607   0.025  16.102 -2.5786  0.5350 -1.6843
  623MPD2     N 9287   0.561   4.694  16.558 -0.4519  0.4113 -0.7452
  623MPD2    H5 9288   0.494   4.665  16.629  1.3690 -2.6739 -0.2804
  623MPD2    N1 9289   0.188   0.058  16.276  1.0939 -0.5195  0.2230
  623MPD2    H7 9290   0.148   0.081  16.186 -2.8985  2.2664  2.6887
  624TMC3    C1 9291   0.795   0.169  16.901 -0.2899 -0.2297 -0.5294
  624TMC3    C2 9292   0.682   0.218  16.950  0.2399 -0.7997 -0.0981
  624TMC3    C3 9293   0.562   0.169  16.902  1.1431  0.3310  0.3918
  624TMC3    C4 9294   0.793   0.080  16.795  0.4708  0.1582 -0.0546
  624TMC3    C5 9295   0.671   0.035  16.747 -0.7862  0.2245  0.1037
  624TMC3    C6 9296   0.552   0.089  16.792 -0.2586  0.0411 -0.0096
  624TMC3     C 9297   0.923   0.207  16.962 -0.0579 -0.5027  0.2664
  624TMC3     O 9298   0.941   0.329  16.982 -0.2109 -0.3959  0.3421
  624TMC3     H 9299   0.681   0.286  17.034  0.2839 -1.8373  0.7311
  624TMC3    H1 9300   0.882   0.037  16.751  1.1430  1.3018  0.1745
  624TMC3    H2 9301   0.456   0.075  16.743  0.4585 -0.4443 -1.2867
  624TMC3    C7 9302   0.687   4.736  16.605  0.8198 -0.5811 -0.6176
  624TMC3    C8 9303   0.440   0.221  16.952  0.0927  0.5722 -0.3418
  624TMC3    O1 9304   0.783   0.037  16.541 -0.6314  0.6324 -0.4046
  624TMC3    O2 9305   0.361   0.136  16.977 -0.4672  0.0024 -1.1297
  625MPD2     C 9306   1.327   1.252   0.936  0.5804 -0.3618  0.3529
  625MPD2    C1 9307   1.390   1.374   0.976  0.7253  0.2849 -0.6686
  625MPD2    C2 9308   1.495   1.365   1.068 -0.4321  0.7404 -0.0544
  625MPD2    C3 9309   1.550   1.249   1.110 -0.8990 -0.2070 -0.2218
  625MPD2    C4 9310   1.488   1.132   1.069 -0.0527  0.3509 -0.2753
  625MPD2    C5 9311   1.373   1.133   0.993  0.5725  0.5621  0.1852
  625MPD2     H 9312   1.541   1.456   1.104  0.4253  0.9297 -1.6353
  625MPD2    H1 9313   1.517   1.034   1.104  1.8134  1.7213  2.0192
  625MPD2    H2 9314   1.244   1.253   0.867  0.1663 -0.4504  0.8501
  625MPD2    H3 9315   1.320   1.042   0.969  2.4671 -0.2558 -0.9017
  625MPD2     N 9316   1.650   1.260   1.214  0.3213 -0.7985 -0.5006
  625MPD2    H5 9317   1.675   1.355   1.241 -1.0507 -1.0766  1.7318
  625MPD2    N1 9318   1.341   1.497   0.935  0.4026 -0.1278  0.2741
  625MPD2    H7 9319   1.264   1.483   0.871  1.5085  3.5545 -1.8253
  626TMC3    C1 9320   1.309   1.728   0.909  0.3631 -0.1835 -0.1481
  626TMC3    C2 9321   1.301   1.725   0.774  0.4638 -0.4975  0.8631
  626TMC3    C3 9322   1.241   1.828   0.705 -0.0634  0.6359  0.2069
  626TMC3    C4 9323   1.233   1.815   0.980 -0.2808  0.0255  0.4785
  626TMC3    C5 9324   1.153   1.904   0.915 -0.2550  0.0709  0.3462
  626TMC3    C6 9325   1.157   1.907   0.779 -0.6521  0.4968  0.4204
  626TMC3     C 9326   1.379   1.621   0.979 -0.2688  0.0713 -0.3335
  626TMC3     O 9327   1.438   1.646   1.084  0.2175 -0.1510  0.0662
  626TMC3     H 9328   1.361   1.653   0.719  0.7772  2.3070 -2.4836
  626TMC3    H1 9329   1.219   1.798   1.086 -2.7863  0.9072  0.2695
  626TMC3    H2 9330   1.096   1.978   0.726 -0.3106  1.7488  1.7102
  626TMC3    C7 9331   1.020   1.907   0.960  0.2940  0.2231 -1.1696
  626TMC3    C8 9332   1.221   1.820   0.559 -0.2261  0.6520  0.5242
  626TMC3    O1 9333   0.929   1.878   0.882 -0.2501  0.6849  0.0494
  626TMC3    O2 9334   1.231   1.930   0.507 -0.4926 -0.0029 -0.3769
  627MPD2     C 9335   4.673   1.878  14.406  0.1172 -0.2788 -0.1166
  627MPD2    C1 9336   4.617   1.903  14.529  0.5845  0.5847  0.2259
  627MPD2    C2 9337   4.489   1.849  14.560  0.1362  0.4582  0.4832
  627MPD2    C3 9338   4.437   1.761  14.461  0.1414  0.2123 -0.1660
  627MPD2    C4 9339   4.501   1.734  14.342 -0.3699 -0.9754  0.3179
  627MPD2    C5 9340   4.624   1.798  14.313  0.4716  0.1408 -0.5641
  627MPD2     H 9341   4.446   1.872  14.656  1.1319 -2.3202  1.5816
  627MPD2    H1 9342   4.452   1.664  14.276  0.9124 -0.5594 -1.0833
  627MPD2    H2 9343   0.033   1.917  14.387 -1.3476  2.2836 -2.5010
  627MPD2    H3 9344   4.674   1.777  14.219 -0.2116 -1.3599 -0.5929
  627MPD2     N 9345   4.314   1.685  14.485 -0.0993  0.0017 -0.4643
  627MPD2    H5 9346   4.313   1.597  14.435  1.6902 -0.7748  0.8364
  627MPD2    N1 9347   4.681   1.988  14.629 -0.4385  0.1363  0.1091
  627MPD2    H7 9348   4.648   1.988  14.725 -1.3256 -0.5973 -0.1978
  628TMC3    C1 9349   0.064   2.174  14.701  1.3287 -0.3597  0.0641
  628TMC3    C2 9350   0.109   2.107  14.813  0.3697 -0.3659 -0.1399
  628TMC3    C3 9351   0.210   2.166  14.886 -0.2294 -0.1672 -0.4756
  628TMC3    C4 9352   0.094   2.303  14.677  0.2716 -0.3854  0.3149
  628TMC3    C5 9353   0.174   2.362  14.765 -0.3905 -0.1215  0.5153
  628TMC3    C6 9354   0.250   2.292  14.855  0.1231  0.3602  0.6594
  628TMC3     C 9355   0.024   2.097  14.590  0.0776 -0.3358 -0.0285
  628TMC3     O 9356   0.041   2.146  14.478  0.5041 -0.5413  0.8165
  628TMC3     H 9357   0.106   2.000  14.827 -0.8907  0.0429  2.7567
  628TMC3    H1 9358   0.050   2.360  14.596 -2.3739 -1.6203  0.8957
  628TMC3    H2 9359   0.303   2.351  14.930 -0.1809 -0.3971  1.4729
  628TMC3    C7 9360   0.203   2.506  14.756  0.2280 -0.1676  0.0152
  628TMC3    C8 9361   0.297   2.078  14.963 -0.0960 -0.3265 -0.2466
  628TMC3    O1 9362   0.318   2.531  14.789 -0.1126  0.1423 -0.4569
  628TMC3    O2 9363   0.260   1.973  15.017  0.5586  0.5709  0.0184
  629MPD2     C 9364   2.489   1.293  16.786 -0.1188 -0.5651  0.3995
  629MPD2    C1 9365   2.532   1.162  16.805 -0.3093  0.3057 -0.1551
  629MPD2    C2 9366   2.444   1.065  16.831 -0.0219 -0.1503  0.7792
  629MPD2    C3 9367   2.310   1.095  16.824 -0.0732 -0.0662 -0.3103
  629MPD2    C4 9368   2.268   1.224  16.815  0.0040  0.2108 -0.0948
  629MPD2    C5 9369   2.358   1.324  16.787 -0.2054 -0.7113 -0.4720
  629MPD2     H 9370   2.480   0.963  16.831 -0.1270 -0.1854  1.4243
  629MPD2    H1 9371   2.163   1.250  16.807 -0.0990  0.0411  0.6551
  629MPD2    H2 9372   2.549   1.377  16.755 -0.7248  0.2389  1.3819
  629MPD2    H3 9373   2.320   1.426  16.783 -2.1503 -1.4329 -0.0184
  629MPD2     N 9374   2.226   0.985  16.825 -0.3999 -0.2884 -0.2600
  629MPD2    H5 9375   2.266   0.892  16.823  1.9914  0.7300  1.0249
  629MPD2    N1 9376   2.670   1.146  16.799 -0.3183 -0.0600  0.3748
  629MPD2    H7 9377   2.725   1.229  16.779  0.4225 -1.4635 -3.3349
  630TMC3    C1 9378   2.884   1.027  16.780 -0.1595  0.3087  0.6550
  630TMC3    C2 9379   2.939   1.128  16.706  0.3531  0.4544  0.0132
  630TMC3    C3 9380   3.069   1.131  16.672  0.1878  0.0423 -0.2931
  630TMC3    C4 9381   2.957   0.918  16.800 -0.1639  0.9135 -0.2072
  630TMC3    C5 9382   3.081   0.915  16.743  0.1905  0.0359 -0.0814
  630TMC3    C6 9383   3.146   1.018  16.691  0.3370  0.2781 -0.2424
  630TMC3     C 9384   2.741   1.028  16.826 -0.0061 -0.8028  0.2936
  630TMC3     O 9385   2.706   0.929  16.895 -0.8310  0.6298  0.2660
  630TMC3     H 9386   2.884   1.220  16.689  1.3022  1.0717  0.3125
  630TMC3    H1 9387   2.906   0.826  16.828  0.1797  1.1804  1.2979
  630TMC3    H2 9388   3.243   1.021  16.643  0.6150  0.7330  0.3492
  630TMC3    C7 9389   3.158   0.789  16.758  0.0055  0.2452 -0.0825
  630TMC3    C8 9390   3.126   1.255  16.615 -0.4548  0.2963 -0.4049
  630TMC3    O1 9391   3.128   0.712  16.847 -0.3056  0.0443 -0.0969
  630TMC3    O2 9392   3.049   1.349  16.586 -0.4350  0.0801  0.4981
  631MPD2     C 9393   0.999   0.414  15.876 -0.0383 -0.2537  0.1597
  631MPD2    C1 9394   1.099   0.497  15.846  0.0649 -0.1164 -0.0715
  631MPD2    C2 9395   1.226   0.445  15.834  0.2788 -0.0645  0.4668
  631MPD2    C3 9396   1.252   0.316  15.869  0.0144 -0.5249  0.1793
  631MPD2    C4 9397   1.144   0.233  15.903  0.0003 -0.1664  0.1809
  631MPD2    C5 9398   1.019   0.284  15.899 -0.9894  0.1515  0.2279
  631MPD2     H 9399   1.312   0.506  15.806  0.1274 -0.1590 -0.1803
  631MPD2    H1 9400   1.149   0.127  15.923  1.2809 -0.7552 -3.1515
  631MPD2    H2 9401   0.898   0.448  15.895 -0.6166 -1.8208 -0.1341
  631MPD2    H3 9402   0.933   0.224  15.926 -0.2909 -0.9348  0.0304
  631MPD2     N 9403   1.389   0.262  15.862 -0.1631  0.4744  0.0460
  631MPD2    H5 9404   1.455   0.313  15.805 -0.2442  0.7211  0.1733
  631MPD2    N1 9405   1.071   0.634  15.835 -0.0665 -0.0996 -0.8589
  631MPD2    H7 9406   0.973   0.659  15.839  0.2940  1.1694  0.2275
  632TMC3    C1 9407   1.099   0.861  15.804 -0.1043 -0.1065 -0.8093
  632TMC3    C2 9408   1.002   0.893  15.889  0.1962  0.3519 -0.0266
  632TMC3    C3 9409   0.966   1.027  15.911  0.5646 -0.0384  0.6600
  632TMC3    C4 9410   1.165   0.955  15.732  0.5425 -0.1665  0.4160
  632TMC3    C5 9411   1.135   1.088  15.758 -0.4946  0.1415 -0.4182
  632TMC3    C6 9412   1.034   1.128  15.839 -0.1937 -0.0318  0.8325
  632TMC3     C 9413   1.158   0.728  15.799 -0.0482 -0.3490 -0.0379
  632TMC3     O 9414   1.276   0.724  15.778  0.1417  0.0383 -0.3001
  632TMC3     H 9415   0.967   0.820  15.962 -0.8078  0.6831 -0.1735
  632TMC3    H1 9416   1.251   0.937  15.668 -0.1751 -3.1237  0.2822
  632TMC3    H2 9417   1.022   1.236  15.840 -3.4270 -0.4066  2.5681
  632TMC3    C7 9418   1.212   1.191  15.691  0.5323  0.7646  0.4512
  632TMC3    C8 9419   0.830   1.044  15.967 -0.2165 -0.4862 -0.3626
  632TMC3    O1 9420   1.225   1.291  15.760 -0.5961  0.0626  0.2563
  632TMC3    O2 9421   0.771   0.942  15.995 -0.5359  0.1094 -0.5642
  633MPD2     C 9422   0.968   3.596  17.716 -0.4748  0.0318 -0.0248
  633MPD2    C1 9423   0.958   3.502  17.616  0.1361 -0.1361 -0.5427
  633MPD2    C2 9424   0.909   3.371  17.652  0.0100 -0.5223 -0.2377
  633MPD2    C3 9425   0.864   3.345   0.026 -0.0737 -0.3838 -0.1654
  633MPD2    C4 9426   0.881   3.447   0.121  0.0682 -0.3714 -0.5286
  633MPD2    C5 9427   0.933   3.566   0.088  0.1429 -0.0647 -0.2260
  633MPD2     H 9428   0.897   3.299  17.572 -3.3684 -1.1282  0.8194
  633MPD2    H1 9429   0.851   3.433   0.224 -0.2442  0.0498 -0.5627
  633MPD2    H2 9430   0.999   3.699  17.700  1.2969 -0.3360  1.0177
  633MPD2    H3 9431   0.945   3.647   0.159 -0.8927  1.1752 -1.4766
  633MPD2     N 9432   0.802   3.225   0.072 -0.2556  0.5279  0.2664
  633MPD2    H5 9433   0.811   3.214   0.172 -1.2421 -0.1899  0.2776
  633MPD2    N1 9434   0.986   3.533  17.484  0.7892  0.4566 -0.5961
  633MPD2    H7 9435   0.995   3.631  17.459  1.3569  0.4166 -0.5477
  634TMC3    C1 9436   1.029   3.502  17.256  0.4643 -0.6152  0.7018
  634TMC3    C2 9437   1.090   3.429  17.156 -0.2888 -0.3783 -0.0992
  634TMC3    C3 9438   1.081   3.466  17.023  0.1010 -0.3001  0.0652
  634TMC3    C4 9439   0.954   3.610  17.233 -0.4039 -0.1735 -0.3222
  634TMC3    C5 9440   0.958   3.651  17.104  0.1621 -0.2405 -0.5332
  634TMC3    C6 9441   1.013   3.581  17.003 -1.2522  0.1592  0.0620
  634TMC3     C 9442   1.005   3.437  17.386 -0.1580 -0.0952 -0.0787
  634TMC3     O 9443   1.031   3.317  17.390 -0.7394 -0.4495 -0.2696
  634TMC3     H 9444   1.144   3.337  17.175  0.0918  0.0260  0.7867
  634TMC3    H1 9445   0.884   3.651  17.304 -1.3864 -2.6465  0.1248
  634TMC3    H2 9446   1.007   3.620  16.903  1.8505 -0.6182 -0.4285
  634TMC3    C7 9447   0.873   3.762  17.056  0.2814  0.2420  0.9436
  634TMC3    C8 9448   1.073   3.360  16.923 -0.3587 -0.0107 -0.1234
  634TMC3    O1 9449   0.873   3.795  16.938 -0.6590  0.0918  0.1825
  634TMC3    O2 9450   1.058   3.245  16.964  0.5190 -0.1031 -0.2217
  635TMC3    C1 9451   1.463   4.724  17.693  0.0512  0.0243 -0.4505
  635TMC3    C2 9452   1.390   4.715  17.581 -0.0927 -0.0818 -0.0585
  635TMC3    C3 9453   1.354   4.593  17.542 -0.0174 -0.2862  0.0263
  635TMC3    C4 9454   1.510   4.614   0.007 -0.0991 -0.0154  0.6494
  635TMC3    C5 9455   1.496   4.493  17.702 -0.4614 -0.2747  0.0814
  635TMC3    C6 9456   1.408   4.473  17.599 -0.7570 -0.0138 -0.2512
  635TMC3     C 9457   1.502   0.120  17.737 -0.3678  0.6405 -0.8644
  635TMC3     O 9458   1.501   0.128   0.107 -0.3432  0.2103 -0.0085
  635TMC3     H 9459   1.364   0.064  17.523 -2.3865 -0.2724  0.6991
  635TMC3    H1 9460   1.581   4.616   0.089 -1.1786 -0.7678  1.6031
  635TMC3    H2 9461   1.382   4.375  17.559 -0.6488  0.6196 -1.8685
  635TMC3    C7 9462   1.533   4.374   0.015 -0.1000 -0.2995  0.1718
  635TMC3    C8 9463   1.244   4.580  17.447 -0.6796 -0.2759 -0.3903
  635TMC3    O1 9464   1.462   4.271   0.010 -0.5696  0.0544  0.3266
  635TMC3    O2 9465   1.235   4.466  17.399  0.0938  0.4760  0.4406
  636MPD2     C 9466   2.406   3.797  16.209  0.3280 -0.3741  0.2714
  636MPD2    C1 9467   2.452   3.908  16.275  0.0752  0.1637 -0.4413
  636MPD2    C2 9468   2.591   3.917  16.298 -0.7693  0.3455  0.1595
  636MPD2    C3 9469   2.678   3.828  16.251  0.4544 -0.8543  0.2784
  636MPD2    C4 9470   2.626   3.715  16.182 -0.5079 -0.2118  0.6852
  636MPD2    C5 9471   2.490   3.702  16.167 -0.4364  0.2966  0.1098
  636MPD2     H 9472   2.625   4.005  16.352  1.5791 -1.7245  1.9953
  636MPD2    H1 9473   2.697   3.637  16.156  1.5074  2.0365 -0.4694
  636MPD2    H2 9474   2.303   3.778  16.182  0.5232 -0.1346 -0.6606
  636MPD2    H3 9475   2.437   3.620  16.120 -0.7870  1.2823 -1.2103
  636MPD2     N 9476   2.812   3.849  16.280  0.1378  0.2707  0.0304
  636MPD2    H5 9477   2.832   3.933  16.333  0.9511 -0.5827  1.0696
  636MPD2    N1 9478   2.378   4.020  16.315 -0.0212 -0.7901  0.6388
  636MPD2    H7 9479   2.436   4.089  16.361 -0.7876  1.1210 -1.2519
  637TMC3    C1 9480   3.046   3.825  16.279  0.3172  0.6365  0.7222
  637TMC3    C2 9481   3.037   3.931  16.371  1.0054  0.0214  0.6536
  637TMC3    C3 9482   3.099   4.049  16.342 -0.0270  0.2956 -0.2120
  637TMC3    C4 9483   3.120   3.838  16.169 -0.3740 -0.0341  0.2669
  637TMC3    C5 9484   3.164   3.959  16.138  0.0434  0.0310 -0.0715
  637TMC3    C6 9485   3.151   4.070  16.219 -0.1191 -0.2511  0.4435
  637TMC3     C 9486   2.919   3.765  16.247  0.1380  0.6127  0.2258
  637TMC3     O 9487   2.912   3.674  16.166 -0.2125  0.0389  0.0820
  637TMC3     H 9488   2.994   3.926  16.470  0.3120  0.3515  0.3733
  637TMC3    H1 9489   3.137   3.754  16.103 -0.8607  0.5139 -0.5562
  637TMC3    H2 9490   3.188   4.166  16.186  1.1332 -1.4653 -1.6965
  637TMC3    C7 9491   3.142   3.995  16.001  0.2898  0.0655  0.2127
  637TMC3    C8 9492   2.997   4.142  16.382 -0.6144 -0.2099 -0.5548
  637TMC3    O1 9493   3.149   3.905  15.920  0.0309  0.0586 -0.4737
  637TMC3    O2 9494   2.884   4.094  16.379  0.3102  0.2021 -0.7663
  638MPD2     C 9495   2.157   2.882  15.192 -0.7228 -0.6081  0.0510
  638MPD2    C1 9496   2.098   2.788  15.115 -0.2713 -0.6676 -0.8272
  638MPD2    C2 9497   1.999   2.704  15.176 -0.0215  0.6117 -0.7318
  638MPD2    C3 9498   1.979   2.698  15.310 -0.3467 -0.3385  0.2269
  638MPD2    C4 9499   2.035   2.803  15.379  0.1840  0.2806 -0.2720
  638MPD2    C5 9500   2.123   2.889  15.325 -0.1328  0.0644  0.1183
  638MPD2     H 9501   1.934   2.637  15.120  0.2425  0.2161 -0.5652
  638MPD2    H1 9502   2.007   2.817  15.482 -1.4040  0.6258 -0.7417
  638MPD2    H2 9503   2.224   2.959  15.155 -0.6363  0.1299  1.7410
  638MPD2    H3 9504   2.172   2.963  15.387  1.8488 -1.2451  0.1251
  638MPD2     N 9505   1.893   2.602  15.369  0.1869  0.6590  0.0793
  638MPD2    H5 9506   1.856   2.532  15.306  1.7491 -0.1400  0.0562
  638MPD2    N1 9507   2.132   2.773  14.980  0.0303 -0.4322  0.0832
  638MPD2    H7 9508   2.190   2.845  14.937  0.6882 -1.2332 -0.3852
  639TMC3    C1 9509   1.827   2.445  15.540  0.7517  0.0787 -0.7443
  639TMC3    C2 9510   1.749   2.386  15.441 -1.2324  0.5001  0.0771
  639TMC3    C3 9511   1.731   2.253  15.457 -0.2258  0.8232 -0.0056
  639TMC3    C4 9512   1.873   2.380  15.656  0.3025 -0.0342  0.4726
  639TMC3    C5 9513   1.846   2.249  15.664 -0.5749  0.2831  0.3780
  639TMC3    C6 9514   1.774   2.182  15.567 -0.1515  0.0902  0.3271
  639TMC3     C 9515   1.885   2.566  15.505  0.6603  0.6274 -0.0952
  639TMC3     O 9516   1.925   2.628  15.603 -0.1020  0.5018 -0.3783
  639TMC3     H 9517   1.717   2.448  15.357  0.3430 -0.0320 -0.9067
  639TMC3    H1 9518   1.936   2.432  15.728 -0.4297  1.1253  0.2661
  639TMC3    H2 9519   1.750   2.077  15.580 -0.0014 -0.0974 -0.8459
  639TMC3    C7 9520   1.955   2.163  15.712 -0.3669 -0.5486 -0.9076
  639TMC3    C8 9521   1.647   2.189  15.362  0.1170 -1.0731  0.7108
  639TMC3    O1 9522   1.921   2.049  15.747  0.2828  0.4343 -0.4180
  639TMC3    O2 9523   1.687   2.092  15.299  0.6046  0.0335 -0.2349
  640MPD2     C 9524   1.429   1.978   9.791  0.4911  0.5711 -0.0805
  640MPD2    C1 9525   1.500   2.035   9.891  0.0458 -0.2020 -0.0902
  640MPD2    C2 9526   1.441   2.058  10.010 -0.6148 -0.0219  0.0630
  640MPD2    C3 9527   1.308   2.042  10.026  0.0018 -0.2990  0.1045
  640MPD2    C4 9528   1.233   1.994   9.920 -0.5900 -0.5987 -0.4204
  640MPD2    C5 9529   1.295   1.966   9.801  0.4507  0.1337  0.1280
  640MPD2     H 9530   1.499   2.101  10.091  0.4706  4.6817 -3.1943
  640MPD2    H1 9531   1.128   1.980   9.942 -0.5534  0.8412  0.6887
  640MPD2    H2 9532   1.473   1.959   9.693  1.7471  0.7491  0.4513
  640MPD2    H3 9533   1.238   1.923   9.719 -0.0039 -0.1793  0.6057
  640MPD2     N 9534   1.237   2.058  10.152  0.2810  0.0229 -0.5415
  640MPD2    H5 9535   1.136   2.055  10.145  0.3309 -0.7845 -0.8299
  640MPD2    N1 9536   1.631   2.073   9.863 -0.2333 -0.1254 -0.4056
  640MPD2    H7 9537   1.669   2.034   9.778 -1.6863 -1.7222 -0.3236
  641TMC3    C1 9538   1.847   2.119   9.913 -0.0829  0.0482  0.3634
  641TMC3    C2 9539   1.868   1.996   9.847 -0.0635 -0.5832  0.5620
  641TMC3    C3 9540   1.996   1.980   9.801 -0.0408  0.6729  0.0125
  641TMC3    C4 9541   1.936   2.219   9.937 -0.2520 -1.0924 -0.0233
  641TMC3    C5 9542   2.063   2.184   9.889  0.0791 -1.0181  0.3774
  641TMC3    C6 9543   2.090   2.073   9.821 -0.4716  0.1402 -0.1559
  641TMC3     C 9544   1.707   2.143   9.951  0.3287  0.3285 -0.5095
  641TMC3     O 9545   1.680   2.210  10.052 -0.3139 -0.3346  0.4290
  641TMC3     H 9546   1.803   1.910   9.852  0.3743 -1.0188 -1.1641
  641TMC3    H1 9547   1.915   2.301  10.005  1.7823 -0.1260 -0.5371
  641TMC3    H2 9548   2.182   2.063   9.764 -0.2505 -0.0645  0.2375
  641TMC3    C7 9549   2.162   2.290   9.887 -0.2075  0.5833 -0.1938
  641TMC3    C8 9550   2.022   1.853   9.729 -0.2925  0.3958 -1.0027
  641TMC3    O1 9551   2.282   2.263   9.887  0.8359  0.0519 -0.7518
  641TMC3    O2 9552   1.918   1.803   9.683  0.4335 -0.3915  0.6431
  642TMC3    C1 9553   2.967   2.286  13.038 -0.4488 -0.9764  0.5882
  642TMC3    C2 9554   3.046   2.288  13.152 -0.6923 -0.2323 -0.4015
  642TMC3    C3 9555   3.085   2.168  13.205 -0.6918 -0.2906  0.2432
  642TMC3    C4 9556   2.930   2.163  12.975 -0.4996 -0.1483  0.5018
  642TMC3    C5 9557   2.974   2.046  13.029  0.1905  0.6022  0.1942
  642TMC3    C6 9558   3.059   2.052  13.137 -0.6405 -0.0681 -0.0921
  642TMC3     C 9559   2.931   2.410  12.974  0.4953 -0.1315 -0.2539
  642TMC3     O 9560   3.009   2.500  13.000 -0.3864  0.0733  0.3468
  642TMC3     H 9561   3.068   2.382  13.201 -2.7059  0.4727 -0.8613
  642TMC3    H1 9562   2.871   2.148  12.886 -0.0937 -1.4405  0.4549
  642TMC3    H2 9563   3.090   1.964  13.193 -1.7960 -0.0166  0.6239
  642TMC3    C7 9564   2.915   1.923  12.996  0.3326 -0.2992  0.5787
  642TMC3    C8 9565   3.168   2.169  13.318 -0.3685  0.1158 -0.1380
  642TMC3    O1 9566   2.848   1.925  12.892  0.3158  0.3990  0.5504
  642TMC3    O2 9567   3.231   2.060  13.327 -0.7531 -0.6918  0.5839
  643TMC3    C1 9568   2.991   1.060   0.326 -0.7301  0.5203  0.4084
  643TMC3    C2 9569   2.874   1.133   0.295 -0.5324 -0.0159 -1.1966
  643TMC3    C3 9570   2.788   1.087   0.201 -0.1141  0.1380  0.2265
  643TMC3    C4 9571   3.026   0.956   0.244  0.1496  0.2156 -1.2752
  643TMC3    C5 9572   2.947   0.929   0.136 -0.6609  0.1027 -0.2924
  643TMC3    C6 9573   2.827   0.982   0.123  0.5902  0.2719 -0.2600
  643TMC3     C 9574   3.057   1.106   0.449 -0.2452 -0.0790 -0.5637
  643TMC3     O 9575   2.993   1.190   0.516 -0.8238 -0.4145 -0.0016
  643TMC3     H 9576   2.836   1.206   0.365  2.8803  0.6008  0.0320
  643TMC3    H1 9577   3.116   0.897   0.244 -0.0788 -0.1231  0.7145
  643TMC3    H2 9578   2.756   0.951   0.047  2.1667 -1.3212 -1.0769
  643TMC3    C7 9579   2.974   0.799   0.084 -0.1025  0.0823  0.0532
  643TMC3    C8 9580   2.719   1.192   0.123 -0.0205  0.0758 -0.2425
  643TMC3    O1 9581   3.006   0.714   0.169  0.1782 -0.0568 -0.2924
  643TMC3    O2 9582   2.637   1.144   0.044  0.1875 -0.0353  0.0350
  644MPD2     C 9583   1.955   2.801  10.200  0.1662 -0.3228 -0.7360
  644MPD2    C1 9584   1.915   2.669  10.196  0.5337  0.0097 -0.5170
  644MPD2    C2 9585   1.789   2.629  10.161 -0.1851  0.2829 -0.3421
  644MPD2    C3 9586   1.696   2.727  10.147 -0.5519  0.3822  0.9616
  644MPD2    C4 9587   1.729   2.862  10.150 -0.7871  0.4331  0.1756
  644MPD2    C5 9588   1.861   2.897  10.165 -0.2878  0.4489 -0.0652
  644MPD2     H 9589   1.760   2.525  10.146  0.4168 -0.0072  0.4843
  644MPD2    H1 9590   1.671   2.945  10.110 -0.3620  0.4497 -0.4258
  644MPD2    H2 9591   2.056   2.829  10.228 -0.4809  1.4747 -0.1799
  644MPD2    H3 9592   1.892   3.000  10.171 -0.5533  0.6247 -1.5573
  644MPD2     N 9593   1.562   2.690  10.120  0.3881  0.2936  0.1264
  644MPD2    H5 9594   1.540   2.591  10.116  1.4847  0.0115  0.9568
  644MPD2    N1 9595   2.015   2.569  10.224 -0.1983 -0.9573 -0.0445
  644MPD2    H7 9596   2.107   2.601  10.251  0.1402 -0.9191 -1.2386
  645TMC3    C1 9597   1.320   2.715  10.095 -0.5661  0.5782  0.4414
  645TMC3    C2 9598   1.221   2.788  10.138  0.5838  0.2759 -0.5752
  645TMC3    C3 9599   1.092   2.757  10.109  0.3570  0.1731  0.0768
  645TMC3    C4 9600   1.302   2.622   9.997  0.4131 -0.5436 -0.2058
  645TMC3    C5 9601   1.174   2.578   9.980  0.5483 -0.7694 -0.4625
  645TMC3    C6 9602   1.060   2.643  10.035  0.2574  0.6812 -0.0341
  645TMC3     C 9603   1.457   2.780  10.094  0.1498  0.3369  0.7961
  645TMC3     O 9604   1.460   2.903  10.095  0.0401 -0.2598  0.2598
  645TMC3     H 9605   1.236   2.880  10.192 -0.4473  0.5568 -0.7723
  645TMC3    H1 9606   1.386   2.567   9.957  0.2481 -1.0488  0.1484
  645TMC3    H2 9607   0.956   2.621  10.014  0.6281 -1.8192  0.6830
  645TMC3    C7 9608   1.149   2.461   9.891  0.5647 -0.1288 -0.2943
  645TMC3    C8 9609   0.995   2.810  10.204  0.1126 -0.2925 -1.3412
  645TMC3    O1 9610   1.242   2.417   9.821 -0.2388 -0.4601 -0.2013
  645TMC3    O2 9611   1.045   2.864  10.301 -0.0349  0.0573  0.0125
  646MPD2     C 9612   2.025   1.392  14.913 -0.7114  0.3605  0.1835
  646MPD2    C1 9613   1.930   1.399  15.012  0.0841 -0.5726  0.4730
  646MPD2    C2 9614   1.813   1.474  14.996 -0.4329  0.2432  0.2791
  646MPD2    C3 9615   1.788   1.549  14.879 -0.4204 -0.5001 -0.1138
  646MPD2    C4 9616   1.896   1.550  14.782  0.1810  0.3448 -0.4215
  646MPD2    C5 9617   2.009   1.470  14.805  0.0920 -0.1716  0.0238
  646MPD2     H 9618   1.746   1.469  15.082 -2.0472 -0.1011 -1.0009
  646MPD2    H1 9619   1.884   1.593  14.683 -2.4901  0.7655  0.0853
  646MPD2    H2 9620   2.123   1.347  14.923  0.2077  2.0044 -1.4485
  646MPD2    H3 9621   2.085   1.463  14.727  1.1175 -0.3820  1.0525
  646MPD2     N 9622   1.671   1.620  14.860 -0.3618 -0.1218  0.6537
  646MPD2    H5 9623   1.600   1.601  14.930  0.0954  1.3675  1.5230
  646MPD2    N1 9624   1.961   1.338  15.139  0.2686 -0.6558 -0.6619
  646MPD2    H7 9625   2.047   1.285  15.150 -0.4294 -1.1896  2.4733
  647TMC3    C1 9626   1.969   1.300  15.372 -0.1720  0.6999  0.0957
  647TMC3    C2 9627   1.902   1.243  15.477 -0.3982 -0.2904  0.2876
  647TMC3    C3 9628   1.981   1.199  15.581 -0.3798  0.2345  0.5294
  647TMC3    C4 9629   2.108   1.316  15.364 -0.3557 -0.4805  0.1787
  647TMC3    C5 9630   2.176   1.263  15.464  0.8263 -0.2366  0.2462
  647TMC3    C6 9631   2.117   1.200  15.566 -0.0886 -1.0248 -0.3657
  647TMC3     C 9632   1.887   1.337  15.256  0.4533 -0.2687 -0.9778
  647TMC3     O 9633   1.768   1.359  15.275  0.2210 -0.2249  0.1401
  647TMC3     H 9634   1.794   1.237  15.475 -0.3215 -0.3999 -3.1894
  647TMC3    H1 9635   2.155   1.372  15.285  0.8345 -1.4984  0.1685
  647TMC3    H2 9636   2.173   1.172  15.655  1.9399  0.8248 -1.0819
  647TMC3    C7 9637   2.322   1.241  15.463 -0.1667 -0.0001  1.0443
  647TMC3    C8 9638   1.932   1.088  15.667  0.0686 -0.1340  0.0788
  647TMC3    O1 9639   2.371   1.200  15.570  0.8216  0.5115  0.3577
  647TMC3    O2 9640   1.824   1.112  15.722  0.3838 -0.1156  0.2955
  648TMC3    C1 9641   1.389   3.523  16.361  0.6557  0.0549  0.5924
  648TMC3    C2 9642   1.428   3.408  16.312 -0.5387 -0.0942  0.6184
  648TMC3    C3 9643   1.371   3.363  16.196  0.8299 -0.2975  0.3948
  648TMC3    C4 9644   1.275   3.591  16.313 -0.1207  0.5019  0.6802
  648TMC3    C5 9645   1.214   3.542  16.198 -0.7596 -1.2563 -0.5147
  648TMC3    C6 9646   1.261   3.423  16.136 -0.0225 -0.3819 -0.1030
  648TMC3     C 9647   1.415   3.549  16.501 -0.1267 -0.0433 -0.2866
  648TMC3     O 9648   1.408   3.666  16.539  0.0218 -0.1230  0.1873
  648TMC3     H 9649   1.518   3.356  16.344 -0.0574  0.7868  0.6913
  648TMC3    H1 9650   1.235   3.674  16.371 -0.3114 -0.0244  1.2928
  648TMC3    H2 9651   1.209   3.378  16.052 -2.7094  0.9364  0.8535
  648TMC3    C7 9652   1.138   3.640  16.116 -0.1111  0.4906 -0.0890
  648TMC3    C8 9653   1.420   3.237  16.140  0.2710  0.4467  0.2315
  648TMC3    O1 9654   1.154   3.642  15.996  0.0244  1.0188  0.4178
  648TMC3    O2 9655   1.335   3.151  16.120  0.1120  0.0694  0.3404
  649TMC3    C1 9656   0.252   0.536  13.340  0.1801 -0.2959  0.6007
  649TMC3    C2 9657   0.364   0.595  13.390 -0.0485 -0.4321  0.3459
  649TMC3    C3 9658   0.422   0.542  13.502  0.0944 -0.5259  0.0701
  649TMC3    C4 9659   0.215   0.414  13.386 -0.6890  0.8530 -0.8179
  649TMC3    C5 9660   0.279   0.353  13.495  0.3275 -0.0749 -0.7447
  649TMC3    C6 9661   0.391   0.417  13.551  0.0427  0.4612  0.1095
  649TMC3     C 9662   0.181   0.587  13.221  0.0425  0.6727 -0.3734
  649TMC3     O 9663   0.061   0.558  13.206  0.1427 -1.0344  0.1188
  649TMC3     H 9664   0.399   0.694  13.362  0.0570 -0.6071 -0.1420
  649TMC3    H1 9665   0.130   0.361  13.345  0.1685 -0.4599 -0.9044
  649TMC3    H2 9666   0.446   0.369  13.631 -0.9758 -1.6128 -0.4318
  649TMC3    C7 9667   0.231   0.227  13.535  0.4280 -0.3830 -0.1345
  649TMC3    C8 9668   0.538   0.607  13.562  0.6762 -0.4247  0.1629
  649TMC3    O1 9669   0.116   0.199  13.508 -0.0721 -0.4881 -0.3028
  649TMC3    O2 9670   0.565   0.567  13.672 -0.0294  0.8376 -0.1595
  650TMC3    C1 9671   2.053   1.595  13.156 -0.1095  0.2741 -0.6102
  650TMC3    C2 9672   2.000   1.722  13.172 -0.4449 -0.1168 -1.1295
  650TMC3    C3 9673   2.029   1.808  13.076  0.5130  0.5235 -0.2658
  650TMC3    C4 9674   2.140   1.562  13.062  0.0947 -0.2117  0.5231
  650TMC3    C5 9675   2.172   1.657  12.971  0.0672  0.7970 -0.8003
  650TMC3    C6 9676   2.121   1.784  12.978  0.2871  0.3371 -0.0007
  650TMC3     C 9677   2.015   1.489  13.254  0.0458  0.2389  0.2291
  650TMC3     O 9678   1.924   1.510  13.330  0.4388  0.2309 -0.0083
  650TMC3     H 9679   1.938   1.748  13.257  0.3129 -1.3112 -0.2059
  650TMC3    H1 9680   2.169   1.458  13.049 -2.1983 -0.5981 -1.4884
  650TMC3    H2 9681   2.138   1.863  12.907  1.1537  0.6454  0.5539
  650TMC3    C7 9682   2.226   1.610  12.846  0.1949  0.4528  0.1734
  650TMC3    C8 9683   1.987   1.945  13.088  0.0496 -1.0582  0.5543
  650TMC3    O1 9684   2.273   1.498  12.842  0.4534  0.1545  0.5096
  650TMC3    O2 9685   2.039   2.024  13.010  0.5945  0.2617  0.2044
  651MPD2     C 9686   1.398   3.841  10.733 -0.0712 -0.1627 -0.0063
  651MPD2    C1 9687   1.384   3.937  10.833  0.2447  0.9316 -0.3055
  651MPD2    C2 9688   1.481   4.035  10.840 -0.0799 -0.3227 -0.3109
  651MPD2    C3 9689   1.599   4.020  10.770 -0.4889 -0.3136  0.3640
  651MPD2    C4 9690   1.617   3.912  10.684 -0.6561 -0.3182 -0.3402
  651MPD2    C5 9691   1.513   3.826  10.661 -0.7378  0.2355 -0.7300
  651MPD2     H 9692   1.460   4.127  10.894 -2.2833  0.5533 -2.6669
  651MPD2    H1 9693   1.711   3.895  10.632 -1.2245 -0.0299 -1.4589
  651MPD2    H2 9694   1.316   3.780  10.698  0.1079 -1.3834  1.6997
  651MPD2    H3 9695   1.519   3.734  10.604 -1.2495 -0.1830 -0.0989
  651MPD2     N 9696   1.699   4.113  10.785 -0.3258  0.1538  0.0760
  651MPD2    H5 9697   1.674   4.204  10.824  1.1022  0.2325  0.8008
  651MPD2    N1 9698   1.260   3.956  10.898  0.8101  0.3892 -0.2692
  651MPD2    H7 9699   1.239   4.051  10.927  1.4222  0.9799 -1.7365
  652TMC3    C1 9700   2.117   4.303  10.779 -0.8488  1.3079 -0.6835
  652TMC3    C2 9701   2.039   4.192  10.806  0.6048 -0.4873  0.1799
  652TMC3    C3 9702   1.911   4.204  10.764  0.2992 -0.2069 -0.0713
  652TMC3    C4 9703   2.069   4.411  10.718  0.4702  0.7414 -0.1502
  652TMC3    C5 9704   1.934   4.422  10.687  0.4916  0.4211 -0.6899
  652TMC3    C6 9705   1.849   4.314  10.713  0.2151  0.1698  0.2225
  652TMC3     C 9706   2.257   4.300  10.833  0.3997 -0.1795 -0.9616
  652TMC3     O 9707   2.285   4.225  10.926  0.2528 -0.1352  0.5328
  652TMC3     H 9708   2.085   4.102  10.847  1.7834 -0.1725 -0.4547
  652TMC3    H1 9709   2.133   4.498  10.711  3.0525 -1.0613  1.0866
  652TMC3    H2 9710   1.751   4.318  10.667  0.2914  1.1990  0.1464
  652TMC3    C7 9711   1.875   4.536  10.619  0.2840 -0.1959 -0.5229
  652TMC3    C8 9712   1.829   4.089  10.756 -0.2887  0.2564 -0.3383
  652TMC3    O1 9713   1.754   4.547  10.627  0.4979  0.0612  0.3940
  652TMC3    O2 9714   1.888   3.984  10.734 -0.5920 -1.0251  1.0515
  653MPD2     C 9715   0.342   3.224   0.108 -0.0182  0.5021  0.1729
  653MPD2    C1 9716   0.417   3.309   0.027  0.2757  0.5363  0.2323
  653MPD2    C2 9717   0.439   3.282  17.650  0.3688  0.2346 -0.2086
  653MPD2    C3 9718   0.402   3.157  17.598  0.9506 -0.1125  0.1691
  653MPD2    C4 9719   0.325   3.074  17.680  0.4041  0.0736 -0.2305
  653MPD2    C5 9720   0.285   3.111   0.052 -0.4697 -0.5272 -0.8331
  653MPD2     H 9721   0.489   3.352  17.584 -4.0467  2.1161 -1.5912
  653MPD2    H1 9722   0.295   2.975  17.649  1.3243  0.9802 -4.1142
  653MPD2    H2 9723   0.307   3.243   0.209  0.6286 -0.9476  0.6665
  653MPD2    H3 9724   0.225   3.040   0.106  0.5742  1.0760  2.4023
  653MPD2     N 9725   0.429   3.132  17.462 -0.3251  0.3705 -0.2953
  653MPD2    H5 9726   0.478   3.205  17.410  1.5383 -0.6153  0.0637
  653MPD2    N1 9727   0.477   3.430   0.066  0.1779 -0.0855  0.0701
  653MPD2    H7 9728   0.531   3.482  17.753 -3.0580  2.2750 -0.6964
  654TMC3    C1 9729   0.474   3.013  17.274 -0.6756  0.1244  0.0082
  654TMC3    C2 9730   0.428   3.116  17.196  0.3864  0.4115  0.3348
  654TMC3    C3 9731   0.419   3.084  17.064  0.3537 -0.0557 -0.3963
  654TMC3    C4 9732   0.516   2.892  17.222  0.7078 -0.2041 -0.5216
  654TMC3    C5 9733   0.524   2.874  17.086 -0.0526  0.2230 -1.0437
  654TMC3    C6 9734   0.465   2.964  17.008 -0.1735 -0.4552 -0.3669
  654TMC3     C 9735   0.415   3.005  17.408 -0.6296  0.8810 -0.2094
  654TMC3     O 9736   0.382   2.898  17.461 -0.0415 -0.3119  0.7646
  654TMC3     H 9737   0.410   3.213  17.242  0.8334  1.0462 -0.8266
  654TMC3    H1 9738   0.546   2.823  17.301  1.1672  1.3733  0.6818
  654TMC3    H2 9739   0.458   2.947  16.901  2.0022  0.6081 -0.6763
  654TMC3    C7 9740   0.561   2.741  17.033  0.2678 -0.4366  0.2474
  654TMC3    C8 9741   0.353   3.193  16.984  0.0337  0.2769 -0.2609
  654TMC3    O1 9742   0.584   2.730  16.912 -0.7432 -0.4224  0.1349
  654TMC3    O2 9743   0.316   3.296  17.034  0.1116 -0.5844  0.0261
  655MPD2     C 9744   1.921   3.894  15.990  0.8054  0.3855 -0.8895
  655MPD2    C1 9745   1.789   3.907  15.939 -0.2870 -0.0526  0.1917
  655MPD2    C2 9746   1.749   3.825  15.841  0.1122 -0.4603 -0.6818
  655MPD2    C3 9747   1.837   3.723  15.790 -0.2790 -0.0042  1.3199
  655MPD2    C4 9748   1.970   3.725  15.829 -0.0474  0.0441 -0.1072
  655MPD2    C5 9749   2.014   3.811  15.928  0.0754 -0.2654 -0.0382
  655MPD2     H 9750   1.649   3.828  15.801 -1.0212 -1.3255  2.1202
  655MPD2    H1 9751   2.037   3.648  15.795  0.6891  0.7695 -0.3012
  655MPD2    H2 9752   1.957   3.961  16.067  0.8467  0.8708 -1.3334
  655MPD2    H3 9753   2.117   3.802  15.960  0.5102 -1.6502 -1.8385
  655MPD2     N 9754   1.792   3.620  15.700  0.3901  0.1600  0.1670
  655MPD2    H5 9755   1.853   3.541  15.687  1.9990  1.0230  2.2754
  655MPD2    N1 9756   1.689   3.995  15.968  0.4730 -0.1349 -0.0315
  655MPD2    H7 9757   1.616   4.001  15.897  1.8283  1.6276 -1.2900
  656TMC3    C1 9758   1.564   4.130  16.111 -0.0366  1.1074 -0.5342
  656TMC3    C2 9759   1.520   4.112  16.235  0.1761 -0.8195 -0.2013
  656TMC3    C3 9760   1.387   4.128  16.260  0.2548  0.4649  0.2673
  656TMC3    C4 9761   1.480   4.183  16.014 -0.7084 -1.1854 -0.2081
  656TMC3    C5 9762   1.353   4.213  16.045 -0.9420 -0.9818  0.2453
  656TMC3    C6 9763   1.298   4.182  16.170  1.1749  0.3172  0.3767
  656TMC3     C 9764   1.695   4.071  16.078  0.4162  0.2453 -0.1692
  656TMC3     O 9765   1.773   4.069  16.175  0.2416 -0.1762  0.5564
  656TMC3     H 9766   1.570   4.040  16.298  0.8992  0.6191  0.8610
  656TMC3    H1 9767   1.521   4.218  15.920 -0.5056  2.6433  1.2938
  656TMC3    H2 9768   1.190   4.177  16.171  1.1792  0.0758 -0.3919
  656TMC3    C7 9769   1.284   4.301  15.950  0.1605  0.7265  0.1905
  656TMC3    C8 9770   1.330   4.054  16.370  0.2878 -0.2971  0.7148
  656TMC3    O1 9771   1.327   4.311  15.836  0.3377  0.1157 -0.6312
  656TMC3    O2 9772   1.354   3.933  16.376  0.0498 -0.4771  0.4244
  657TMC3    C1 9773   0.831   2.982  15.249 -0.5038 -0.4648  0.2309
  657TMC3    C2 9774   0.814   2.972  15.388 -0.1885 -0.2950  0.2732
  657TMC3    C3 9775   0.701   3.030  15.434  0.2981  0.0663  0.7466
  657TMC3    C4 9776   0.752   3.052  15.166 -0.4327  0.0757 -0.2162
  657TMC3    C5 9777   0.643   3.115  15.218 -0.0543  0.7072 -0.1298
  657TMC3    C6 9778   0.613   3.097  15.349  0.0657  1.0203 -0.3167
  657TMC3     C 9779   0.954   2.947  15.184 -0.4888 -0.9481  0.0666
  657TMC3     O 9780   0.953   2.924  15.064  0.0694  0.2090  0.0073
  657TMC3     H 9781   0.885   2.922  15.453  1.3526 -0.4829 -1.5918
  657TMC3    H1 9782   0.782   3.079  15.065 -0.8357  0.1014 -0.3301
  657TMC3    H2 9783   0.526   3.147  15.389  0.7688 -0.0498  2.5757
  657TMC3    C7 9784   0.564   3.198  15.137  0.1929  0.4946  0.3757
  657TMC3    C8 9785   0.671   3.028  15.575 -0.0804 -0.3171  0.2852
  657TMC3    O1 9786   0.584   3.194  15.013  0.4384  0.6187 -0.4263
  657TMC3    O2 9787   0.554   3.027  15.617  0.4900 -0.1595  0.2912
  658MPD2     C 9788   2.132   3.273  15.123  0.8259 -0.6682 -0.3366
  658MPD2    C1 9789   2.020   3.353  15.122  0.2377  0.3582  0.0780
  658MPD2    C2 9790   1.993   3.431  15.015  0.7951  0.4742 -0.2614
  658MPD2    C3 9791   2.071   3.423  14.901 -0.5477  0.7871 -0.9291
  658MPD2    C4 9792   2.182   3.337  14.895 -0.1343 -0.3079  0.3803
  658MPD2    C5 9793   2.215   3.269  15.009 -0.2770 -0.0776  0.3284
  658MPD2     H 9794   1.915   3.507  15.017  0.3321 -0.0453  1.6729
  658MPD2    H1 9795   2.251   3.323  14.813 -0.8463 -0.6317 -0.1628
  658MPD2    H2 9796   2.159   3.211  15.208 -0.8177  0.7681  1.2316
  658MPD2    H3 9797   2.307   3.213  15.003  1.0936  2.0402  1.4728
  658MPD2     N 9798   2.035   3.509  14.795  0.9580 -0.2212  0.2522
  658MPD2    H5 9799   1.948   3.559  14.807 -0.5390 -2.3822 -1.6397
  658MPD2    N1 9800   1.936   3.347  15.240  0.1378  0.6474  0.1808
  658MPD2    H7 9801   1.976   3.307  15.324 -2.8309 -0.5414  1.0317
  659TMC3    C1 9802   1.725   3.372  15.358 -0.0678 -0.5629 -0.4052
  659TMC3    C2 9803   1.760   3.451  15.462 -0.0166  1.0546  0.1311
  659TMC3    C3 9804   1.661   3.512  15.533 -0.7456  0.3332  0.1398
  659TMC3    C4 9805   1.595   3.343  15.322 -0.4948  0.2998 -0.0935
  659TMC3    C5 9806   1.498   3.410  15.395 -0.1194  0.2970 -0.1365
  659TMC3    C6 9807   1.531   3.496  15.499  0.3036  0.6462 -0.2284
  659TMC3     C 9808   1.806   3.396  15.238 -0.1878 -0.1359  0.4715
  659TMC3     O 9809   1.738   3.439  15.143 -0.1795 -0.1027 -0.5179
  659TMC3     H 9810   1.861   3.491  15.465  1.7828 -3.4296  0.0611
  659TMC3    H1 9811   1.575   3.254  15.263 -0.3108  0.1727  0.0353
  659TMC3    H2 9812   1.459   3.540  15.568 -0.7680 -0.2567 -0.7731
  659TMC3    C7 9813   1.360   3.402  15.351  0.8681  1.5349  0.2731
  659TMC3    C8 9814   1.687   3.630  15.613  0.8855  0.7385 -0.4168
  659TMC3    O1 9815   1.286   3.470  15.423 -0.5445 -0.3418  0.0959
  659TMC3    O2 9816   1.610   3.723  15.596  0.8742  0.2088 -0.1122
  660MPD2     C 9817   4.412   2.366  12.905 -0.5994  0.1419 -0.0430
  660MPD2    C1 9818   4.275   2.363  12.921  1.0224 -0.0026 -0.1692
  660MPD2    C2 9819   4.226   2.280  13.024 -0.4796  0.2172  0.3846
  660MPD2    C3 9820   4.301   2.209  13.116 -0.3128  0.2132  0.1679
  660MPD2    C4 9821   4.438   2.211  13.096  0.6287  0.9075 -0.5121
  660MPD2    C5 9822   4.488   2.288  12.995 -0.5297  0.1155 -0.4699
  660MPD2     H 9823   4.118   2.274  13.035 -0.8922  1.6885 -2.8969
  660MPD2    H1 9824   4.496   2.142  13.157 -0.0221  0.4382 -0.4192
  660MPD2    H2 9825   4.463   2.432  12.835  0.1098 -2.5901 -2.0985
  660MPD2    H3 9826   4.594   2.301  12.976 -0.0543  0.2313  2.2162
  660MPD2     N 9827   4.249   2.133  13.220  0.8313  0.0818 -0.5433
  660MPD2    H5 9828   4.313   2.089  13.286  0.8339  1.0144  0.0788
  660MPD2    N1 9829   4.202   2.440  12.830 -0.4782 -0.0526 -0.7506
  660MPD2    H7 9830   4.258   2.490  12.762  0.4104  2.0564  1.5117
  661TMC3    C1 9831   4.016   2.545  12.743  0.6564 -0.5586  0.3462
  661TMC3    C2 9832   4.094   2.643  12.680  0.3717  0.2374 -0.5039
  661TMC3    C3 9833   4.030   2.757  12.645  0.8779 -0.2987  0.3570
  661TMC3    C4 9834   3.883   2.556  12.748  0.0740  0.0366 -0.4226
  661TMC3    C5 9835   3.823   2.674  12.711 -0.1274  0.0877 -0.5803
  661TMC3    C6 9836   3.893   2.780  12.660  0.0153 -0.7943  0.4281
  661TMC3     C 9837   4.072   2.444  12.825 -0.2374  0.8373  0.3144
  661TMC3     O 9838   3.988   2.383  12.889  0.5922  0.3385 -0.6200
  661TMC3     H 9839   4.201   2.633  12.664 -0.0715 -0.3294 -3.0545
  661TMC3    H1 9840   3.822   2.479  12.794  0.9850 -0.0700  0.6323
  661TMC3    H2 9841   3.848   2.864  12.609 -0.1994  0.2371  2.3422
  661TMC3    C7 9842   3.678   2.689  12.705  0.3247  0.2435 -0.3106
  661TMC3    C8 9843   4.091   2.822  12.530 -0.5740  0.7376 -0.2257
  661TMC3    O1 9844   3.633   2.803  12.708  0.2602 -0.2518  0.4951
  661TMC3    O2 9845   4.173   2.756  12.461  0.7061 -0.1514 -0.2482
  662MPD2     C 9846   0.452   2.027  17.465 -0.7081 -0.3729 -0.8947
  662MPD2    C1 9847   0.508   1.938  17.548 -0.7371 -0.2827 -0.2683
  662MPD2    C2 9848   0.505   1.963  17.680  0.4111 -1.2407  0.7672
  662MPD2    C3 9849   0.436   2.074  17.733 -0.6143 -0.3633 -1.2627
  662MPD2    C4 9850   0.366   2.155  17.653 -1.1400 -0.3554  0.6296
  662MPD2    C5 9851   0.380   2.139  17.515 -0.0464  0.4299 -0.5321
  662MPD2     H 9852   0.552   1.891  17.747 -0.3447 -0.9054  1.6514
  662MPD2    H1 9853   0.296   2.230  17.685 -0.9383  0.4669 -0.8409
  662MPD2    H2 9854   0.467   2.016  17.358 -0.8632 -2.6109 -0.7002
  662MPD2    H3 9855   0.322   2.203  17.450  0.3800 -0.9738 -2.3034
  662MPD2     N 9856   0.410   2.089   0.119 -0.3591 -0.3466 -0.5184
  662MPD2    H5 9857   0.335   2.152   0.145 -2.0317 -2.8943  0.8200
  662MPD2    N1 9858   0.571   1.814  17.512  0.1027  0.1398 -0.0470
  662MPD2    H7 9859   0.615   1.761  17.586  0.9039  0.6094 -0.1866
  663TMC3    C1 9860   0.635   1.616  17.392 -0.0174 -0.8465 -0.0038
  663TMC3    C2 9861   0.731   1.588  17.485 -0.0952  0.3842 -0.0795
  663TMC3    C3 9862   0.815   1.486  17.462 -0.4835 -0.5227 -0.5025
  663TMC3    C4 9863   0.605   1.529  17.293  0.4901  0.4026  0.6869
  663TMC3    C5 9864   0.679   1.419  17.284  0.1143 -0.5776  0.1224
  663TMC3    C6 9865   0.788   1.396  17.362 -0.1322 -0.0650 -0.8173
  663TMC3     C 9866   0.567   1.750  17.388 -0.7401  0.3028  0.3590
  663TMC3     O 9867   0.489   1.773  17.293  0.1177  0.1706 -0.4374
  663TMC3     H 9868   0.779   1.674  17.530 -0.8215 -0.1902  1.8137
  663TMC3    H1 9869   0.530   1.555  17.219 -0.7264  2.3495  2.5909
  663TMC3    H2 9870   0.857   1.322  17.324 -1.9942 -2.5549  0.6233
  663TMC3    C7 9871   0.626   1.314  17.200 -0.6007  0.2024 -0.0449
  663TMC3    C8 9872   0.874   1.412  17.575  0.2353  0.1795 -0.0209
  663TMC3    O1 9873   0.566   1.341  17.098  0.0667  0.0522 -0.4279
  663TMC3    O2 9874   0.961   1.332  17.546 -0.4141 -0.0339 -0.2364
  664MPD2     C 9875   3.066   0.196  17.483 -0.3336 -0.0118 -0.4724
  664MPD2    C1 9876   3.198   0.226  17.515  0.8076 -0.0709  0.2192
  664MPD2    C2 9877   3.241   0.193  17.642 -0.1607 -0.4694  0.3034
  664MPD2    C3 9878   3.153   0.139  17.734 -0.3188  0.5965  0.5057
  664MPD2    C4 9879   3.024   0.106  17.691 -0.1717  0.6746  0.1002
  664MPD2    C5 9880   2.984   0.135  17.565 -0.5066  0.8989  0.1744
  664MPD2     H 9881   3.339   0.203  17.686  0.0938  0.2787 -0.4307
  664MPD2    H1 9882   2.948   0.060  17.753 -0.1231  0.0034 -0.3417
  664MPD2    H2 9883   3.030   0.214  17.382  0.7182 -1.5848 -1.1408
  664MPD2    H3 9884   2.883   0.109  17.535 -1.1399  0.9384  2.3030
  664MPD2     N 9885   3.186   0.121   0.116  0.3819 -0.2641 -0.5962
  664MPD2    H5 9886   3.282   0.146   0.136  0.2852 -0.0883 -0.3417
  664MPD2    N1 9887   3.287   0.288  17.421 -1.0936 -0.4476 -0.3290
  664MPD2    H7 9888   3.249   0.310  17.330  0.6956  1.2294 -0.6838
  665TMC3    C1 9889   3.165   0.065   0.344  0.2691 -0.0615 -0.3542
  665TMC3    C2 9890   3.110   4.720   0.438 -0.2358  0.2691  0.2693
  665TMC3    C3 9891   3.147   0.006   0.572  0.1919  0.4454 -0.3111
  665TMC3    C4 9892   3.248   0.171   0.376  0.2627  0.2314 -0.6710
  665TMC3    C5 9893   3.262   0.203   0.508  0.2871  0.2388  0.2236
  665TMC3    C6 9894   3.216   0.118   0.603 -0.1387  0.2824  0.2913
  665TMC3     C 9895   3.114   0.052   0.212  0.1533 -0.1276  0.3960
  665TMC3     O 9896   3.006   4.734   0.201  1.0569 -0.6949  0.4297
  665TMC3     H 9897   3.044   4.641   0.405 -0.8543  0.2349  1.5811
  665TMC3    H1 9898   3.280   0.239   0.298  2.0258 -0.8778 -0.9154
  665TMC3    H2 9899   3.238   0.151   0.703 -2.5316  0.0732  0.8744
  665TMC3    C7 9900   3.353   0.319   0.535 -0.5491  0.0882  0.2942
  665TMC3    C8 9901   3.063   4.695   0.675  0.6437 -0.1347 -0.2420
  665TMC3    O1 9902   3.395   0.385   0.439  0.3104  0.4620 -0.3676
  665TMC3    O2 9903   3.096   4.719   0.793 -0.6944  0.0274 -0.3944
  666TMC3    C1 9904   1.441   0.871   9.883 -0.3270  0.2672  0.6187
  666TMC3    C2 9905   1.579   0.827   9.887  0.8262 -0.1655 -0.4825
  666TMC3    C3 9906   1.676   0.920   9.909 -0.9729 -0.1810 -0.3785
  666TMC3    C4 9907   1.413   1.002   9.903 -0.2283  0.6962 -0.1979
  666TMC3    C5 9908   1.516   1.094   9.917 -0.2316  0.5866  0.1627
  666TMC3    C6 9909   1.650   1.055   9.921 -0.0995  0.3457 -0.7790
  666TMC3     C 9910   1.329   0.773   9.886 -0.3518 -0.0660  0.0647
  666TMC3     O 9911   1.219   0.825   9.884 -0.1937  0.2621 -0.1016
  666TMC3     H 9912   1.608   0.724   9.875  1.1517 -0.0881 -0.3680
  666TMC3    H1 9913   1.311   1.039   9.900 -0.7437 -0.8765 -2.1208
  666TMC3    H2 9914   1.713   1.126   9.974 -0.1343  1.3300 -2.0561
  666TMC3    C7 9915   1.479   1.197  10.016  0.3694 -0.2259  0.1043
  666TMC3    C8 9916   1.808   0.870   9.939  0.2552  0.2075 -0.8637
  666TMC3    O1 9917   1.405   1.165  10.107 -0.4867  0.0781 -0.2046
  666TMC3    O2 9918   1.832   0.750   9.919 -0.0453  0.6916 -0.4547
  667MPD2     C 9919   3.918   0.614  15.078  0.1520  0.7446 -0.0563
  667MPD2    C1 9920   3.818   0.688  15.144 -0.3360  0.3805  0.3904
  667MPD2    C2 9921   3.689   0.635  15.128  0.7290 -0.9109 -0.1116
  667MPD2    C3 9922   3.663   0.528  15.048 -0.1168  0.1609 -0.1092
  667MPD2    C4 9923   3.765   0.448  15.007  0.0032  0.0246  0.1867
  667MPD2    C5 9924   3.899   0.499  15.011 -0.3805  0.3070 -0.1946
  667MPD2     H 9925   3.609   0.687  15.181 -0.0597 -0.4697 -1.7272
  667MPD2    H1 9926   3.739   0.358  14.953 -1.4763 -0.1529  1.1969
  667MPD2    H2 9927   4.023   0.641  15.073  0.3026 -0.3207 -2.3155
  667MPD2    H3 9928   3.986   0.458  14.961 -0.2109 -0.9432  1.1078
  667MPD2     N 9929   3.528   0.494  15.020 -0.2281  0.4061 -0.0427
  667MPD2    H5 9930   3.523   0.413  14.958 -0.3639  1.3858 -1.3290
  667MPD2    N1 9931   3.849   0.801  15.228  1.1583  0.3573 -0.1922
  667MPD2    H7 9932   3.769   0.847  15.271  0.8824 -0.1024 -0.2081
  668TMC3    C1 9933   3.979   0.965  15.335  0.3508  0.4998  0.5189
  668TMC3    C2 9934   4.039   1.074  15.286 -0.9988 -0.1704  0.0702
  668TMC3    C3 9935   4.017   1.194  15.350  0.2666 -0.0700 -0.6081
  668TMC3    C4 9936   3.896   0.964  15.446  0.3227 -0.1884 -0.8004
  668TMC3    C5 9937   3.881   1.080  15.518  0.9060  0.1036  0.1968
  668TMC3    C6 9938   3.937   1.192  15.460  0.6601  0.3699  0.5274
  668TMC3     C 9939   3.976   0.852  15.251  0.0296  0.6638 -0.2251
  668TMC3     O 9940   4.087   0.814  15.216 -0.0924  0.0375 -0.0659
  668TMC3     H 9941   4.096   1.067  15.194 -1.3829  2.9394 -0.4259
  668TMC3    H1 9942   3.852   0.872  15.481  0.2530  0.2725  0.3083
  668TMC3    H2 9943   3.950   1.278  15.524  0.3792  0.6089  0.2575
  668TMC3    C7 9944   3.913   1.061  15.657  0.1973 -0.6292 -0.2349
  668TMC3    C8 9945   4.064   1.317  15.304 -0.5341  0.4111 -0.1767
  668TMC3    O1 9946   4.024   1.105  15.691 -0.2433  0.0592  0.1731
  668TMC3    O2 9947   4.002   1.417  15.317 -0.1715 -0.7098  0.3975
  669TMC3    C1 9948   1.838   0.484  14.805 -0.5807 -0.2747  0.6609
  669TMC3    C2 9949   1.724   0.495  14.731  0.6708 -0.2105 -0.2859
  669TMC3    C3 9950   1.734   0.578  14.623  0.1445  0.3123  0.4455
  669TMC3    C4 9951   1.952   0.556  14.776  0.1540 -0.4956 -0.8106
  669TMC3    C5 9952   1.951   0.651  14.680  0.0586  0.1280 -0.1035
  669TMC3    C6 9953   1.837   0.674  14.603  0.2448  0.0834  0.1299
  669TMC3     C 9954   1.844   0.383  14.907 -0.4904  0.7196  0.1928
  669TMC3     O 9955   1.755   0.298  14.904 -0.1195  0.5732 -0.2891
  669TMC3     H 9956   1.643   0.424  14.737 -0.4290  1.0054 -0.5718
  669TMC3    H1 9957   2.047   0.536  14.825 -0.0683  1.2069  0.3134
  669TMC3    H2 9958   1.834   0.733  14.513 -0.6461 -0.0437  0.0807
  669TMC3    C7 9959   2.074   0.715  14.633 -0.0320  0.3900  0.0025
  669TMC3    C8 9960   1.602   0.595  14.560 -0.1632  1.0396 -0.6980
  669TMC3    O1 9961   2.157   0.750  14.714 -0.0869 -0.0167  0.5867
  669TMC3    O2 9962   1.511   0.507  14.561 -0.3767 -0.1371  0.2806
  670MPD2     C 9963   0.301   3.142  13.342 -0.7379  0.0324  0.1258
  670MPD2    C1 9964   0.361   3.206  13.445 -0.2202  0.0768 -0.5107
  670MPD2    C2 9965   0.326   3.169  13.578 -0.1412 -0.2202  0.0016
  670MPD2    C3 9966   0.227   3.074  13.605  0.2349  0.2174 -0.0451
  670MPD2    C4 9967   0.178   3.005  13.497 -0.3707 -0.1525 -0.1935
  670MPD2    C5 9968   0.204   3.046  13.364  0.4553 -0.5894 -0.3381
  670MPD2     H 9969   0.368   3.230  13.657  0.3498  0.0147 -0.4429
  670MPD2    H1 9970   0.120   2.914  13.498 -0.6451  0.0171 -0.6509
  670MPD2    H2 9971   0.309   3.176  13.240 -0.6312 -0.5225 -0.0499
  670MPD2    H3 9972   0.143   2.994  13.291  0.2529 -0.5294 -0.2133
  670MPD2     N 9973   0.192   3.039  13.742  0.1930 -0.2113 -0.1400
  670MPD2    H5 9974   0.239   3.077  13.823  1.4493  0.8508 -1.3696
  670MPD2    N1 9975   0.452   3.316  13.430  0.0240  0.5880  0.2945
  670MPD2    H7 9976   0.494   3.349  13.516 -0.8486 -3.6649  2.3929
  671TMC3    C1 9977   0.044   2.959  13.915  0.5224  0.5098  0.0231
  671TMC3    C2 9978   0.130   3.006  14.007 -0.6732  0.0654 -0.3391
  671TMC3    C3 9979   0.105   2.971  14.139 -0.3268 -0.1061 -0.7232
  671TMC3    C4 9980   4.680   2.883  13.947  0.2627 -0.1549 -0.8082
  671TMC3    C5 9981   4.660   2.838  14.074 -0.0812  0.2236 -0.0542
  671TMC3    C6 9982   0.005   2.886  14.175  0.6499 -0.2283  0.1936
  671TMC3     C 9983   0.076   2.964  13.771 -0.4356 -0.1713  0.6804
  671TMC3     O 9984   4.733   2.932  13.689 -0.1327 -0.0443  0.0763
  671TMC3     H 9985   0.223   3.055  13.982 -0.7774 -0.0256 -0.8994
  671TMC3    H1 9986   4.614   2.850  13.867 -0.4887  2.0651 -1.0856
  671TMC3    H2 9987   4.731   2.848  14.276  0.6600 -0.2123  0.2009
  671TMC3    C7 9988   4.571   2.728  14.093 -0.6540 -0.3409 -0.2794
  671TMC3    C8 9989   0.218   2.943  14.223  0.1842 -0.3191 -0.6276
  671TMC3    O1 9990   4.507   2.691  13.995 -0.2626  0.3893  0.0654
  671TMC3    O2 9991   0.295   3.032  14.256  0.5736 -0.4843 -0.1826
  672MPD2     C 9992   0.852   3.742   0.700 -0.7635  0.5038 -0.2264
  672MPD2    C1 9993   0.944   3.665   0.632 -0.0532 -0.6651 -0.1466
  672MPD2    C2 9994   1.075   3.709   0.623  0.5382 -0.5343  0.4477
  672MPD2    C3 9995   1.106   3.840   0.659  0.0243  0.2312 -0.0674
  672MPD2    C4 9996   1.011   3.918   0.721  0.0030 -0.6602 -0.0033
  672MPD2    C5 9997   0.883   3.870   0.743  0.4682 -0.0240 -0.1820
  672MPD2     H 9998   1.147   3.640   0.579 -0.5718 -0.3933 -1.5894
  672MPD2    H1 9999   1.030   4.022   0.746  0.3707 -0.3532 -1.5382
  672MPD2    H210000   0.745   3.727   0.710  0.1436 -5.3273  0.9880
  672MPD2    H310001   0.805   3.935   0.780  1.4411  0.3867  1.1519
  672MPD2     N10002   1.229   3.902   0.637 -0.4630 -0.3221  0.2236
  672MPD2    H510003   1.233   4.003   0.652  1.2905 -0.3809  0.1799
  672MPD2    N110004   0.906   3.532   0.600  1.5533  0.2941 -0.0499
  672MPD2    H710005   0.979   3.466   0.574  0.4096 -1.7457  1.9535
  673TMC3    C110006   0.764   3.341   0.577 -0.6725  0.1589  0.1942
  673TMC3    C210007   0.855   3.252   0.622 -0.1188  0.0486 -0.4603
  673TMC3    C310008   0.818   3.116   0.634  0.1140  1.6164 -0.3262
  673TMC3    C410009   0.641   3.294   0.533  0.3702 -0.4284 -0.5735
  673TMC3    C510010   0.602   3.165   0.547  1.4804  0.2004 -0.2159
  673TMC3    C610011   0.691   3.074   0.603 -0.7080 -0.3759  0.3537
  673TMC3     C10012   0.774   3.483   0.604  0.6102 -0.1212 -0.1131
  673TMC3     O10013   0.663   3.534   0.611  0.2943 -1.0516 -0.0750
  673TMC3     H10014   0.949   3.286   0.665  0.3858 -0.3678 -1.2290
  673TMC3    H110015   0.572   3.365   0.489  1.6536  1.0950 -0.1584
  673TMC3    H210016   0.662   2.970   0.599  0.9280 -0.7881 -0.8886
  673TMC3    C710017   0.462   3.125   0.565 -0.3158 -0.0487 -0.8156
  673TMC3    C810018   0.916   3.008   0.654  1.0895 -0.3472 -0.5220
  673TMC3    O110019   0.445   3.025   0.636  0.1844 -0.0234 -0.2729
  673TMC3    O210020   0.879   2.891   0.673  0.2173  0.0580  0.0379
  674MPD2     C10021   0.614   2.726   0.789  0.7552  0.0638 -0.4751
  674MPD2    C110022   0.610   2.589   0.790  0.6523 -0.0800 -0.2743
  674MPD2    C210023   0.523   2.529   0.876  0.5429 -0.0287 -0.5034
  674MPD2    C310024   0.432   2.604   0.958  0.2347  0.4794  0.1318
  674MPD2    C410025   0.444   2.743   0.959  0.4781 -0.2713 -0.8350
  674MPD2    C510026   0.532   2.801   0.873 -0.1683  0.2292 -0.1132
  674MPD2     H10027   0.507   2.422   0.874 -0.3555  0.0960  0.0957
  674MPD2    H110028   0.383   2.811   1.017  0.0199 -0.1958 -1.4113
  674MPD2    H210029   0.678   2.779   0.720  0.2667 -2.0633 -2.5751
  674MPD2    H310030   0.534   2.909   0.862 -0.2603  0.0566 -1.8145
  674MPD2     N10031   0.334   2.527   1.029  0.1638  0.8092  0.5469
  674MPD2    H510032   0.345   2.428   1.010 -0.1493  0.8650  0.0510
  674MPD2    N110033   0.703   2.522   0.706 -0.0676  0.2222 -0.4735
  674MPD2    H710034   0.754   2.583   0.642  0.1808  0.6068  0.0972
  675TMC3    C110035   0.801   2.327   0.600  0.1341  0.5308  0.2053
  675TMC3    C210036   0.770   2.210   0.528  0.3218 -0.1143  0.0368
  675TMC3    C310037   0.871   2.155   0.463 -0.2141  0.0281  0.0067
  675TMC3    C410038   0.926   2.380   0.616 -0.3649 -0.1956  0.4876
  675TMC3    C510039   1.025   2.321   0.535  0.2214  0.6662 -0.3732
  675TMC3    C610040   0.989   2.215   0.453 -0.1588  0.0322 -0.5230
  675TMC3     C10041   0.690   2.385   0.672  0.4710 -0.0414  0.1046
  675TMC3     O10042   0.593   2.314   0.686  0.0487 -0.1238 -0.0601
  675TMC3     H10043   0.675   2.159   0.536  0.0570  0.0838 -1.9720
  675TMC3    H110044   0.950   2.467   0.676 -1.9068  2.1698 -2.3093
  675TMC3    H210045   1.060   2.178   0.381 -0.9139 -0.1415 -1.1819
  675TMC3    C710046   1.165   2.342   0.561 -0.1952 -0.6053 -0.8621
  675TMC3    C810047   0.843   2.024   0.413 -0.6757  0.1041  0.4907
  675TMC3    O110048   1.240   2.326   0.468 -0.4642  0.1935 -0.3543
  675TMC3    O210049   0.871   2.005   0.294 -0.1038  0.1934 -0.3330
  676MPD2     C10050   2.585   1.395  11.356  0.1940  0.1004  0.2042
  676MPD2    C110051   2.522   1.327  11.459 -0.1446 -0.5352  0.5137
  676MPD2    C210052   2.519   1.185  11.458  0.6831  0.5968  0.0306
  676MPD2    C310053   2.568   1.108  11.355 -0.2674  0.4171 -0.4862
  676MPD2    C410054   2.633   1.181  11.256  0.2823  0.3982 -0.1975
  676MPD2    C510055   2.639   1.319  11.254 -0.5047 -0.3391  0.1911
  676MPD2     H10056   2.463   1.133  11.535  1.5454 -2.2721 -1.2795
  676MPD2    H110057   2.671   1.138  11.164  0.5983 -1.8802  1.0040
  676MPD2    H210058   2.590   1.503  11.351 -0.1401  0.2309  2.6634
  676MPD2    H310059   2.684   1.369  11.169 -0.8196 -1.5023 -0.6590
  676MPD2     N10060   2.557   0.965  11.348  0.4290 -0.1308  0.3409
  676MPD2    H510061   2.508   0.918  11.423  0.5536 -2.5439 -1.1203
  676MPD2    N110062   2.479   1.387  11.575 -0.3589  0.2480  0.1536
  676MPD2    H710063   2.416   1.328  11.629  1.1012  0.1931  1.7760
  677TMC3    C110064   2.416   1.563  11.717 -0.7489  0.1611 -0.1636
  677TMC3    C210065   2.351   1.476  11.790 -0.4494 -0.2181  0.1997
  677TMC3    C310066   2.297   1.519  11.906 -1.3638 -0.6874  0.0762
  677TMC3    C410067   2.436   1.694  11.758 -0.1791 -0.8229  0.3878
  677TMC3    C510068   2.378   1.736  11.875  0.3570 -0.8607  0.5002
  677TMC3    C610069   2.308   1.648  11.951 -0.2879 -0.1637 -0.9281
  677TMC3     C10070   2.479   1.522  11.593  0.0613  0.8467 -0.5687
  677TMC3     O10071   2.535   1.611  11.531 -0.4876  0.0927 -0.1539
  677TMC3     H10072   2.319   1.377  11.760 -3.1450  0.5693  0.5233
  677TMC3    H110073   2.482   1.763  11.689  1.8426 -0.7316  1.8434
  677TMC3    H210074   2.288   1.665  12.056  1.9747 -1.3548 -0.2976
  677TMC3    C710075   2.433   1.840  11.951  0.1585 -0.6136 -0.6187
  677TMC3    C810076   2.270   1.419  12.006  0.1272  0.8321 -0.1264
  677TMC3    O110077   2.375   1.870  12.056  0.6006 -0.0644  0.0880
  677TMC3    O210078   2.354   1.333  12.026 -0.3513  0.0712 -0.2981
  678MPD2     C10079   0.041   0.810   1.383  0.2580  0.6027 -0.3858
  678MPD2    C110080   4.726   0.769   1.270  0.1843 -0.1972 -0.0939
  678MPD2    C210081   4.589   0.786   1.263 -0.7823 -0.2673  0.0915
  678MPD2    C310082   4.516   0.840   1.364  0.1114  0.2086  0.3834
  678MPD2    C410083   4.573   0.883   1.483  1.1303 -0.0605 -0.1714
  678MPD2    C510084   4.708   0.868   1.490 -0.5401  0.0812  0.5624
  678MPD2     H10085   4.538   0.743   1.178 -0.3334 -2.1156  0.7489
  678MPD2    H110086   4.525   0.925   1.570 -1.4423 -1.2222 -1.0410
  678MPD2    H210087   0.148   0.821   1.400  0.1515  0.5072  0.3503
  678MPD2    H310088   0.009   0.911   1.581 -2.5394 -1.2862  2.0808
  678MPD2     N10089   4.379   0.863   1.333 -0.4746  0.2857 -0.1942
  678MPD2    H510090   4.341   0.823   1.247  0.4431  1.6473 -1.2173
  678MPD2    N110091   0.058   0.702   1.168  0.1516  0.0648  0.1183
  678MPD2    H710092   0.010   0.660   1.088  1.1275 -3.8753  1.5895
  679TMC3    C110093   0.428   0.513   0.949 -0.8411  0.2750 -0.0048
  679TMC3    C210094   0.376   0.573   1.061  0.1391  0.0907 -0.1164
  679TMC3    C310095   0.248   0.623   1.055 -0.0071  0.6546 -0.5635
  679TMC3    C410096   0.353   0.495   0.834 -0.1423 -0.1096 -0.0036
  679TMC3    C510097   0.229   0.554   0.837  0.2133  0.0914 -0.7483
  679TMC3    C610098   0.179   0.618   0.943 -1.1325  0.4441  0.0721
  679TMC3     C10099   0.567   0.472   0.947 -0.9456 -0.2303 -0.7699
  679TMC3     O10100   0.592   0.380   0.875 -0.3228 -0.0361 -0.0970
  679TMC3     H10101   0.434   0.583   1.151 -0.4345  1.8123  0.0579
  679TMC3    H110102   0.406   0.464   0.745 -1.3783  0.1473 -0.8150
  679TMC3    H210103   0.086   0.670   0.924 -0.7041  1.2070  0.0619
  679TMC3    C710104   0.206   0.619   0.711 -0.2855 -0.1150  0.1219
  679TMC3    C810105   0.195   0.692   1.162 -0.1771 -0.3942  0.4332
  679TMC3    O110106   0.200   0.741   0.711  0.4632  0.1933 -0.0410
  679TMC3    O210107   0.278   0.729   1.241  0.0063  0.3991  0.6396
  680MPD2     C10108   4.227   0.265  13.833  0.5667 -0.2606 -0.4735
  680MPD2    C110109   4.330   0.213  13.911 -0.3827  0.4754 -1.0466
  680MPD2    C210110   4.411   0.296  13.984  0.1386 -0.1421  0.0370
  680MPD2    C310111   4.390   0.435  13.980  0.4271 -0.0900  0.2775
  680MPD2    C410112   4.301   0.486  13.901  0.7588 -0.1834 -0.3198
  680MPD2    C510113   4.217   0.404  13.824  1.1618  0.3340  0.0653
  680MPD2     H10114   4.488   0.254  14.048 -0.2594 -0.0808  0.5556
  680MPD2    H110115   4.296   0.594  13.901  1.4071 -0.1519  2.0859
  680MPD2    H210116   4.168   0.202  13.767 -1.1632  2.3460 -1.4178
  680MPD2    H310117   4.144   0.439  13.752  1.1400  0.5876  0.2094
  680MPD2     N10118   4.481   0.531  14.046  0.2419  0.1779  0.3929
  680MPD2    H510119   4.473   0.632  14.036  1.6152  0.1499 -0.9281
  680MPD2    N110120   4.365   0.073  13.901 -0.3420 -0.2520 -0.2487
  680MPD2    H710121   4.459   0.051  13.933  0.4892  0.1108 -2.4886
  681TMC3    C110122   4.359   4.592  13.856 -0.4175 -0.0098 -0.8111
  681TMC3    C210123   4.290   4.485  13.911  0.1353  0.3173  0.5773
  681TMC3    C310124   4.353   4.359  13.926  0.3876 -0.0963  0.0892
  681TMC3    C410125   4.495   4.587  13.844  0.1279 -0.1071 -0.5312
  681TMC3    C510126   4.554   4.470  13.871 -0.0403 -0.1261 -0.4285
  681TMC3    C610127   4.491   4.356  13.913  0.2020 -0.3566  0.0511
  681TMC3     C10128   4.283   4.714  13.845  0.5652  0.3088  0.6180
  681TMC3     O10129   4.167   4.718  13.816 -0.4368 -0.1034 -0.0697
  681TMC3     H10130   4.181   4.488  13.908  0.1373 -1.9550 -2.2460
  681TMC3    H110131   4.541   4.676  13.802  1.7218 -0.8104 -0.2779
  681TMC3    H210132   4.546   4.267  13.939  0.7645  0.5666  1.9615
  681TMC3    C710133   4.699   4.456  13.839 -0.5534 -0.7802  0.1433
  681TMC3    C810134   4.297   4.265  14.028 -0.3520  0.2944 -0.6048
  681TMC3    O110135   0.014   4.357  13.879 -0.1555  0.3336 -0.7517
  681TMC3    O210136   4.326   4.146  14.014 -0.0297 -0.1155  0.1189
  682MPD2     C10137   1.039   2.051  11.002  0.2272  0.8655  0.1881
  682MPD2    C110138   1.056   1.915  11.040  0.2027 -0.5502 -0.1077
  682MPD2    C210139   1.072   1.885  11.176 -0.6296  0.6535  0.0606
  682MPD2    C310140   1.054   1.987  11.268  0.0501 -0.3691  0.5628
  682MPD2    C410141   1.022   2.115  11.229 -0.6886 -0.4330 -0.4703
  682MPD2    C510142   1.009   2.145  11.097  0.1992  0.1649  0.3359
  682MPD2     H10143   1.098   1.783  11.201  2.6278  1.1900 -1.1951
  682MPD2    H110144   1.022   2.194  11.304  2.2288 -1.6116  0.7743
  682MPD2    H210145   1.026   2.089  10.901  1.0054 -2.5702 -1.2057
  682MPD2    H310146   0.990   2.242  11.052  1.0679  0.4061  0.5063
  682MPD2     N10147   1.052   1.981  11.410  0.1332 -0.3146  0.1366
  682MPD2    H510148   1.019   2.061  11.463  2.0419 -0.5116  1.6519
  682MPD2    N110149   1.062   1.810  10.945 -0.5261  0.2691  0.0706
  682MPD2    H710150   1.061   1.716  10.984 -1.3038 -0.3138 -1.3486
  683TMC3    C110151   1.218   2.022  11.785 -0.5674 -0.0309  0.0947
  683TMC3    C210152   1.252   1.910  11.850  0.2140  0.2181  0.2731
  683TMC3    C310153   1.225   1.790  11.796  0.1024 -0.3313 -0.0905
  683TMC3    C410154   1.152   2.023  11.661 -0.2414  0.3714  0.2958
  683TMC3    C510155   1.114   1.900  11.617  0.6099 -0.1539 -0.3530
  683TMC3    C610156   1.148   1.785  11.681 -0.4704  0.7634  0.0437
  683TMC3     C10157   1.280   2.142  11.828 -0.1372 -0.5569 -0.5944
  683TMC3     O10158   1.221   2.247  11.818 -0.2135 -0.5309  0.5678
  683TMC3     H10159   1.308   1.902  11.942  0.7587  1.4446  0.0504
  683TMC3    H110160   1.128   2.115  11.610  0.7667 -0.4679 -1.6916
  683TMC3    H210161   1.126   1.687  11.639  1.8935  0.2329  0.0152
  683TMC3    C710162   1.101   1.874  11.479 -1.0136 -0.5550  0.4622
  683TMC3    C810163   1.230   1.676  11.884 -0.6991  0.4718  0.1657
  683TMC3    O110164   1.165   1.786  11.432  0.1241  0.2194  0.3914
  683TMC3    O210165   1.228   1.698  12.005  0.5883  0.5904  0.2811
  684MPD2     C10166   4.569   0.762  16.563 -0.3868 -0.3510 -0.3504
  684MPD2    C110167   4.645   0.742  16.451 -0.7964 -0.4147  0.1209
  684MPD2    C210168   4.731   0.840  16.399  0.2365 -0.0775  0.2000
  684MPD2    C310169   0.003   0.961  16.473 -0.0359  0.3695 -0.0068
  684MPD2    C410170   4.677   0.975  16.593 -1.1410 -0.3891 -0.1884
  684MPD2    C510171   4.586   0.885  16.628 -0.2273 -0.0158 -0.3569
  684MPD2     H10172   0.041   0.829  16.303 -1.3422  2.2620 -0.8430
  684MPD2    H110173   4.684   1.068  16.649 -1.0426 -0.5194  0.0148
  684MPD2    H210174   4.505   0.685  16.604 -0.1834  0.1330  0.8679
  684MPD2    H310175   4.523   0.914  16.711  2.1821  0.3099  1.3820
  684MPD2     N10176   0.083   1.071  16.436 -0.2739 -0.2485  0.2032
  684MPD2    H510177   0.071   1.160  16.483 -0.7859 -0.2243  0.0279
  684MPD2    N110178   4.642   0.622  16.389  0.1394 -0.5587 -0.0423
  684MPD2    H710179   4.689   0.613  16.300  0.8050  1.5528  0.1009
  685TMC3    C110180   4.635   0.385  16.365 -0.4556  0.2016  0.3039
  685TMC3    C210181   4.572   0.373  16.246  0.2235 -0.3200  0.1700
  685TMC3    C310182   4.578   0.247  16.179 -0.0759 -0.0343  0.6477
  685TMC3    C410183   4.714   0.283  16.420  0.2325  0.1900 -0.9429
  685TMC3    C510184   4.724   0.167  16.350  0.2080 -0.7231  0.1318
  685TMC3    C610185   4.659   0.143  16.231  0.0436  0.2472 -0.0034
  685TMC3     C10186   4.600   0.506  16.449  0.1761 -0.7194  0.0440
  685TMC3     O10187   4.577   0.484  16.567  0.4884  0.0917  0.3963
  685TMC3     H10188   4.496   0.443  16.213  0.6615  0.7847  1.4900
  685TMC3    H110189   0.022   0.283  16.517 -0.1269 -1.9524 -0.7537
  685TMC3    H210190   4.654   0.045  16.185  1.3908 -0.5957  1.6524
  685TMC3    C710191   0.101   0.085  16.386  0.4532 -0.0615 -0.1066
  685TMC3    C810192   4.484   0.206  16.076  0.1249 -0.0488 -0.2737
  685TMC3    O110193   0.128   0.066  16.503  0.0051  0.1189 -0.6438
  685TMC3    O210194   4.475   0.088  16.050  0.5517 -0.3037  0.1127
  686MPD2     C10195   1.566   0.620  15.628 -0.3160 -0.5907  0.9929
  686MPD2    C110196   1.614   0.559  15.741  0.2854 -0.3188  0.1202
  686MPD2    C210197   1.701   0.454  15.721  0.3162  1.0327 -0.3875
  686MPD2    C310198   1.722   0.396  15.592 -0.5706 -0.8143  0.0485
  686MPD2    C410199   1.681   0.470  15.484 -0.7247  0.2352 -0.4802
  686MPD2    C510200   1.600   0.578  15.502  0.7300  0.0063 -0.1075
  686MPD2     H10201   1.756   0.408  15.802  1.4564  1.2847 -1.0081
  686MPD2    H110202   1.695   0.433  15.383  1.1997 -0.6858  0.1252
  686MPD2    H210203   1.499   0.705  15.636 -1.8213 -1.6123 -0.6900
  686MPD2    H310204   1.537   0.624  15.427  0.3570  1.9582  1.4062
  686MPD2     N10205   1.789   0.275  15.570  0.8010  0.6064 -0.4715
  686MPD2    H510206   1.818   0.253  15.475 -1.7031  0.3293 -1.1598
  686MPD2    N110207   1.557   0.598  15.868 -0.3289 -0.3604  0.1121
  686MPD2    H710208   1.477   0.660  15.875  0.1652  0.3395 -0.5054
  687TMC3    C110209   1.756   0.166  15.786  0.2081  0.1962 -0.1616
  687TMC3    C210210   1.620   0.160  15.781 -0.4489  0.2910  0.3986
  687TMC3    C310211   1.566   0.129  15.900  0.1334  0.0957  0.1787
  687TMC3    C410212   1.832   0.137  15.895  0.0926 -1.0630 -0.4927
  687TMC3    C510213   1.776   0.119  16.016 -0.1302 -0.0641  0.6045
  687TMC3    C610214   1.638   0.114  16.020  0.3602 -0.0225  0.4019
  687TMC3     C10215   1.836   0.190  15.668 -0.0238  0.3046 -0.7315
  687TMC3     O10216   1.929   0.107  15.659 -0.4678  0.0477 -0.3767
  687TMC3     H10217   1.564   0.169  15.688  0.8331 -2.8551 -0.6864
  687TMC3    H110218   1.940   0.137  15.883  0.4506  1.8419  2.6674
  687TMC3    H210219   1.587   0.095  16.113  1.7641 -2.3341  0.7152
  687TMC3    C710220   1.826   0.196  16.127 -0.2308 -0.1530  0.0951
  687TMC3    C810221   1.427   0.140  15.915  0.9376 -0.2606 -0.1092
  687TMC3    O110222   1.768   0.180  16.235 -1.1533  0.5953  0.0015
  687TMC3    O210223   1.373   0.070  16.002  0.3877 -1.2214 -0.1061
  688MPD2     C10224   0.819   4.187  17.685 -0.1206 -0.0684 -0.3770
  688MPD2    C110225   0.822   4.054  17.677  0.2484 -0.1088  0.2816
  688MPD2    C210226   0.909   3.998  17.587  0.1420  0.1186  0.0285
  688MPD2    C310227   0.990   4.078  17.506 -0.2481 -0.1235  0.1140
  688MPD2    C410228   0.975   4.215  17.512  0.2758 -0.6807  1.0653
  688MPD2    C510229   0.895   4.276  17.609  0.5583  0.1557  0.2711
  688MPD2     H10230   0.920   3.890  17.585  0.6992  0.1691  0.3427
  688MPD2    H110231   1.037   4.278  17.450  0.2218 -0.9720  0.7132
  688MPD2    H210232   0.757   4.244  17.753 -1.4274  0.7122 -2.2167
  688MPD2    H310233   0.892   4.384  17.615 -0.3023  0.1820 -0.5361
  688MPD2     N10234   1.088   4.029  17.414  0.5586  0.0736 -0.6101
  688MPD2    H510235   1.126   4.114  17.373  0.6123  1.0852  1.5172
  688MPD2    N110236   0.738   3.986   0.013  0.5868  0.5819  0.3655
  688MPD2    H710237   0.696   4.052   0.077 -2.8202  0.8115 -2.1069
  689TMC3    C110238   0.655   3.792   0.137 -0.6935  0.2090 -0.3249
  689TMC3    C210239   0.667   3.858   0.260 -0.2375 -0.0436  0.3415
  689TMC3    C310240   0.599   3.801   0.359  0.7210 -0.1219  0.7599
  689TMC3    C410241   0.610   3.667   0.115 -0.8732 -0.4964  0.6699
  689TMC3    C510242   0.551   3.608   0.224  0.2508 -0.3116  0.6255
  689TMC3    C610243   0.551   3.670   0.346 -0.1724 -0.4448 -0.0890
  689TMC3     C10244   0.724   3.851   0.014  0.1084  0.1664  0.2185
  689TMC3     O10245   0.741   3.778  17.672 -0.1648  0.1200 -0.4659
  689TMC3     H10246   0.687   3.965   0.264  1.1126 -0.2057 -1.9862
  689TMC3    H110247   0.622   3.620   0.018 -0.6715 -1.2465  1.0517
  689TMC3    H210248   0.491   3.627   0.425 -0.3298  0.4061  0.2503
  689TMC3    C710249   0.485   3.475   0.202 -0.0627 -0.1964 -0.0624
  689TMC3    C810250   0.597   3.875   0.485  0.0739  0.1942 -0.0366
  689TMC3    O110251   0.431   3.430   0.305  0.7584 -0.2082  0.1155
  689TMC3    O210252   0.676   3.971   0.491 -0.2456  0.4633 -0.2350
  690MPD2     C10253   2.900   1.605  16.453 -0.0373 -0.1718  0.0346
  690MPD2    C110254   2.834   1.574  16.337  0.4272  0.1939  0.2077
  690MPD2    C210255   2.884   1.623  16.222  0.2709  0.4649 -0.6124
  690MPD2    C310256   3.004   1.695  16.218 -0.2064  0.2455 -0.4853
  690MPD2    C410257   3.075   1.718  16.342  0.1455  0.1691  0.0670
  690MPD2    C510258   3.009   1.689  16.461  0.1535  0.1139  1.0053
  690MPD2     H10259   2.844   1.604  16.123  0.3388 -1.4878 -0.2544
  690MPD2    H110260   3.165   1.779  16.354 -0.5856  1.5155 -1.1814
  690MPD2    H210261   2.860   1.582  16.552  2.3260 -2.0984  0.5363
  690MPD2    H310262   3.054   1.708  16.558 -0.1725  1.9837  0.7865
  690MPD2     N10263   3.058   1.737  16.102  0.4524  0.5201 -0.4549
  690MPD2    H510264   3.024   1.691  16.018 -0.2248  0.5702 -0.2090
  690MPD2    N110265   2.715   1.500  16.333  0.0823  0.0054  0.6114
  690MPD2    H710266   2.652   1.493  16.253 -1.0539  0.0198  1.5162
  691TMC3    C110267   2.576   1.322  16.409  0.0498 -0.1573 -0.3088
  691TMC3    C210268   2.497   1.356  16.300  0.2725 -0.9863 -0.1792
  691TMC3    C310269   2.439   1.252  16.225 -0.3831 -0.3595 -0.2733
  691TMC3    C410270   2.595   1.191  16.452  0.6008  0.1497 -0.1005
  691TMC3    C510271   2.551   1.100  16.364  0.2233 -0.7300 -0.1393
  691TMC3    C610272   2.474   1.124  16.256 -0.7644  0.5490 -0.3266
  691TMC3     C10273   2.690   1.412  16.432 -0.2799 -0.8390 -0.3393
  691TMC3     O10274   2.757   1.371  16.525 -0.3914  0.7128 -0.0064
  691TMC3     H10275   2.470   1.461  16.301  0.2384 -1.0088  1.0448
  691TMC3    H110276   2.658   1.159  16.535  1.4116  1.8245 -0.0590
  691TMC3    H210277   2.431   1.050  16.191  1.5337 -0.3293 -0.8401
  691TMC3    C710278   2.607   0.967  16.388  0.0953 -0.2220 -0.3791
  691TMC3    C810279   2.329   1.275  16.139  0.1400  0.2220  0.1743
  691TMC3    O110280   2.611   0.941  16.503 -0.1535  0.8031 -0.0500
  691TMC3    O210281   2.287   1.186  16.071  0.5042 -0.4367  0.6552
  692TMC3    C110282   4.518   2.341  15.994  0.3147 -0.3267  1.0583
  692TMC3    C210283   4.646   2.374  16.002 -0.3451 -0.8968  0.5021
  692TMC3    C310284   4.738   2.278  15.983 -0.1004 -0.2695 -0.4030
  692TMC3    C410285   4.477   2.216  15.967  0.3917 -0.0301 -0.2289
  692TMC3    C510286   4.578   2.120  15.947 -0.4436 -0.3222 -0.4705
  692TMC3    C610287   4.709   2.151  15.941 -0.5659  0.6146  0.3244
  692TMC3     C10288   4.435   2.435  16.053  0.1500 -0.2729 -0.1702
  692TMC3     O10289   4.493   2.513  16.128  0.3099 -0.4672 -0.5680
  692TMC3     H10290   4.678   2.478  16.001  0.9754 -1.3113 -2.3029
  692TMC3    H110291   4.373   2.185  15.964  0.6349 -0.8981  0.3884
  692TMC3    H210292   0.046   2.074  15.949  0.5819  1.5460 -1.8734
  692TMC3    C710293   4.538   1.984  15.957  0.4392 -0.7498  0.6065
  692TMC3    C810294   0.107   2.290  16.072  0.0927  0.6319  0.5572
  692TMC3    O110295   4.447   1.967  15.877 -0.4063  0.1698 -0.1315
  692TMC3    O210296   0.217   2.260  16.028 -0.2526 -0.4933 -0.0696
  693MPD2     C10297   4.014   0.801  11.108 -0.9203 -0.2342  0.5621
  693MPD2    C110298   3.922   0.764  11.200  0.5825 -0.5935  0.1245
  693MPD2    C210299   3.966   0.704  11.320  0.9940  0.3768 -0.1617
  693MPD2    C310300   4.102   0.687  11.343  0.2956  0.0023 -0.6265
  693MPD2    C410301   4.195   0.735  11.250 -0.1778 -0.5016 -0.1995
  693MPD2    C510302   4.145   0.789  11.137 -0.7244  0.4610 -0.7170
  693MPD2     H10303   3.884   0.674  11.384  1.1853  0.0176 -0.0825
  693MPD2    H110304   4.303   0.734  11.262 -0.0300  2.5560 -1.3404
  693MPD2    H210305   3.988   0.830  11.007  0.4842 -1.9840 -0.3147
  693MPD2    H310306   4.222   0.828  11.072  1.0765 -2.2642 -0.2212
  693MPD2     N10307   4.153   0.630  11.458  0.0765  0.0776  0.6148
  693MPD2    H510308   4.251   0.604  11.449 -0.4983 -1.9957  0.4738
  693MPD2    N110309   3.785   0.770  11.167 -0.0023  0.2914 -0.8926
  693MPD2    H710310   3.717   0.725  11.228  0.9984 -2.4488 -1.7798
  694TMC3    C110311   3.587   0.817  11.067  0.1257  0.1240  0.0908
  694TMC3    C210312   3.514   0.762  10.962 -0.0839  0.6150  0.0719
  694TMC3    C310313   3.378   0.759  10.973 -0.4746 -0.2685 -0.3308
  694TMC3    C410314   3.535   0.848  11.188 -0.2588  0.4774 -0.1793
  694TMC3    C510315   3.397   0.839  11.201  0.6995  0.2881  0.2574
  694TMC3    C610316   3.320   0.784  11.095 -0.0757  0.0808 -0.1260
  694TMC3     C10317   3.727   0.825  11.058  0.4053 -0.4505 -0.2407
  694TMC3     O10318   3.782   0.896  10.974 -0.3087 -0.1571 -0.2309
  694TMC3     H10319   3.566   0.740  10.870 -1.5075 -0.3103 -0.5102
  694TMC3    H110320   3.596   0.880  11.272 -1.5767 -0.5047  1.1523
  694TMC3    H210321   3.215   0.758  11.102 -0.0948 -0.2658 -1.8687
  694TMC3    C710322   3.341   0.801  11.328 -0.9625 -0.5702 -0.4181
  694TMC3    C810323   3.308   0.676  10.878 -0.1593 -0.1427 -0.2260
  694TMC3    O110324   3.254   0.870  11.366 -0.3461  0.1355 -0.2401
  694TMC3    O210325   3.370   0.589  10.821  0.4923  0.4955  0.1977
  695MPD2     C10326   0.111   1.883  13.811  0.2998  0.0958 -0.1573
  695MPD2    C110327   0.088   1.981  13.911 -0.8173  0.7748 -0.1112
  695MPD2    C210328   4.701   2.047  13.907 -0.4714  0.1730  0.0078
  695MPD2    C310329   4.603   2.007  13.815 -0.3067  0.2648  0.8138
  695MPD2    C410330   4.626   1.914  13.721  0.1442 -0.3349  0.1726
  695MPD2    C510331   0.013   1.854  13.718  0.0899  0.0928  0.2074
  695MPD2     H10332   4.680   2.115  13.989 -1.2017  1.0256 -0.8855
  695MPD2    H110333   4.550   1.888  13.648 -2.3646  2.2635  1.8669
  695MPD2    H210334   0.205   1.830  13.806 -0.8787 -1.7573 -2.3903
  695MPD2    H310335   0.030   1.782  13.639  1.1665  1.5583 -0.9002
  695MPD2     N10336   4.487   2.081  13.820  0.5601 -0.6705 -0.0198
  695MPD2    H510337   4.494   2.163  13.879  0.1649  0.3328 -1.3809
  695MPD2    N110338   0.188   2.026  14.002 -0.1120  0.2452  0.0203
  695MPD2    H710339   0.158   2.105  14.058  0.8036  1.6020 -1.3964
  696TMC3    C110340   4.265   2.139  13.783  0.0078  0.2080 -0.7088
  696TMC3    C210341   4.265   2.173  13.911 -0.2667  0.2439  0.0355
  696TMC3    C310342   4.174   2.268  13.947  0.9124  0.5463 -0.0206
  696TMC3    C410343   4.204   2.205  13.675 -0.7281 -0.0274 -0.6739
  696TMC3    C510344   4.119   2.304  13.718  0.6601 -0.6024  0.5517
  696TMC3    C610345   4.090   2.326  13.853 -0.0447  0.3100 -0.0857
  696TMC3     C10346   4.378   2.060  13.742  0.1286  0.6483  0.5532
  696TMC3     O10347   4.359   1.996  13.638 -0.1741 -0.0898  0.4958
  696TMC3     H10348   4.325   2.122  13.985 -0.5418  0.1255  0.1795
  696TMC3    H110349   4.230   2.170  13.576  1.8417 -0.1694  0.0493
  696TMC3    H210350   4.023   2.407  13.879  0.3185 -0.0947  2.1339
  696TMC3    C710351   4.133   2.433  13.646 -0.0989 -0.5751 -0.0977
  696TMC3    C810352   4.202   2.364  14.053  0.7729 -0.5948  0.2816
  696TMC3    O110353   4.156   2.420  13.528 -0.3847 -0.5741  0.1119
  696TMC3    O210354   4.181   2.477  14.022  0.5242 -0.5750 -0.7887
  697MPD2     C10355   4.218   3.958  15.630 -0.0022  0.1266 -0.3391
  697MPD2    C110356   4.108   3.930  15.550  0.3452  0.4763  0.6768
  697MPD2    C210357   4.071   4.030  15.463  0.5182 -0.0430 -0.1528
  697MPD2    C310358   4.130   4.154  15.458  0.3709  0.3623  0.2566
  697MPD2    C410359   4.229   4.180  15.552  0.5602  0.3963  0.8194
  697MPD2    C510360   4.270   4.083  15.636 -0.1037 -0.6624  0.1665
  697MPD2     H10361   3.990   4.001  15.397 -1.5796  1.9275  1.5503
  697MPD2    H110362   4.278   4.275  15.569 -0.0601  1.1953 -1.9457
  697MPD2    H210363   4.243   3.889  15.710  0.0981  3.0806  2.2063
  697MPD2    H310364   4.339   4.104  15.717  0.5268  1.5116 -0.9303
  697MPD2     N10365   4.083   4.252  15.372  0.6932 -0.4919 -0.3452
  697MPD2    H510366   4.012   4.233  15.301 -0.0644  1.6128 -0.1760
  697MPD2    N110367   4.042   3.807  15.545  0.1837 -0.1641  0.2317
  697MPD2    H710368   3.968   3.803  15.476  0.3108  1.9391 -0.0267
  698TMC3    C110369   4.087   4.454  15.242 -0.3933  0.1913 -0.2886
  698TMC3    C210370   4.102   4.587  15.253  0.1820  0.1205 -0.6021
  698TMC3    C310371   4.067   4.661  15.142 -0.1932 -0.1324  0.1186
  698TMC3    C410372   4.035   4.399  15.126  0.0351 -0.5169 -0.3026
  698TMC3    C510373   3.988   4.485  15.030  0.3273 -0.1775 -0.5172
  698TMC3    C610374   4.001   4.616  15.031 -0.0541  0.0226  0.5131
  698TMC3     C10375   4.140   4.378  15.349  0.2536 -0.3632  0.0498
  698TMC3     O10376   4.229   4.430  15.409  0.3118  0.2773 -0.0449
  698TMC3     H10377   4.144   4.636  15.341 -2.7584  0.0506  0.8251
  698TMC3    H110378   4.036   4.290  15.123 -2.1376 -0.5310 -0.7577
  698TMC3    H210379   3.962   4.677  14.950  2.5183 -0.7829 -1.3562
  698TMC3    C710380   3.947   4.431  14.905  0.1520 -0.3023  0.4948
  698TMC3    C810381   4.089   0.064  15.152  0.7909  0.3451 -0.5650
  698TMC3    O110382   3.964   4.498  14.800 -0.5694 -0.0216  0.5821
  698TMC3    O210383   4.005   0.140  15.098  0.0491 -0.1917  0.3976
  699TMC3    C110384   4.092   2.043  13.376  0.7100  0.4949 -0.0071
  699TMC3    C210385   4.153   1.927  13.405 -0.7720 -0.4033 -0.1338
  699TMC3    C310386   4.112   1.859  13.519  0.0354 -0.3328  0.6343
  699TMC3    C410387   3.979   2.085  13.453  0.2247  0.6895 -0.3205
  699TMC3    C510388   3.958   2.023  13.568 -0.0340  0.3515 -1.0791
  699TMC3    C610389   4.023   1.908  13.608 -0.3428 -0.4802 -0.5573
  699TMC3     C10390   4.114   2.116  13.248  0.2017  0.0382 -0.0119
  699TMC3     O10391   4.019   2.170  13.190  0.1223 -0.0474 -0.1439
  699TMC3     H10392   4.215   1.888  13.324  1.0469  3.6491 -0.6693
  699TMC3    H110393   3.926   2.176  13.428 -0.6667  0.9789  2.6969
  699TMC3    H210394   3.988   1.860  13.700 -0.6543 -1.2112 -1.0528
  699TMC3    C710395   3.867   2.075  13.671 -0.5629 -0.8159 -0.0640
  699TMC3    C810396   4.173   1.739  13.567 -0.6497 -0.4680 -0.5138
  699TMC3    O110397   3.890   2.041  13.786 -0.2218 -0.6375 -0.0504
  699TMC3    O210398   4.167   1.713  13.686  0.1388  0.5303  0.0456
  700TMC3    C110399   3.688   4.186  17.292 -0.5282  0.0985 -0.0771
  700TMC3    C210400   3.780   4.098  17.242 -0.3193 -0.0492  0.2833
  700TMC3    C310401   3.902   4.082  17.304 -0.0558  0.1697  0.1426
  700TMC3    C410402   3.723   4.261  17.401  0.2797 -0.1390  0.5109
  700TMC3    C510403   3.846   4.243  17.462 -0.5625 -0.0484  0.4524
  700TMC3    C610404   3.939   4.158  17.413  0.4604  0.1629  0.1810
  700TMC3     C10405   3.644   4.265  17.179 -0.4620 -0.6091  0.1417
  700TMC3     O10406   3.601   4.208  17.081  0.1747 -0.4286  0.0397
  700TMC3     H10407   3.747   4.044  17.155 -0.6923  0.8583 -0.1448
  700TMC3    H110408   3.648   4.325  17.446 -0.5787  1.4055 -3.0403
  700TMC3    H210409   4.026   4.135  17.473  0.6348  2.0258  0.6403
  700TMC3    C710410   3.902   4.365  17.513 -0.3801 -0.6024 -0.0502
  700TMC3    C810411   3.997   3.997  17.237 -0.0241  0.0946  0.0381
  700TMC3    O110412   4.025   4.366  17.522 -0.5031  0.0292 -0.0866
  700TMC3    O210413   3.997   4.002  17.115 -0.3589  0.2430 -0.1487
  701TMC3    C110414   3.603   3.243  16.076 -0.3177  0.1518 -0.1407
  701TMC3    C210415   3.539   3.158  15.999 -1.0519 -0.3467  0.9145
  701TMC3    C310416   3.511   3.195  15.870 -0.4531 -0.1292 -0.3704
  701TMC3    C410417   3.635   3.366  16.033 -0.1159  0.6285 -0.9455
  701TMC3    C510418   3.620   3.399  15.902  0.3575 -0.7720  0.0553
  701TMC3    C610419   3.564   3.309  15.814 -1.0355  0.4806  0.3333
  701TMC3     C10420   3.604   3.216  16.215 -0.7950 -0.5044 -0.0630
  701TMC3     O10421   3.535   3.127  16.256 -0.2230  0.4896  0.0724
  701TMC3     H10422   3.517   3.057  16.033  1.7076 -0.8605  1.1765
  701TMC3    H110423   3.675   3.440  16.101  0.1345 -1.1575  0.8416
  701TMC3    H210424   3.549   3.341  15.711 -0.4508 -0.8532 -0.1643
  701TMC3    C710425   3.645   3.526  15.844 -0.2148 -0.5847 -0.5680
  701TMC3    C810426   3.477   3.078  15.781 -0.3321  0.2738 -0.8337
  701TMC3    O110427   3.573   3.562  15.749  0.4008  0.2180 -0.2363
  701TMC3    O210428   3.444   2.974  15.842  0.4669  0.0318 -0.1957
  702MPD2     C10429   2.567   0.876  10.665 -0.2165 -0.9733 -0.0255
  702MPD2    C110430   2.629   0.886  10.789  0.2055  0.3393 -0.0454
  702MPD2    C210431   2.680   1.008  10.829 -0.5492 -0.1262 -0.0194
  702MPD2    C310432   2.661   1.122  10.753 -0.4832 -0.6075 -0.1362
  702MPD2    C410433   2.589   1.116  10.635  0.7698 -0.1874 -0.2160
  702MPD2    C510434   2.554   0.990  10.590  0.1595 -0.2380 -0.3387
  702MPD2     H10435   2.735   1.011  10.922  1.9733  3.0357 -1.6105
  702MPD2    H110436   2.589   1.193  10.557 -1.1077 -0.8683 -0.9013
  702MPD2    H210437   2.536   0.780  10.624  0.6875  0.0617 -3.1340
  702MPD2    H310438   2.508   0.985  10.492  1.9175 -1.6960 -1.0938
  702MPD2     N10439   2.717   1.244  10.789  0.2012  0.4104 -0.0600
  702MPD2    H510440   2.684   1.327  10.740 -0.2186  0.0980 -0.3098
  702MPD2    N110441   2.640   0.792  10.895  0.0332 -0.2777 -0.5150
  702MPD2    H710442   2.677   0.830  10.982  1.3106  0.5975 -1.4438
  703TMC3    C110443   2.835   1.407  10.900 -0.2374 -0.3307  0.9739
  703TMC3    C210444   2.719   1.480  10.925  0.6513 -0.1885  0.3268
  703TMC3    C310445   2.743   1.617  10.943 -0.5199 -0.5056  0.9737
  703TMC3    C410446   2.965   1.447  10.896 -0.7373  0.5143 -0.4892
  703TMC3    C510447   2.981   1.583  10.914 -0.9433 -0.3535 -0.5051
  703TMC3    C610448   2.869   1.665  10.936  0.1281 -1.0475 -0.7221
  703TMC3     C10449   2.818   1.259  10.876 -0.0175  0.8367  0.2315
  703TMC3     O10450   2.887   1.180  10.937  0.8369  0.3933 -0.1170
  703TMC3     H10451   2.620   1.436  10.922  1.0025 -1.0376  1.4005
  703TMC3    H110452   3.046   1.374  10.888 -1.1161  0.0188  0.1646
  703TMC3    H210453   2.889   1.770  10.957  0.0800 -1.2602  0.3517
  703TMC3    C710454   3.111   1.644  10.909 -0.4072  0.4883 -0.1626
  703TMC3    C810455   2.633   1.715  10.962 -0.0975 -0.7404  0.1238
  703TMC3    O110456   3.123   1.764  10.909  0.2177  0.0600 -0.2033
  703TMC3    O210457   2.674   1.831  10.978 -0.2189 -0.5447  0.5316
  704TMC3    C110458   0.291   4.703  12.684 -0.2653 -0.0208 -1.0012
  704TMC3    C210459   0.326   4.687  12.551 -0.0334  0.4267 -0.5794
  704TMC3    C310460   0.451   4.644  12.529  0.0525 -0.2600  0.2404
  704TMC3    C410461   0.375   4.675  12.787  0.4098  0.3048  0.5330
  704TMC3    C510462   0.499   4.625  12.755 -0.1900  0.4606  0.9732
  704TMC3    C610463   0.543   4.614  12.627 -1.0681  0.4077  0.6005
  704TMC3     C10464   0.149   4.702  12.725 -0.6184  0.1487  0.0688
  704TMC3     O10465   0.125   4.695  12.844 -0.2801 -0.1964  0.0201
  704TMC3     H10466   0.252   4.693  12.472 -2.8275  0.5743  2.0434
  704TMC3    H110467   0.345   4.661  12.890  1.4508 -1.9730  0.5297
  704TMC3    H210468   0.629   4.549  12.615 -1.0767  0.5266 -0.0827
  704TMC3    C710469   0.563   4.532  12.848  0.7071  0.0352  0.7426
  704TMC3    C810470   0.452   4.552  12.407  0.6088  0.0191  0.0403
  704TMC3    O110471   0.491   4.439  12.874 -0.5142 -0.3626 -0.3933
  704TMC3    O210472   0.361   4.553  12.326 -0.1909 -0.0101  0.1825
  705MPD2     C10473   0.640   1.887  16.858  0.3269  0.1041  0.9901
  705MPD2    C110474   0.566   1.885  16.743 -0.2814 -0.7457  0.0776
  705MPD2    C210475   0.432   1.848  16.745  0.5847  0.6286 -0.4238
  705MPD2    C310476   0.373   1.834  16.870  0.7800 -0.5963 -0.0668
  705MPD2    C410477   0.443   1.851  16.985 -0.1632  0.5655 -0.4424
  705MPD2    C510478   0.569   1.890  16.974 -0.0046  0.0535  0.2005
  705MPD2     H10479   0.380   1.841  16.650 -1.3195 -0.9873  0.7478
  705MPD2    H110480   0.397   1.849  17.083  0.6913 -1.4554 -0.0848
  705MPD2    H210481   0.744   1.917  16.866  0.3663  0.1875  0.1002
  705MPD2    H310482   0.630   1.890  17.063 -0.3725  1.0465  0.4507
  705MPD2     N10483   0.233   1.824  16.885 -0.3203 -0.6087  0.0272
  705MPD2    H510484   0.196   1.833  16.979 -2.1712  0.9075 -0.8413
  705MPD2    N110485   0.620   1.927  16.613 -0.2516  0.4513  0.1760
  705MPD2    H710486   0.559   1.931  16.532  0.3015 -0.8149 -0.3114
  706TMC3    C110487   0.896   1.944  16.257 -0.0288 -0.4774  0.5872
  706TMC3    C210488   0.825   2.044  16.200  0.0275  0.5873  0.4612
  706TMC3    C310489   0.739   2.116  16.271  0.7362 -0.0835 -0.5441
  706TMC3    C410490   0.873   1.907  16.384 -0.4623  0.3836 -0.2142
  706TMC3    C510491   0.775   1.986  16.445  0.0601  0.1803  0.3942
  706TMC3    C610492   0.717   2.101  16.403 -0.2670 -0.4211 -0.3741
  706TMC3     C10493   0.980   1.853  16.177 -0.8076  0.0214 -0.1909
  706TMC3     O10494   1.086   1.821  16.227  0.0683  0.7149 -0.4094
  706TMC3     H10495   0.853   2.072  16.099 -0.7328 -0.5099 -0.0574
  706TMC3    H110496   0.948   1.851  16.439 -2.0024 -1.1873  0.2914
  706TMC3    H210497   0.627   2.136  16.452  0.0605  2.3759 -1.8088
  706TMC3    C710498   0.754   1.947  16.583 -0.0854  0.5373  0.0106
  706TMC3    C810499   0.668   2.225  16.213 -0.5170  1.0132  0.3771
  706TMC3    O110500   0.851   1.924  16.656 -0.3779 -1.1799  0.4910
  706TMC3    O210501   0.624   2.228  16.099  0.1015  0.7006  0.1386
  707TMC3    C110502   2.577   0.913   0.562  0.5571  0.5569  0.1630
  707TMC3    C210503   2.597   0.888   0.695 -0.1165 -0.4294 -0.4354
  707TMC3    C310504   2.607   0.991   0.785  0.5708 -0.3098 -0.6643
  707TMC3    C410505   2.592   1.040   0.514 -0.2172  0.8773  1.1143
  707TMC3    C510506   2.608   1.145   0.603 -0.6614 -0.7434 -0.3351
  707TMC3    C610507   2.620   1.123   0.738 -0.0620 -0.5970  0.0322
  707TMC3     C10508   2.565   0.802   0.469  0.5977  0.1645 -0.3259
  707TMC3     O10509   2.579   0.695   0.524 -0.3291 -0.3230  0.6015
  707TMC3     H10510   2.565   0.791   0.731  0.8503 -1.0746 -1.3362
  707TMC3    H110511   2.600   1.055   0.407  1.8793  0.7337  1.2468
  707TMC3    H210512   2.608   1.199   0.815 -0.0196  0.7609 -1.2836
  707TMC3    C710513   2.642   1.276   0.562  0.3814 -0.7147  0.1258
  707TMC3    C810514   2.580   0.979   0.923 -0.2058 -0.5735  0.0889
  707TMC3    O110515   2.594   1.315   0.457 -0.3310 -0.3719  0.2534
  707TMC3    O210516   2.578   1.081   0.985 -0.5123 -0.2722  0.0562
  708MPD2     C10517   3.630   0.302  14.211 -0.2221 -0.5871  0.1844
  708MPD2    C110518   3.628   0.432  14.250 -0.5733 -0.1208  0.6413
  708MPD2    C210519   3.717   0.470  14.350  0.4478  0.1468 -0.5945
  708MPD2    C310520   3.803   0.381  14.411 -0.5353 -0.2098  0.2665
  708MPD2    C410521   3.802   0.251  14.363 -0.0474  0.4688  0.7551
  708MPD2    C510522   3.710   0.209  14.268 -0.3929  0.2945  0.7817
  708MPD2     H10523   3.716   0.572  14.389  1.9494 -0.0694  0.0067
  708MPD2    H110524   3.880   0.183  14.393 -1.9953 -2.9945 -2.0722
  708MPD2    H210525   3.562   0.264  14.135  0.2302 -1.1408  0.0566
  708MPD2    H310526   3.712   0.111  14.222 -2.4819  0.3237  0.5890
  708MPD2     N10527   3.904   0.409  14.504 -0.0446  0.3028  0.0333
  708MPD2    H510528   3.969   0.334  14.530  0.8631  0.9906 -0.2454
  708MPD2    N110529   3.533   0.517  14.190  0.5724 -0.2174 -0.1210
  708MPD2    H710530   3.483   0.485  14.107  2.5220  3.6159 -2.7712
  709TMC3    C110531   3.397   0.712  14.155 -0.3797  0.0482  0.1712
  709TMC3    C210532   3.345   0.638  14.046 -0.1865  0.0165 -0.0113
  709TMC3    C310533   3.214   0.663  14.003  0.0570 -0.3252  0.1152
  709TMC3    C410534   3.306   0.784  14.234  0.1311  0.5706  0.7313
  709TMC3    C510535   3.176   0.783  14.198 -0.2199  0.1106 -0.3271
  709TMC3    C610536   3.130   0.727  14.085  1.0373  0.0665 -0.8685
  709TMC3     C10537   3.503   0.649  14.238  0.6521 -0.3902  0.0477
  709TMC3     O10538   3.531   0.711  14.338 -0.6336 -0.5981  0.1690
  709TMC3     H10539   3.419   0.579  13.993 -1.0755 -2.2396  1.2431
  709TMC3    H110540   3.348   0.815  14.329  2.5011  1.8591 -0.7315
  709TMC3    H210541   3.028   0.756  14.061  0.2590 -2.2829 -0.3751
  709TMC3    C710542   3.109   0.738  14.316 -0.2517  0.6076 -0.1723
  709TMC3    C810543   3.165   0.551  13.925 -0.1579 -0.9192 -0.3746
  709TMC3    O110544   3.130   0.806  14.415  0.4012  0.3576  0.7092
  709TMC3    O210545   3.226   0.445  13.936 -0.6566 -0.2852  0.3883
  710TMC3    C110546   0.109   1.242   0.239  0.8924  1.1821  0.7161
  710TMC3    C210547   0.211   1.316   0.297  1.1660 -0.0564  0.3918
  710TMC3    C310548   0.327   1.244   0.321 -0.4126  0.9805  0.2533
  710TMC3    C410549   0.122   1.116   0.206  0.0262 -0.4032 -0.2310
  710TMC3    C510550   0.238   1.051   0.233 -0.6429 -0.5058 -0.2200
  710TMC3    C610551   0.349   1.117   0.282  0.3759 -0.5447  0.4859
  710TMC3     C10552   4.717   1.296   0.256  0.2399  0.3245 -0.2879
  710TMC3     O10553   4.638   1.293   0.162  0.6139  0.4262 -0.9430
  710TMC3     H10554   0.202   1.420   0.326 -2.2068 -0.3132  0.2434
  710TMC3    H110555   0.038   1.062   0.164  1.6027 -1.1516 -2.4142
  710TMC3    H210556   0.439   1.058   0.294 -0.3939 -1.8278 -0.1080
  710TMC3    C710557   0.237   0.912   0.281 -1.1133 -0.6226  0.0170
  710TMC3    C810558   0.450   1.332   0.306  0.0933  0.8144  0.2927
  710TMC3    O110559   0.311   0.892   0.383 -1.0157 -0.5828 -0.8838
  710TMC3    O210560   0.433   1.440   0.253  0.1982 -0.5141 -0.2511
  711TMC3    C110561   4.156   2.550  14.823  0.1634 -0.4792 -0.1900
  711TMC3    C210562   4.170   2.590  14.954 -0.0355  0.1895  0.2677
  711TMC3    C310563   4.293   2.606  15.002 -0.4175 -0.2133  0.3857
  711TMC3    C410564   4.256   2.540  14.740 -0.3136 -0.4996 -0.3787
  711TMC3    C510565   4.386   2.567  14.783  0.2700 -0.4377 -0.5645
  711TMC3    C610566   4.396   2.614  14.917 -0.1302  0.3996  0.0014
  711TMC3     C10567   4.058   2.441  14.825  0.9078 -0.3709 -0.0704
  711TMC3     O10568   3.950   2.462  14.777 -0.9939  0.4614 -0.4160
  711TMC3     H10569   4.089   2.572  15.024  1.1075 -2.2807  0.9435
  711TMC3    H110570   4.235   2.506  14.639  0.6067  2.2199 -1.4819
  711TMC3    H210571   4.495   2.595  14.958 -0.0995 -1.3349 -0.8794
  711TMC3    C710572   4.482   2.461  14.744 -0.1309 -0.0720  0.8030
  711TMC3    C810573   4.313   2.540  15.134 -1.2848  0.0043 -0.0412
  711TMC3    O110574   4.595   2.479  14.783 -0.1536  0.6843  0.5882
  711TMC3    O210575   4.245   2.443  15.166 -0.8179  0.1675 -0.3020
  712MPD2     C10576   0.587   3.995  14.321 -0.0252 -0.0842  0.2347
  712MPD2    C110577   0.531   4.029  14.202 -0.7640 -0.2290  0.1722
  712MPD2    C210578   0.545   4.155  14.161  0.6623  0.0004 -0.4785
  712MPD2    C310579   0.621   4.243  14.234 -0.2535  0.1945 -0.1400
  712MPD2    C410580   0.702   4.193  14.333  0.3386 -0.7552  0.0077
  712MPD2    C510581   0.692   4.061  14.368 -0.8968  0.1310 -0.5267
  712MPD2     H10582   0.499   4.193  14.070  0.5196  0.9460 -0.0136
  712MPD2    H110583   0.781   4.251  14.379  0.9433 -2.6150  1.3285
  712MPD2    H210584   0.573   3.893  14.356  0.2238 -0.0725  0.3664
  712MPD2    H310585   0.770   4.015  14.427 -2.5492  0.2635  1.7600
  712MPD2     N10586   0.647   4.372  14.197 -0.3579  0.2853  0.4315
  712MPD2    H510587   0.731   4.416  14.233 -0.9356  2.1533 -0.5015
  712MPD2    N110588   0.464   3.931  14.123 -0.0005  0.1679  0.1840
  712MPD2    H710589   0.442   3.953  14.026  3.0922  0.3454 -0.4861
  713TMC3    C110590   0.631   4.572  14.077 -0.2714 -0.5123  0.2499
  713TMC3    C210591   0.768   4.569  14.073  0.3610  0.5042 -0.3648
  713TMC3    C310592   0.834   4.684  14.057  0.1360 -0.8450  0.2779
  713TMC3    C410593   0.559   4.684  14.091 -0.3303 -0.2642 -0.7454
  713TMC3    C510594   0.632   0.058  14.077 -0.0025 -0.3864 -0.7308
  713TMC3    C610595   0.770   0.060  14.054 -0.4496  0.0254  0.0062
  713TMC3     C10596   0.562   4.449  14.117 -0.4496  0.3116  0.2510
  713TMC3     O10597   0.444   4.437  14.092 -0.5190  0.2220  0.2202
  713TMC3     H10598   0.820   4.476  14.053 -3.1546 -1.9085  1.7327
  713TMC3    H110599   0.451   4.684  14.097 -0.3160  1.1039 -0.6457
  713TMC3    H210600   0.835   0.146  14.049 -0.4683  0.1335  1.4991
  713TMC3    C710601   0.562   0.178  14.068 -0.9433 -0.4284 -0.1994
  713TMC3    C810602   0.968   4.686  14.012 -0.7741 -0.8059  0.0104
  713TMC3    O110603   0.630   0.274  14.099  0.5970 -0.0591  0.1392
  713TMC3    O210604   0.994   0.032  13.929 -0.3025  0.1168 -0.4056
  714MPD2     C10605   3.751   2.025   0.917 -0.7837 -0.0888  0.1952
  714MPD2    C110606   3.728   2.028   1.053  0.2644  0.0603 -0.2190
  714MPD2    C210607   3.646   2.133   1.095 -0.2299  0.0989  0.2117
  714MPD2    C310608   3.591   2.226   1.006  0.0318 -0.1049 -0.1270
  714MPD2    C410609   3.619   2.216   0.868 -0.3395 -0.5179  0.0425
  714MPD2    C510610   3.701   2.120   0.827 -0.5042 -0.3282 -0.3095
  714MPD2     H10611   3.613   2.125   1.198 -0.2326  0.4393  0.2364
  714MPD2    H110612   3.570   2.285   0.801 -2.0074 -1.2911  0.4599
  714MPD2    H210613   3.808   1.944   0.873 -0.0573  0.3593  0.3155
  714MPD2    H310614   3.730   2.117   0.723  0.3496 -0.9531 -0.0508
  714MPD2     N10615   3.504   2.316   1.069 -0.3713 -0.0635 -0.6342
  714MPD2    H510616   3.497   2.306   1.170  3.8400  4.2943  0.0566
  714MPD2    N110617   3.784   1.923   1.128 -0.4577  0.2406 -0.1451
  714MPD2    H710618   3.839   1.855   1.079  0.7689  2.2580 -1.5663
  715TMC3    C110619   3.816   1.789   1.328  0.0371  0.4001  0.5300
  715TMC3    C210620   3.827   1.672   1.254 -0.0330 -0.1888  1.0793
  715TMC3    C310621   3.906   1.575   1.317 -0.9985  0.1459  0.6115
  715TMC3    C410622   3.858   1.797   1.460 -0.0288  0.2654 -0.3004
  715TMC3    C510623   3.943   1.698   1.507 -0.5798  0.0872  0.5091
  715TMC3    C610624   3.984   1.596   1.428 -0.1750  0.0908 -0.1414
  715TMC3     C10625   3.783   1.917   1.265  0.2566 -0.6716 -0.0713
  715TMC3     O10626   3.752   2.013   1.337  0.2545  0.1664 -0.4346
  715TMC3     H10627   3.781   1.663   1.156  0.0968 -0.5029  1.0487
  715TMC3    H110628   3.842   1.889   1.516 -0.9662  1.4744 -2.5899
  715TMC3    H210629   4.037   1.513   1.472 -1.2739 -0.5515 -0.0456
  715TMC3    C710630   4.001   1.703   1.644  0.3593 -0.5327  0.1693
  715TMC3    C810631   3.949   1.465   1.231 -0.3567  0.2074  0.0397
  715TMC3    O110632   4.096   1.627   1.664 -0.6679 -0.6977 -0.4125
  715TMC3    O210633   3.873   1.435   1.139 -0.4484 -0.2520 -0.1533
  716MPD2     C10634   2.336   1.661   9.671 -0.3732  0.2729  0.0156
  716MPD2    C110635   2.202   1.694   9.653 -0.0785 -0.2740 -0.3775
  716MPD2    C210636   2.125   1.619   9.573 -0.2827  0.4481 -0.2690
  716MPD2    C310637   2.174   1.505   9.520  0.0226 -0.2752  0.3327
  716MPD2    C410638   2.310   1.470   9.531 -0.1429  0.2743 -0.0791
  716MPD2    C510639   2.388   1.549   9.616  0.3479  0.2607  0.2103
  716MPD2     H10640   2.023   1.653   9.554  0.5335  1.8677 -2.1835
  716MPD2    H110641   2.364   1.391   9.480 -0.1382  0.4104 -0.2827
  716MPD2    H210642   2.398   1.724   9.733  0.7173  1.1561 -2.0089
  716MPD2    H310643   2.493   1.530   9.631  0.2188 -0.4552  0.2354
  716MPD2     N10644   2.081   1.424   9.448  0.4477 -0.2455 -0.1979
  716MPD2    H510645   1.990   1.467   9.438 -0.2434 -1.5741  0.3764
  716MPD2    N110646   2.152   1.804   9.728 -1.1011  0.7047  0.2922
  716MPD2    H710647   2.226   1.860   9.770  0.2493  0.7900 -2.1842
  717TMC3    C110648   1.987   1.245   9.322  0.3894  0.1617  0.3183
  717TMC3    C210649   1.864   1.284   9.352 -0.4419  0.0312  0.0724
  717TMC3    C310650   1.760   1.222   9.290  0.5066  0.5932  0.3824
  717TMC3    C410651   2.006   1.149   9.223  0.1568 -0.6088 -0.1281
  717TMC3    C510652   1.902   1.090   9.161 -0.4623  0.0165  0.4672
  717TMC3    C610653   1.777   1.134   9.191  0.7364  0.0805 -0.5119
  717TMC3     C10654   2.106   1.303   9.379  0.5744  0.0584 -0.2233
  717TMC3     O10655   2.205   1.235   9.380 -0.0879  0.0225 -0.7276
  717TMC3     H10656   1.844   1.348   9.438 -0.4640 -0.5829  0.5259
  717TMC3    H110657   2.109   1.138   9.191  0.2132 -0.0158 -0.1630
  717TMC3    H210658   1.690   1.074   9.164 -0.6668  0.8874  2.2402
  717TMC3    C710659   1.915   0.968   9.077 -0.3690  0.4801  0.3987
  717TMC3    C810660   1.624   1.246   9.355 -0.1572 -0.1778  0.4629
  717TMC3    O110661   1.826   0.938   9.002 -0.0423  0.4410 -0.0213
  717TMC3    O210662   1.601   1.358   9.398 -0.0386  0.0881  0.4751
  718MPD2     C10663   1.561   4.652  12.416 -0.6321 -0.1376 -0.1505
  718MPD2    C110664   1.663   4.560  12.431  0.1877  0.5529  0.6319
  718MPD2    C210665   1.637   4.452  12.512  0.3482 -0.3216  0.2570
  718MPD2    C310666   1.518   4.432  12.575 -1.0305 -0.2292  0.0913
  718MPD2    C410667   1.419   4.527  12.566  0.1050 -0.9294  0.3638
  718MPD2    C510668   1.451   4.637  12.490 -0.4390  0.8001 -0.3787
  718MPD2     H10669   1.712   4.375  12.527  0.1496 -0.6737 -0.5399
  718MPD2    H110670   1.320   4.525  12.610  0.5552 -2.5750  1.3124
  718MPD2    H210671   1.565   0.003  12.357 -0.0273  0.1911  0.3991
  718MPD2    H310672   1.371   4.709  12.473 -0.3091  0.9716 -0.2616
  718MPD2     N10673   1.509   4.324  12.667  0.3675 -0.2492 -1.1476
  718MPD2    H510674   1.587   4.260  12.666  1.5193  1.1497 -0.2215
  718MPD2    N110675   1.783   4.558  12.356 -0.3939  1.0076  0.0738
  718MPD2    H710676   1.838   4.474  12.366 -3.7130 -1.0428  1.2130
  719TMC3    C110677   1.962   4.611  12.249 -0.0198 -0.0066  0.3380
  719TMC3    C210678   1.975   4.475  12.259  0.2049  0.1117  0.5050
  719TMC3    C310679   2.094   4.420  12.317 -0.0043 -0.1227  0.0506
  719TMC3    C410680   2.060   4.696  12.289 -0.1431 -0.2055 -0.2165
  719TMC3    C510681   2.163   4.645  12.359 -0.5871 -0.2154  0.6898
  719TMC3    C610682   2.190   4.509  12.365 -0.3871  0.2339  1.0364
  719TMC3     C10683   1.831   4.659  12.281  0.1289 -0.2191 -0.0806
  719TMC3     O10684   1.811   0.037  12.294  0.0697  0.1394 -0.1416
  719TMC3     H10685   1.902   4.409  12.213  1.2323 -1.2595  0.8384
  719TMC3    H110686   2.047   0.063  12.274  1.0395  0.2166  1.7918
  719TMC3    H210687   2.280   4.470  12.412 -1.0014 -0.8010  1.3500
  719TMC3    C710688   2.269   4.729  12.405 -0.3622 -0.7921  0.0963
  719TMC3    C810689   2.039   4.329  12.415 -0.2731 -0.0773  0.2265
  719TMC3    O110690   2.378   4.676  12.424  0.4435 -0.2032 -0.2143
  719TMC3    O210691   1.918   4.324  12.422  0.0757 -0.0909  0.5958
  720MPD2     C10692   0.710   0.994  14.437  0.9816  0.5487  0.6987
  720MPD2    C110693   0.768   1.084  14.341  0.0166  0.9414 -0.0058
  720MPD2    C210694   0.875   1.165  14.389  0.2466 -0.2363 -1.0225
  720MPD2    C310695   0.931   1.147  14.510 -0.1192  0.0822 -0.0044
  720MPD2    C410696   0.882   1.047  14.587 -0.3206 -0.4141  0.4569
  720MPD2    C510697   0.771   0.973  14.557  0.0507  0.4850 -0.1557
  720MPD2     H10698   0.920   1.238  14.323  1.0964  1.1325  1.1022
  720MPD2    H110699   0.923   1.018  14.683  0.1008 -0.8105  0.1592
  720MPD2    H210700   0.626   0.935  14.402  1.6497 -1.2284  2.0670
  720MPD2    H310701   0.721   0.914  14.633  0.3279 -0.6940 -0.8957
  720MPD2     N10702   1.032   1.237  14.556  0.6003 -0.5287 -0.3201
  720MPD2    H510703   1.053   1.314  14.492  1.4126 -0.8999 -0.4909
  720MPD2    N110704   0.720   1.111  14.210 -0.2697 -0.0143  0.5303
  720MPD2    H710705   0.779   1.175  14.157 -0.8377 -2.8542 -3.5010
  721TMC3    C110706   1.183   1.343  14.704  0.6924 -0.1386  0.4063
  721TMC3    C210707   1.207   1.361  14.839  0.5518  0.1464  0.7234
  721TMC3    C310708   1.332   1.363  14.885 -0.2145  0.3125 -0.3572
  721TMC3    C410709   1.281   1.341  14.611 -0.2327 -0.4125 -0.3827
  721TMC3    C510710   1.410   1.350  14.662  0.8916 -0.2352  0.6925
  721TMC3    C610711   1.434   1.360  14.798  0.4538  0.0057  0.0922
  721TMC3     C10712   1.083   1.241  14.681 -0.5670 -0.1109  0.8845
  721TMC3     O10713   1.050   1.184  14.788 -0.3273 -0.1368  0.1830
  721TMC3     H10714   1.126   1.368  14.911 -0.5412  2.3373 -0.7317
  721TMC3    H110715   1.272   1.308  14.508 -0.5033 -1.4234 -0.0398
  721TMC3    H210716   1.534   1.358  14.840  0.2444 -0.9467  0.5410
  721TMC3    C710717   1.516   1.345  14.574  0.3956 -0.0430 -0.2979
  721TMC3    C810718   1.359   1.416  15.016 -0.3131 -0.7771 -0.6054
  721TMC3    O110719   1.515   1.418  14.478  0.2172  0.5057 -0.2776
  721TMC3    O210720   1.441   1.505  15.030  0.4039 -0.0570  0.0259
  722MPD2     C10721   4.414   4.553  13.483 -0.7912 -0.4500  0.1051
  722MPD2    C110722   4.329   4.663  13.496 -0.6696  0.0116 -0.0884
  722MPD2    C210723   4.201   4.644  13.456 -0.1086 -1.2755 -0.2490
  722MPD2    C310724   4.148   4.517  13.419  0.0033  0.7737  0.0081
  722MPD2    C410725   4.233   4.413  13.415 -0.3480  0.2374 -0.2692
  722MPD2    C510726   4.367   4.428  13.437 -0.1691 -0.0213 -0.1193
  722MPD2     H10727   4.142   4.736  13.455  1.1279 -0.4888 -0.3603
  722MPD2    H110728   4.203   4.311  13.395 -1.1016  0.5367 -0.6871
  722MPD2    H210729   4.520   4.559  13.500 -0.8336  0.1918  0.1209
  722MPD2    H310730   4.444   4.357  13.410 -0.6041 -1.0839  1.4738
  722MPD2     N10731   4.007   4.501  13.389 -0.4584  0.1690 -0.2535
  722MPD2    H510732   3.941   4.575  13.411 -1.7340 -0.5914 -1.5082
  722MPD2    N110733   4.366   0.060  13.523  0.0083  0.2642 -0.4494
  722MPD2    H710734   4.299   0.135  13.512 -0.4027  0.0893  0.8227
  723TMC3    C110735   3.802   4.410  13.328 -0.3739  0.3033  0.8755
  723TMC3    C210736   3.734   4.328  13.244 -0.4491 -0.4712  0.9306
  723TMC3    C310737   3.602   4.358  13.224  0.1594  0.5927 -0.0135
  723TMC3    C410738   3.730   4.500  13.407 -0.2048 -0.4295  0.3487
  723TMC3    C510739   3.599   4.514  13.391  0.2667  0.3110  0.0364
  723TMC3    C610740   3.532   4.451  13.297  0.4175  0.5652  0.1282
  723TMC3     C10741   3.940   4.390  13.342 -0.6664 -0.1136  0.0911
  723TMC3     O10742   3.998   4.298  13.282 -0.5289 -0.9056 -0.1013
  723TMC3     H10743   3.784   4.248  13.191  0.0172 -0.1877  0.9466
  723TMC3    H110744   3.778   4.554  13.488  0.0781  2.0079 -1.4400
  723TMC3    H210745   3.426   4.474  13.286  0.3468  0.2263  0.0941
  723TMC3    C710746   3.535   4.636  13.444 -0.5737  0.3181  0.6718
  723TMC3    C810747   3.522   4.287  13.124 -0.3307 -0.0089  0.6321
  723TMC3    O110748   3.463   4.698  13.371 -0.0918  0.5030 -0.0830
  723TMC3    O210749   3.409   4.327  13.110  0.1492  0.0180  0.4570
  724TMC3    C110750   4.443   3.382  11.376 -0.3069 -0.8669 -0.0225
  724TMC3    C210751   4.397   3.264  11.320  0.4325 -0.1235 -0.3041
  724TMC3    C310752   4.418   3.242  11.190  0.6648  0.1921 -0.0865
  724TMC3    C410753   4.524   3.467  11.311  0.4871 -0.0702 -0.1809
  724TMC3    C510754   4.546   3.434  11.178  0.6912 -0.4079 -0.5550
  724TMC3    C610755   4.496   3.326  11.113 -0.4173 -0.5331 -0.3241
  724TMC3     C10756   4.407   3.425  11.506 -0.2644 -0.5484 -0.4031
  724TMC3     O10757   4.462   3.523  11.559  0.1412  0.1818 -0.5872
  724TMC3     H10758   4.315   3.216  11.372  0.5095 -1.1057 -1.0992
  724TMC3    H110759   4.559   3.560  11.354  0.4337 -0.2248  0.1937
  724TMC3    H210760   4.516   3.298  11.010  0.4401  1.0031 -0.5759
  724TMC3    C710761   4.616   3.521  11.086 -0.4355 -0.8592 -0.5788
  724TMC3    C810762   4.351   3.122  11.134  1.2244 -0.6091 -0.4094
  724TMC3    O110763   4.660   3.471  10.983 -0.5309 -0.8479 -0.1397
  724TMC3    O210764   4.313   3.041  11.220  0.5370  0.3529  0.1320
  725TMC3    C110765   1.235   1.730  12.523 -0.0544  0.4593 -0.1626
  725TMC3    C210766   1.144   1.769  12.426  1.0465 -0.2029 -0.5979
  725TMC3    C310767   1.121   1.679  12.324  1.0654 -0.1579 -0.1443
  725TMC3    C410768   1.285   1.605  12.543 -0.2927  0.1510 -0.0265
  725TMC3    C510769   1.259   1.520  12.437 -0.5195  0.2373 -0.0668
  725TMC3    C610770   1.177   1.551  12.330  0.0370 -1.1999 -0.3484
  725TMC3     C10771   1.234   1.825  12.634 -1.0944 -0.6121  0.1941
  725TMC3     O10772   1.132   1.885  12.666 -0.9812 -0.2181 -0.1296
  725TMC3     H10773   1.075   1.852  12.439  1.5343  0.1251 -0.0952
  725TMC3    H110774   1.346   1.578  12.628 -0.7784 -1.5427 -0.2325
  725TMC3    H210775   1.151   1.478  12.255 -1.2463 -1.7604  0.6457
  725TMC3    C710776   1.323   1.386  12.428  0.0306  0.2343 -0.3528
  725TMC3    C810777   1.026   1.705  12.221  0.3307  0.2603 -0.6103
  725TMC3    O110778   1.268   1.295  12.367 -0.2632  0.9317  0.1086
  725TMC3    O210779   0.971   1.609  12.174 -0.1428 -0.0127 -0.2362
  726MPD2     C10780   2.957   3.461  10.719  1.0940  0.5377 -0.3719
  726MPD2    C110781   3.072   3.528  10.742 -0.2779  0.4126 -0.1539
  726MPD2    C210782   3.154   3.479  10.847 -0.4652  0.6911  1.3103
  726MPD2    C310783   3.121   3.362  10.919  0.4221 -0.1903 -0.4086
  726MPD2    C410784   2.996   3.303  10.894 -0.0931  0.5674  0.8558
  726MPD2    C510785   2.922   3.353  10.798 -0.6528 -0.1710 -0.0188
  726MPD2     H10786   3.250   3.529  10.854  0.0738 -0.1331 -0.2432
  726MPD2    H110787   2.960   3.213  10.944  0.9068  0.4469  1.3611
  726MPD2    H210788   2.880   3.507  10.659 -1.8670 -0.3718  2.7508
  726MPD2    H310789   2.826   3.309  10.774 -0.9558  1.1765 -1.2955
  726MPD2     N10790   3.205   3.293  11.002 -0.5226 -0.1094 -0.5736
  726MPD2    H510791   3.154   3.220  11.051 -0.9482  1.4203  1.2400
  726MPD2    N110792   3.118   3.643  10.672 -0.2312 -0.0687  0.1867
  726MPD2    H710793   3.204   3.686  10.702  1.1366 -2.2477 -0.5912
  727TMC3    C110794   3.094   3.825  10.529 -0.3090 -0.1055  0.4967
  727TMC3    C210795   3.215   3.866  10.569  0.0517 -0.0249 -0.7385
  727TMC3    C310796   3.247   3.998  10.545  0.7861  0.1177  0.4801
  727TMC3    C410797   3.005   3.902  10.466  0.1024 -0.4915  0.3402
  727TMC3    C510798   3.033   4.037  10.460 -0.1621 -0.3035  0.2931
  727TMC3    C610799   3.154   4.089  10.493  0.5868 -0.2642  0.2074
  727TMC3     C10800   3.056   3.690  10.557  0.7366  0.0538 -0.3244
  727TMC3     O10801   2.983   3.635  10.477  0.2123 -0.1629 -0.2007
  727TMC3     H10802   3.291   3.796  10.600  0.5253  0.0746 -1.6924
  727TMC3    H110803   2.917   3.866  10.415 -1.2963 -1.6989  3.5814
  727TMC3    H210804   3.168   4.196  10.500  1.5487 -0.5282  2.1769
  727TMC3    C710805   2.931   4.126  10.403 -0.2307  0.4955  0.3828
  727TMC3    C810806   3.375   4.040  10.586  0.3254 -0.2329  0.3725
  727TMC3    O110807   2.818   4.086  10.422 -0.0673  0.0915  0.7388
  727TMC3    O210808   3.452   3.961  10.639 -0.7344 -0.2660 -0.0118
  728TMC3    C110809   3.195   1.845  15.943 -0.7802 -0.0312  0.1009
  728TMC3    C210810   3.313   1.903  15.910  0.6711 -0.1789  0.2674
  728TMC3    C310811   3.339   1.931  15.779  0.5933 -0.8640 -0.3686
  728TMC3    C410812   3.096   1.830  15.851  0.2784  0.1231  0.0936
  728TMC3    C510813   3.119   1.869  15.723 -0.1394 -0.5458  0.3848
  728TMC3    C610814   3.241   1.918  15.680  0.3571 -0.3487 -0.3334
  728TMC3     C10815   3.167   1.822  16.081 -1.2115  0.3348  0.7559
  728TMC3     O10816   3.249   1.870  16.158  0.1610 -0.2470  0.4364
  728TMC3     H10817   3.381   1.922  15.993  0.2892  1.4905  0.1930
  728TMC3    H110818   3.004   1.776  15.873  0.5097 -0.3780 -0.1647
  728TMC3    H210819   3.262   1.967  15.585 -3.5162 -0.9201 -1.4775
  728TMC3    C710820   3.022   1.833  15.620  0.2785  0.1987  0.3401
  728TMC3    C810821   3.462   1.993  15.750  0.0501 -0.0416  0.5510
  728TMC3    O110822   2.905   1.831  15.656  0.0111  0.2136  0.3670
  728TMC3    O210823   3.529   2.031  15.846 -0.0331  0.8497  0.2681
  729MPD2     C10824   0.952   2.978  17.118 -0.6670 -0.7890  0.5358
  729MPD2    C110825   0.906   2.852  17.128  0.1577  0.0256  0.3544
  729MPD2    C210826   0.857   2.809  17.255 -0.2894  0.2769  0.1998
  729MPD2    C310827   0.841   2.901  17.355  0.0450  0.4687  0.3806
  729MPD2    C410828   0.894   3.032  17.338  0.4532  0.2018  0.6723
  729MPD2    C510829   0.943   3.070  17.218 -0.7148  0.5475 -0.5517
  729MPD2     H10830   0.834   2.704  17.267 -0.1934  0.3717  1.1910
  729MPD2    H110831   0.885   3.113  17.409 -1.1153 -0.9826  1.8076
  729MPD2    H210832   1.017   3.004  17.036 -2.6779 -1.6999 -1.3594
  729MPD2    H310833   0.983   3.170  17.204 -1.8301  1.1629  0.6350
  729MPD2     N10834   0.784   2.875  17.482  0.0553 -0.7740  0.0200
  729MPD2    H510835   0.777   2.959  17.539 -1.3500 -0.7314 -0.2120
  729MPD2    N110836   0.933   2.768  17.017 -0.1791 -0.0715 -0.0202
  729MPD2    H710837   0.938   2.667  17.028 -1.3843 -0.3028 -1.5579
  730TMC3    C110838   0.692   2.796  17.673  0.6067  0.3300  0.1958
  730TMC3    C210839   0.775   2.737   0.011 -0.1982 -0.3575 -0.5578
  730TMC3    C310840   0.829   2.815   0.110 -0.0091  0.7947  0.5321
  730TMC3    C410841   0.661   2.933  17.688 -0.2319  0.4495  0.0197
  730TMC3    C510842   0.716   2.998   0.031 -0.0228  0.3978 -0.6600
  730TMC3    C610843   0.803   2.949   0.119 -0.3787  0.0697  0.4843
  730TMC3     C10844   0.721   2.766  17.532  0.3096 -0.1428 -0.8379
  730TMC3     O10845   0.702   2.658  17.479 -0.2215 -0.3623 -0.2198
  730TMC3     H10846   0.809   2.635  17.750 -0.7134 -0.2282 -2.5342
  730TMC3    H110847   0.590   2.981  17.622  0.8921  1.7499 -0.2393
  730TMC3    H210848   0.867   3.006   0.185 -3.1845  2.0250  1.5180
  730TMC3    C710849   0.758   3.130  17.735  0.8581 -0.1988 -0.3468
  730TMC3    C810850   0.949   2.759   0.182 -0.3938 -0.6176 -0.1782
  730TMC3    O110851   0.752   3.139  17.613  0.1540  0.2815 -0.1431
  730TMC3    O210852   0.958   2.637   0.168  0.1210 -0.4024 -0.7449
  731MPD2     C10853   1.055   1.732  12.958 -0.2241 -0.7144 -0.6682
  731MPD2    C110854   1.061   1.607  12.906  0.1632  0.2968 -0.3655
  731MPD2    C210855   1.158   1.522  12.957  0.1464 -0.6811  0.3056
  731MPD2    C310856   1.247   1.563  13.056 -0.2731 -0.5105  0.6231
  731MPD2    C410857   1.232   1.683  13.120  0.2819 -0.2827 -0.2228
  731MPD2    C510858   1.136   1.764  13.069 -0.5751 -0.0473 -0.9384
  731MPD2     H10859   1.177   1.424  12.916  0.6889 -0.4193 -0.0818
  731MPD2    H110860   1.297   1.717  13.200  0.3511  0.8159 -0.7456
  731MPD2    H210861   0.984   1.807  12.924  3.8952  3.0148 -0.9944
  731MPD2    H310862   1.108   1.863  13.102  0.7014  0.5872 -1.7763
  731MPD2     N10863   1.349   1.473  13.095 -0.0960 -0.0705  0.5308
  731MPD2    H510864   1.355   1.386  13.044  2.2299 -0.4849  1.5288
  731MPD2    N110865   0.983   1.577  12.798  0.7077 -0.1146  0.4673
  731MPD2    H710866   0.921   1.652  12.769  0.7246 -0.4788 -0.5054
  732TMC3    C110867   0.904   1.466  12.608 -0.5445 -0.0220 -0.7540
  732TMC3    C210868   0.793   1.547  12.598 -0.6014 -1.1007  0.6101
  732TMC3    C310869   0.725   1.547  12.480 -0.9812  0.0902 -0.1761
  732TMC3    C410870   0.930   1.373  12.507 -0.2037 -0.0270  0.0367
  732TMC3    C510871   0.864   1.390  12.382 -0.1640 -0.9584  0.4422
  732TMC3    C610872   0.765   1.484  12.363 -0.5928 -0.5224  0.0118
  732TMC3     C10873   1.004   1.470  12.715 -0.4642 -0.4604 -0.6909
  732TMC3     O10874   1.064   1.365  12.732  0.7201  0.0714  0.3213
  732TMC3     H10875   0.764   1.588  12.694 -0.4789  1.4616 -0.4722
  732TMC3    H110876   1.009   1.299  12.515  0.0808  0.6157  3.1470
  732TMC3    H210877   0.706   1.492  12.272  1.0879 -0.2792 -1.0497
  732TMC3    C710878   0.858   1.284  12.278 -0.0853  0.0523  0.2034
  732TMC3    C810879   0.594   1.605  12.475  1.1030 -0.9259 -0.8201
  732TMC3    O110880   0.797   1.300  12.177  0.9973  0.5072 -0.2101
  732TMC3    O210881   0.568   1.690  12.561 -0.4962  0.4874 -0.2822
  733TMC3    C110882   1.480   4.212  13.101 -0.0332 -0.2025  1.0097
  733TMC3    C210883   1.407   4.257  12.989 -0.0316  0.7956  0.1399
  733TMC3    C310884   1.447   4.217  12.864 -0.0973  0.7869  0.3404
  733TMC3    C410885   1.591   4.129  13.093 -0.5759  0.7021  0.2357
  733TMC3    C510886   1.627   4.096  12.962  0.4197  0.1208 -0.3440
  733TMC3    C610887   1.559   4.140  12.845  0.0693  0.3572  0.0158
  733TMC3     C10888   1.410   4.239  13.222  0.0704  0.0618  0.0227
  733TMC3     O10889   1.367   4.350  13.229 -0.9411 -0.0812  0.0103
  733TMC3     H10890   1.326   4.328  12.998  0.5157  1.4383  0.0540
  733TMC3    H110891   1.655   4.114  13.180 -1.6912  0.0422  0.9334
  733TMC3    H210892   1.591   4.100  12.750 -1.2875 -0.3939 -0.1307
  733TMC3    C710893   1.769   4.062  12.949  0.1725  0.1855  0.2457
  733TMC3    C810894   1.406   4.311  12.758 -0.5913 -0.1836 -0.6909
  733TMC3    O110895   1.819   4.011  13.050 -0.0429  0.2815  0.1251
  733TMC3    O210896   1.296   4.364  12.766  0.0537 -0.0818 -0.0134
  734MPD2     C10897   3.171   1.485  13.033  0.1245 -0.1020 -0.3634
  734MPD2    C110898   3.116   1.417  12.921  0.1338 -0.2819  0.4294
  734MPD2    C210899   3.133   1.474  12.805 -0.1608  0.5171 -1.2971
  734MPD2    C310900   3.200   1.596  12.793  0.7499 -0.4791 -0.4192
  734MPD2    C410901   3.239   1.668  12.909  0.1568 -0.4458 -0.1691
  734MPD2    C510902   3.229   1.608  13.029  0.0346 -0.5781  0.1497
  734MPD2     H10903   3.112   1.425  12.710 -1.7223 -1.4774  0.0949
  734MPD2    H110904   3.287   1.765  12.907 -1.2116  0.2667  1.8579
  734MPD2    H210905   3.150   1.448  13.133  0.1935  0.9376  0.0325
  734MPD2    H310906   3.267   1.657  13.118  1.6799  0.3207 -1.0372
  734MPD2     N10907   3.215   1.644  12.667 -0.1458  0.5661 -0.1432
  734MPD2    H510908   3.181   1.580  12.596  0.8122 -0.0164 -0.0832
  734MPD2    N110909   3.058   1.289  12.943  0.0897  0.4376  0.4354
  734MPD2    H710910   3.057   1.247  13.035 -0.7223 -0.7527 -0.1152
  735TMC3    C110911   2.960   1.083  12.884 -0.5284  0.1820  0.0048
  735TMC3    C210912   2.872   1.036  12.789  0.0330  0.1631 -0.2358
  735TMC3    C310913   2.919   0.944  12.707 -0.5301 -0.4501  0.0785
  735TMC3    C410914   3.078   1.022  12.921  1.0001  0.6413 -0.2139
  735TMC3    C510915   3.118   0.918  12.842 -0.5619  0.4943 -0.1799
  735TMC3    C610916   3.049   0.891  12.734  0.2892 -0.5419  0.0096
  735TMC3     C10917   2.982   1.229  12.850 -0.2760 -0.2350  1.0442
  735TMC3     O10918   2.925   1.273  12.751  0.0446  0.0121  0.5546
  735TMC3     H10919   2.781   1.088  12.762  0.3164  0.5060 -0.5260
  735TMC3    H110920   3.147   1.074  12.987  1.6387 -0.9310  0.3643
  735TMC3    H210921   3.086   0.816  12.664 -1.4472  1.1018 -2.6662
  735TMC3    C710922   3.246   0.856  12.855 -0.2641 -0.3942  0.8383
  735TMC3    C810923   2.913   0.970  12.565 -0.3913 -0.1170  0.2102
  735TMC3    O110924   3.298   0.816  12.755  0.1296 -0.5424 -0.0167
  735TMC3    O210925   2.922   0.874  12.487 -0.3584  0.4273  0.0856
  736MPD2     C10926   3.454   0.863  13.157  0.1187 -0.0129  0.1297
  736MPD2    C110927   3.427   0.865  13.023  0.6688 -0.7140 -0.0975
  736MPD2    C210928   3.525   0.914  12.929  0.1687 -0.0564  0.4433
  736MPD2    C310929   3.653   0.957  12.966  0.1894 -0.7415 -0.0792
  736MPD2    C410930   3.682   0.946  13.099  0.1306 -0.3154  0.0190
  736MPD2    C510931   3.581   0.899  13.188 -0.2991  0.3072 -0.1398
  736MPD2     H10932   3.506   0.909  12.823  0.3785 -0.4617  0.4281
  736MPD2    H110933   3.774   0.980  13.146 -0.8347  1.1665  0.8478
  736MPD2    H210934   3.376   0.852  13.232  0.6955  2.1766  1.0566
  736MPD2    H310935   3.613   0.906  13.291 -0.6633  0.1810 -0.0180
  736MPD2     N10936   3.759   1.003  12.877 -0.7870 -0.1935 -0.3524
  736MPD2    H510937   3.850   1.034  12.912 -0.1893 -2.0767 -0.2638
  736MPD2    N110938   3.290   0.857  12.985 -0.0795  0.1686  0.2989
  736MPD2    H710939   3.222   0.862  13.060  0.7740  0.1698  1.0896
  737TMC3    C110940   3.873   1.051  12.673  0.4679 -0.0265 -0.2531
  737TMC3    C210941   3.928   1.176  12.700  0.6594 -0.4310  0.6082
  737TMC3    C310942   4.014   1.226  12.613  0.4667  0.2531  0.6428
  737TMC3    C410943   3.913   0.983  12.561 -0.0109  0.2069  0.6046
  737TMC3    C510944   3.993   1.042  12.474 -0.3464  0.1107  0.0729
  737TMC3    C610945   4.045   1.167  12.495  0.1441  0.0996  0.5732
  737TMC3     C10946   3.751   1.002  12.745  0.6329  0.2444 -0.7771
  737TMC3     O10947   3.670   0.939  12.672 -0.2326  0.1770 -0.1079
  737TMC3     H10948   3.909   1.231  12.792  0.5114  1.1825 -0.3952
  737TMC3    H110949   3.858   0.898  12.524  0.4682  0.4974 -0.7520
  737TMC3    H210950   4.116   1.206  12.423 -0.3762 -0.7541 -0.4149
  737TMC3    C710951   4.022   0.961  12.352 -0.7298 -0.4383 -0.1579
  737TMC3    C810952   4.057   1.364  12.638 -0.4693 -0.3396  0.3715
  737TMC3    O110953   4.003   0.842  12.366 -0.2647 -0.2044 -0.1097
  737TMC3    O210954   4.073   1.409  12.752  0.1600 -0.2027 -0.3429
  738MPD2     C10955   4.194   0.343  15.197 -0.2313 -0.4159 -0.4587
  738MPD2    C110956   4.272   0.229  15.207 -1.2878 -0.5554  0.0445
  738MPD2    C210957   4.411   0.237  15.241  0.9310  0.1933 -0.1970
  738MPD2    C310958   4.478   0.359  15.250  1.0364  0.5601  0.1523
  738MPD2    C410959   4.401   0.471  15.238 -0.2277  0.6609 -0.6271
  738MPD2    C510960   4.264   0.466  15.217  0.2485  0.7168  0.7968
  738MPD2     H10961   4.465   0.143  15.240 -2.6430 -1.8947  2.2921
  738MPD2    H110962   4.444   0.570  15.252  1.0745  0.4678 -3.2429
  738MPD2    H210963   4.089   0.355  15.172 -0.6724  0.4048  1.8062
  738MPD2    H310964   4.201   0.554  15.207 -0.4541  0.2825  1.4139
  738MPD2     N10965   4.615   0.379  15.273  0.0009  0.3877 -0.3546
  738MPD2    H510966   4.645   0.475  15.264  1.2664 -0.0755 -0.9582
  738MPD2    N110967   4.215   0.098  15.194  0.3162 -0.7676 -0.3256
  738MPD2    H710968   4.279   0.022  15.215  0.8001 -0.5829 -1.1284
  739TMC3    C110969   0.103   0.316  15.261  0.2809 -0.5172  0.1328
  739TMC3    C210970   0.127   0.429  15.184  0.4066  0.5478 -0.0578
  739TMC3    C310971   0.246   0.449  15.130 -0.3738 -0.4967 -0.7185
  739TMC3    C410972   0.199   0.219  15.277  0.4092 -0.1226  0.1827
  739TMC3    C510973   0.317   0.247  15.214  0.5397 -0.5260 -0.0234
  739TMC3    C610974   0.346   0.354  15.141 -0.5220  0.0047  0.3038
  739TMC3     C10975   4.708   0.279  15.285  0.3235  0.4445 -1.0079
  739TMC3     O10976   4.693   0.159  15.313  0.0566  0.4746  0.0622
  739TMC3     H10977   0.048   0.502  15.172 -0.1043 -0.0132 -0.1570
  739TMC3    H110978   0.176   0.130  15.335 -2.7204  0.7475  0.2474
  739TMC3    H210979   0.445   0.380  15.105 -0.1446 -2.2422 -0.3251
  739TMC3    C710980   0.424   0.158  15.258  0.3464  0.0596  0.3614
  739TMC3    C810981   0.243   0.509  14.998  0.6596 -0.3804  0.3972
  739TMC3    O110982   0.400   0.077  15.349 -0.0156 -0.3544  0.4998
  739TMC3    O210983   0.134   0.510  14.940  0.0433  0.0194  0.1769
  740TMC3    C110984   0.508   1.586  14.742  0.1469  0.2979 -0.6724
  740TMC3    C210985   0.605   1.578  14.837 -0.0600  0.0988 -0.8368
  740TMC3    C310986   0.739   1.552  14.807  0.0543  0.2213  0.1693
  740TMC3    C410987   0.542   1.583  14.608 -0.0355  0.6606  0.6680
  740TMC3    C510988   0.676   1.599  14.578 -0.3559 -0.0263  0.2274
  740TMC3    C610989   0.773   1.585  14.677  1.0496 -0.4542  0.3139
  740TMC3     C10990   0.388   1.662  14.771  0.4547  0.2279 -0.3875
  740TMC3     O10991   0.343   1.740  14.685  0.0010 -0.1268 -0.5318
  740TMC3     H10992   0.579   1.593  14.941 -2.1728 -1.1862 -1.1863
  740TMC3    H110993   0.461   1.589  14.536 -0.6003 -1.6169  1.1329
  740TMC3    H210994   0.880   1.577  14.661  1.0725 -0.3890  0.4370
  740TMC3    C710995   0.727   1.585  14.441  0.0821  0.2839 -0.2000
  740TMC3    C810996   0.833   1.597  14.905  0.5989  0.2247  0.0466
  740TMC3    O110997   0.841   1.538  14.433 -0.3832  0.1122 -0.3579
  740TMC3    O210998   0.898   1.689  14.871  0.1152  0.0973  0.1151
  741TMC3    C110999   0.286   0.897  14.788  0.3817  0.3892  0.1060
  741TMC3    C211000   0.159   0.856  14.826 -0.7340 -0.1451  0.0879
  741TMC3    C311001   0.133   0.842  14.962  0.6904  0.4744 -0.3308
  741TMC3    C411002   0.384   0.907  14.893 -0.3851 -0.0680 -0.4878
  741TMC3    C511003   0.345   0.900  15.022 -0.4397  0.0785  0.7250
  741TMC3    C611004   0.223   0.860  15.065  0.2703 -0.1008  0.6479
  741TMC3     C11005   0.319   0.949  14.656 -0.4248  0.1522  0.8762
  741TMC3     O11006   0.434   0.982  14.629  0.2932 -0.4759 -0.0986
  741TMC3     H11007   0.080   0.835  14.755 -0.5311  0.8848 -0.4409
  741TMC3    H111008   0.487   0.928  14.869 -0.0735  0.4354  1.2881
  741TMC3    H211009   0.187   0.861  15.167  0.0589 -1.1163  0.5879
  741TMC3    C711010   0.444   0.921  15.128  0.3522 -0.5940  0.2597
  741TMC3    C811011   0.001   0.799  15.007  0.0015 -0.3550  0.3092
  741TMC3    O111012   0.561   0.892  15.111 -0.9238 -0.4907 -0.5650
  741TMC3    O211013   4.703   0.824  15.124  0.0303 -0.1135  0.3608
  742TMC3    C111014   4.703   4.097  15.692  0.4606 -0.6275  0.7044
  742TMC3    C211015   4.634   4.085  15.573 -0.0312 -0.2271 -0.1242
  742TMC3    C311016   4.693   4.008  15.481 -0.3073  0.5134  0.2713
  742TMC3    C411017   0.091   4.045  15.719 -0.8742 -0.2088  0.2394
  742TMC3    C511018   0.143   3.978  15.613 -0.0365  0.0359 -0.3862
  742TMC3    C611019   0.077   3.957  15.499  0.7007  0.3875 -0.0491
  742TMC3     C11020   4.640   4.167  15.798  0.4490  0.4045  0.2801
  742TMC3     O11021   4.570   4.262  15.772  0.3053 -0.5213 -0.3354
  742TMC3     H11022   4.531   4.119  15.562 -0.8451 -2.1739  1.6895
  742TMC3    H111023   0.142   4.055  15.815 -1.0360  3.3628 -0.0567
  742TMC3    H211024   0.141   3.916  15.422 -3.9939 -2.9321 -2.1913
  742TMC3    C711025   0.280   3.939  15.619 -0.0171  0.5088 -0.3291
  742TMC3    C811026   4.632   3.971  15.354  0.1126  0.8607 -0.5461
  742TMC3    O111027   0.314   3.841  15.554 -0.2423 -0.1019 -0.1439
  742TMC3    O211028   4.691   3.873  15.301  0.3630  0.3583 -0.3127
  743MPD2     C11029   3.000   0.453   1.740  0.6253  0.0245  0.0036
  743MPD2    C111030   3.046   0.361   1.656 -0.4364  0.8976 -0.0066
  743MPD2    C211031   3.164   0.302   1.686  0.3117  0.3210 -0.1442
  743MPD2    C311032   3.249   0.347   1.789 -0.5680 -0.1522 -0.1730
  743MPD2    C411033   3.199   0.450   1.868  0.7002 -0.7662 -0.2091
  743MPD2    C511034   3.074   0.504   1.841  0.1291 -0.1758 -0.3083
  743MPD2     H11035   3.198   0.214   1.632 -1.3960 -1.4778  1.7174
  743MPD2    H111036   3.250   0.506   1.946  1.5089 -1.2782 -0.3605
  743MPD2    H211037   2.904   0.498   1.717  1.3898  1.5040 -0.3445
  743MPD2    H311038   3.036   0.591   1.893  2.2559  0.9326 -0.6019
  743MPD2     N11039   3.373   0.281   1.817  0.1442 -0.3417 -0.5034
  743MPD2    H511040   3.404   0.207   1.754 -0.5958 -2.1980  1.2915
  743MPD2    N111041   2.957   0.321   1.552 -0.1577 -0.2072  0.3297
  743MPD2    H711042   2.870   0.373   1.547 -1.2610 -2.2356 -1.1043
  744TMC3    C111043   2.867   0.180   1.388 -0.6114  0.4175 -0.0506
  744TMC3    C211044   2.793   0.288   1.344  0.5337  0.5206 -0.4139
  744TMC3    C311045   2.707   0.265   1.231 -0.6107 -0.7125  0.0834
  744TMC3    C411046   2.852   0.057   1.332 -0.1947 -0.0602  0.1620
  744TMC3    C511047   2.769   0.044   1.221  0.4419 -0.2993  0.1868
  744TMC3    C611048   2.692   0.145   1.171 -0.5323 -0.3576  0.5657
  744TMC3     C11049   2.977   0.200   1.483  0.4271  0.1239 -0.2306
  744TMC3     O11050   3.055   0.107   1.498  0.0430 -0.3073 -0.0870
  744TMC3     H11051   2.817   0.389   1.375  0.8627  0.0725  0.8163
  744TMC3    H111052   2.906   4.711   1.373 -0.2320 -0.1921 -0.0608
  744TMC3    H211053   2.647   0.143   1.073  0.8633 -0.4683 -0.0714
  744TMC3    C711054   2.795   4.680   1.124  0.1800 -0.0237 -0.2277
  744TMC3    C811055   2.635   0.378   1.172  0.2577  0.8220 -0.6917
  744TMC3    O111056   2.908   4.636   1.120 -0.4173  0.2430 -0.4757
  744TMC3    O211057   2.609   0.365   1.053  0.2606  0.3622 -0.1593
  745TMC3    C111058   0.371   3.729  14.052 -0.3529  0.1383  0.9263
  745TMC3    C211059   0.235   3.694  14.077  0.0078  0.9495 -0.0677
  745TMC3    C311060   0.144   3.698  13.971  0.0959  0.1096  0.1445
  745TMC3    C411061   0.409   3.742  13.921 -0.7172 -0.3845 -0.6266
  745TMC3    C511062   0.318   3.719  13.824 -0.0069  0.3115 -0.3648
  745TMC3    C611063   0.189   3.706  13.840  0.4991 -0.0999 -0.0122
  745TMC3     C11064   0.444   3.800  14.155 -0.4897  0.1966  1.0801
  745TMC3     O11065   0.418   3.749  14.261 -0.8008 -0.0574 -0.0563
  745TMC3     H11066   0.207   3.664  14.177 -1.6739  2.1329 -0.1885
  745TMC3    H111067   0.512   3.772  13.906 -0.2385 -1.5905  0.2809
  745TMC3    H211068   0.117   3.728  13.762 -0.9356 -1.0056  1.0398
  745TMC3    C711069   0.347   3.787  13.694  0.3121 -0.2455  0.1271
  745TMC3    C811070   0.041   3.792  14.011 -0.0980  0.5282 -0.3540
  745TMC3    O111071   0.282   3.759  13.593 -0.0275  0.6402  0.3803
  745TMC3    O211072   4.675   3.793  13.946  0.3117 -0.1433  0.3135
  746TMC3    C111073   2.577   0.741  11.243 -0.1559 -0.9997  0.4169
  746TMC3    C211074   2.624   0.693  11.125 -0.0355 -0.4620 -1.1138
  746TMC3    C311075   2.537   0.638  11.034  0.5254  0.1171 -0.9160
  746TMC3    C411076   2.448   0.717  11.283 -0.3361  0.1172  0.6972
  746TMC3    C511077   2.370   0.650  11.195  0.3088  0.8947  0.1074
  746TMC3    C611078   2.408   0.620  11.065 -0.2971 -0.2083  0.2262
  746TMC3     C11079   2.607   0.886  11.244 -0.0718  0.2705  0.1983
  746TMC3     O11080   2.662   0.920  11.140  0.7197  0.4371 -0.1497
  746TMC3     H11081   2.731   0.688  11.108  0.0926  0.3865 -0.5276
  746TMC3    H111082   2.397   0.764  11.366 -1.4274 -0.2585  0.2392
  746TMC3    H211083   2.338   0.575  10.996  0.5581 -1.0473 -0.0978
  746TMC3    C711084   2.229   0.650  11.223 -0.1492 -0.7006  0.9365
  746TMC3    C811085   2.566   0.677  10.896  0.3891 -0.0140  0.1899
  746TMC3    O111086   2.159   0.698  11.135  0.4079 -0.6991  0.5904
  746TMC3    O211087   2.503   0.625  10.805 -0.1821  0.1943 -0.1006
  747TMC3    C111088   4.491   1.232  11.483  0.6358 -0.6345  0.0653
  747TMC3    C211089   4.464   1.120  11.547 -0.0512 -0.2506 -0.1062
  747TMC3    C311090   4.496   1.108  11.680 -0.5854  0.4650 -0.5505
  747TMC3    C411091   4.548   1.338  11.548  0.2703  0.0768 -0.1843
  747TMC3    C511092   4.585   1.324  11.682 -0.0618 -0.7183  0.4720
  747TMC3    C611093   4.557   1.210  11.748 -0.5293  0.5173  0.1298
  747TMC3     C11094   4.496   1.237  11.340  0.2923  0.4424 -0.6397
  747TMC3     O11095   4.503   1.354  11.295 -0.9570  0.5383  0.0846
  747TMC3     H11096   4.388   1.054  11.506 -0.2069 -0.0250 -0.1845
  747TMC3    H111097   4.576   1.428  11.496 -2.6595  1.0003 -0.1508
  747TMC3    H211098   4.595   1.181  11.845 -0.5692 -0.5795 -0.1811
  747TMC3    C711099   4.681   1.422  11.719 -0.4623  0.4832  0.1241
  747TMC3    C811100   4.434   1.002  11.752  0.1836  0.0875  0.3197
  747TMC3    O111101   4.660   1.538  11.687 -0.4119 -0.5129  1.0638
  747TMC3    O211102   4.415   0.898  11.691 -0.7172  0.0344  0.3202
  748MPD2     C11103   1.903   1.129   1.778 -0.3895 -0.7591 -0.2405
  748MPD2    C111104   1.924   1.261   1.759  0.1847 -0.0686  0.2961
  748MPD2    C211105   2.056   1.305   1.757 -0.1757 -0.1472  0.6293
  748MPD2    C311106   2.156   1.223   1.804 -0.3916 -0.0951 -0.4185
  748MPD2    C411107   2.132   1.089   1.826  0.3096  0.2150  0.4576
  748MPD2    C511108   2.006   1.042   1.802 -0.2983 -0.5310  0.6945
  748MPD2     H11109   2.084   1.407   1.734  2.0051 -1.0219 -0.5840
  748MPD2    H111110   2.207   1.015   1.849 -1.2573 -1.4493  0.2703
  748MPD2    H211111   1.802   1.090   1.774 -0.0656 -1.5733 -0.6281
  748MPD2    H311112   1.983   0.940   1.831  0.6616 -1.1613 -0.7739
  748MPD2     N11113   2.288   1.279   1.819 -0.3659  0.0835 -0.6971
  748MPD2    H511114   2.301   1.365   1.768 -3.9899  1.0137 -0.0477
  748MPD2    N111115   1.810   1.339   1.724 -0.6242 -0.2042  0.4869
  748MPD2    H711116   1.716   1.301   1.734 -1.1019  0.4174 -1.6468
  749TMC3    C111117   2.517   1.271   1.887  0.5088 -0.9446  0.3527
  749TMC3    C211118   2.614   1.191   1.950 -0.0215 -0.1014 -0.1463
  749TMC3    C311119   2.745   1.200   1.901 -0.0841  0.4744  0.7797
  749TMC3    C411120   2.554   1.351   1.776  0.3497  0.3030  0.4117
  749TMC3    C511121   2.684   1.366   1.739 -0.1219  0.1434  0.0146
  749TMC3    C611122   2.780   1.278   1.791 -0.2172 -0.8242  0.0999
  749TMC3     C11123   2.382   1.224   1.899  0.3658  0.2236 -0.0585
  749TMC3     O11124   2.359   1.143   1.990  0.2444 -0.4010  0.6147
  749TMC3     H11125   2.585   1.125   2.031  0.0418  0.7554  0.5794
  749TMC3    H111126   2.478   1.404   1.721  0.4192 -0.4802 -0.4338
  749TMC3    H211127   2.881   1.274   1.750  0.1710 -1.7895  1.1512
  749TMC3    C711128   2.714   1.470   1.641  0.0590 -0.2197 -0.4576
  749TMC3    C811129   2.832   1.089   1.948  0.2600 -0.1588 -0.1201
  749TMC3    O111130   2.618   1.518   1.578 -0.2949  0.3958  0.3033
  749TMC3    O211131   2.807   1.039   2.058  0.1219 -0.0948 -0.3411
  750MPD2     C11132   2.475   3.102  11.409 -0.6080  0.1310  0.0880
  750MPD2    C111133   2.471   3.021  11.523 -0.2984  0.1485  0.2055
  750MPD2    C211134   2.474   2.881  11.504 -0.0525  0.4945  0.0121
  750MPD2    C311135   2.477   2.822  11.380  0.4448  0.3954 -0.4185
  750MPD2    C411136   2.479   2.906  11.267 -0.3726  0.8885  0.2250
  750MPD2    C511137   2.489   3.045  11.285 -0.4149  0.4665  0.2068
  750MPD2     H11138   2.477   2.820  11.594  1.5957 -1.2324 -1.2203
  750MPD2    H111139   2.484   2.860  11.169 -0.1707 -1.9569  1.5739
  750MPD2    H211140   2.473   3.210  11.423  1.5932  0.1738  0.0141
  750MPD2    H311141   2.499   3.125  11.212 -1.3237 -1.1540 -1.6910
  750MPD2     N11142   2.475   2.687  11.365  0.5406  0.2641 -0.5290
  750MPD2    H511143   2.483   2.652  11.269 -1.4241  3.4192 -1.8434
  750MPD2    N111144   2.469   3.083  11.647 -0.4501 -0.3367  0.0075
  750MPD2    H711145   2.465   3.183  11.636  1.3706 -0.3665 -0.8990
  751TMC3    C111146   2.425   2.458  11.405 -0.5752 -0.0569 -0.3417
  751TMC3    C211147   2.302   2.399  11.416 -0.3519 -0.4798 -0.4794
  751TMC3    C311148   2.275   2.291  11.333  0.1629  0.5998 -0.0832
  751TMC3    C411149   2.508   2.426  11.303 -0.1737  0.1486 -0.2531
  751TMC3    C511150   2.480   2.317  11.226  0.5703 -0.3469 -0.0305
  751TMC3    C611151   2.365   2.240  11.242  0.7862 -0.3557 -0.2811
  751TMC3     C11152   2.437   2.595  11.457  0.5507 -0.1698 -0.8448
  751TMC3     O11153   2.399   2.616  11.572 -1.1143 -0.3458  0.4037
  751TMC3     H11154   2.234   2.445  11.488 -1.0956  0.5886 -1.8685
  751TMC3    H111155   2.607   2.468  11.294 -1.0350  2.3318  0.4361
  751TMC3    H211156   2.344   2.145  11.194 -0.6735  0.4406 -1.2333
  751TMC3    C711157   2.561   2.288  11.108  0.3593 -0.1667  0.4331
  751TMC3    C811158   2.154   2.223  11.347 -0.2728  0.4478  0.0137
  751TMC3    O111159   2.680   2.289  11.135 -0.2513 -0.9084 -0.3890
  751TMC3    O211160   2.151   2.111  11.294  0.1724 -0.1501  0.0419
  752TMC3    C111161   1.769   2.314  17.160 -0.0376  0.5474  0.3425
  752TMC3    C211162   1.853   2.207  17.184  0.1371  0.0678  0.5089
  752TMC3    C311163   1.848   2.157  17.318 -0.2346  0.9488  0.6197
  752TMC3    C411164   1.685   2.377  17.250 -0.8974  0.8301  0.8806
  752TMC3    C511165   1.679   2.312  17.371  0.1936  0.4010 -0.0618
  752TMC3    C611166   1.762   2.211  17.409  0.1958  0.8453 -0.3463
  752TMC3     C11167   1.758   2.344  17.011  0.0140 -0.7888 -0.3980
  752TMC3     O11168   1.842   2.296  16.936  0.1184 -0.0593 -0.2963
  752TMC3     H11169   1.918   2.163  17.110 -0.3869  0.7890 -0.3836
  752TMC3    H111170   1.641   2.475  17.234 -1.5891  0.3870  0.0869
  752TMC3    H211171   1.755   2.149  17.498 -1.1662  1.6749  0.1357
  752TMC3    C711172   1.590   2.379  17.464  0.2108  0.1376 -0.5202
  752TMC3    C811173   1.956   2.058  17.350 -0.5358  0.4896  0.0654
  752TMC3    O111174   1.508   2.458  17.413  0.1509 -0.0882 -0.2459
  752TMC3    O211175   2.002   2.000  17.256  0.3756  0.4677 -0.3966
  753TMC3    C111176   3.336   3.830  13.302  0.3361  0.1822 -0.2855
  753TMC3    C211177   3.398   3.789  13.417  0.4263  0.3003  0.4846
  753TMC3    C311178   3.411   3.651  13.427  0.4475 -0.0225  0.0271
  753TMC3    C411179   3.275   3.741  13.215 -0.2120 -0.0873  0.1765
  753TMC3    C511180   3.291   3.619  13.237  0.5891  0.9293  0.0738
  753TMC3    C611181   3.355   3.563  13.339  0.1416 -0.2149  0.1351
  753TMC3     C11182   3.288   3.966  13.290 -0.5963 -0.1682 -0.5179
  753TMC3     O11183   3.187   3.992  13.233  0.4227 -0.1740  0.3928
  753TMC3     H11184   3.436   3.850  13.498 -1.1303  0.9824  0.7055
  753TMC3    H111185   3.225   3.777  13.126 -0.2103 -0.6432 -0.0515
  753TMC3    H211186   3.379   3.458  13.353 -1.1046 -0.5925 -0.5290
  753TMC3    C711187   3.222   3.535  13.136  0.0438 -0.0492  0.0513
  753TMC3    C811188   3.492   3.589  13.535 -0.2585  0.2285  0.3916
  753TMC3    O111189   3.180   3.583  13.033  0.1282 -0.0451  0.1554
  753TMC3    O211190   3.509   3.470  13.533  0.3129  0.3524  0.1289
  754MPD2     C11191   1.553   2.655  13.744 -0.2364 -0.4251  0.3406
  754MPD2    C111192   1.585   2.543  13.670 -0.1841  0.0437  0.0704
  754MPD2    C211193   1.476   2.486  13.609 -0.4355  0.6341 -0.1273
  754MPD2    C311194   1.352   2.541  13.605 -0.2321 -0.8687  1.0090
  754MPD2    C411195   1.329   2.654  13.675 -0.4631  0.1303  0.2451
  754MPD2    C511196   1.431   2.713  13.741 -0.6040  0.3804  0.3477
  754MPD2     H11197   1.490   2.391  13.560  0.2607  1.4256 -1.4695
  754MPD2    H111198   1.235   2.707  13.671  0.3149  1.4890  0.2655
  754MPD2    H211199   1.619   2.704  13.815  2.3602 -2.9899 -0.3111
  754MPD2    H311200   1.413   2.809  13.788 -0.5007  1.5778 -2.0412
  754MPD2     N11201   1.241   2.489  13.533 -0.1254 -0.1694 -0.4708
  754MPD2    H511202   1.157   2.546  13.528  0.2363  0.3896 -0.3084
  754MPD2    N111203   1.718   2.492  13.650  0.1488 -0.2965  0.1274
  754MPD2    H711204   1.793   2.556  13.675  0.5341 -1.1987  1.3134
  755MPD2     C11205   0.301   2.454  13.171 -0.5100  0.2638  0.3099
  755MPD2    C111206   0.373   2.462  13.290  1.2717 -0.5366  0.8887
  755MPD2    C211207   0.512   2.459  13.289 -0.1660 -0.2667  0.2999
  755MPD2    C311208   0.579   2.424  13.175  0.1300  0.2267 -0.1924
  755MPD2    C411209   0.509   2.413  13.058 -0.1968  0.5224  0.3608
  755MPD2    C511210   0.373   2.432  13.060 -0.3159  0.2366  0.1138
  755MPD2     H11211   0.560   2.471  13.385  1.9420 -4.4166 -0.2416
  755MPD2    H111212   0.547   2.383  12.961 -0.1622  0.4562  0.3946
  755MPD2    H211213   0.197   2.483  13.162 -0.7095 -0.2681  0.8094
  755MPD2    H311214   0.316   2.439  12.968  0.9595 -2.4583 -0.8794
  755MPD2     N11215   0.725   2.411  13.163  0.3681 -0.0361  0.2136
  755MPD2    H511216   0.761   2.360  13.084 -1.0654  0.4170 -0.7364
  755MPD2    N111217   0.307   2.475  13.420 -0.0936  0.7944 -0.3432
  755MPD2    H711218   0.366   2.471  13.502 -1.2221 -0.3449  0.4283
  756MPD2     C11219   1.969   3.434   9.965  0.4015  0.4310 -0.5964
  756MPD2    C111220   1.891   3.392  10.071 -0.3104  0.1764 -1.0793
  756MPD2    C211221   1.753   3.420  10.067 -0.1586 -0.0512  0.3121
  756MPD2    C311222   1.701   3.500   9.971  0.9716 -0.0022 -0.1055
  756MPD2    C411223   1.780   3.550   9.873 -0.3048 -0.5342  0.3268
  756MPD2    C511224   1.912   3.513   9.870 -0.5577  0.0988 -0.3365
  756MPD2     H11225   1.684   3.395  10.147 -0.4376  1.5088  0.5501
  756MPD2    H111226   1.732   3.610   9.796 -2.3588 -0.8621  1.3651
  756MPD2    H211227   2.077   3.428   9.959  0.3025 -1.9775  0.3335
  756MPD2    H311228   1.978   3.561   9.798 -0.2542 -0.5122 -0.4652
  756MPD2     N11229   1.568   3.536   9.979 -0.3937  0.0530 -0.1993
  756MPD2    H511230   1.522   3.484  10.053 -0.2880 -1.3267 -1.0969
  756MPD2    N111231   1.936   3.330  10.186 -0.0420  0.3887  0.1807
  756MPD2    H711232   1.866   3.313  10.257  0.9234  0.8794  1.2482
  757MPD2     C11233   1.071   3.137  10.517 -0.2351  0.3771  0.0988
  757MPD2    C111234   1.200   3.133  10.458 -0.9533 -0.1136  0.4552
  757MPD2    C211235   1.228   3.230  10.368  0.4524 -0.0727  0.7119
  757MPD2    C311236   1.135   3.331  10.334 -1.0593 -0.0703  0.0674
  757MPD2    C411237   1.014   3.340  10.400 -0.5090 -0.1873 -0.4996
  757MPD2    C511238   0.985   3.240  10.487 -0.3572  0.0731  0.6995
  757MPD2     H11239   1.317   3.229  10.306  0.4244  0.8435  0.6553
  757MPD2    H111240   0.936   3.414  10.390 -0.7669 -0.5417 -1.1114
  757MPD2    H211241   1.031   3.077  10.598 -0.0430  0.3438  0.1695
  757MPD2    H311242   0.894   3.250  10.544  0.0106 -0.2045  1.3366
  757MPD2     N11243   1.179   3.407  10.225  0.2725  0.2653  0.6732
  757MPD2    H511244   1.277   3.395  10.202  0.0415  1.4538 -0.8972
  757MPD2    N111245   1.280   3.031  10.504 -0.1158 -0.8726 -0.2251
  757MPD2    H711246   1.234   2.961  10.562 -0.6489 -0.5212 -0.2240
  758MPD2     C11247   2.415   2.485  16.339 -0.9288 -0.2458  0.3579
  758MPD2    C111248   2.483   2.386  16.415 -0.7884  0.2155  0.3022
  758MPD2    C211249   2.410   2.326  16.513 -0.3523  0.4642 -0.1176
  758MPD2    C311250   2.292   2.379  16.568 -0.7456 -0.4015 -0.2301
  758MPD2    C411251   2.237   2.484  16.508  0.5611  0.2458 -0.3648
  758MPD2    C511252   2.299   2.532  16.390 -0.1284 -0.0609 -0.0480
  758MPD2     H11253   2.457   2.237  16.553  0.2959  0.6480 -0.4744
  758MPD2    H111254   2.142   2.521  16.544  0.7065  0.6277 -0.3774
  758MPD2    H211255   2.448   2.525  16.244 -0.3320  2.2214  1.5845
  758MPD2    H311256   2.239   2.603  16.334  0.5401  0.5734  0.0377
  758MPD2     N11257   2.233   2.328  16.686  0.3022  0.4283 -0.3955
  758MPD2    H511258   2.156   2.379  16.729  0.5125  0.7870 -0.4458
  758MPD2    N111259   2.612   2.345  16.369  0.0509  0.2356 -0.2641
  758MPD2    H711260   2.650   2.376  16.281  0.8848 -0.3291 -0.1072
  759MPD2     C11261   0.404   0.259  10.897 -0.5046 -0.2404  0.3174
  759MPD2    C111262   0.495   0.239  10.798  0.5673 -0.1156  0.4407
  759MPD2    C211263   0.601   0.327  10.798 -0.2314  0.3230  1.0137
  759MPD2    C311264   0.612   0.442  10.877 -0.6404 -0.1276 -0.2211
  759MPD2    C411265   0.516   0.462  10.973  0.2042 -0.3489 -0.0188
  759MPD2    C511266   0.412   0.376  10.980 -0.2231  0.9728  0.1652
  759MPD2     H11267   0.680   0.305  10.726  0.9135 -0.8258  2.6140
  759MPD2    H111268   0.526   0.537  11.051  1.0491 -0.5427  0.0562
  759MPD2    H211269   0.325   0.186  10.912  0.9295 -2.0342 -0.8444
  759MPD2    H311270   0.349   0.389  11.068 -1.7682  2.2790 -1.1373
  759MPD2     N11271   0.725   0.525  10.862  0.6311 -0.1641  0.9915
  759MPD2    H511272   0.798   0.500  10.795 -0.3399 -0.8805  0.2137
  759MPD2    N111273   0.489   0.128  10.712  0.1809 -0.3216  0.8194
  759MPD2    H711274   0.578   0.113  10.664  0.5675 -1.0679  1.7564
  760MPD2     C11275   0.256   2.753  12.287  0.2050 -0.2611  0.2445
  760MPD2    C111276   0.344   2.855  12.248 -0.2462 -0.0213  0.5544
  760MPD2    C211277   0.456   2.820  12.176 -0.0667 -0.0403 -0.0991
  760MPD2    C311278   0.487   2.689  12.147  0.1518 -0.0314 -0.3602
  760MPD2    C411279   0.395   2.588  12.185  0.3449  0.0770  0.6462
  760MPD2    C511280   0.282   2.624  12.250 -0.0703  0.0082 -0.0235
  760MPD2     H11281   0.520   2.895  12.130 -1.4969  0.0526 -1.9532
  760MPD2    H111282   0.407   2.481  12.170 -3.4517 -0.0195 -1.5897
  760MPD2    H211283   0.163   2.770  12.340  0.5731  1.1370  0.4568
  760MPD2    H311284   0.214   2.543  12.276  2.2275 -1.3889  1.6731
  760MPD2     N11285   0.594   2.652  12.063 -0.3057 -0.0423 -0.2545
  760MPD2    H511286   0.602   2.553  12.040 -2.1230 -0.1809 -0.2685
  760MPD2    N111287   0.329   2.988  12.290 -0.1258  0.6127  0.1206
  760MPD2    H711288   0.397   3.055  12.256 -0.9232  1.8935  1.0151
  761MPD2     C11289   1.644   2.177  11.455  0.1675  1.2166 -0.1181
  761MPD2    C111290   1.728   2.095  11.388  0.0294 -0.0879 -0.4574
  761MPD2    C211291   1.863   2.136  11.366  0.0097 -0.2608 -0.8778
  761MPD2    C311292   1.917   2.255  11.414  0.3044  0.0605  0.1054
  761MPD2    C411293   1.826   2.345  11.474 -0.6266 -0.6383 -0.3810
  761MPD2    C511294   1.697   2.301  11.495 -0.1264  0.5892 -0.1781
  761MPD2     H11295   1.932   2.076  11.308  0.5390 -0.1970 -0.3109
  761MPD2    H111296   1.847   2.445  11.511  1.1956 -1.9722  2.1494
  761MPD2    H211297   1.542   2.140  11.467  0.4821  0.1142 -0.8516
  761MPD2    H311298   1.633   2.377  11.538  0.3929 -0.3314  2.2063
  761MPD2     N11299   2.055   2.295  11.406 -0.3293 -0.1112 -0.3261
  761MPD2    H511300   2.076   2.390  11.437 -1.0790  0.5114 -1.7341
  761MPD2    N111301   1.687   1.963  11.347  0.0312 -0.5307 -0.1062
  761MPD2    H711302   1.588   1.945  11.364 -0.0509  0.2484  0.2489
  762MPD2     C11303   2.167   1.891  11.057 -0.1983 -0.4354 -0.3007
  762MPD2    C111304   2.160   1.755  11.065  0.1665 -0.4006  0.4965
  762MPD2    C211305   2.270   1.675  11.035  0.3500 -0.5419  0.7097
  762MPD2    C311306   2.392   1.737  10.997 -0.7600  0.0385 -0.6521
  762MPD2    C411307   2.393   1.879  10.988 -0.1400 -1.0601  0.3767
  762MPD2    C511308   2.282   1.950  11.015  0.4794 -0.7807 -0.4235
  762MPD2     H11309   2.262   1.567  11.049 -1.4627 -1.0761 -4.2879
  762MPD2    H111310   2.481   1.933  10.955  0.9797 -3.8799 -1.2358
  762MPD2    H211311   2.084   1.957  11.080 -0.6004 -0.9997 -0.1441
  762MPD2    H311312   2.294   2.057  11.001 -2.1257 -0.5631 -1.0438
  762MPD2     N11313   2.511   1.657  10.979 -0.0897 -0.5708  0.3451
  762MPD2    H511314   2.497   1.557  10.988 -1.4284 -0.2426  1.8229
  762MPD2    N111315   2.039   1.703  11.107  0.0404  0.2350  0.5455
  762MPD2    H711316   1.964   1.766  11.134 -1.0232 -0.2124 -1.3369
  763MPD2     C11317   4.583   2.122  16.384  0.9580  0.4473  0.3448
  763MPD2    C111318   4.473   2.180  16.435 -0.2558  0.5072 -0.6061
  763MPD2    C211319   4.471   2.243  16.566  0.8655 -0.0003  0.2085
  763MPD2    C311320   4.587   2.243  16.643  0.4163 -0.1826 -0.2236
  763MPD2    C411321   4.700   2.183  16.590  0.0368  0.2587  0.0890
  763MPD2    C511322   4.701   2.132  16.462 -0.0487 -0.7644  0.2946
  763MPD2     H11323   4.383   2.286  16.611  0.6699 -1.7536  1.4996
  763MPD2    H111324   0.055   2.177  16.643  0.0803 -1.0765 -0.1515
  763MPD2    H211325   4.590   2.061  16.294 -1.3602 -2.1216  1.9008
  763MPD2    H311326   0.048   2.074  16.434  0.4686  0.3756 -0.4482
  763MPD2     N11327   4.609   2.303  16.768 -0.7867 -1.0807  0.1234
  763MPD2    H511328   4.708   2.318  16.787 -0.8617 -1.8184  1.0703
  763MPD2    N111329   4.350   2.176  16.364  0.1418 -0.5088 -0.3434
  763MPD2    H711330   4.279   2.246  16.381 -0.9644 -1.7690  0.2040
  764MPD2     C11331   2.535   3.849   0.504 -0.0092  0.3699 -0.4519
  764MPD2    C111332   2.447   3.743   0.489 -0.3957  0.6989 -0.0495
  764MPD2    C211333   2.441   3.658   0.595  0.6799 -0.4482 -0.0931
  764MPD2    C311334   2.503   3.676   0.721 -0.1382 -0.3048  0.8087
  764MPD2    C411335   2.586   3.782   0.733 -0.6031 -0.5197  0.1131
  764MPD2    C511336   2.604   3.862   0.623 -0.3724 -0.0626  0.2103
  764MPD2     H11337   2.377   3.571   0.598 -0.7500  0.6668  1.9429
  764MPD2    H111338   2.641   3.812   0.821 -1.5394 -0.8877  0.8137
  764MPD2    H211339   2.539   3.924   0.425  2.4227 -0.1998 -0.8669
  764MPD2    H311340   2.664   3.951   0.626 -2.1934  1.1709 -0.1141
  764MPD2     N11341   2.474   3.587   0.825 -0.6527  0.1948 -0.8198
  764MPD2    H511342   2.407   3.512   0.812  2.7382 -2.4366 -2.8572
  764MPD2    N111343   2.352   3.736   0.393  0.2249  0.3398  0.9615
  764MPD2    H711344   2.283   3.661   0.390 -0.7697  1.3643 -2.5058
  765MPD2     C11345   1.875   1.496  16.048  0.2078  0.5067  0.6828
  765MPD2    C111346   1.954   1.583  16.115 -0.4354 -0.4907 -0.0357
  765MPD2    C211347   2.080   1.553  16.153  0.0720 -0.8247  0.8440
  765MPD2    C311348   2.130   1.430  16.121 -1.0475  1.0178 -0.7891
  765MPD2    C411349   2.050   1.345  16.049  0.1434  0.0374  0.1755
  765MPD2    C511350   1.922   1.375  16.017 -0.2762  1.3151 -1.1604
  765MPD2     H11351   2.142   1.627  16.203  0.5319  0.9860 -2.3956
  765MPD2    H111352   2.078   1.247  16.013  0.0584  0.4862 -1.1212
  765MPD2    H211353   1.777   1.520  16.009 -0.1683  1.1960  2.0645
  765MPD2    H311354   1.863   1.305  15.960  1.4141  0.0577 -1.3689
  765MPD2     N11355   2.267   1.398  16.158  0.3189  0.3971  0.0290
  765MPD2    H511356   2.323   1.464  16.209  0.2711  0.0107  0.5742
  765MPD2    N111357   1.889   1.703  16.147  0.1337 -0.0045  0.3111
  765MPD2    H711358   1.800   1.717  16.099  0.8072  1.4253 -0.5274
  766MPD2     C11359   1.425   2.038  15.695  0.5216  0.1694 -0.6748
  766MPD2    C111360   1.529   1.957  15.728 -0.2045 -0.0305  0.1001
  766MPD2    C211361   1.571   1.852  15.643 -0.5474  0.1702  0.0314
  766MPD2    C311362   1.530   1.858  15.510  0.3505 -0.5992 -0.7968
  766MPD2    C411363   1.416   1.936  15.480 -0.2301 -0.5614  0.0810
  766MPD2    C511364   1.364   2.016  15.567 -0.2807  0.4556 -0.2432
  766MPD2     H11365   1.661   1.804  15.677 -0.2251 -0.6163 -1.9734
  766MPD2    H111366   1.373   1.933  15.381  0.2138 -1.4067 -0.0851
  766MPD2    H211367   1.389   2.109  15.768  2.5855  1.7240 -1.1789
  766MPD2    H311368   1.280   2.079  15.539 -1.9773 -0.9279  1.7179
  766MPD2     N11369   1.594   1.790  15.403 -0.5346  0.1705  0.6099
  766MPD2    H511370   1.559   1.791  15.308 -0.5925  0.7884  0.6425
  766MPD2    N111371   1.607   1.970  15.840  0.0455  0.5793 -0.0022
  766MPD2    H711372   1.682   1.903  15.844  0.1138  0.8008  2.5255
  767MPD2     C11373   1.300   2.275  15.284 -0.1304 -0.9100 -0.5685
  767MPD2    C111374   1.418   2.212  15.270 -0.0749  0.0570 -0.9530
  767MPD2    C211375   1.438   2.111  15.176  0.7776  0.5710 -0.2934
  767MPD2    C311376   1.336   2.083  15.088  0.3345  0.4783 -0.5143
  767MPD2    C411377   1.210   2.143  15.117 -0.0311  0.4672  0.0802
  767MPD2    C511378   1.197   2.238  15.209  0.2405 -0.0470  0.7225
  767MPD2     H11379   1.534   2.067  15.149  0.8875  1.4402 -1.3321
  767MPD2    H111380   1.119   2.114  15.065 -1.4245  0.1659  2.6588
  767MPD2    H211381   1.281   2.358  15.352  1.0132 -1.5644  0.5575
  767MPD2    H311382   1.102   2.288  15.223 -1.4580 -3.4552  1.4242
  767MPD2     N11383   1.363   1.984  14.991 -0.2189  0.6128  0.3372
  767MPD2    H511384   1.454   1.940  14.983  0.1635  1.4355  0.2248
  767MPD2    N111385   1.521   2.251  15.361  0.4445  0.1974 -0.0521
  767MPD2    H711386   1.503   2.327  15.426 -1.6513 -0.6421  0.3635
  768MPD2     C11387   1.983   0.516  10.792 -0.1500 -1.2220  0.0283
  768MPD2    C111388   1.924   0.456  10.900 -0.7438  0.8643 -0.3021
  768MPD2    C211389   2.004   0.376  10.983 -0.1577  0.5090  0.2814
  768MPD2    C311390   2.141   0.349  10.956 -0.3102 -0.5866 -0.0434
  768MPD2    C411391   2.185   0.389  10.833  0.3021  0.5422 -0.3671
  768MPD2    C511392   2.110   0.482  10.766  0.0885  0.8369 -0.4039
  768MPD2     H11393   1.960   0.328  11.070  1.6278  1.1560  1.5193
  768MPD2    H111394   2.287   0.366  10.804 -0.5361  0.2358 -3.0808
  768MPD2    H211395   1.937   0.584  10.720 -1.3101 -0.5345  1.4141
  768MPD2    H311396   2.142   0.520  10.670 -0.7005  1.9355 -0.2282
  768MPD2     N11397   2.231   0.277  11.030  0.3739  0.2241  0.1313
  768MPD2    H511398   2.329   0.269  11.002  0.1079 -2.4574 -0.0506
  768MPD2    N111399   1.786   0.472  10.936 -0.3973  0.1462 -0.4824
  768MPD2    H711400   1.763   0.428  11.024  1.9663 -1.0869 -0.4693
  769MPD2     C11401   3.327   2.855  15.347  0.3852  0.8223 -0.1304
  769MPD2    C111402   3.314   2.990  15.332 -0.6046 -0.1043 -0.2087
  769MPD2    C211403   3.357   3.075  15.431  0.8775 -0.1356 -0.2324
  769MPD2    C311404   3.417   3.025  15.550  0.1556 -0.3831 -0.2431
  769MPD2    C411405   3.435   2.890  15.558 -0.0643 -0.8732 -0.4451
  769MPD2    C511406   3.394   2.809  15.456  0.7063  0.3774  0.0799
  769MPD2     H11407   3.346   3.181  15.410  3.3741  0.5662  2.0961
  769MPD2    H111408   3.486   2.837  15.637 -1.5328 -1.6563 -0.0465
  769MPD2    H211409   3.285   2.781  15.280 -0.5429  2.1108 -0.9601
  769MPD2    H311410   3.399   2.703  15.473  0.2378  0.2429 -0.6049
  769MPD2     N11411   3.453   3.115  15.650 -0.0476  0.4711 -0.7036
  769MPD2    H511412   3.450   3.214  15.629  0.1933  0.4122 -1.0157
  769MPD2    N111413   3.253   3.034  15.209 -0.7230  0.5821 -0.4624
  769MPD2    H711414   3.224   2.963  15.142 -0.1255  0.3140 -0.4310
  770MPD2     C11415   2.494   2.819  15.060  0.6204 -0.1529 -0.0423
  770MPD2    C111416   2.621   2.767  15.076 -0.2644  0.6175  0.1707
  770MPD2    C211417   2.722   2.854  15.052 -0.0625  0.2663 -0.4659
  770MPD2    C311418   2.704   2.978  15.004 -0.7274  0.6896  0.1212
  770MPD2    C411419   2.580   3.034  14.973 -0.3207  0.2726 -0.5930
  770MPD2    C511420   2.476   2.950  15.010 -0.2588  0.3795  0.2143
  770MPD2     H11421   2.824   2.824  15.071 -0.1279 -0.7456 -1.7225
  770MPD2    H111422   2.553   3.135  14.943  2.5785  1.2052  0.0161
  770MPD2    H211423   2.406   2.763  15.089 -0.6676  0.7530 -2.1642
  770MPD2    H311424   2.372   2.976  14.997 -0.7439 -0.9681  1.3627
  770MPD2     N11425   2.824   3.050  14.986  0.3066 -0.2075 -0.1371
  770MPD2    H511426   2.902   2.986  14.998  1.5421  1.2478 -0.4088
  770MPD2    N111427   2.641   2.634  15.127 -0.0458 -0.1441 -0.6860
  770MPD2    H711428   2.562   2.580  15.161 -0.4056  0.5671 -0.4157
  771MPD2     C11429   3.683   1.032  14.066  0.2001 -0.0973  0.2401
  771MPD2    C111430   3.759   0.969  13.970  0.0109  0.0548  0.3402
  771MPD2    C211431   3.694   0.906  13.865  0.8865  0.0997  0.0797
  771MPD2    C311432   3.559   0.899  13.856  0.6671  0.4833 -0.2619
  771MPD2    C411433   3.485   0.967  13.946 -0.1166 -0.0730  0.0939
  771MPD2    C511434   3.545   1.024  14.054  0.7825  0.6263 -0.3986
  771MPD2     H11435   3.752   0.845  13.797  2.3777  0.1084  1.3397
  771MPD2    H111436   3.377   0.959  13.948 -0.0859 -0.1299  1.6205
  771MPD2    H211437   3.724   1.078  14.155 -0.5016  0.9219  0.0300
  771MPD2    H311438   3.484   1.068  14.133 -1.9347 -1.6975 -1.1999
  771MPD2     N11439   3.493   0.828  13.756 -0.6062 -0.0008 -0.1426
  771MPD2    H511440   3.538   0.757  13.698 -2.8419 -0.7663 -0.9453
  771MPD2    N111441   3.902   0.966  13.971 -0.0739  0.2712  0.2491
  771MPD2    H711442   3.951   0.893  13.921  0.2435  0.3171  0.4892
  772MPD2     C11443   4.148   1.574  14.231  0.2051 -0.2407  1.2466
  772MPD2    C111444   4.073   1.456  14.236 -0.3089  0.6130 -0.0288
  772MPD2    C211445   3.937   1.456  14.267 -0.8666  0.4923 -0.0396
  772MPD2    C311446   3.875   1.578  14.286 -0.3898 -0.3815  0.5997
  772MPD2    C411447   3.955   1.688  14.297 -0.2081  0.4762 -0.7605
  772MPD2    C511448   4.086   1.687  14.273 -0.0145  0.1529 -0.3309
  772MPD2     H11449   3.885   1.361  14.263  1.8726 -1.0869  1.2593
  772MPD2    H111450   3.907   1.783  14.320  2.1743  1.2387  1.0314
  772MPD2    H211451   4.254   1.579  14.207 -0.6545 -2.3580 -3.1073
  772MPD2    H311452   4.144   1.777  14.292 -0.1966  0.0438  0.7503
  772MPD2     N11453   3.734   1.597  14.297  0.7528  0.2092  0.0758
  772MPD2    H511454   3.704   1.683  14.342 -2.2578 -1.7802  1.8935
  772MPD2    N111455   4.139   1.335  14.207 -0.1363  0.5389  0.0751
  772MPD2    H711456   4.084   1.250  14.197 -0.3619  0.7304 -0.3387
  773MPD2     C11457   3.381   1.946   0.555  0.8886  0.8254  0.1214
  773MPD2    C111458   3.294   1.861   0.499 -0.0758 -0.5850 -0.0633
  773MPD2    C211459   3.326   1.728   0.476  0.0029 -0.1103 -0.4272
  773MPD2    C311460   3.448   1.682   0.519  0.3476  0.9885  0.5600
  773MPD2    C411461   3.538   1.766   0.576  0.0214  1.0387 -0.8831
  773MPD2    C511462   3.505   1.903   0.599 -0.1165  1.1079  0.1380
  773MPD2     H11463   3.260   1.660   0.421 -0.3776 -1.3681  1.5834
  773MPD2    H111464   3.637   1.734   0.607  0.4508 -1.3675 -4.7092
  773MPD2    H211465   3.366   2.053   0.566 -2.4603  0.0052  3.4422
  773MPD2    H311466   3.577   1.974   0.638 -0.1356  0.0441  2.0892
  773MPD2     N11467   3.474   1.552   0.469 -0.8469 -0.3442  0.3580
  773MPD2    H511468   3.403   1.521   0.403  1.2845  0.7933 -2.4590
  773MPD2    N111469   3.174   1.912   0.453  0.1755 -0.1077  0.5703
  773MPD2    H711470   3.111   1.847   0.408 -0.4672  1.3943 -0.7134
  774MPD2     C11471   2.225   1.616  13.613  0.2124  0.5065 -0.5263
  774MPD2    C111472   2.178   1.688  13.720 -0.0900 -0.4876  0.3763
  774MPD2    C211473   2.100   1.801  13.704  0.4375 -0.3499  0.4482
  774MPD2    C311474   2.087   1.855  13.574  0.0606  0.1818 -0.6046
  774MPD2    C411475   2.139   1.787  13.467 -0.0121 -0.3989 -0.4045
  774MPD2    C511476   2.198   1.667  13.490 -0.4825  0.2529 -0.7050
  774MPD2     H11477   2.067   1.862  13.787 -2.1891 -1.8461  0.4889
  774MPD2    H111478   2.129   1.819  13.364 -0.8417 -0.5197 -0.3591
  774MPD2    H211479   2.287   1.529  13.632 -0.0553  0.5690  0.6568
  774MPD2    H311480   2.225   1.614  13.399  1.2696  0.1982 -0.1443
  774MPD2     N11481   2.038   1.981  13.558  0.3483  0.3314 -0.2632
  774MPD2    H511482   1.990   2.024  13.636 -0.7778  0.2613 -0.9184
  774MPD2    N111483   2.204   1.634  13.850 -0.4371  0.4944 -0.4426
  774MPD2    H711484   2.269   1.556  13.855  0.1260  0.9500 -0.5426
  775MPD2     C11485   3.758   2.874  15.989 -0.3926  0.1207  0.0670
  775MPD2    C111486   3.835   2.976  16.027 -0.6590 -0.2167  0.0903
  775MPD2    C211487   3.874   3.078  15.947  0.0065 -0.6586 -0.0763
  775MPD2    C311488   3.853   3.065  15.813 -0.4848 -0.7740 -0.6648
  775MPD2    C411489   3.800   2.953  15.766  0.3539  0.1782  0.1663
  775MPD2    C511490   3.741   2.860  15.854 -0.2075  0.0335  0.6027
  775MPD2     H11491   3.925   3.164  15.989 -0.0753 -1.2894  1.3441
  775MPD2    H111492   3.773   2.948  15.661 -0.9604 -3.0811  0.6845
  775MPD2    H211493   3.726   2.793  16.054 -1.1137  2.6424  2.8620
  775MPD2    H311494   3.685   2.782  15.804 -2.1182  0.2147  2.4154
  775MPD2     N11495   3.899   3.166  15.721 -0.6575 -0.2750 -0.3605
  775MPD2    H511496   3.898   3.149  15.621  0.4696  0.5485 -0.5171
  775MPD2    N111497   3.868   2.977  16.166  0.0537  0.3673 -0.4474
  775MPD2    H711498   3.821   2.909  16.225  2.6511  0.6000  1.8489
  776MPD2     C11499   1.978   3.544  11.984  0.0435  0.4485  0.8863
  776MPD2    C111500   2.115   3.555  11.956 -0.4968 -0.1629  0.5435
  776MPD2    C211501   2.157   3.683  11.909  0.2261  0.5164 -0.4964
  776MPD2    C311502   2.054   3.778  11.880 -0.0882  0.6230  0.7816
  776MPD2    C411503   1.924   3.757  11.903 -0.5501 -0.8152 -0.0377
  776MPD2    C511504   1.885   3.642  11.962  0.0659 -0.5800  0.2657
  776MPD2     H11505   2.262   3.711  11.898  0.8243 -0.7895  1.8583
  776MPD2    H111506   1.856   3.839  11.883 -1.1131 -1.6112 -1.3941
  776MPD2    H211507   1.952   3.450  12.030  0.6265 -0.1805 -0.0491
  776MPD2    H311508   1.783   3.630  11.997  0.0810 -2.6488 -0.3929
  776MPD2     N11509   2.084   3.908  11.830  1.2357 -0.6305  0.0418
  776MPD2    H511510   2.008   3.974  11.820 -0.2227 -2.1563  0.9956
  776MPD2    N111511   2.201   3.442  11.974 -0.3482  0.3672 -0.0027
  776MPD2    H711512   2.158   3.365  12.023  0.6355 -1.0593 -1.3823
  777MPD2     C11513   3.643   0.637   0.814  0.1894  0.3954 -0.9043
  777MPD2    C111514   3.546   0.590   0.900 -0.2217  0.6589 -0.2574
  777MPD2    C211515   3.459   0.497   0.851  0.0003  0.5902  0.0506
  777MPD2    C311516   3.471   0.439   0.721  0.0483  0.4637 -0.5668
  777MPD2    C411517   3.567   0.502   0.642 -0.6359  0.1089  0.2243
  777MPD2    C511518   3.650   0.597   0.686  0.0054 -0.4166  0.0162
  777MPD2     H11519   3.391   0.447   0.919 -0.1270  1.2431  0.4093
  777MPD2    H111520   3.597   0.471   0.542 -1.9581  0.6267 -0.3257
  777MPD2    H211521   3.714   0.713   0.847 -0.2283  0.2848  0.2478
  777MPD2    H311522   3.737   0.631   0.631 -0.8780  0.1208 -1.0378
  777MPD2     N11523   3.387   0.339   0.675 -0.1465 -0.5989  1.1304
  777MPD2    H511524   3.354   0.272   0.744  1.5270  2.0396  4.4877
  777MPD2    N111525   3.547   0.641   1.034 -0.2491 -0.1116  0.6214
  777MPD2    H711526   3.626   0.698   1.063 -1.1953 -0.1797  3.4145
  778MPD2     C11527   4.192   1.532  15.131 -0.3690  0.3361  0.4370
  778MPD2    C111528   4.241   1.404  15.146  1.0040 -0.7786  0.1321
  778MPD2    C211529   4.353   1.370  15.075  0.2523 -0.2357 -0.2201
  778MPD2    C311530   4.400   1.457  14.974  0.1876 -0.5702  1.5634
  778MPD2    C411531   4.339   1.581  14.944  0.0468 -0.0424  0.4649
  778MPD2    C511532   4.233   1.616  15.024 -0.2935 -0.8730 -0.4618
  778MPD2     H11533   4.406   1.278  15.095 -0.2195  0.2600  3.2446
  778MPD2    H111534   4.381   1.660  14.882  2.3497 -0.5488  1.4081
  778MPD2    H211535   4.128   1.570  15.209  1.5069  1.3386  1.4870
  778MPD2    H311536   4.186   1.714  15.018  2.5791  0.6673  2.2690
  778MPD2     N11537   4.512   1.416  14.894  0.2565  0.0871 -0.5728
  778MPD2    H511538   4.564   1.332  14.917 -1.4513 -0.3244  1.6932
  778MPD2    N111539   4.185   1.304  15.232  0.4427  0.6076  0.7994
  778MPD2    H711540   4.234   1.215  15.225 -0.7983  0.0472 -0.6741
  779MPD2     C11541   3.810   4.688  13.927 -0.5916  0.8152  0.1710
  779MPD2    C111542   3.903   4.657  14.028 -0.6785 -0.1420 -0.1730
  779MPD2    C211543   3.969   0.015  14.095 -0.4875 -0.0863  0.5038
  779MPD2    C311544   3.959   0.146  14.054  0.3452  0.0260 -0.4155
  779MPD2    C411545   3.881   0.176  13.940  0.2120 -0.3702 -0.7855
  779MPD2    C511546   3.797   0.081  13.890  0.5516  0.0016  0.1361
  779MPD2     H11547   4.030   4.727  14.180 -2.0344 -0.1174  1.6170
  779MPD2    H111548   3.884   0.277  13.900  0.4132 -0.2067 -0.3626
  779MPD2    H211549   3.741   4.615  13.886  0.9286 -0.4703 -0.1132
  779MPD2    H311550   3.735   0.120  13.811  1.3846  0.4745 -0.2744
  779MPD2     N11551   4.041   0.249  14.110 -0.0832 -0.4472  0.1047
  779MPD2    H511552   4.037   0.343  14.073 -0.5953 -0.6397 -0.3326
  779MPD2    N111553   3.915   4.525  14.070 -0.3628  0.2597  0.1292
  779MPD2    H711554   3.958   4.506  14.160 -1.0231  0.4279  0.4798
  780MPD2     C11555   3.577   4.102   0.915  0.3026  0.7242  0.4012
  780MPD2    C111556   3.492   4.104   0.805  0.4526  0.0052 -0.0883
  780MPD2    C211557   3.529   4.177   0.696 -0.1438 -0.0415  0.3857
  780MPD2    C311558   3.649   4.247   0.691 -0.0682  0.4617 -0.3821
  780MPD2    C411559   3.734   4.247   0.802 -0.1940  0.0847  0.3473
  780MPD2    C511560   3.699   4.173   0.909  0.0038  0.6047 -0.9356
  780MPD2     H11561   3.464   4.180   0.609  0.4468 -0.5355 -0.0713
  780MPD2    H111562   3.823   4.308   0.812  1.1503 -1.7671 -0.4664
  780MPD2    H211563   3.547   4.054   1.007  1.4645 -2.3864 -0.8190
  780MPD2    H311564   3.759   4.162   0.998 -0.6502 -0.6120 -0.6409
  780MPD2     N11565   3.677   4.314   0.566 -0.3306 -0.0897  0.2346
  780MPD2    H511566   3.616   4.305   0.486 -0.0023 -1.4809  0.1329
  780MPD2    N111567   3.361   4.046   0.817  0.2042  0.6653  0.0933
  780MPD2    H711568   3.340   3.980   0.891 -1.5289  0.5060 -0.5363
  781MPD2     C11569   4.483   1.702  12.395  0.5498 -1.0122 -0.1283
  781MPD2    C111570   4.582   1.769  12.469  0.1067 -0.1825 -0.5265
  781MPD2    C211571   4.658   1.875  12.409  1.3370 -0.3284  0.2412
  781MPD2    C311572   4.635   1.905  12.276  0.2288 -0.2275  0.2132
  781MPD2    C411573   4.538   1.833  12.209 -0.4384 -0.0216 -0.9361
  781MPD2    C511574   4.465   1.738  12.266  0.1448 -0.4088 -0.0820
  781MPD2     H11575   4.730   1.924  12.474  0.4596  0.9414  0.2453
  781MPD2    H111576   4.537   1.853  12.102 -1.6251 -0.0064 -0.9211
  781MPD2    H211577   4.417   1.622  12.427 -0.0223 -0.1789  0.7710
  781MPD2    H311578   4.385   1.693  12.208 -0.0268 -1.6067  1.0662
  781MPD2     N11579   4.722   1.979  12.194 -0.1204  0.6982  0.0929
  781MPD2    H511580   4.718   1.962  12.094  2.1724  0.6678  0.0245
  781MPD2    N111581   4.602   1.752  12.606  0.2300  0.2008  0.6558
  781MPD2    H711582   4.665   1.814  12.655  0.4803 -0.2475  0.9030
  782MPD2     C11583   3.421   2.571  10.476  0.3570  0.7323  0.1912
  782MPD2    C111584   3.408   2.509  10.597  0.0094 -0.2777  0.0909
  782MPD2    C211585   3.439   2.582  10.712 -0.5613 -0.1408 -0.4677
  782MPD2    C311586   3.480   2.714  10.705 -0.4726  0.4347 -0.3697
  782MPD2    C411587   3.496   2.768  10.578 -0.0220  0.2643 -0.0478
  782MPD2    C511588   3.471   2.699  10.471 -0.3788 -0.0512  0.2542
  782MPD2     H11589   3.430   2.546  10.814 -0.1258  2.4608  0.4897
  782MPD2    H111590   3.534   2.869  10.562  0.5341  0.2068  0.9002
  782MPD2    H211591   3.395   2.526  10.381 -1.3463  1.2744  0.4105
  782MPD2    H311592   3.476   2.742  10.372  1.9596  1.3730  0.9787
  782MPD2     N11593   3.497   2.788  10.820  1.1325  0.0368  0.4783
  782MPD2    H511594   3.468   2.748  10.909  3.2134 -2.9071 -0.1489
  782MPD2    N111595   3.361   2.376  10.606 -0.1895  0.0082  0.3077
  782MPD2    H711596   3.348   2.342  10.701  3.4482  0.1608  0.8520
  783MPD2     C11597   2.444   2.176  10.771 -0.2531 -0.4693  0.5030
  783MPD2    C111598   2.533   2.211  10.873  0.0181 -0.0658  0.5184
  783MPD2    C211599   2.673   2.185  10.846 -1.1316  0.1955 -0.1000
  783MPD2    C311600   2.716   2.129  10.733 -0.0165  1.0835 -0.5645
  783MPD2    C411601   2.625   2.105  10.630 -0.6623 -0.7832  0.2470
  783MPD2    C511602   2.494   2.123  10.650 -0.1637  0.0375  0.0301
  783MPD2     H11603   2.747   2.212  10.921 -0.4933  1.5904 -1.2111
  783MPD2    H111604   2.656   2.071  10.532 -1.3635  1.3753 -0.7134
  783MPD2    H211605   2.337   2.176  10.786 -0.0881  1.1085  1.7555
  783MPD2    H311606   2.431   2.093  10.567 -0.2145  0.2099  0.0075
  783MPD2     N11607   2.850   2.111  10.717  0.0406 -0.1082 -0.3241
  783MPD2    H511608   2.916   2.134  10.791 -1.1551  0.5812  0.5391
  783MPD2    N111609   2.483   2.248  11.001  0.6772  0.6650  0.4858
  783MPD2    H711610   2.383   2.246  11.015  0.4249 -1.0801 -1.6416
  784MPD2     C11611   1.370   2.841   0.827 -0.5340 -0.1328  0.2204
  784MPD2    C111612   1.366   2.975   0.837 -0.2678 -0.9327 -0.2860
  784MPD2    C211613   1.255   3.045   0.794  0.9329  0.4166 -0.0429
  784MPD2    C311614   1.151   2.979   0.735  0.6896  0.5158  0.5676
  784MPD2    C411615   1.154   2.846   0.731  0.5882  0.4577  0.8914
  784MPD2    C511616   1.264   2.776   0.777  0.2905  0.0794 -0.8201
  784MPD2     H11617   1.256   3.153   0.809 -0.0062  0.1411  1.9759
  784MPD2    H111618   1.083   2.794   0.668  2.0256 -1.4621  0.8418
  784MPD2    H211619   1.461   2.791   0.856 -0.0863  0.5021 -0.0951
  784MPD2    H311620   1.255   2.669   0.761 -1.0618  0.3308 -1.6946
  784MPD2     N11621   1.043   3.052   0.684 -0.0374 -0.0864 -0.2662
  784MPD2    H511622   1.053   3.153   0.689  1.2560 -0.1914 -0.7142
  784MPD2    N111623   1.462   3.049   0.914 -0.0464  0.4980 -0.3055
  784MPD2    H711624   1.442   3.148   0.924  1.3096  0.7380  0.0362
  785MPD2     C11625   0.725   1.197  11.329  0.0596 -0.2196 -1.1405
  785MPD2    C111626   0.688   1.316  11.269 -0.0951 -0.3226 -0.3299
  785MPD2    C211627   0.570   1.308  11.202  0.6916  0.9925 -0.1342
  785MPD2    C311628   0.498   1.191  11.180  0.6641  0.7716  0.1022
  785MPD2    C411629   0.535   1.078  11.244  0.2713 -0.3456  0.0671
  785MPD2    C511630   0.647   1.081  11.321  0.3332 -0.0143  0.3597
  785MPD2     H11631   0.531   1.400  11.160  0.6416  0.9878 -0.0972
  785MPD2    H111632   0.483   0.983  11.240 -2.3972  1.1537 -0.7472
  785MPD2    H211633   0.813   1.194  11.393 -1.0867  0.9034  0.4980
  785MPD2    H311634   0.681   1.005  11.391 -2.7882 -1.2499  0.5046
  785MPD2     N11635   0.379   1.217  11.111  0.2864  0.4481 -0.5526
  785MPD2    H511636   0.358   1.310  11.076 -2.4899  0.3691  0.9014
  785MPD2    N111637   0.757   1.438  11.301 -0.4384 -0.2380  0.3919
  785MPD2    H711638   0.831   1.441  11.370  0.5907 -0.8012 -0.6993
  786MPD2     C11639   4.303   4.018  14.945 -0.1546  0.0579  0.2481
  786MPD2    C111640   4.396   3.916  14.982 -0.3614  0.0063  0.1465
  786MPD2    C211641   4.468   3.930  15.100  0.3863  0.2172  0.6434
  786MPD2    C311642   4.448   4.032  15.194 -0.0844  0.3046 -0.5827
  786MPD2    C411643   4.346   4.128  15.158 -0.3328 -0.4384  0.3869
  786MPD2    C511644   4.279   4.120  15.034 -0.0369 -0.6140  0.3890
  786MPD2     H11645   4.546   3.857  15.116  2.8242  3.2918  2.7552
  786MPD2    H111646   4.311   4.209  15.220 -0.2809  0.0728 -0.2526
  786MPD2    H211647   4.258   4.026  14.846  1.0349  1.3029 -0.1995
  786MPD2    H311648   4.219   4.205  15.005  2.9850  1.9817  1.7495
  786MPD2     N11649   4.529   4.048  15.310  0.4852  0.7978  0.3713
  786MPD2    H511650   4.506   4.130  15.366 -1.8707  0.3110  0.0741
  786MPD2    N111651   4.430   3.809  14.898 -0.2405  1.0753 -0.1828
  786MPD2    H711652   4.514   3.759  14.924  0.9195  2.5907 -0.9889
  787MPD2     C11653   4.710   3.309  15.118 -0.2621 -0.0567 -0.1324
  787MPD2    C111654   4.723   3.284  14.983  0.5037 -0.1820  0.7099
  787MPD2    C211655   0.071   3.188  14.934  0.5918  0.5359  0.2974
  787MPD2    C311656   0.150   3.124  15.028 -0.8760 -0.2094 -0.9023
  787MPD2    C411657   0.120   3.136  15.163 -0.4900  0.5670 -0.5024
  787MPD2    C511658   0.030   3.225  15.207 -0.4893 -0.3291  0.3835
  787MPD2     H11659   0.102   3.170  14.832 -0.9199 -0.4173  0.0056
  787MPD2    H111660   0.185   3.088  15.236 -0.2374  1.3411 -0.2221
  787MPD2    H211661   4.640   3.387  15.142 -2.8107 -2.0760 -1.0011
  787MPD2    H311662   0.018   3.245  15.313  1.3231 -0.0725  0.5265
  787MPD2     N11663   0.252   3.039  14.978  0.0303 -0.7568 -0.1798
  787MPD2    H511664   0.262   3.041  14.878 -1.6265 -0.3431 -0.3406
  787MPD2    N111665   4.654   3.368  14.892  0.0984  0.5597 -0.2074
  787MPD2    H711666   4.624   3.456  14.933  0.2455  1.1491 -1.3825
  788MPD2     C11667   1.844   1.843   1.363  0.2167  0.1693  0.5657
  788MPD2    C111668   1.957   1.767   1.361  0.5051 -0.3506 -0.4108
  788MPD2    C211669   2.074   1.817   1.309  0.4526  0.4556 -0.6396
  788MPD2    C311670   2.072   1.951   1.266 -0.2747 -0.3144 -0.2669
  788MPD2    C411671   1.958   2.034   1.279  0.1410  0.2058 -0.3746
  788MPD2    C511672   1.850   1.974   1.335  0.4538  0.3778  0.4345
  788MPD2     H11673   2.169   1.765   1.301  0.4366 -0.0516  2.7264
  788MPD2    H111674   1.955   2.137   1.247 -0.1023  0.3386  0.0750
  788MPD2    H211675   1.748   1.802   1.393 -0.9821  2.1144 -0.6418
  788MPD2    H311676   1.755   2.027   1.339 -0.2673 -0.7728 -1.1190
  788MPD2     N11677   2.175   2.021   1.197  0.9016 -0.2921 -0.6267
  788MPD2    H511678   2.149   2.112   1.162  1.7859 -0.0360 -0.6079
  788MPD2    N111679   1.942   1.627   1.388  0.2031  0.1487 -0.0213
  788MPD2    H711680   1.850   1.598   1.419  0.9707 -0.1345  1.9542
  789MPD2     C11681   1.840   1.744  16.923  1.3333 -0.2618 -0.2729
  789MPD2    C111682   1.750   1.739  16.817  1.2655  0.7318 -0.7542
  789MPD2    C211683   1.642   1.823  16.822  0.0799 -0.1981 -0.5508
  789MPD2    C311684   1.624   1.907  16.933  0.1873 -0.5663 -0.1189
  789MPD2    C411685   1.708   1.904  17.046  0.3197  0.5679  0.2219
  789MPD2    C511686   1.820   1.821  17.038  0.7594 -0.0921  0.2602
  789MPD2     H11687   1.568   1.824  16.743 -1.3636 -1.7550  0.7859
  789MPD2    H111688   1.697   1.974  17.127 -1.1450 -1.1672  1.5186
  789MPD2    H211689   1.933   1.688  16.928  1.3813 -0.1834 -0.2788
  789MPD2    H311690   1.888   1.818  17.123  1.3755  2.2685 -0.1630
  789MPD2     N11691   1.517   1.997  16.925 -0.0675  0.7952  0.1170
  789MPD2    H511692   1.453   1.985  16.847 -0.9733 -3.2032  1.5017
  789MPD2    N111693   1.767   1.656  16.703  0.5148  0.2493  0.0089
  789MPD2    H711694   1.721   1.678  16.616 -1.6720 -2.1522  0.5533
  790MPD2     C11695   3.091   3.526  13.627  0.0394 -0.4383 -0.0777
  790MPD2    C111696   3.026   3.421  13.583  0.7913 -0.3031 -0.6962
  790MPD2    C211697   2.958   3.430  13.459  0.5337  0.0542  0.4308
  790MPD2    C311698   2.951   3.547  13.392 -0.2123  0.2887  0.2797
  790MPD2    C411699   3.023   3.658  13.432 -0.3096 -0.5734  0.2905
  790MPD2    C511700   3.089   3.645  13.559 -0.3243 -1.3452  0.2697
  790MPD2     H11701   2.907   3.341  13.422  0.1050 -0.1919  1.6167
  790MPD2    H111702   3.019   3.756  13.386  0.3502 -0.7740 -0.1963
  790MPD2    H211703   3.154   3.522  13.715  0.3859  1.8815 -0.2182
  790MPD2    H311704   3.139   3.730  13.605 -2.7228 -0.4351  1.1768
  790MPD2     N11705   2.877   3.547  13.270 -0.7794 -0.0942 -0.6149
  790MPD2    H511706   2.828   3.460  13.249 -0.5200 -0.3719 -0.0586
  790MPD2    N111707   3.046   3.308  13.664  0.1096 -0.2865 -0.1161
  790MPD2    H711708   3.092   3.330  13.752  0.3577 -0.9418 -0.0821
  791MPD2     C11709   2.389   3.454  12.565  0.9593  0.2511  0.2561
  791MPD2    C111710   2.403   3.429  12.703 -0.2075 -0.6370  0.3269
  791MPD2    C211711   2.289   3.394  12.778  0.6155  0.2981  0.4982
  791MPD2    C311712   2.164   3.399  12.719  0.6992 -0.5947 -0.1876
  791MPD2    C411713   2.156   3.419  12.584  0.9110 -0.4727  0.3876
  791MPD2    C511714   2.267   3.439  12.509 -0.0996  0.5856 -0.0182
  791MPD2     H11715   2.294   3.361  12.881  1.6135  0.9531  0.6528
  791MPD2    H111716   2.062   3.416  12.530  0.0247 -1.0991  1.9480
  791MPD2    H211717   2.480   3.464  12.506  1.3709  0.5826  0.9456
  791MPD2    H311718   2.259   3.458  12.402 -0.2603 -0.6252 -0.2284
  791MPD2     N11719   2.043   3.388  12.792 -0.2097 -0.4282  0.1676
  791MPD2    H511720   2.053   3.364  12.890 -1.5518  1.7386  0.8316
  791MPD2    N111721   2.533   3.453  12.759  0.4884  0.9264  0.2531
  791MPD2    H711722   2.605   3.496  12.702 -0.6485  0.2909 -1.6501
  792MPD2     C11723   2.847   3.708  11.617  0.0476 -0.1083  0.2806
  792MPD2    C111724   2.769   3.778  11.529  0.5028  0.0438  0.6573
  792MPD2    C211725   2.634   3.763  11.533 -0.9258  0.1248 -0.5393
  792MPD2    C311726   2.569   3.698  11.636  0.3601  0.5732  0.0058
  792MPD2    C411727   2.648   3.645  11.733  0.0446 -0.5437  0.1112
  792MPD2    C511728   2.786   3.645  11.719 -0.4766  0.0254  0.0850
  792MPD2     H11729   2.569   3.805  11.457 -1.5016  0.6029  0.2184
  792MPD2    H111730   2.613   3.595  11.823  0.3329 -1.8699 -0.5164
  792MPD2    H211731   2.955   3.712  11.607  0.0438 -0.0065  0.2795
  792MPD2    H311732   2.850   3.595  11.791 -1.1913 -0.5817  0.2999
  792MPD2     N11733   2.429   3.691  11.649 -0.1301 -0.0884  0.6107
  792MPD2    H511734   2.385   3.632  11.719  1.1143  0.4379  1.8268
  792MPD2    N111735   2.844   3.856  11.429 -0.0507 -0.1885 -0.5521
  792MPD2    H711736   2.940   3.876  11.456 -0.0358 -0.6907 -0.2239
  793MPD2     C11737   1.802   3.655  10.849 -0.5174 -0.2788 -0.4828
  793MPD2    C111738   1.874   3.539  10.874  0.4520 -0.2296  0.4498
  793MPD2    C211739   1.907   3.516  11.010 -0.0547  0.2820 -0.2672
  793MPD2    C311740   1.877   3.600  11.107 -0.0673  0.1561  0.1370
  793MPD2    C411741   1.800   3.714  11.077  0.4684  0.2428  0.3520
  793MPD2    C511742   1.772   3.744  10.947  0.4084 -0.6450  0.3069
  793MPD2     H11743   1.978   3.437  11.034 -0.4719 -0.1514 -0.4798
  793MPD2    H111744   1.769   3.790  11.147 -2.8910  1.3110 -2.2958
  793MPD2    H211745   1.769   3.681  10.750 -1.3365  1.2586  0.2016
  793MPD2    H311746   1.716   3.832  10.916 -0.5366 -2.0614 -2.0930
  793MPD2     N11747   1.923   3.576  11.237  0.3691 -0.1681  0.1683
  793MPD2    H511748   1.961   3.486  11.262 -1.7803 -1.1894 -0.2331
  793MPD2    N111749   1.942   3.464  10.775 -0.0237 -0.2226  0.4944
  793MPD2    H711750   1.988   3.377  10.798  1.1003 -0.2063 -1.6711
  794MPD2     C11751   2.620   2.594   0.344 -0.0484 -0.0656  0.2178
  794MPD2    C111752   2.599   2.492   0.245 -0.1710 -0.4799  0.0666
  794MPD2    C211753   2.530   2.527   0.126  0.2054  0.9354  0.2603
  794MPD2    C311754   2.475   2.656   0.111  0.4403 -0.0677 -0.4323
  794MPD2    C411755   2.487   2.742   0.213  0.0910  0.2037  0.0921
  794MPD2    C511756   2.568   2.718   0.323  0.1361 -0.1661 -0.2134
  794MPD2     H11757   2.515   2.452   0.049 -1.0939  0.2485  1.1700
  794MPD2    H111758   2.447   2.843   0.215 -1.7640 -0.5386 -0.2141
  794MPD2    H211759   2.671   2.584   0.439 -1.0372  2.7312  1.0449
  794MPD2    H311760   2.582   2.797   0.396 -0.7842  0.0537 -0.2674
  794MPD2     N11761   2.397   2.695  17.751 -0.5628 -0.0244  0.3876
  794MPD2    H511762   2.337   2.777   0.008 -0.1846  0.5348 -1.4716
  794MPD2    N111763   2.666   2.364   0.242  0.3459  0.0419  0.5809
  794MPD2    H711764   2.644   2.304   0.163 -0.0772  1.0576 -0.0767
  795MPD2     C11765   0.244   0.511  13.863 -0.7264  0.2421 -0.0839
  795MPD2    C111766   0.188   0.391  13.848 -0.1530 -0.1767 -0.3932
  795MPD2    C211767   0.251   0.279  13.899 -0.3531  0.2040  0.1309
  795MPD2    C311768   0.373   0.289  13.965 -0.5173 -0.0760  0.2859
  795MPD2    C411769   0.430   0.414  13.970  0.2710  0.5335  0.1655
  795MPD2    C511770   0.366   0.524  13.916 -0.4481 -0.4764 -0.0239
  795MPD2     H11771   0.212   0.181  13.874  0.6841  0.3961 -2.1934
  795MPD2    H111772   0.527   0.441  14.010  0.7774 -0.0050 -0.7002
  795MPD2    H211773   0.192   0.597  13.822 -0.3869 -0.2053 -1.4418
  795MPD2    H311774   0.407   0.625  13.919  0.4313 -0.9247  2.4477
  795MPD2     N11775   0.442   0.175  14.009  0.0703 -0.2395  0.5598
  795MPD2    H511776   0.399   0.083  14.009  1.3146 -0.8225  0.0882
  795MPD2    N111777   0.061   0.377  13.800  0.0246  0.4756  0.1379
  795MPD2    H711778   0.011   0.289  13.796  2.3247 -0.8513  0.6757
  796MPD2     C11779   4.596   1.488  16.053  0.1524  0.2277  0.3601
  796MPD2    C111780   4.713   1.555  16.092  0.1515  0.2871 -0.5184
  796MPD2    C211781   4.724   1.690  16.077 -0.6944  0.0659 -0.3417
  796MPD2    C311782   4.615   1.763  16.023 -0.2315  0.2952 -0.3397
  796MPD2    C411783   4.500   1.695  15.995 -0.3680  0.2509  0.0390
  796MPD2    C511784   4.486   1.557  16.009  0.2983 -0.9511  0.5921
  796MPD2     H11785   0.072   1.743  16.114  1.1587 -2.4384 -1.1461
  796MPD2    H111786   4.413   1.750  15.960 -0.8655 -0.7455 -0.2968
  796MPD2    H211787   4.580   1.386  16.088 -0.6288 -0.4387 -1.9653
  796MPD2    H311788   4.391   1.509  15.985  0.6129 -1.1305 -0.2818
  796MPD2     N11789   4.630   1.901  16.014 -0.1447  0.1339  0.3070
  796MPD2    H511790   4.712   1.937  16.062 -0.7536  1.8004  0.0749
  796MPD2    N111791   0.073   1.475  16.151 -0.1435  0.5428  0.0905
  796MPD2    H711792   0.044   1.379  16.167  0.3771  0.3276 -0.2145
  797MPD2     C11793   1.422   1.260  17.186 -0.5501  0.5226 -0.3401
  797MPD2    C111794   1.387   1.372  17.258 -0.1461 -0.0888  0.0143
  797MPD2    C211795   1.270   1.438  17.228  0.3692  0.0382  0.1263
  797MPD2    C311796   1.194   1.388  17.118  0.6343  0.5291  0.0307
  797MPD2    C411797   1.224   1.277  17.043  0.7897 -0.0069  0.2560
  797MPD2    C511798   1.342   1.218  17.080  0.1448 -0.4434  0.3778
  797MPD2     H11799   1.247   1.526  17.287 -0.0401 -0.8638  1.3063
  797MPD2    H111800   1.160   1.228  16.971 -3.8232  1.5272  3.3039
  797MPD2    H211801   1.525   1.228  17.193 -0.7067 -0.2261 -1.4598
  797MPD2    H311802   1.362   1.132  17.018 -0.0982 -0.2857  0.0821
  797MPD2     N11803   1.068   1.446  17.087 -0.0750  0.3930 -0.0066
  797MPD2    H511804   1.023   1.399  17.010  2.4007 -0.2536 -1.0646
  797MPD2    N111805   1.471   1.433  17.352  0.3075  0.0693 -0.4242
  797MPD2    H711806   1.446   1.525  17.388  2.2562  0.4559 -0.0520
  798MPD2     C11807   1.194   2.089  17.393 -0.2232  0.4261 -0.0639
  798MPD2    C111808   1.211   2.001  17.294  0.2243 -0.6188  0.3060
  798MPD2    C211809   1.336   1.929  17.290  0.4819 -0.2142  1.3631
  798MPD2    C311810   1.443   1.949  17.381 -0.8906  0.0096 -0.5364
  798MPD2    C411811   1.426   2.048  17.476 -0.0626  0.1346  0.3758
  798MPD2    C511812   1.301   2.110  17.481 -0.8084  0.5015  0.6241
  798MPD2     H11813   1.354   1.849  17.219 -2.1070  0.5501 -0.1585
  798MPD2    H111814   1.502   2.071  17.549  0.6742 -1.0106 -0.0224
  798MPD2    H211815   1.102   2.142  17.415 -0.4935 -1.4899  3.4125
  798MPD2    H311816   1.294   2.189  17.555  0.3023  1.0219  0.1769
  798MPD2     N11817   1.553   1.862  17.379  0.1876 -1.2359  0.0168
  798MPD2    H511818   1.551   1.780  17.319  1.1226 -0.1108 -1.5418
  798MPD2    N111819   1.103   1.968  17.217  0.4431  0.4778 -0.3583
  798MPD2    H711820   1.010   2.005  17.234  0.9413  0.8491  1.4815
  799MPD2     C11821   0.209   2.798  14.681 -0.0985  0.5361  0.4304
  799MPD2    C111822   0.097   2.719  14.674 -0.3229  0.9062 -0.1548
  799MPD2    C211823   4.716   2.772  14.628 -0.8207 -0.2771 -0.4236
  799MPD2    C311824   4.714   2.906  14.593  0.4455  0.4181 -0.4703
  799MPD2    C411825   0.090   2.985  14.614  0.0183 -0.5044 -0.1535
  799MPD2    C511826   0.210   2.931  14.651 -0.2107  0.2445 -0.0819
  799MPD2     H11827   4.623   2.716  14.628 -0.9670 -0.0330 -1.0925
  799MPD2    H111828   0.090   3.091  14.594 -3.3465 -0.1116  1.9117
  799MPD2    H211829   0.305   2.753  14.704  0.4130  2.1877  1.5117
  799MPD2    H311830   0.304   2.983  14.651 -0.2147  0.2559 -0.8547
  799MPD2     N11831   4.599   2.975  14.543  0.4252 -0.0505  1.2573
  799MPD2    H511832   4.617   3.072  14.517 -1.4503 -0.0340  0.0125
  799MPD2    N111833   0.098   2.582  14.708  0.2275 -0.0669 -0.1526
  799MPD2    H711834   0.014   2.527  14.694  0.0393  1.4930 -5.0316
  800MPD2     C11835   4.676   4.207  14.289  0.0278 -0.0452  0.0870
  800MPD2    C111836   0.059   4.159  14.322  0.3046  0.5318 -0.3076
  800MPD2    C211837   0.097   4.039  14.266  0.3854 -0.7539  0.3227
  800MPD2    C311838   0.022   3.978  14.171  0.3451  0.4903  0.5409
  800MPD2    C411839   4.644   4.035  14.121 -0.4199 -0.3262  0.1740
  800MPD2    C511840   4.606   4.147  14.186  0.0772  0.1719  0.1461
  800MPD2     H11841   0.195   3.997  14.283  0.6185 -0.5829 -0.6061
  800MPD2    H111842   4.580   3.991  14.045  2.6402  2.4232 -3.9689
  800MPD2    H211843   4.643   4.296  14.340  1.6901  0.2286  0.6859
  800MPD2    H311844   4.524   4.209  14.152 -0.2848  0.1286  0.9488
  800MPD2     N11845   0.091   3.875  14.107 -0.5744  0.1981  0.2673
  800MPD2    H511846   0.183   3.849  14.142  0.3099 -0.1422 -2.2873
  800MPD2    N111847   0.139   4.233  14.414  0.0701 -0.0673  0.1297
  800MPD2    H711848   0.106   4.326  14.441 -1.3188 -0.9120  1.3507
  801MPD2     C11849   0.228   0.186  14.426  1.2255  0.7023 -0.4369
  801MPD2    C111850   0.179   0.063  14.458 -0.1608  0.0218 -0.0364
  801MPD2    C211851   0.064   0.055  14.530  0.1733  0.6479 -0.5572
  801MPD2    C311852   0.002   0.164  14.580  0.0750  1.0577  0.5460
  801MPD2    C411853   0.063   0.286  14.558  0.4137 -0.1765 -0.3858
  801MPD2    C511854   0.176   0.297  14.483  0.0177  0.1914  0.4988
  801MPD2     H11855   0.025   4.696  14.556 -2.8003  2.0238  0.2107
  801MPD2    H111856   0.027   0.378  14.604  0.1453  0.3129 -1.5591
  801MPD2    H211857   0.321   0.197  14.372  1.6378  0.1005  0.1434
  801MPD2    H311858   0.219   0.394  14.459  2.5453 -0.9393  0.5466
  801MPD2     N11859   4.627   0.147  14.663 -0.2228  0.8563 -0.5421
  801MPD2    H511860   4.590   0.224  14.716  0.6321  1.8238 -1.3570
  801MPD2    N111861   0.242   4.682  14.440  0.8685 -0.4323 -0.3657
  801MPD2    H711862   0.202   4.599  14.483 -2.5982  1.6732  0.5160
  802MPD2     C11863   0.308   0.088   0.619 -0.9034  0.7621 -0.0805
  802MPD2    C111864   0.177   0.047   0.592  0.3210  0.0492 -0.3952
  802MPD2    C211865   0.158   4.680   0.504  0.2492  0.0516  0.1808
  802MPD2    C311866   0.262   4.621   0.430 -0.4113  0.1092  0.9502
  802MPD2    C411867   0.386   4.687   0.439 -0.3707  0.2469 -0.5252
  802MPD2    C511868   0.404   0.050   0.529  0.2794 -0.3485  0.5450
  802MPD2     H11869   0.061   4.636   0.485  0.3046  0.5238 -1.2025
  802MPD2    H111870   0.470   4.643   0.387 -0.7159 -1.2213  0.1822
  802MPD2    H211871   0.323   0.174   0.683 -1.8156  1.3706 -0.6694
  802MPD2    H311872   0.495   0.110   0.525  0.5150 -0.6974  0.6917
  802MPD2     N11873   0.226   4.520   0.338  0.1119 -0.0745 -0.6491
  802MPD2    H511874   0.129   4.490   0.337 -0.3625  1.4934 -0.9788
  802MPD2    N111875   0.058   0.101   0.648 -0.0826  0.0483 -0.6316
  802MPD2    H711876   4.712   0.061   0.610 -1.3923  0.5867  1.7314
  803MPD2     C11877   0.141   3.547  12.376  0.0031  0.5842  0.7287
  803MPD2    C111878   0.195   3.674  12.380  0.4080  0.7074 -0.4567
  803MPD2    C211879   0.275   3.711  12.484  0.3114 -0.3273 -0.4740
  803MPD2    C311880   0.295   3.633  12.600  0.0719  0.7973 -0.0086
  803MPD2    C411881   0.231   3.516  12.598 -0.0111  0.2987  0.1999
  803MPD2    C511882   0.156   3.472  12.489 -0.0368  0.1139 -0.0769
  803MPD2     H11883   0.327   3.806  12.475 -2.1817  1.1200  0.2855
  803MPD2    H111884   0.236   3.452  12.685  0.8437  2.6437  1.8787
  803MPD2    H211885   0.093   3.500  12.290  0.7176  0.1170  0.5889
  803MPD2    H311886   0.101   3.379  12.490 -2.7075  1.6800  0.0023
  803MPD2     N11887   0.396   3.656  12.700 -0.1495 -0.7382 -0.1185
  803MPD2    H511888   0.399   3.594  12.781  1.7998  0.8821  1.0655
  803MPD2    N111889   0.192   3.753  12.262 -0.1665  0.0902 -0.6377
  803MPD2    H711890   0.223   3.849  12.270 -1.4962  0.6151 -1.7265
  804MPD2     C11891   0.433   4.451  17.362  0.7953  0.2189 -0.5510
  804MPD2    C111892   0.460   4.370  17.467 -0.2992 -0.5662  0.5252
  804MPD2    C211893   0.545   4.419  17.566 -0.0856 -0.6187  0.3371
  804MPD2    C311894   0.606   4.545  17.552 -0.1261  0.4611 -0.0185
  804MPD2    C411895   0.582   4.615  17.443  0.6633  0.2016  0.0040
  804MPD2    C511896   0.497   4.568  17.349 -0.6874  0.2819 -0.2445
  804MPD2     H11897   0.556   4.366  17.659 -0.1167  0.3971  0.9231
  804MPD2    H111898   0.630   4.711  17.428 -2.9172  2.0177  0.2117
  804MPD2    H211899   0.376   4.423  17.274 -0.5298 -0.1503  0.4176
  804MPD2    H311900   0.482   4.638  17.268  0.3220 -1.4218 -1.9055
  804MPD2     N11901   0.682   4.583  17.659  0.4482 -0.1779  0.3642
  804MPD2    H511902   0.698   4.520  17.737 -0.5276 -0.6982  0.1354
  804MPD2    N111903   0.417   4.234  17.456  0.2211 -0.6746 -0.0863
  804MPD2    H711904   0.383   4.207  17.364  1.8618  1.3993 -1.3058
  805MPD2     C11905   4.384   2.453  15.408 -0.5977 -0.6039 -0.0495
  805MPD2    C111906   4.455   2.546  15.330  0.3667  0.8745  0.4067
  805MPD2    C211907   4.579   2.592  15.375 -0.7341 -0.1163 -0.2706
  805MPD2    C311908   4.631   2.555  15.493 -0.2471 -0.1637  0.0243
  805MPD2    C411909   4.569   2.458  15.564  0.0165 -0.0804 -0.0513
  805MPD2    C511910   4.449   2.415  15.523  0.2627 -0.5356 -0.0640
  805MPD2     H11911   4.628   2.666  15.313  0.0219 -0.9886 -0.7225
  805MPD2    H111912   4.605   2.407  15.653 -1.0161 -0.9540 -0.1327
  805MPD2    H211913   4.288   2.411  15.382 -0.8658 -0.7307  1.1523
  805MPD2    H311914   4.395   2.349  15.589 -1.4392  2.0609  1.1532
  805MPD2     N11915   0.018   2.606  15.535  0.0792 -0.1629  0.1247
  805MPD2    H511916   0.057   2.676  15.472  2.0281 -0.8117  0.6294
  805MPD2    N111917   4.416   2.587  15.201 -0.4653  0.2643  0.3737
  805MPD2    H711918   4.463   2.658  15.146 -0.5146 -1.8300 -2.3598
  806MPD2     C11919   0.759   1.529   0.507  0.4260 -0.7233 -0.5907
  806MPD2    C111920   0.709   1.603   0.612  0.3996 -0.1040  0.0693
  806MPD2    C211921   0.720   1.743   0.614 -0.2760  0.0280  0.2483
  806MPD2    C311922   0.767   1.801   0.501 -0.4523  0.0602  0.3146
  806MPD2    C411923   0.800   1.730   0.385  0.3235 -0.7796 -0.3323
  806MPD2    C511924   0.794   1.595   0.389 -0.7142 -0.1694  0.1742
  806MPD2     H11925   0.704   1.797   0.707  2.3607  0.0808  0.6812
  806MPD2    H111926   0.843   1.784   0.300  0.5499 -0.8339 -0.2525
  806MPD2    H211927   0.759   1.421   0.511 -1.1948 -0.7238 -0.6549
  806MPD2    H311928   0.828   1.539   0.303 -1.8817  0.0687 -0.4381
  806MPD2     N11929   0.790   1.945   0.511 -0.2751 -0.1391  0.0625
  806MPD2    H511930   0.753   1.983   0.597  0.1889  1.4462 -0.4464
  806MPD2    N111931   0.657   1.538   0.724  0.2004 -0.4866  0.3766
  806MPD2    H711932   0.644   1.440   0.699  2.1161 -1.3138  2.6245
  807MPD2     C11933   0.977   1.078   1.236  0.3717  1.0030 -0.9796
  807MPD2    C111934   0.844   1.044   1.241  0.3800  0.9298 -0.4530
  807MPD2    C211935   0.809   0.925   1.295 -0.0424  0.7080 -0.9753
  807MPD2    C311936   0.905   0.829   1.330  0.0790 -0.0004 -0.1129
  807MPD2    C411937   1.038   0.870   1.327 -0.2969  0.2280 -0.4613
  807MPD2    C511938   1.072   0.992   1.288  0.1291 -0.0769  0.1157
  807MPD2     H11939   0.703   0.903   1.287 -0.1982  0.8478  0.8691
  807MPD2    H111940   1.117   0.806   1.362 -1.5014 -1.3880 -0.7067
  807MPD2    H211941   1.013   1.167   1.185  3.7879 -0.2161 -0.6803
  807MPD2    H311942   1.177   1.016   1.282  0.1766  0.2220  1.9021
  807MPD2     N11943   0.872   0.692   1.340  0.0835  0.8820 -0.1278
  807MPD2    H511944   0.775   0.664   1.350 -0.0996  0.3723 -3.3962
  807MPD2    N111945   0.739   1.130   1.183 -0.1845  0.6959  0.4401
  807MPD2    H711946   0.640   1.117   1.203 -0.1734  0.1035  0.1260
  808MPD2     C11947   4.712   3.021   9.895  0.1662 -0.1129 -0.3030
  808MPD2    C111948   4.686   3.089  10.008  0.2796  0.1210 -1.2753
  808MPD2    C211949   0.035   3.195  10.050 -0.2577 -1.0918  0.0518
  808MPD2    C311950   0.146   3.223   9.975 -0.0062  0.0699 -0.1767
  808MPD2    C411951   0.171   3.162   9.858 -0.3054  0.0993  0.0894
  808MPD2    C511952   0.089   3.055   9.829 -0.1054 -0.4025  0.7293
  808MPD2     H11953   0.030   3.239  10.148  0.8206 -1.4735  0.2802
  808MPD2    H111954   0.258   3.191   9.801 -0.3777  1.0279  0.4546
  808MPD2    H211955   4.665   2.930   9.859  1.9059 -2.0435  2.2446
  808MPD2    H311956   0.109   3.000   9.738  0.8070  0.3588  0.4627
  808MPD2     N11957   0.232   3.327  10.003  0.4354  0.5444  0.0377
  808MPD2    H511958   0.316   3.339   9.948  1.3320 -2.9888  0.6618
  808MPD2    N111959   4.576   3.063  10.093 -0.0291 -0.4380 -0.0367
  808MPD2    H711960   4.559   3.133  10.165 -0.5721 -1.3528  0.7143
  809MPD2     C11961   1.054   3.353   9.790 -0.5434  0.5199  0.4633
  809MPD2    C111962   1.018   3.485   9.757  0.2310 -0.3335  0.0712
  809MPD2    C211963   0.894   3.532   9.813 -0.3651 -0.4825  0.2815
  809MPD2    C311964   0.822   3.452   9.891 -0.2696  0.2933  0.2735
  809MPD2    C411965   0.875   3.333   9.933  0.5052 -0.5982  0.6871
  809MPD2    C511966   0.987   3.282   9.878  0.0060 -0.1487  0.1577
  809MPD2     H11967   0.861   3.633   9.792 -2.8528 -0.9323  2.0279
  809MPD2    H111968   0.812   3.266   9.989  0.2665  0.6301  1.8792
  809MPD2    H211969   1.136   3.296   9.749 -0.8943  1.2854 -1.3461
  809MPD2    H311970   1.016   3.179   9.895  0.1971  0.1099  1.3722
  809MPD2     N11971   0.692   3.480   9.936 -0.4000  0.4704 -0.6943
  809MPD2    H511972   0.638   3.410   9.986  1.3656  0.0171  0.5611
  809MPD2    N111973   1.097   3.562   9.670 -0.0990  0.5169 -0.5220
  809MPD2    H711974   1.062   3.649   9.631  1.4987  0.4382 -2.1160
  810MPD2     C11975   4.177   3.555  11.286  0.0043 -0.4974 -0.1388
  810MPD2    C111976   4.141   3.557  11.148  0.3749  0.4453  0.0565
  810MPD2    C211977   4.150   3.676  11.077  0.6074  0.1140 -0.1410
  810MPD2    C311978   4.189   3.795  11.131  0.5255  0.6612 -0.8555
  810MPD2    C411979   4.235   3.794  11.260  0.1465 -0.4978 -0.0052
  810MPD2    C511980   4.219   3.676  11.335  0.3394 -0.2982 -0.0250
  810MPD2     H11981   4.114   3.679  10.975  0.9946 -0.2376 -0.2905
  810MPD2    H111982   4.255   3.891  11.303 -2.4377  1.1340 -2.4644
  810MPD2    H211983   4.157   3.467  11.345 -2.1191  0.7280  0.9494
  810MPD2    H311984   4.253   3.685  11.437  2.3357 -0.0333 -0.7206
  810MPD2     N11985   4.181   3.915  11.064  0.2146  1.0527  0.2855
  810MPD2    H511986   4.212   3.991  11.124  3.9992 -1.6887  1.7939
  810MPD2    N111987   4.082   3.437  11.092  0.0512 -0.2743 -0.5019
  810MPD2    H711988   4.055   3.358  11.149  2.2817 -0.0539  0.8856
  811MPD2     C11989   3.489   3.263  10.535 -1.1320 -0.6940  0.2417
  811MPD2    C111990   3.631   3.288  10.528  0.0120 -0.1543  0.4966
  811MPD2    C211991   3.670   3.409  10.477  0.1481 -0.2067  1.1802
  811MPD2    C311992   3.576   3.505  10.440  0.2467  0.1557  0.3322
  811MPD2    C411993   3.444   3.477  10.431  0.3597  0.5267  0.1012
  811MPD2    C511994   3.401   3.354  10.475  0.6100 -0.5110 -0.2024
  811MPD2     H11995   3.773   3.441  10.464  0.1074 -0.4932  0.1673
  811MPD2    H111996   3.374   3.554  10.399  1.1990  0.5095 -1.7889
  811MPD2    H211997   3.456   3.177  10.592  0.8431 -1.7442 -0.1940
  811MPD2    H311998   3.298   3.324  10.488  0.3004 -0.0069 -1.5941
  811MPD2     N11999   3.636   3.635  10.402 -0.0366  0.2781  0.3333
  811MPD2    H512000   3.738   3.636  10.407 -0.1009  0.0649  1.5672
  811MPD2    N112001   3.723   3.202  10.593  0.0487  0.3237  0.2593
  811MPD2    H712002   3.685   3.122  10.643 -2.5504  0.7855 -0.9339
  812MPD2     C12003   2.959   3.399  12.362 -0.6807  0.1932  0.7768
  812MPD2    C112004   3.092   3.403  12.324  0.3948 -0.8579  0.0813
  812MPD2    C212005   3.183   3.340  12.405 -0.6830  0.6522  0.4087
  812MPD2    C312006   3.142   3.265  12.515  0.0860  0.1023  0.3642
  812MPD2    C412007   3.005   3.252  12.539 -0.1387 -0.1075 -0.6636
  812MPD2    C512008   2.920   3.322  12.471 -0.6281  0.1723  0.0256
  812MPD2     H12009   3.289   3.330  12.383 -0.0184 -0.3573  4.1481
  812MPD2    H112010   2.970   3.204  12.629  1.3736  2.0565  1.0480
  812MPD2    H212011   2.891   3.441  12.288 -0.0421  2.1481  1.2952
  812MPD2    H312012   2.812   3.315  12.478 -0.7311  0.4219 -1.2372
  812MPD2     N12013   3.238   3.222  12.608 -0.0942  0.0053  0.0881
  812MPD2    H512014   3.332   3.260  12.603  1.4562 -3.9821 -0.5470
  812MPD2    N112015   3.123   3.472  12.215 -0.1142  0.1698 -0.6611
  812MPD2    H712016   3.042   3.508  12.168 -0.4496  0.3417  0.0493
  813MPD2     C12017   2.474   0.236  13.027  0.2702 -0.0134 -0.4064
  813MPD2    C112018   2.382   0.319  13.094 -0.5149  0.7470 -0.0288
  813MPD2    C212019   2.270   0.253  13.151  0.1626 -0.1515 -0.1876
  813MPD2    C312020   2.255   0.117  13.145  0.0872  0.2708  0.2602
  813MPD2    C412021   2.346   0.034  13.082 -0.0758 -0.4512 -0.0048
  813MPD2    C512022   2.460   0.099  13.031  0.0065  0.3710 -0.3558
  813MPD2     H12023   2.186   0.308  13.191 -1.5580 -0.4986 -3.2547
  813MPD2    H112024   2.344   4.665  13.076  0.6307 -0.3177 -2.8395
  813MPD2    H212025   2.564   0.271  12.979  0.4578 -0.9976 -0.7799
  813MPD2    H312026   2.535   0.035  12.986  2.1497  2.4746  0.2818
  813MPD2     N12027   2.139   0.071  13.212 -0.1530 -0.5736 -0.1761
  813MPD2    H512028   2.073   0.140  13.248 -0.1558 -0.1273 -1.0382
  813MPD2    N112029   2.406   0.454  13.116 -0.1282  1.0437 -0.0878
  813MPD2    H712030   2.338   0.508  13.168 -1.7341  0.2393 -1.3674
  814MPD2     C12031   2.750   1.452  13.115  0.3024 -0.4776  0.5520
  814MPD2    C112032   2.731   1.528  13.004 -0.4347 -0.1995 -0.5187
  814MPD2    C212033   2.784   1.653  12.992  0.4243  0.2624 -0.9195
  814MPD2    C312034   2.864   1.709  13.097 -0.5966 -0.3185  0.0398
  814MPD2    C412035   2.875   1.629  13.201 -0.3148 -0.4091  0.8135
  814MPD2    C512036   2.829   1.499  13.213  0.2143 -0.4632 -0.1879
  814MPD2     H12037   2.769   1.713  12.903  0.3561  3.4719  1.2282
  814MPD2    H112038   2.934   1.670  13.282  0.6993  0.2736 -0.2672
  814MPD2    H212039   2.700   1.359  13.138  1.3579 -0.7013  1.9479
  814MPD2    H312040   2.860   1.438  13.297  0.5423 -3.0867 -2.2138
  814MPD2     N12041   2.927   1.839  13.097  0.2308 -0.3642 -0.4378
  814MPD2    H512042   2.976   1.862  13.182 -1.0847  0.5322  0.0783
  814MPD2    N112043   2.651   1.478  12.903  0.0328  0.4695 -0.5243
  814MPD2    H712044   2.630   1.536  12.823  1.7646 -1.4112 -2.3233
  815MPD2     C12045   3.523   0.690  11.820  0.4257  0.1845 -0.2142
  815MPD2    C112046   3.554   0.553  11.812  0.4663 -0.5867  0.1733
  815MPD2    C212047   3.478   0.461  11.881  0.1210 -0.1366  0.1610
  815MPD2    C312048   3.365   0.510  11.956  0.3368  0.1154 -0.2235
  815MPD2    C412049   3.353   0.646  11.980 -0.8993 -0.7673  0.6586
  815MPD2    C512050   3.432   0.734  11.909  0.1114  0.0375  0.2376
  815MPD2     H12051   3.493   0.354  11.870  0.7259 -0.1400  1.0507
  815MPD2    H112052   3.270   0.682  12.040 -2.0368 -0.1604 -1.2809
  815MPD2    H212053   3.568   0.771  11.766 -1.5781 -1.0112 -3.6690
  815MPD2    H312054   3.428   0.841  11.920 -1.2621 -0.2247  2.3282
  815MPD2     N12055   3.265   0.415  11.994  1.3305 -0.3035  0.4101
  815MPD2    H512056   3.293   0.318  11.987 -0.6973 -0.8057 -0.6338
  815MPD2    N112057   3.656   0.521  11.719  0.2345 -0.2836  0.1950
  815MPD2    H712058   3.684   0.594  11.655  0.8420 -0.6808  0.0049
  816MPD2     C12059   4.276   3.808  17.383 -0.2543  0.2365  0.0349
  816MPD2    C112060   4.203   3.868  17.279 -0.1441 -0.3251  0.4561
  816MPD2    C212061   4.250   3.866  17.140  0.1936 -0.0747  0.4186
  816MPD2    C312062   4.385   3.829  17.121  0.5975 -0.1637 -0.2412
  816MPD2    C412063   4.454   3.781  17.230 -0.5994  0.2457  0.9330
  816MPD2    C512064   4.402   3.773  17.355  0.0712  0.9102  0.8998
  816MPD2     H12065   4.193   3.898  17.054  0.0700 -0.1699  0.4656
  816MPD2    H112066   4.557   3.748  17.225 -0.4598  0.6476  1.1877
  816MPD2    H212067   4.220   3.803  17.476 -1.4819 -2.3338 -0.8417
  816MPD2    H312068   4.466   3.735  17.433 -0.8552 -1.0816  0.6795
  816MPD2     N12069   4.444   3.839  16.991 -0.2516 -0.1828  0.4655
  816MPD2    H512070   4.398   3.879  16.910  0.6767 -0.2261 -0.0764
  816MPD2    N112071   4.084   3.935  17.318 -0.0448  0.4328 -0.4084
  816MPD2    H712072   4.068   3.934  17.418  0.4888  0.6315 -0.3166
  817MPD2     C12073   2.492   1.717  10.610 -0.5023 -0.5171 -0.4348
  817MPD2    C112074   2.569   1.738  10.499 -0.1134 -0.1839  0.3609
  817MPD2    C212075   2.519   1.814  10.396  0.1865 -0.6039  0.3372
  817MPD2    C312076   2.392   1.879  10.401 -0.3230  0.4445 -0.7066
  817MPD2    C412077   2.309   1.854  10.518  0.3684  0.6728  0.2667
  817MPD2    C512078   2.358   1.766  10.617  0.3494  0.2028 -0.5129
  817MPD2     H12079   2.581   1.802  10.308 -0.2151 -1.4472  0.1682
  817MPD2    H112080   2.212   1.901  10.533 -1.9371 -3.9704 -0.1672
  817MPD2    H212081   2.523   1.664  10.699 -0.8390  0.5212  0.2996
  817MPD2    H312082   2.302   1.744  10.707 -1.1041 -0.8914 -1.6869
  817MPD2     N12083   2.354   1.960  10.291 -0.9126 -0.5899  0.0632
  817MPD2    H512084   2.426   1.982  10.224  0.6292 -1.0119  1.5803
  817MPD2    N112085   2.688   1.663  10.474 -0.0507  0.0920 -0.0907
  817MPD2    H712086   2.751   1.696  10.402 -0.5211  0.2608 -0.4274
  818MPD2     C12087   1.332   1.671  10.122 -0.2309  0.6592  0.0321
  818MPD2    C112088   1.334   1.561  10.203 -0.0827 -0.2587 -0.5331
  818MPD2    C212089   1.404   1.448  10.162 -0.7158  0.1338 -0.5560
  818MPD2    C312090   1.457   1.434  10.036  0.3682  0.6506  0.4053
  818MPD2    C412091   1.465   1.547   9.962  0.0973 -0.2754 -0.2517
  818MPD2    C512092   1.408   1.665  10.006 -0.9105  0.2138  0.1299
  818MPD2     H12093   1.392   1.362  10.227  0.6579 -0.0755 -0.5804
  818MPD2    H112094   1.515   1.541   9.867  1.6777 -1.0458  0.6247
  818MPD2    H212095   1.283   1.766  10.143  2.3077  1.7698  0.9431
  818MPD2    H312096   1.417   1.752   9.943 -0.1859 -0.0221 -0.0992
  818MPD2     N12097   1.511   1.320   9.975  0.3297 -0.0642  0.1912
  818MPD2    H512098   1.552   1.321   9.883 -1.4666  2.8611 -0.5748
  818MPD2    N112099   1.274   1.553  10.324 -0.2823 -0.2991 -0.0441
  818MPD2    H712100   1.297   1.468  10.374  0.6078 -0.7939 -1.2703
  819MPD2     C12101   0.506   2.609  15.348 -0.7577 -0.6991  0.4216
  819MPD2    C112102   0.462   2.522  15.439  0.1954 -0.6014 -0.0557
  819MPD2    C212103   0.533   2.527  15.559 -0.3076 -0.1373 -0.0818
  819MPD2    C312104   0.642   2.604  15.585 -0.6347 -0.3541  0.2798
  819MPD2    C412105   0.695   2.680  15.481  0.7249 -0.1569 -0.1464
  819MPD2    C512106   0.620   2.682  15.364  0.1598 -0.3172 -0.6970
  819MPD2     H12107   0.495   2.466  15.640  0.4306  0.1226  0.4577
  819MPD2    H112108   0.783   2.741  15.491  0.3112  0.8388 -2.7347
  819MPD2    H212109   0.443   2.625  15.262  2.6275  1.5246 -1.6322
  819MPD2    H312110   0.646   2.747  15.282 -0.5037  0.4525 -0.2900
  819MPD2     N12111   0.696   2.600  15.712 -0.1490 -0.3334  0.0048
  819MPD2    H512112   0.647   2.548  15.784  1.9085 -3.9620 -1.2471
  819MPD2    N112113   0.351   2.434  15.417  0.1899  0.1616  0.1045
  819MPD2    H712114   0.301   2.450  15.330 -0.9980 -0.6932  0.6364
  820MPD2     C12115   4.367   2.109  14.799  0.5194  0.1350 -0.1755
  820MPD2    C112116   4.445   2.230  14.816  0.2296 -0.4286 -0.8363
  820MPD2    C212117   4.543   2.234  14.925  0.2925  0.1383  0.2016
  820MPD2    C312118   4.556   2.130  15.009  0.2546  0.3320 -0.1971
  820MPD2    C412119   4.497   2.015  14.984  0.5967 -0.6435 -0.1574
  820MPD2    C512120   4.402   2.007  14.883 -0.6292  0.1889  0.7873
  820MPD2     H12121   4.598   2.325  14.946 -1.2884  1.3485 -0.9592
  820MPD2    H112122   4.500   1.929  15.050 -0.0917 -0.4336  0.1408
  820MPD2    H212123   4.284   2.108  14.729 -1.6645  1.5603  2.3777
  820MPD2    H312124   4.336   1.921  14.877  2.8948 -2.3904 -0.7814
  820MPD2     N12125   4.620   2.139  15.134  0.4705 -0.2452 -0.1768
  820MPD2    H512126   4.630   2.056  15.191 -1.2554 -0.7583 -0.5986
  820MPD2    N112127   4.411   2.349  14.738  0.5381  0.5786 -0.5765
  820MPD2    H712128   4.317   2.353  14.699  1.1568  3.4908 -1.6857
  821MPD2     C12129   0.420   3.994  13.495 -0.1320  0.0369  0.1339
  821MPD2    C112130   0.466   3.997  13.626  0.5115 -0.4951  0.3014
  821MPD2    C212131   0.543   4.108  13.670 -0.2480 -0.2610 -0.4380
  821MPD2    C312132   0.587   4.202  13.577  0.3710 -0.6922  0.1359
  821MPD2    C412133   0.546   4.187  13.443  0.0608 -0.2010 -0.2743
  821MPD2    C512134   0.466   4.086  13.402 -0.2938  0.1785 -0.4990
  821MPD2     H12135   0.568   4.117  13.775  2.9790 -0.3788 -1.2127
  821MPD2    H112136   0.575   4.260  13.369  0.4790  0.8861  0.9628
  821MPD2    H212137   0.353   3.917  13.459  1.9525 -1.4835 -0.4902
  821MPD2    H312138   0.433   4.091  13.299 -1.4421  1.2503 -0.0727
  821MPD2     N12139   0.681   4.310  13.606 -0.7376 -0.2828  0.3831
  821MPD2    H512140   0.724   4.360  13.529 -1.6822  0.8851  0.6028
  821MPD2    N112141   0.428   3.900  13.719  0.3134  0.2603 -0.0871
  821MPD2    H712142   0.434   3.929  13.816 -2.1612 -1.1248  0.4875
  822MPD2     C12143   1.033   3.905  16.019 -0.6470  0.6906  0.3633
  822MPD2    C112144   1.016   3.850  16.145  0.1822  0.9136 -0.3001
  822MPD2    C212145   0.942   3.920  16.234  0.1395 -0.2403 -0.3293
  822MPD2    C312146   0.884   4.042  16.210 -0.3345 -1.3007 -0.5546
  822MPD2    C412147   0.902   4.099  16.083  0.1404  0.0055  0.6305
  822MPD2    C512148   0.978   4.030  15.997  0.3037 -0.2304 -0.0951
  822MPD2     H12149   0.936   3.880  16.335 -2.0889 -0.1325 -0.4208
  822MPD2    H112150   0.869   4.198  16.052 -0.8041 -0.7295 -0.6880
  822MPD2    H212151   1.084   3.859  15.936  2.2395  0.7239  2.1094
  822MPD2    H312152   1.012   4.083  15.908  0.6774 -1.1036 -0.4684
  822MPD2     N12153   0.827   4.112  16.319  0.3087  0.6290 -0.2282
  822MPD2    H512154   0.830   4.061  16.406 -0.0162 -0.1382 -0.6654
  822MPD2    N112155   1.068   3.726  16.191 -0.3513 -0.1459  0.5273
  822MPD2    H712156   1.044   3.702  16.286  1.2863  0.8869  1.2150
  823MPD2     C12157   0.655   4.225  17.136  0.3625 -0.3371 -0.1710
  823MPD2    C112158   0.680   4.152  17.022  0.6556  0.5537  0.1398
  823MPD2    C212159   0.719   4.021  17.023  0.1700 -0.8481  0.4207
  823MPD2    C312160   0.759   3.966  17.146 -0.3964 -0.0976 -0.0852
  823MPD2    C412161   0.728   4.035  17.262  0.4919 -0.0181 -0.3809
  823MPD2    C512162   0.683   4.164  17.253  0.0746  0.4998  0.0044
  823MPD2     H12163   0.750   3.979  16.928  0.0888 -2.0213  0.9177
  823MPD2    H112164   0.761   3.994  17.356 -1.1555  0.4723  0.4103
  823MPD2    H212165   0.616   4.327  17.135 -1.0590 -0.8963 -1.9120
  823MPD2    H312166   0.671   4.220  17.345 -1.2119  0.6335 -0.2379
  823MPD2     N12167   0.828   3.841  17.159 -0.5866 -0.6349 -0.1837
  823MPD2    H512168   0.841   3.814  17.256  0.5770  1.4593  0.2575
  823MPD2    N112169   0.692   4.236  16.904 -0.1465 -0.4219  0.6510
  823MPD2    H712170   0.679   4.337  16.906  0.3519 -0.3367 -0.4593
  824MPD2     C12171   1.574   2.990  16.178 -0.7483 -0.0187 -0.0668
  824MPD2    C112172   1.634   3.108  16.151  0.1446 -0.0427  0.5715
  824MPD2    C212173   1.774   3.103  16.120 -0.7529 -0.8694  0.0026
  824MPD2    C312174   1.847   2.985  16.125  0.1189  0.0964 -0.3062
  824MPD2    C412175   1.779   2.871  16.157 -0.3673  0.3529 -0.3735
  824MPD2    C512176   1.643   2.876  16.189  0.0019 -0.3225 -0.3812
  824MPD2     H12177   1.832   3.187  16.084  0.2314 -0.2027  3.0870
  824MPD2    H112178   1.817   2.770  16.157  0.3349  0.6193 -0.0914
  824MPD2    H212179   1.470   2.987  16.209 -1.5416  2.1486 -2.5512
  824MPD2    H312180   1.583   2.788  16.207 -1.9552  1.2542  0.8935
  824MPD2     N12181   1.982   2.983  16.085 -0.1969 -0.6332  0.8431
  824MPD2    H512182   2.008   3.066  16.033  0.6270 -2.5351 -1.8217
  824MPD2    N112183   1.560   3.228  16.143  0.0769  0.1793 -0.2390
  824MPD2    H712184   1.611   3.316  16.137  0.6202 -0.2268 -1.4671
  825MPD2     C12185   2.502   2.998  15.410 -0.8061  0.4448 -0.1428
  825MPD2    C112186   2.406   3.044  15.487  0.4108 -0.0428  0.2197
  825MPD2    C212187   2.366   3.175  15.466 -0.0055  0.1250  0.5660
  825MPD2    C312188   2.421   3.254  15.366  0.0937  0.6685  0.0703
  825MPD2    C412189   2.530   3.205  15.292 -0.2432 -0.5120 -0.6428
  825MPD2    C512190   2.573   3.077  15.319 -0.1368 -0.3085 -1.0468
  825MPD2     H12191   2.290   3.232  15.519 -0.0340  1.5784 -1.0484
  825MPD2    H112192   2.595   3.261  15.226  0.3645  0.5344  0.8316
  825MPD2    H212193   2.534   2.894  15.406 -0.5976  0.5665 -1.7004
  825MPD2    H312194   2.659   3.032  15.270  0.1532 -0.2558 -0.5798
  825MPD2     N12195   2.373   3.387  15.341 -0.3819 -0.0933  0.1039
  825MPD2    H512196   2.407   3.424  15.253  1.3828 -1.1361  0.3423
  825MPD2    N112197   2.363   2.969  15.596  0.0627  0.1714 -0.1760
  825MPD2    H712198   2.411   2.880  15.606 -1.8923 -1.0056 -1.2300
  826MPD2     C12199   1.298   3.151  13.800  0.0407  0.3975  0.1280
  826MPD2    C112200   1.354   3.271  13.759  0.5002  0.0366 -0.2902
  826MPD2    C212201   1.318   3.391  13.823 -0.0772  0.0643 -0.3324
  826MPD2    C312202   1.214   3.383  13.910  0.3144  0.1280 -0.2696
  826MPD2    C412203   1.159   3.268  13.950  0.0114 -0.6072 -0.5977
  826MPD2    C512204   1.199   3.148  13.890  0.6396  0.2527  0.3607
  826MPD2     H12205   1.377   3.479  13.803 -0.0670  0.2782  0.6392
  826MPD2    H112206   1.089   3.257  14.031 -0.0195  0.6680 -0.4559
  826MPD2    H212207   1.320   3.062  13.742 -2.0581 -0.8281  1.2079
  826MPD2    H312208   1.157   3.053  13.920  1.0610  0.2380  0.9036
  826MPD2     N12209   1.160   3.502  13.972  0.1573  0.7350 -0.0475
  826MPD2    H512210   1.081   3.500  14.036  0.9934  0.9950  0.9983
  826MPD2    N112211   1.458   3.271  13.654  0.1096 -0.1434 -0.1996
  826MPD2    H712212   1.491   3.179  13.628  0.4454  0.2769 -1.2327
  827MPD2     C12213   2.639   0.147  10.149  0.2207  0.1897  0.4996
  827MPD2    C112214   2.572   0.101  10.257 -0.9692  0.6188  0.1092
  827MPD2    C212215   2.441   0.049  10.238  1.4219  1.0012 -0.1745
  827MPD2    C312216   2.378   0.073  10.118 -0.1896 -0.0888 -0.1078
  827MPD2    C412217   2.444   0.128  10.010  0.3570  0.5255  0.6812
  827MPD2    C512218   2.574   0.160  10.025  0.7152 -0.3572  0.3477
  827MPD2     H12219   2.383   0.009  10.320  0.8037  0.0076 -1.1075
  827MPD2    H112220   2.396   0.147   9.915  2.1600  2.3652  0.1284
  827MPD2    H212221   2.744   0.174  10.156 -0.0694  1.8278 -1.2172
  827MPD2    H312222   2.618   0.209   9.938  1.1299 -1.8758 -0.2968
  827MPD2     N12223   2.240   0.049  10.122 -0.7168  0.8444  0.3233
  827MPD2    H512224   2.201   4.717  10.183  0.1304  0.0218 -0.0876
  827MPD2    N112225   2.643   0.097  10.378 -0.2174 -0.3916  0.2641
  827MPD2    H712226   2.735   0.140  10.382 -1.0379  1.3984  0.1412
  828MPD2     C12227   0.817   0.116  12.599  0.2836 -0.0904 -0.6711
  828MPD2    C112228   0.689   0.172  12.574  0.2124  0.3496  0.2709
  828MPD2    C212229   0.645   0.185  12.443  0.4203  0.5436  1.0127
  828MPD2    C312230   0.730   0.152  12.347 -0.4495 -0.8946  0.9296
  828MPD2    C412231   0.857   0.109  12.369  0.4152  0.1687  0.1567
  828MPD2    C512232   0.900   0.089  12.495  0.0327  0.0783  0.6410
  828MPD2     H12233   0.550   0.230  12.416 -0.0978 -1.2653 -0.1021
  828MPD2    H112234   0.915   0.081  12.282  1.1802 -2.6916  1.6060
  828MPD2    H212235   0.852   0.096  12.700 -0.8530  0.0978 -0.2351
  828MPD2    H312236   1.002   0.055  12.510  0.2832  0.5731  0.0700
  828MPD2     N12237   0.688   0.144  12.212 -0.2113  0.0700 -0.8313
  828MPD2    H512238   0.759   0.119  12.144 -0.1847  1.2659 -1.2451
  828MPD2    N112239   0.604   0.207  12.686 -0.2037 -0.8187  0.0059
  828MPD2    H712240   0.510   0.238  12.665 -0.3732 -1.3707 -0.0462
  829MPD2     C12241   4.563   0.331  12.474 -0.2174  0.4106 -0.4741
  829MPD2    C112242   4.561   0.296  12.606 -0.0764 -0.5417  0.1560
  829MPD2    C212243   4.671   0.296  12.679  0.0455  0.2011  0.5105
  829MPD2    C312244   0.054   0.342  12.641  0.2659  0.3655  0.4383
  829MPD2    C412245   0.053   0.388  12.511  0.7124  0.3291  0.7552
  829MPD2    C512246   4.684   0.382  12.424  0.1960  0.3333 -0.7432
  829MPD2     H12247   4.671   0.253  12.779  0.0700  1.8448  1.2195
  829MPD2    H112248   0.134   0.450  12.472  0.2816 -0.9902 -2.2321
  829MPD2    H212249   4.475   0.330  12.411 -0.0943  1.5692 -0.6725
  829MPD2    H312250   4.697   0.425  12.325  1.7663  2.2343  0.2803
  829MPD2     N12251   0.167   0.347  12.722 -0.0061  0.1830 -0.3060
  829MPD2    H512252   0.245   0.381  12.665  0.3427 -0.9281 -0.5007
  829MPD2    N112253   4.435   0.265  12.652 -0.2322 -0.0796  0.3247
  829MPD2    H712254   4.368   0.253  12.576  1.8824 -0.1720 -1.5156
  830MPD2     C12255   1.398   2.525  16.197  0.4875 -0.1775  0.3597
  830MPD2    C112256   1.335   2.609  16.109  0.0986  0.2249  0.1206
  830MPD2    C212257   1.408   2.647  15.994  0.0934  1.0284 -0.2806
  830MPD2    C312258   1.544   2.618  15.992  0.3823 -0.5084 -0.3376
  830MPD2    C412259   1.605   2.542  16.090  0.3365 -0.4691 -0.0401
  830MPD2    C512260   1.531   2.489  16.188  0.9431 -1.1277  0.0960
  830MPD2     H12261   1.361   2.695  15.909 -1.8969 -0.6675 -0.1375
  830MPD2    H112262   1.710   2.514  16.090  0.5388  0.2644  2.8553
  830MPD2    H212263   1.346   2.474  16.278 -0.5248  0.0524 -0.1506
  830MPD2    H312264   1.581   2.426  16.260  2.5773  0.3282  0.2466
  830MPD2     N12265   1.621   2.671  15.886 -0.3661  0.5950 -0.2818
  830MPD2    H512266   1.721   2.688  15.891 -0.6177  2.1050 -0.2214
  830MPD2    N112267   1.198   2.626  16.122 -0.1139 -1.1210 -0.6368
  830MPD2    H712268   1.148   2.571  16.191  0.5182 -1.7666 -0.6881
  831MPD2     C12269   1.105   4.180  16.632 -0.8898 -0.0322 -0.4199
  831MPD2    C112270   1.153   4.090  16.538 -0.5750 -0.5210  0.1280
  831MPD2    C212271   1.100   3.958  16.532 -0.5533  0.1636  0.5671
  831MPD2    C312272   0.995   3.931  16.627 -0.4758 -0.5046 -0.4233
  831MPD2    C412273   0.964   4.018  16.724  0.9251  0.1295  0.6765
  831MPD2    C512274   1.019   4.141  16.726 -0.8562 -0.3280 -0.3927
  831MPD2     H12275   1.125   3.887  16.454 -0.3878  1.0295 -0.1638
  831MPD2    H112276   0.879   4.003  16.789 -1.1510 -2.0829 -2.5538
  831MPD2    H212277   1.153   4.276  16.646 -0.7312  0.2405 -2.8388
  831MPD2    H312278   0.985   4.217  16.796  1.5633 -1.0453  1.5374
  831MPD2     N12279   0.916   3.817  16.623 -0.3405  0.2448 -0.1744
  831MPD2    H512280   0.848   3.814  16.698  1.2533 -0.0098  1.2550
  831MPD2    N112281   1.256   4.135  16.443  0.0016 -0.3194  0.2040
  831MPD2    H712282   1.282   4.233  16.449 -0.3119 -0.3654  2.2701
  832MPD2     C12283   4.656   0.175  17.647 -0.2407 -0.2811 -0.3582
  832MPD2    C112284   4.646   0.298  17.589 -0.3426 -0.0662  0.1912
  832MPD2    C212285   4.545   0.321  17.496  1.2626 -0.5177  0.7784
  832MPD2    C312286   4.447   0.223  17.476  0.8791  0.1665  0.5983
  832MPD2    C412287   4.468   0.106  17.534 -0.4159 -0.4704  0.2613
  832MPD2    C512288   4.565   0.080  17.626  0.5267  0.6160  0.2574
  832MPD2     H12289   4.539   0.420  17.453  0.4106 -0.8380  0.1607
  832MPD2    H112290   4.399   0.026  17.512 -2.4778  1.2048  0.6000
  832MPD2    H212291   0.000   0.163  17.715 -2.4269  0.2253  2.4184
  832MPD2    H312292   4.567   4.723  17.675 -0.9782  1.0390  1.1772
  832MPD2     N12293   4.320   0.249  17.402 -0.4340 -0.4006  0.3702
  832MPD2    H512294   4.261   0.167  17.393  2.2869 -2.2436 -0.7779
  832MPD2    N112295   0.010   0.385  17.630  0.3418  0.1211 -0.4188
  832MPD2    H712296   0.066   0.352  17.708  1.3861 -2.1768 -2.1394
  833MPD2     C12297   1.230   2.492  12.810 -0.0838 -0.0871 -0.4895
  833MPD2    C112298   1.249   2.410  12.700 -0.3108  0.3862  0.5930
  833MPD2    C212299   1.325   2.477  12.599  0.1245 -0.2348 -0.2181
  833MPD2    C312300   1.385   2.597  12.607 -0.1427  0.4278 -0.0372
  833MPD2    C412301   1.384   2.657  12.730 -0.2934 -0.1360  0.1015
  833MPD2    C512302   1.305   2.603  12.829  0.4289  0.1238 -1.2194
  833MPD2     H12303   1.333   2.422  12.506  2.3329  0.3452 -0.3636
  833MPD2    H112304   1.423   2.756  12.751 -1.4837  0.3782 -0.0910
  833MPD2    H212305   1.162   2.453  12.885  0.1557  1.3113  0.4502
  833MPD2    H312306   1.304   2.660  12.921 -3.4647 -1.6766 -0.1526
  833MPD2     N12307   1.449   2.646  12.493 -0.3039  0.1558  0.6702
  833MPD2    H512308   1.419   2.592  12.412 -0.2133 -0.3982  1.0092
  833MPD2    N112309   1.156   2.301  12.682  0.0844  0.1803 -0.5981
  833MPD2    H712310   1.077   2.302  12.745 -0.6945  0.5476 -1.5813
  834MPD2     C12311   1.641   2.166  11.883  0.1608  0.1740  0.3819
  834MPD2    C112312   1.512   2.212  11.879  0.6760  0.5626 -0.5206
  834MPD2    C212313   1.481   2.339  11.919  0.1930  0.2219  0.8493
  834MPD2    C312314   1.579   2.422  11.968  0.1040 -0.1956  0.3888
  834MPD2    C412315   1.711   2.376  11.974  0.3603 -1.0462  0.0558
  834MPD2    C512316   1.736   2.251  11.926  0.2527 -0.5661 -0.3147
  834MPD2     H12317   1.382   2.380  11.903  0.5678  0.4910 -0.7880
  834MPD2    H112318   1.790   2.428  12.027  1.1067 -1.1351 -0.9642
  834MPD2    H212319   1.675   2.068  11.850  0.4195  0.8653 -1.3917
  834MPD2    H312320   1.836   2.211  11.936  0.7568 -0.2279 -4.1071
  834MPD2     N12321   1.545   2.553  12.015  0.1570 -0.2303 -0.0322
  834MPD2    H512322   1.447   2.577  12.014  0.1045 -0.4661 -0.5588
  834MPD2    N112323   1.418   2.118  11.836 -0.5539  0.4952 -0.3918
  834MPD2    H712324   1.450   2.024  11.813  0.9572  0.4552  1.8541
  835MPD2     C12325   1.561   0.159  11.187 -0.2772  0.8047  0.5063
  835MPD2    C112326   1.462   0.226  11.257  0.7867 -0.1150  0.4063
  835MPD2    C212327   1.473   0.253  11.391 -0.4874  0.2033  0.3135
  835MPD2    C312328   1.594   0.213  11.454 -1.0910 -0.0924  0.8044
  835MPD2    C412329   1.688   0.153  11.385 -0.4783 -0.0553  0.4221
  835MPD2    C512330   1.676   0.133  11.255  0.1935  0.8315 -0.2102
  835MPD2     H12331   1.394   0.305  11.444 -1.6951 -1.6329  0.3281
  835MPD2    H112332   1.779   0.126  11.437  0.0867  1.7920  0.4038
  835MPD2    H212333   1.551   0.132  11.082  1.8488  2.0251 -0.0033
  835MPD2    H312334   1.753   0.092  11.190  0.4811  0.3961  0.4040
  835MPD2     N12335   1.605   0.222  11.594  0.0046  0.6089 -0.0238
  835MPD2    H512336   1.683   0.173  11.635  0.7099  0.4860 -1.5219
  835MPD2    N112337   1.337   0.255  11.197 -0.1892  0.0964  0.6294
  835MPD2    H712338   1.276   0.306  11.259 -0.4662  0.2312  0.2414
  836MPD2     C12339   1.025   0.439  12.061  0.2777  0.2737 -0.0978
  836MPD2    C112340   1.116   0.379  12.140 -0.7877  0.3967  0.0741
  836MPD2    C212341   1.091   0.380  12.274 -0.2217  0.6103  0.3465
  836MPD2    C312342   0.976   0.442  12.328 -0.4287  0.1634 -0.0357
  836MPD2    C412343   0.881   0.493  12.245 -0.3422 -0.2764 -0.3547
  836MPD2    C512344   0.913   0.494  12.109 -0.6448 -0.8235 -0.3404
  836MPD2     H12345   1.171   0.342  12.336  0.9828  1.3429 -0.7756
  836MPD2    H112346   0.794   0.554  12.271  0.2907  0.0212  1.0473
  836MPD2    H212347   1.044   0.449  11.955  0.0447 -1.7912 -0.3429
  836MPD2    H312348   0.850   0.537  12.032 -0.1073 -1.5399 -1.1808
  836MPD2     N12349   0.952   0.475  12.465  0.2842  0.2213  0.1936
  836MPD2    H512350   0.865   0.521  12.489  0.2476 -0.1127  0.7010
  836MPD2    N112351   1.230   0.330  12.075  0.2297 -0.3344 -0.1006
  836MPD2    H712352   1.232   0.337  11.974 -1.9151  2.3450  0.0389
  837MPD2     C12353   4.259   4.107  10.412  0.5394  0.4139  0.0502
  837MPD2    C112354   4.135   4.177  10.423  0.2022  0.4094 -0.3446
  837MPD2    C212355   4.151   4.308  10.405  0.9985 -0.1552 -0.0392
  837MPD2    C312356   4.269   4.374  10.400 -0.3857 -0.0920 -0.0442
  837MPD2    C412357   4.391   4.309  10.411 -0.2943 -0.5610 -1.2202
  837MPD2    C512358   4.380   4.172  10.407  0.2256 -0.5196  0.2811
  837MPD2     H12359   4.062   4.368  10.396  0.1860 -1.4466 -0.7307
  837MPD2    H112360   4.489   4.350  10.394 -0.7495  0.7741 -0.5848
  837MPD2    H212361   4.263   3.999  10.411  2.6179  0.4932 -0.0157
  837MPD2    H312362   4.473   4.129  10.371  0.6160 -0.7778  1.5979
  837MPD2     N12363   4.262   4.514  10.363 -0.0162  0.2461 -0.7284
  837MPD2    H512364   4.167   4.548  10.350  0.1156  1.4698  1.5301
  837MPD2    N112365   4.008   4.110  10.407  0.0022  0.1124 -0.7348
  837MPD2    H712366   3.931   4.172  10.386 -1.2103 -1.3407 -0.6291
  838MPD2     C12367   2.493   1.988  11.436 -0.3359 -0.2903  1.0711
  838MPD2    C112368   2.537   2.100  11.506  0.2801  0.6121  0.4645
  838MPD2    C212369   2.472   2.146  11.626 -0.1178  0.5621 -0.3972
  838MPD2    C312370   2.352   2.073  11.660  0.2779 -0.1165  0.4910
  838MPD2    C412371   2.310   1.960  11.584  1.0459 -1.0264 -0.1558
  838MPD2    C512372   2.377   1.921  11.475 -0.9438  0.4081  0.7456
  838MPD2     H12373   2.513   2.223  11.689 -1.2728  2.0504 -1.4593
  838MPD2    H112374   2.223   1.902  11.612  0.5034 -0.1025  0.1019
  838MPD2    H212375   2.534   1.965  11.338 -0.1167 -0.9511  1.3223
  838MPD2    H312376   2.345   1.840  11.410 -0.6680  2.1076 -1.5035
  838MPD2     N12377   2.286   2.119  11.782  0.0745 -0.0922  0.5230
  838MPD2    H512378   2.333   2.197  11.829  1.5225 -1.0452  0.6557
  838MPD2    N112379   2.659   2.154  11.483  0.7855 -0.4615 -0.2068
  838MPD2    H712380   2.687   2.235  11.537 -1.5120 -0.0857  0.4051
  839MPD2     C12381   2.590   2.081  12.048  0.0712 -0.0379 -0.0401
  839MPD2    C112382   2.613   2.007  11.934 -0.5839 -0.1484  0.4208
  839MPD2    C212383   2.736   2.030  11.872 -0.6930 -0.4471 -0.5464
  839MPD2    C312384   2.814   2.143  11.901  0.1463  0.3785 -0.0980
  839MPD2    C412385   2.782   2.221  12.011 -0.0588 -0.2615 -0.2040
  839MPD2    C512386   2.679   2.179  12.090  0.5835 -0.2434 -0.4482
  839MPD2     H12387   2.768   1.965  11.791 -1.2981 -0.5906 -0.6637
  839MPD2    H112388   2.841   2.309  12.037  1.2748 -1.8102  2.0858
  839MPD2    H212389   2.498   2.060  12.101  0.5013  0.2751  0.8271
  839MPD2    H312390   2.658   2.236  12.179  2.1413  2.2111 -1.6632
  839MPD2     N12391   2.933   2.178  11.827  0.0126  1.3040 -0.6858
  839MPD2    H512392   2.958   2.276  11.831 -0.2067  1.3346 -0.0434
  839MPD2    N112393   2.541   1.900  11.885 -0.0250  0.7001 -0.3991
  839MPD2    H712394   2.578   1.844  11.808  0.2935 -0.8021  0.8558
  840MPD2     C12395   2.892   0.591  10.592 -0.1188 -0.9838 -0.8972
  840MPD2    C112396   2.978   0.498  10.649  0.1094 -0.0227 -0.1222
  840MPD2    C212397   3.083   0.537  10.724  0.2591  0.6390  0.0710
  840MPD2    C312398   3.097   0.675  10.748  0.3788 -0.5120 -0.6577
  840MPD2    C412399   3.012   0.768  10.693 -0.4026  0.3130 -0.2430
  840MPD2    C512400   2.908   0.724  10.611  0.1654  0.1433 -0.5011
  840MPD2     H12401   3.140   0.462  10.777  1.2048  1.0356 -0.3757
  840MPD2    H112402   3.021   0.875  10.710  0.7796  0.0354  0.8901
  840MPD2    H212403   2.803   0.565  10.537 -0.1037  1.8918 -2.2980
  840MPD2    H312404   2.838   0.799  10.575 -0.7133 -0.7728 -0.6901
  840MPD2     N12405   3.193   0.733  10.839 -0.2911  0.4407  0.3817
  840MPD2    H512406   3.175   0.829  10.866 -2.2782 -0.8570  3.6786
  840MPD2    N112407   2.932   0.369  10.635 -0.0654 -0.0300 -0.4663
  840MPD2    H712408   2.850   0.356  10.578  0.0243 -1.2499 -0.3268
  841MPD2     C12409   2.710   0.691  14.383 -0.1054  0.0412  0.4994
  841MPD2    C112410   2.706   0.558  14.399 -0.4924  0.1305  0.4395
  841MPD2    C212411   2.772   0.507  14.509 -0.6189 -0.0162 -0.0412
  841MPD2    C312412   2.846   0.592  14.600 -0.2699 -0.8859 -0.1182
  841MPD2    C412413   2.835   0.725  14.575  0.5748 -0.2110 -0.0860
  841MPD2    C512414   2.767   0.779  14.470  0.7830 -0.3268 -0.6566
  841MPD2     H12415   2.775   0.399  14.518 -4.8011 -0.0771  0.4898
  841MPD2    H112416   2.885   0.799  14.636  2.9378 -1.1461 -0.9180
  841MPD2    H212417   2.649   0.733  14.305 -0.0643 -0.7667  0.0308
  841MPD2    H312418   2.757   0.886  14.458 -2.3498 -0.2945  2.4541
  841MPD2     N12419   2.934   0.541  14.702 -0.1951 -0.1629 -0.1546
  841MPD2    H512420   2.933   0.442  14.723 -1.3061 -0.2774 -0.7602
  841MPD2    N112421   2.644   0.480  14.302  0.6904  0.6041 -0.3565
  841MPD2    H712422   2.590   0.536  14.237 -2.5494 -0.8218  1.1448
  842MPD2     C12423   3.476   0.689  16.575 -0.0117 -0.4289  0.1723
  842MPD2    C112424   3.379   0.689  16.674 -0.0928  0.0894 -0.1762
  842MPD2    C212425   3.404   0.601  16.782 -0.3347 -0.4585 -0.3812
  842MPD2    C312426   3.511   0.517  16.782  0.0844  0.1235 -0.4527
  842MPD2    C412427   3.605   0.511  16.679  0.3313  0.9140 -0.3116
  842MPD2    C512428   3.587   0.609  16.582  0.2630 -0.7881  0.6246
  842MPD2     H12429   3.349   0.617  16.873  0.4735  0.5691 -0.0640
  842MPD2    H112430   3.697   0.453  16.685 -0.2931  0.0541  1.0869
  842MPD2    H212431   3.460   0.748  16.486  2.6552  0.2362  0.1303
  842MPD2    H312432   3.657   0.617  16.499 -0.2531  1.4092  0.3999
  842MPD2     N12433   3.554   0.452  16.894  0.6920 -0.2122 -0.2399
  842MPD2    H512434   3.650   0.419  16.897  0.5310 -0.8463 -2.2150
  842MPD2    N112435   3.265   0.774  16.670  0.4051 -0.7816  0.4099
  842MPD2    H712436   3.262   0.845  16.597  0.3999 -1.7593 -0.5423
  843MPD2     C12437   1.214   1.548  17.565 -0.8293 -0.3622  0.2028
  843MPD2    C112438   1.289   1.458  17.635 -0.0084  0.0919 -0.3164
  843MPD2    C212439   1.375   1.502  17.733  0.4357  0.5156  0.2082
  843MPD2    C312440   1.394   1.636   0.004  1.1933 -0.2755  0.1368
  843MPD2    C412441   1.329   1.722  17.682 -0.1623 -0.0422 -0.1827
  843MPD2    C512442   1.238   1.679  17.582 -0.3134  0.2669 -0.5474
  843MPD2     H12443   1.438   1.435   0.033  1.9710  0.3566 -1.7251
  843MPD2    H112444   1.334   1.828  17.703  1.4857 -0.4502  1.5089
  843MPD2    H212445   1.144   1.518  17.488 -1.4284 -0.6363  0.8644
  843MPD2    H312446   1.187   1.750  17.518 -2.2036  0.3020  1.0220
  843MPD2     N12447   1.480   1.690   0.104 -0.3212  0.3868  0.4817
  843MPD2    H512448   1.490   1.791   0.109  4.4928  0.0180 -1.5560
  843MPD2    N112449   1.258   1.318  17.603  0.2599 -0.0671 -0.0217
  843MPD2    H712450   1.181   1.293  17.542  0.5322  0.1966 -0.4717
  844MPD2     C12451   3.845   4.200  16.669 -0.6710 -0.2599  0.2194
  844MPD2    C112452   3.881   4.320  16.617 -0.6301  0.1139  0.0509
  844MPD2    C212453   3.941   4.412  16.700  0.4060 -0.7411  0.6107
  844MPD2    C312454   3.956   4.398  16.831 -0.6239 -0.0324  0.5625
  844MPD2    C412455   3.901   4.278  16.889  1.1682 -0.5350  0.1135
  844MPD2    C512456   3.848   4.184  16.806 -0.7055 -0.1625 -0.1482
  844MPD2     H12457   3.996   4.493  16.653  1.7329  0.0096  3.4936
  844MPD2    H112458   3.897   4.259  16.995  0.4342  1.9926  0.5438
  844MPD2    H212459   3.808   4.121  16.605  2.8463 -2.0326  0.3891
  844MPD2    H312460   3.822   4.091  16.854 -0.4202 -0.9811 -1.5796
  844MPD2     N12461   4.022   4.498  16.909 -0.5107 -0.9489  0.0618
  844MPD2    H512462   4.058   4.579  16.859  0.7525 -1.0057  0.8777
  844MPD2    N112463   3.871   4.339  16.479  0.1331 -0.2634  0.1454
  844MPD2    H712464   3.835   4.268  16.417 -0.4683  1.0320 -0.9951
  845MPD2     C12465   4.324   0.683  16.821  0.7574  0.0442  0.1080
  845MPD2    C112466   4.399   0.653  16.929  0.2954 -0.9246  0.3123
  845MPD2    C212467   4.381   0.525  16.983  0.0010  0.4613 -0.2406
  845MPD2    C312468   4.297   0.428  16.924 -0.4497 -0.4123 -0.0480
  845MPD2    C412469   4.221   0.463  16.813  0.2956  0.8077 -0.4975
  845MPD2    C512470   4.244   0.590  16.763  0.1443  0.2010 -0.1584
  845MPD2     H12471   4.426   0.496  17.078  0.9138 -0.8021 -1.0514
  845MPD2    H112472   4.164   0.390  16.757 -0.9813  2.2143 -1.0391
  845MPD2    H212473   4.347   0.771  16.763 -0.1664  1.1732  1.4745
  845MPD2    H312474   4.188   0.619  16.675 -1.0546 -0.3793  0.4115
  845MPD2     N12475   4.292   0.297  16.987 -0.1565  0.2723 -0.1987
  845MPD2    H512476   4.350   0.281  17.069  0.0410 -0.0346 -0.4021
  845MPD2    N112477   4.479   0.751  16.992  0.2539  0.1963 -0.5429
  845MPD2    H712478   4.456   0.849  16.980  3.5460  1.1360  0.7084
  846MPD2     C12479   0.699   1.542  13.935  0.1724 -0.5989  0.4776
  846MPD2    C112480   0.596   1.620  13.968 -0.5561  0.2868 -0.5559
  846MPD2    C212481   0.568   1.644  14.104  0.1986  0.2505 -0.3404
  846MPD2    C312482   0.659   1.590  14.197  0.0236 -0.1715  0.6370
  846MPD2    C412483   0.776   1.518  14.161 -0.9369 -0.2088 -0.8755
  846MPD2    C512484   0.794   1.494  14.027  0.3942  0.4855 -0.0733
  846MPD2     H12485   0.481   1.698  14.139  0.3534  0.7138 -0.6761
  846MPD2    H112486   0.848   1.473  14.228 -1.1843 -1.4046 -1.4139
  846MPD2    H212487   0.725   1.523  13.832  2.0029 -2.2687  1.2445
  846MPD2    H312488   0.883   1.436  14.002 -1.5128 -2.2247 -0.5092
  846MPD2     N12489   0.641   1.618  14.340  0.3533  0.0372 -0.1639
  846MPD2    H512490   0.562   1.676  14.368 -1.3438 -1.7053 -1.3660
  846MPD2    N112491   0.517   1.681  13.869  0.0746  0.1132 -0.8189
  846MPD2    H712492   0.459   1.761  13.894 -0.8025 -0.3582 -1.3417
  847MPD2     C12493   1.242   2.625  14.402  0.2789  0.2562  0.4252
  847MPD2    C112494   1.359   2.699  14.414 -0.0886  0.4357 -0.0966
  847MPD2    C212495   1.460   2.650  14.499 -0.2409  0.3029 -0.6041
  847MPD2    C312496   1.445   2.537  14.576  0.3061  0.1683  0.0308
  847MPD2    C412497   1.331   2.461  14.567  0.8351  0.2196 -0.0434
  847MPD2    C512498   1.234   2.508  14.476  0.4932 -0.3860  0.4900
  847MPD2     H12499   1.548   2.711  14.514 -1.1561  1.2376  0.9834
  847MPD2    H112500   1.305   2.380  14.634  0.6081  1.0263  0.8510
  847MPD2    H212501   1.157   2.653  14.340 -0.2583 -0.6929  0.7254
  847MPD2    H312502   1.140   2.454  14.478  0.0856  0.3289  0.5565
  847MPD2     N12503   1.541   2.517  14.681  0.0653 -0.7050  0.1692
  847MPD2    H512504   1.605   2.596  14.682  1.4713 -1.8891  2.3981
  847MPD2    N112505   1.383   2.817  14.350 -0.0140 -0.3289  0.1888
  847MPD2    H712506   1.463   2.864  14.390  0.0156  0.6294 -0.9960
  848MPD2     C12507   3.947   0.684  16.778  0.0919  0.3946  0.3660
  848MPD2    C112508   3.984   0.749  16.895  0.0711  0.4205 -0.3408
  848MPD2    C212509   4.013   0.886  16.900  0.1923 -0.3650 -0.0826
  848MPD2    C312510   3.988   0.956  16.779  0.1362  0.2292  0.1889
  848MPD2    C412511   3.936   0.896  16.668 -0.1719 -1.2801 -0.1133
  848MPD2    C512512   3.925   0.761  16.661  0.0603  0.2731 -0.7452
  848MPD2     H12513   4.034   0.935  16.995 -0.9411  1.7897 -0.9455
  848MPD2    H112514   3.930   0.943  16.571  0.0667 -1.1229 -0.0514
  848MPD2    H212515   3.935   0.577  16.768 -0.1574  0.5436 -0.8932
  848MPD2    H312516   3.907   0.706  16.569 -1.3504  0.9062 -0.8324
  848MPD2     N12517   3.999   1.098  16.772 -0.3484  0.6760  0.2502
  848MPD2    H512518   3.981   1.144  16.683  0.7201 -0.4735 -0.5582
  848MPD2    N112519   4.012   0.665  17.007  0.1040  0.1164 -0.1045
  848MPD2    H712520   4.063   0.709  17.083  2.2376 -0.3820 -1.2586
  849MPD2     C12521   3.072   0.377  14.389  0.2354 -0.0624 -0.0692
  849MPD2    C112522   3.125   0.507  14.397  0.0539 -0.4061  0.7484
  849MPD2    C212523   3.232   0.531  14.476 -0.6804  0.6188  0.0209
  849MPD2    C312524   3.299   0.426  14.547  0.1196 -0.5806 -0.5415
  849MPD2    C412525   3.243   0.297  14.536 -0.2364 -0.1480 -0.4417
  849MPD2    C512526   3.129   0.273  14.461 -0.8826  0.3806  0.3988
  849MPD2     H12527   3.276   0.630  14.481 -2.5851  1.3967  1.4951
  849MPD2    H112528   3.291   0.209  14.579 -2.5761 -2.4309 -2.5042
  849MPD2    H212529   2.989   0.353  14.322 -0.2001 -0.5262  0.6367
  849MPD2    H312530   3.101   0.171  14.442 -2.5375  0.9055  0.0375
  849MPD2     N12531   3.422   0.444  14.617  0.5413 -0.5979 -0.0170
  849MPD2    H512532   3.478   0.362  14.641  1.0787  0.1148  1.1822
  849MPD2    N112533   3.074   0.604  14.308  0.1514  0.0908 -0.1000
  849MPD2    H712534   3.022   0.573  14.226  1.8393 -2.3902 -0.2199
  850MPD2     C12535   0.958   3.314  15.069  0.5892 -0.1454 -0.2836
  850MPD2    C112536   0.966   3.347  15.203 -0.3419  0.4197  0.2697
  850MPD2    C212537   1.090   3.341  15.259  1.2870  0.0161 -0.2806
  850MPD2    C312538   1.206   3.321  15.188 -0.1264  0.4970  0.5414
  850MPD2    C412539   1.194   3.278  15.060 -0.2409  0.3597 -1.1014
  850MPD2    C512540   1.071   3.278  14.997  0.1128 -0.2576  0.3534
  850MPD2     H12541   1.106   3.347  15.366  2.2401  2.9770 -0.5815
  850MPD2    H112542   1.284   3.268  15.002  0.9035  1.6739  0.4289
  850MPD2    H212543   0.866   3.315  15.011  0.3791 -1.2463  0.0360
  850MPD2    H312544   1.064   3.252  14.892 -2.0300 -0.0171  0.4272
  850MPD2     N12545   1.331   3.326  15.241 -0.1685  0.7762  0.0268
  850MPD2    H512546   1.408   3.298  15.181 -1.0744 -1.1018 -0.2684
  850MPD2    N112547   0.838   3.373  15.261 -0.5987 -0.6076  0.2126
  850MPD2    H712548   0.765   3.356  15.192  0.3805  0.8505 -1.1655
  851MPD2     C12549   1.449   3.515  15.894  0.1921  0.0108 -0.6328
  851MPD2    C112550   1.384   3.422  15.825  0.4455 -0.2573  0.1834
  851MPD2    C212551   1.445   3.308  15.790 -0.3068  0.6834 -0.2743
  851MPD2    C312552   1.578   3.288  15.809  0.2995 -0.3237 -0.2286
  851MPD2    C412553   1.653   3.385  15.871  0.7532 -0.3217 -0.0519
  851MPD2    C512554   1.588   3.496  15.911 -0.0469  0.0036  0.2849
  851MPD2     H12555   1.397   3.236  15.725 -1.5413 -1.0617  2.5548
  851MPD2    H112556   1.759   3.371  15.888  0.9317 -0.0270 -0.9212
  851MPD2    H212557   1.395   3.594  15.946 -3.1039 -0.5302 -3.1774
  851MPD2    H312558   1.654   3.564  15.962  0.3637 -0.3821  0.2690
  851MPD2     N12559   1.631   3.166  15.758 -0.0248  0.0320  0.0763
  851MPD2    H512560   1.567   3.105  15.709  0.9733 -0.3309 -0.7661
  851MPD2    N112561   1.250   3.459  15.791 -0.0927  0.1068  0.2403
  851MPD2    H712562   1.214   3.551  15.811  0.7961  0.0501  2.0693
  852MPD2     C12563   0.006   1.670  10.635 -0.4446  0.4648 -0.2722
  852MPD2    C112564   0.080   1.707  10.743  0.1342 -1.5566  0.1660
  852MPD2    C212565   0.130   1.838  10.749 -0.5346  0.1367 -0.0430
  852MPD2    C312566   0.134   1.918  10.643  0.6272 -0.1558 -0.4388
  852MPD2    C412567   0.081   1.868  10.526 -0.0612 -0.2201  0.1599
  852MPD2    C512568   0.013   1.750  10.522 -0.3696 -0.1772  0.0643
  852MPD2     H12569   0.181   1.871  10.839 -0.3580  1.1026 -0.4972
  852MPD2    H112570   0.068   1.930  10.438  2.0667  1.6268  1.1533
  852MPD2    H212571   4.703   1.571  10.624  0.8591 -0.2299  1.0967
  852MPD2    H312572   4.712   1.712  10.429 -0.4173 -0.3767  0.1661
  852MPD2     N12573   0.199   2.048  10.651 -0.0999 -0.1970 -0.0691
  852MPD2    H512574   0.228   2.086  10.741 -0.5980  0.8727 -0.3642
  852MPD2    N112575   0.089   1.620  10.858  0.0312 -0.2911  0.3697
  852MPD2    H712576   0.136   1.666  10.936 -1.4428 -0.9541  1.6607
  853MPD2     C12577   2.525   0.792  12.639  0.1233  0.7350  0.2532
  853MPD2    C112578   2.391   0.811  12.599  0.0106 -0.1500  0.8011
  853MPD2    C212579   2.363   0.846  12.469 -0.5053  0.0988 -0.1902
  853MPD2    C312580   2.466   0.848  12.373 -0.2231  0.3394  1.3049
  853MPD2    C412581   2.591   0.799  12.412 -0.8517 -0.5644  0.6454
  853MPD2    C512582   2.618   0.777  12.543  0.0090  0.4041  0.2758
  853MPD2     H12583   2.262   0.872  12.439 -0.3090  0.6827 -0.3478
  853MPD2    H112584   2.674   0.797  12.342 -1.6463  0.1021 -0.2938
  853MPD2    H212585   2.559   0.783  12.741 -0.2042 -1.7516  0.1590
  853MPD2    H312586   2.715   0.739  12.572 -1.2564 -0.2970  3.4944
  853MPD2     N12587   2.442   0.868  12.233 -0.0260 -0.1022  0.3886
  853MPD2    H512588   2.520   0.846  12.172 -1.3962 -0.9738 -1.0262
  853MPD2    N112589   2.294   0.814  12.701 -0.7393 -0.6866 -0.2788
  853MPD2    H712590   2.330   0.807  12.796  1.3810  0.5952 -0.9727
  854MPD2     C12591   3.829   1.018  13.494 -0.2312  0.1762 -0.2871
  854MPD2    C112592   3.889   1.096  13.397  0.0679  0.0809 -0.4671
  854MPD2    C212593   4.020   1.059  13.352 -0.1742 -0.5761 -0.1285
  854MPD2    C312594   4.091   0.948  13.405 -0.0518 -0.0236  0.6337
  854MPD2    C412595   4.028   0.882  13.506 -0.7177  0.3556  1.3311
  854MPD2    C512596   3.898   0.912  13.539  0.1277  0.0773  0.1257
  854MPD2     H12597   4.074   1.111  13.274 -0.6451 -0.0024 -0.0695
  854MPD2    H112598   4.069   0.789  13.543  1.8696  1.7678  1.9878
  854MPD2    H212599   3.731   1.043  13.534 -0.1892 -0.0454 -0.0466
  854MPD2    H312600   3.844   0.845  13.605 -0.8459  0.1867 -0.5586
  854MPD2     N12601   4.218   0.900  13.362  0.0011  0.3279  0.2284
  854MPD2    H512602   4.262   0.827  13.416 -3.2941 -2.6825 -1.1806
  854MPD2    N112603   3.807   1.201  13.336  0.2157  0.2774  0.0415
  854MPD2    H712604   3.715   1.223  13.373  0.2544  0.2017  0.1810
  855MPD2     C12605   0.334   0.884  13.789  0.7205 -0.1809  0.1057
  855MPD2    C112606   0.199   0.854  13.797 -0.0656  0.2950  0.7888
  855MPD2    C212607   0.135   0.854  13.676 -0.5264  0.5261  0.2019
  855MPD2    C312608   0.191   0.908  13.559  0.4544 -0.3900  0.0163
  855MPD2    C412609   0.328   0.932  13.557  0.0328 -0.1764  0.4447
  855MPD2    C512610   0.399   0.920  13.673 -0.4076 -0.3383 -0.5142
  855MPD2     H12611   0.033   0.816  13.670 -0.1941 -0.3179 -0.0969
  855MPD2    H112612   0.371   0.980  13.469  0.2319 -0.1710  0.5432
  855MPD2    H212613   0.397   0.866  13.875  2.3281  1.8493 -0.6457
  855MPD2    H312614   0.506   0.938  13.671 -0.3608 -0.2695  2.7871
  855MPD2     N12615   0.115   0.910  13.440  0.0618  0.7673 -1.1730
  855MPD2    H512616   0.157   0.916  13.348  1.8194 -0.9981 -0.4680
  855MPD2    N112617   0.127   0.811  13.911 -0.1766 -0.1840 -0.2412
  855MPD2    H712618   0.029   0.785  13.903  0.1448 -1.3855 -0.2606
  856MPD2     C12619   1.670   1.766  14.293  0.0857 -0.5148 -0.1703
  856MPD2    C112620   1.757   1.871  14.276 -1.0042  0.3591  0.3915
  856MPD2    C212621   1.726   1.973  14.191  0.1598 -0.6332  0.4208
  856MPD2    C312622   1.602   1.984  14.133  0.8201 -0.5072  0.0495
  856MPD2    C412623   1.512   1.881  14.158 -0.0891 -0.0355  0.3638
  856MPD2    C512624   1.550   1.772  14.232  0.3650  0.4061 -0.0436
  856MPD2     H12625   1.797   2.050  14.165 -1.6102  0.5248 -0.9974
  856MPD2    H112626   1.413   1.882  14.113  1.2896  1.9262 -2.5480
  856MPD2    H212627   1.694   1.678  14.353 -1.6537 -2.3930 -2.2354
  856MPD2    H312628   1.481   1.690  14.245 -1.3008  1.7596 -0.3810
  856MPD2     N12629   1.554   2.086  14.045  0.2254 -0.4165 -0.0808
  856MPD2    H512630   1.454   2.083  14.029 -0.0218 -0.8840  1.6166
  856MPD2    N112631   1.879   1.884  14.348 -0.1924  0.1793 -0.2045
  856MPD2    H712632   1.928   1.972  14.333 -2.7118  1.5349 -0.5462
  857MPD2     C12633   3.455   3.849  12.873 -0.3204 -0.3851 -0.3784
  857MPD2    C112634   3.585   3.855  12.917  0.3260 -0.5740  0.4446
  857MPD2    C212635   3.625   3.965  12.979 -0.5463 -0.9247  0.0368
  857MPD2    C312636   3.541   4.068  13.007 -0.4847  0.5133 -0.0399
  857MPD2    C412637   3.408   4.057  12.975 -0.0668  0.1155 -0.2111
  857MPD2    C512638   3.365   3.952  12.897 -0.5045 -0.2549  0.0754
  857MPD2     H12639   3.715   3.967  13.039  0.0599  0.5861 -0.9449
  857MPD2    H112640   3.337   4.137  12.993  0.1648 -0.0299  1.3965
  857MPD2    H212641   3.417   3.761  12.821  1.3620 -0.8545 -0.7943
  857MPD2    H312642   3.262   3.956  12.865  0.2532 -0.9802 -2.5035
  857MPD2     N12643   3.594   4.177  13.078  0.5543  0.5640 -0.3285
  857MPD2    H512644   3.691   4.173  13.108  0.4611 -1.2131 -0.2831
  857MPD2    N112645   3.664   3.743  12.879 -0.0643 -0.1029 -0.2376
  857MPD2    H712646   3.614   3.669  12.830  0.2845 -0.1437 -0.5261
  858MPD2     C12647   0.083   3.024  17.078 -0.1895 -0.5230 -0.2365
  858MPD2    C112648   0.069   2.896  17.129  0.9188  0.1965 -0.0447
  858MPD2    C212649   0.049   2.887  17.265  0.0760 -0.1234  0.1667
  858MPD2    C312650   0.050   3.000  17.349 -0.2751  0.0484  0.0053
  858MPD2    C412651   0.065   3.123  17.290 -0.5110 -0.2535 -0.3419
  858MPD2    C512652   0.076   3.136  17.155  0.5565 -0.7797  0.0511
  858MPD2     H12653   0.016   2.791  17.305 -0.8876 -0.3767 -1.2235
  858MPD2    H112654   0.064   3.215  17.349 -1.6675  1.6217 -3.2832
  858MPD2    H212655   0.114   3.036  16.975 -0.0526 -1.1386 -0.2689
  858MPD2    H312656   0.089   3.235  17.115  0.7701 -0.5016  0.8117
  858MPD2     N12657   0.025   2.992  17.487  0.8130 -0.8786  0.3577
  858MPD2    H512658   0.015   3.086  17.526  1.0275  0.3120 -2.4651
  858MPD2    N112659   0.087   2.794  17.036 -0.4598 -0.7955 -0.0464
  858MPD2    H712660   0.096   2.830  16.942  0.4794  0.0121  0.3576
  859MPD2     C12661   2.964   0.593  16.100  0.2726 -0.0199  0.1341
  859MPD2    C112662   2.972   0.582  15.961  0.5091 -0.3562  0.6518
  859MPD2    C212663   2.981   0.459  15.900 -0.0195  1.2284  0.7257
  859MPD2    C312664   2.953   0.348  15.980  0.9920  0.4539  0.4383
  859MPD2    C412665   2.933   0.364  16.115  0.2797  0.2293  0.3414
  859MPD2    C512666   2.944   0.484  16.175  0.1655 -0.2605  0.1440
  859MPD2     H12667   3.007   0.451  15.795 -1.4998  1.2571  0.3567
  859MPD2    H112668   2.930   0.275  16.177 -3.5461 -1.1657 -1.8450
  859MPD2    H212669   2.961   0.689  16.152  2.3889  0.1597 -0.0799
  859MPD2    H312670   2.940   0.501  16.282 -0.0518  0.2950  0.0502
  859MPD2     N12671   2.944   0.216  15.937  0.2269  0.6239  0.0144
  859MPD2    H512672   2.940   0.133  15.995 -0.3913  0.0240 -0.8794
  859MPD2    N112673   3.001   0.704  15.888 -0.1002 -0.2523  0.1370
  859MPD2    H712674   3.023   0.788  15.940  1.5959 -0.7703  0.2483
  860MPD2     C12675   0.357   1.707  12.354 -0.8749 -0.1305  0.2127
  860MPD2    C112676   0.389   1.577  12.350 -0.7293 -0.6079  0.0084
  860MPD2    C212677   0.301   1.485  12.298  0.6555 -0.1762 -0.1574
  860MPD2    C312678   0.173   1.521  12.253 -0.5613  0.6371  0.9525
  860MPD2    C412679   0.143   1.653  12.243  0.3542 -0.2069  0.1302
  860MPD2    C512680   0.233   1.747  12.300  0.1299 -0.9600  0.0751
  860MPD2     H12681   0.328   1.380  12.300 -2.1489 -0.9179 -0.3330
  860MPD2    H112682   0.050   1.692  12.204  0.8377 -2.9893 -3.8600
  860MPD2    H212683   0.416   1.787  12.397  0.8791 -2.3557  1.8961
  860MPD2    H312684   0.222   1.855  12.303 -0.0911 -0.9906  0.3818
  860MPD2     N12685   0.094   1.419  12.199 -0.1027 -0.3552 -0.0562
  860MPD2    H512686   0.130   1.330  12.233 -1.1869 -0.8650 -0.2601
  860MPD2    N112687   0.510   1.529  12.397  0.0673 -0.4611  0.1309
  860MPD2    H712688   0.537   1.432  12.384  0.9721 -0.6084  3.0735
  861MPD2     C12689   3.881   3.821  11.292  0.7367 -0.4619  0.4827
  861MPD2    C112690   3.919   3.955  11.293  0.3542  0.0913 -0.4595
  861MPD2    C212691   3.873   4.035  11.191  0.5603  0.7181  0.0320
  861MPD2    C312692   3.775   3.987  11.101  0.3238 -0.7086 -0.2260
  861MPD2    C412693   3.745   3.852  11.102  0.2821  0.9529  0.9194
  861MPD2    C512694   3.799   3.766  11.195 -0.3153  0.0986 -0.3200
  861MPD2     H12695   3.903   4.139  11.195  1.9054  0.3171  0.2276
  861MPD2    H112696   3.673   3.812  11.031 -1.1118  3.9992  0.6295
  861MPD2    H212697   3.926   3.749  11.360  0.5571 -1.6781 -0.7075
  861MPD2    H312698   3.768   3.662  11.200  1.1546 -0.2933  0.4840
  861MPD2     N12699   3.697   4.069  11.023  0.4557  0.3269 -0.4877
  861MPD2    H512700   3.606   4.029  11.002  1.4170 -0.0349 -3.9721
  861MPD2    N112701   4.017   4.015  11.383  0.0421  0.2857 -0.5979
  861MPD2    H712702   4.056   4.105  11.355 -0.4732  1.4078  2.3852
  862MPD2     C12703   3.002   4.056  10.814 -0.1198 -0.4950 -0.3910
  862MPD2    C112704   3.113   4.004  10.878 -0.0484 -0.0602 -0.6780
  862MPD2    C212705   3.103   3.885  10.952 -1.0264  0.2363 -0.6747
  862MPD2    C312706   2.980   3.822  10.962 -0.3103 -0.0079 -0.6322
  862MPD2    C412707   2.871   3.872  10.896 -0.5488 -0.1630  0.2674
  862MPD2    C512708   2.883   3.984  10.816  0.4908  0.0299 -0.1456
  862MPD2     H12709   3.185   3.865  11.021 -1.2040  1.1228 -0.2056
  862MPD2    H112710   2.770   3.832  10.901  0.5093 -2.5598  2.4950
  862MPD2    H212711   3.006   4.144  10.752 -0.5440 -0.3440 -0.1992
  862MPD2    H312712   2.803   4.027  10.756  0.4388 -2.4698 -1.8295
  862MPD2     N12713   2.962   3.703  11.041  0.6035  0.2729 -0.5704
  862MPD2    H512714   2.872   3.657  11.039  0.6527  0.1969 -1.0162
  862MPD2    N112715   3.234   4.082  10.886  0.3978 -0.7816 -0.0711
  862MPD2    H712716   3.315   4.039  10.929  0.3295 -1.4945 -0.6410
  863MPD2     C12717   2.292   1.627  17.088  0.4051 -0.4193 -1.0913
  863MPD2    C112718   2.348   1.740  17.140  0.6317 -1.0988  0.0934
  863MPD2    C212719   2.450   1.713  17.224 -0.6054  0.3965  0.1947
  863MPD2    C312720   2.506   1.588  17.248 -0.7140  0.3183 -0.2146
  863MPD2    C412721   2.446   1.477  17.194 -0.2315 -0.7772 -0.1165
  863MPD2    C512722   2.334   1.500  17.117  0.6703  0.2705 -0.4951
  863MPD2     H12723   2.491   1.795  17.282  2.8262 -1.2273  0.0497
  863MPD2    H112724   2.483   1.375  17.196 -0.7985 -0.9592  1.5743
  863MPD2    H212725   2.207   1.629  17.020  0.7352  0.3006 -1.4842
  863MPD2    H312726   2.284   1.415  17.071 -0.1520  0.0647  0.7780
  863MPD2     N12727   2.624   1.564  17.326  0.6782  0.1318 -1.0859
  863MPD2    H512728   2.653   1.467  17.318  2.1536  0.4638  0.5227
  863MPD2    N112729   2.296   1.866  17.104  0.0931 -0.0035  0.1202
  863MPD2    H712730   2.218   1.873  17.040  0.8101  1.3503 -0.6046
  864MPD2     C12731   3.586   3.530  17.378 -0.2291 -0.1713  0.1382
  864MPD2    C112732   3.645   3.408  17.392  0.2537  0.1696 -0.3655
  864MPD2    C212733   3.785   3.406  17.393  0.7048 -0.4465 -0.2132
  864MPD2    C312734   3.863   3.521  17.381 -0.1094 -0.2095 -0.0621
  864MPD2    C412735   3.802   3.641  17.373  0.7547 -0.6871  0.8919
  864MPD2    C512736   3.667   3.644  17.369  0.4188 -0.4653 -0.2702
  864MPD2     H12737   3.839   3.313  17.411 -0.5488 -0.7352  2.0870
  864MPD2    H112738   3.864   3.729  17.364  1.8382 -1.6789 -1.1422
  864MPD2    H212739   3.479   3.546  17.378  0.0774  1.9280 -0.8262
  864MPD2    H312740   3.609   3.734  17.349  1.2723  0.2435  0.4595
  864MPD2     N12741   4.005   3.524  17.380 -0.1228 -0.1625  0.4605
  864MPD2    H512742   4.045   3.612  17.348  0.9388 -0.6781  0.3816
  864MPD2    N112743   3.568   3.289  17.396 -0.5243 -0.3583 -0.1202
  864MPD2    H712744   3.468   3.307  17.389 -0.1548  1.3509 -1.1864
  865MPD2     C12745   4.495   3.299  16.567  0.1730  0.9440 -1.0563
  865MPD2    C112746   4.384   3.285  16.639 -1.2181 -0.2601 -0.0763
  865MPD2    C212747   4.366   3.346  16.761  0.4236  0.2256  0.2432
  865MPD2    C312748   4.468   3.410  16.826 -0.5284  0.1842  0.4034
  865MPD2    C412749   4.591   3.408  16.766 -0.3793 -0.7055 -0.1157
  865MPD2    C512750   4.602   3.361  16.633  0.0658 -0.4530  0.2417
  865MPD2     H12751   4.266   3.349  16.802  0.0626 -1.6130 -0.4906
  865MPD2    H112752   4.682   3.441  16.814 -0.6545  0.9729 -0.7500
  865MPD2    H212753   4.506   3.245  16.474  0.9987 -0.1116 -0.3461
  865MPD2    H312754   4.701   3.365  16.589 -0.1341 -0.2173 -0.1921
  865MPD2     N12755   4.452   3.454  16.962 -0.5857 -0.6503 -0.0118
  865MPD2    H512756   4.535   3.465  17.019  1.0842 -1.8844 -2.1722
  865MPD2    N112757   4.276   3.205  16.583  0.0533  0.6857  0.0607
  865MPD2    H712758   4.291   3.180  16.486  1.7106 -0.2035  0.5494
  866MPD2     C12759   0.084   4.539  11.043  0.5560  0.2049 -0.1072
  866MPD2    C112760   0.009   4.439  11.098 -0.2940  0.0758  0.4106
  866MPD2    C212761   4.611   4.455  11.116  0.2425  0.0631  0.1416
  866MPD2    C312762   4.552   4.578  11.082  0.6331  0.2632 -0.0529
  866MPD2    C412763   4.633   4.686  11.049  0.7625 -0.8284  0.0955
  866MPD2    C512764   0.029   4.668  11.032 -0.6140 -0.8325  0.4175
  866MPD2     H12765   4.547   4.373  11.146 -0.7388  1.5546  2.0974
  866MPD2    H112766   4.585   0.042  11.028  0.8976 -0.6831  0.4607
  866MPD2    H212767   0.190   4.525  11.029  0.6982  1.5358 -0.4158
  866MPD2    H312768   0.091   0.011  11.000  0.2412 -1.8660 -0.6331
  866MPD2     N12769   4.410   4.605  11.093  0.6681  0.5915  0.5198
  866MPD2    H512770   4.378   4.701  11.087 -3.3603 -0.8211 -0.3504
  866MPD2    N112771   0.078   4.320  11.135  0.0406  0.3098 -0.3546
  866MPD2    H712772   0.176   4.316  11.107  0.0675  1.2213 -0.3948
  867MPD2     C12773   1.972   3.279  17.319  0.6810 -0.0692 -0.4962
  867MPD2    C112774   2.046   3.228  17.432 -0.2163 -0.0574 -0.5538
  867MPD2    C212775   2.046   3.311  17.546  0.2214 -0.3221  0.5861
  867MPD2    C312776   2.000   3.441  17.542 -0.0556 -0.2747  0.4734
  867MPD2    C412777   1.932   3.483  17.432 -0.0674 -0.3762 -0.6143
  867MPD2    C512778   1.924   3.406  17.313 -0.6337 -0.7968  0.2292
  867MPD2     H12779   2.097   3.272  17.633  2.4860  1.8961  0.2731
  867MPD2    H112780   1.892   3.583  17.420 -0.9603 -0.6690 -0.1010
  867MPD2    H212781   1.963   3.227  17.224  2.5259  0.7979 -1.1623
  867MPD2    H312782   1.870   3.452  17.231  1.0513  0.3269 -0.2650
  867MPD2     N12783   2.017   3.540  17.648  0.0283  0.0127 -0.2853
  867MPD2    H512784   1.973   3.627  17.620 -1.6776 -0.5688  0.5997
  867MPD2    N112785   2.106   3.095  17.421  0.0977 -0.2659  0.1284
  867MPD2    H712786   2.088   3.031  17.344 -2.0252 -0.7060  1.0044
  868MPD2     C12787   3.631   2.350  13.658 -0.1394  0.7442 -0.4416
  868MPD2    C112788   3.688   2.230  13.705 -0.0237 -0.8256  0.5983
  868MPD2    C212789   3.643   2.182  13.825 -0.1888  0.5597 -0.1835
  868MPD2    C312790   3.556   2.259  13.901 -0.2396 -0.3322  0.1162
  868MPD2    C412791   3.508   2.383  13.860  0.4799  0.1910  0.6056
  868MPD2    C512792   3.544   2.421  13.735  0.0411 -0.2918  0.4434
  868MPD2     H12793   3.675   2.086  13.866  0.3120 -0.0457 -2.0099
  868MPD2    H112794   3.431   2.437  13.914 -0.8469 -0.5766 -0.5130
  868MPD2    H212795   3.662   2.387  13.561 -0.3456  3.0778  0.4047
  868MPD2    H312796   3.500   2.514  13.701 -0.5342 -0.8523 -0.3341
  868MPD2     N12797   3.524   2.194  14.024  0.2072 -0.0595  0.1296
  868MPD2    H512798   3.570   2.107  14.046  2.0432  0.6913 -0.6638
  868MPD2    N112799   3.777   2.163  13.624 -0.2059  0.4463 -0.0193
  868MPD2    H712800   3.787   2.193  13.527 -1.0128  2.1995  0.4459
  869MPD2     C12801   0.516   4.588   0.875  0.3693 -0.3911  0.5579
  869MPD2    C112802   0.530   4.542   0.747 -0.1807  0.8601 -0.2612
  869MPD2    C212803   0.629   4.588   0.666  0.3335  0.4467  0.5995
  869MPD2    C312804   0.708   4.695   0.706 -0.6519  0.1293 -0.1970
  869MPD2    C412805   0.693   0.001   0.835 -0.6460 -0.2267  0.3830
  869MPD2    C512806   0.594   4.688   0.913  0.1360  0.4498 -0.1061
  869MPD2     H12807   0.631   4.573   0.558  0.2789  3.5932  0.1401
  869MPD2    H112808   0.749   0.088   0.869 -2.2766  1.2355 -0.6769
  869MPD2    H212809   0.444   4.543   0.943 -0.6654  0.1664 -0.1682
  869MPD2    H312810   0.583   4.723   1.015 -0.3333 -1.0072  0.3369
  869MPD2     N12811   0.797   0.027   0.625 -0.3880 -0.1181  0.3799
  869MPD2    H512812   0.843   0.102   0.676 -1.5481  0.6747  0.2585
  869MPD2    N112813   0.443   4.429   0.715  0.9742 -0.3014  0.3625
  869MPD2    H712814   0.362   4.413   0.774  1.0745 -1.2864  0.2335
  870MPD2     C12815   4.546   4.296   1.523 -0.0273  0.3224  0.2745
  870MPD2    C112816   4.564   4.238   1.400 -0.4861  0.3184 -0.1748
  870MPD2    C212817   4.472   4.272   1.296 -0.1824  0.0657  0.5585
  870MPD2    C312818   4.384   4.370   1.320 -0.0679  1.2063 -0.0667
  870MPD2    C412819   4.366   4.424   1.445 -0.1901 -0.2588  0.1185
  870MPD2    C512820   4.453   4.393   1.544  0.8571  0.5669 -0.6103
  870MPD2     H12821   4.483   4.243   1.192  1.5797  1.7439  0.2772
  870MPD2    H112822   4.304   4.508   1.472 -0.8560 -0.8012  0.2622
  870MPD2    H212823   4.609   4.280   1.610  0.8380  1.5938 -0.1205
  870MPD2    H312824   4.444   4.441   1.641  1.2689 -1.5856  0.5118
  870MPD2     N12825   4.297   4.407   1.216 -0.3218 -0.9811 -0.0174
  870MPD2    H512826   4.300   4.345   1.136  0.6033  1.1050 -1.5909
  870MPD2    N112827   4.670   4.147   1.382 -0.0937  0.3567 -0.3598
  870MPD2    H712828   4.730   4.131   1.462 -0.5373  1.1234  0.1194
  871MPD2     C12829   1.071   3.374  16.544 -0.9796 -0.1218 -0.0793
  871MPD2    C112830   1.058   3.322  16.676  0.2346 -0.8696 -0.1572
  871MPD2    C212831   1.001   3.193  16.682 -0.1532  0.4454 -0.0737
  871MPD2    C312832   0.967   3.121  16.561  0.4294 -0.2880  0.9677
  871MPD2    C412833   0.989   3.182  16.442  0.6727 -0.1864  0.0456
  871MPD2    C512834   1.043   3.304  16.429 -1.1601 -0.9869  0.2831
  871MPD2     H12835   0.976   3.149  16.777 -0.8123 -1.4857 -1.1471
  871MPD2    H112836   0.945   3.136  16.354  2.9333 -1.8241 -0.2309
  871MPD2    H212837   1.116   3.471  16.526  0.1545 -0.2351  2.1415
  871MPD2    H312838   1.060   3.351  16.333 -0.0778 -1.2930  0.3236
  871MPD2     N12839   0.930   2.988  16.577 -0.6591 -0.3471  0.5039
  871MPD2    H512840   0.911   2.962  16.673 -0.6510  0.8152  0.8243
  871MPD2    N112841   1.084   3.403  16.789 -0.6068  0.1175  0.0777
  871MPD2    H712842   1.123   3.495  16.775  0.0647 -0.0778  0.7090
  872MPD2     C12843   1.998   1.187  14.479 -0.3524 -0.3849  0.1893
  872MPD2    C112844   1.945   1.313  14.462  0.3196  0.0729 -1.1266
  872MPD2    C212845   1.812   1.337  14.494 -0.0091 -0.1834 -0.0726
  872MPD2    C312846   1.736   1.245  14.567 -0.0208  0.3317 -0.3365
  872MPD2    C412847   1.798   1.127  14.602 -0.1408 -0.1300  0.1730
  872MPD2    C512848   1.921   1.103  14.555  0.1709 -0.3167  0.0117
  872MPD2     H12849   1.765   1.432  14.470  1.3171  0.7972  1.2317
  872MPD2    H112850   1.751   1.041  14.649 -3.0807  0.3444 -1.8872
  872MPD2    H212851   2.097   1.154  14.451 -1.1480 -2.7122  0.1274
  872MPD2    H312852   1.967   1.006  14.573 -1.0228 -0.9977 -0.5309
  872MPD2     N12853   1.610   1.262  14.626  1.0881 -0.2805 -0.6994
  872MPD2    H512854   1.575   1.202  14.701  0.5986  0.4130 -0.3803
  872MPD2    N112855   2.020   1.419  14.407 -0.2539 -0.1125 -0.4640
  872MPD2    H712856   1.965   1.503  14.391 -0.4895 -0.4052 -1.2152
  873MPD2     C12857   4.132   0.659   0.832 -0.2628 -0.3733  0.3693
  873MPD2    C112858   4.032   0.657   0.924  0.0439  0.2132  0.1977
  873MPD2    C212859   3.932   0.559   0.912  0.7885 -0.6988  0.5560
  873MPD2    C312860   3.941   0.459   0.810  0.3366  0.5924 -1.0181
  873MPD2    C412861   4.038   0.469   0.717  0.0638 -0.1427  0.3598
  873MPD2    C512862   4.128   0.574   0.726  0.2323 -0.5864 -0.2524
  873MPD2     H12863   3.846   0.555   0.977 -0.9350  1.7912 -1.5605
  873MPD2    H112864   4.035   0.409   0.626 -1.2070 -0.7835  0.8327
  873MPD2    H212865   4.212   0.732   0.837  0.7018 -1.4896  0.9670
  873MPD2    H312866   4.198   0.592   0.645  0.4082  1.3843  0.3241
  873MPD2     N12867   3.864   0.348   0.801  0.1746 -0.6056  0.5997
  873MPD2    H512868   3.869   0.292   0.716 -1.5859  1.9366 -1.1925
  873MPD2    N112869   4.046   0.748   1.031  0.1396  0.3342  0.6223
  873MPD2    H712870   4.140   0.782   1.048  0.2522 -1.0820  2.8018
  874MPD2     C12871   3.313   1.464  16.492  0.1012  0.1570  0.2426
  874MPD2    C112872   3.344   1.359  16.580  0.5017 -0.2966  0.3811
  874MPD2    C212873   3.465   1.360  16.642 -0.2069 -0.4137 -0.6515
  874MPD2    C312874   3.560   1.452  16.601 -0.3144 -0.0192  0.4641
  874MPD2    C412875   3.535   1.534  16.494  0.0225  0.5220  0.1250
  874MPD2    C512876   3.410   1.552  16.455 -0.6727 -0.1419 -0.7325
  874MPD2     H12877   3.473   1.286  16.721 -1.9670  0.2355  0.1328
  874MPD2    H112878   3.608   1.605  16.458  1.1511 -0.7700 -0.1694
  874MPD2    H212879   3.217   1.486  16.446 -0.1967 -1.8902 -0.1082
  874MPD2    H312880   3.393   1.628  16.380  4.6257 -0.9517 -2.7141
  874MPD2     N12881   3.689   1.439  16.663  0.2115 -0.1592  0.0620
  874MPD2    H512882   3.703   1.359  16.723  0.5931  0.7207  1.1473
  874MPD2    N112883   3.261   1.258  16.634  0.1119 -0.1548 -0.3590
  874MPD2    H712884   3.307   1.182  16.682  2.6029  1.2847 -0.4565
  875MPD2     C12885   3.774   4.042  14.617  0.2288 -0.2349 -0.1877
  875MPD2    C112886   3.844   4.154  14.582 -0.2306  0.5428 -0.3308
  875MPD2    C212887   3.891   4.242  14.682  0.0960  0.8281  0.2432
  875MPD2    C312888   3.855   4.218  14.811  0.6303  0.1050  0.6442
  875MPD2    C412889   3.772   4.111  14.840  0.7508  0.5688 -0.6149
  875MPD2    C512890   3.736   4.025  14.742  0.2575  0.3231  0.3913
  875MPD2     H12891   3.952   4.329  14.659  0.7642  0.3643  0.2429
  875MPD2    H112892   3.750   4.091  14.944 -0.5404 -0.7560 -1.1438
  875MPD2    H212893   3.732   3.964  14.555  1.8564 -1.6584  0.4996
  875MPD2    H312894   3.689   3.930  14.765 -0.9496  0.3010 -2.1412
  875MPD2     N12895   3.896   4.304  14.918  0.2366  0.5491  0.1119
  875MPD2    H512896   3.873   4.274  15.012  1.3295 -4.0308 -1.0887
  875MPD2    N112897   3.875   4.180  14.447 -0.0901  0.4152  0.4565
  875MPD2    H712898   3.954   4.241  14.430  0.0568  0.2268  0.4678
  876MPD2     C12899   2.980   0.953  16.385 -0.8840 -0.0795  0.3105
  876MPD2    C112900   3.109   0.951  16.347 -0.5052 -0.6656  0.1591
  876MPD2    C212901   3.187   0.834  16.338  0.1572 -0.2625 -0.4808
  876MPD2    C312902   3.127   0.718  16.386 -0.2345  0.2192  0.3115
  876MPD2    C412903   3.002   0.721  16.445  0.2385 -0.2712  0.8411
  876MPD2    C512904   2.927   0.836  16.441 -0.1355  0.7820  0.4840
  876MPD2     H12905   3.277   0.831  16.277  0.7845 -1.4461  0.4920
  876MPD2    H112906   2.965   0.631  16.492  0.9880 -1.8133 -1.5020
  876MPD2    H212907   2.919   1.043  16.387  1.1543  1.3632 -1.2444
  876MPD2    H312908   2.833   0.828  16.494 -0.7959  1.5338 -0.5756
  876MPD2     N12909   3.210   0.605  16.393  0.1494  0.0796  0.0760
  876MPD2    H512910   3.304   0.618  16.356 -0.3567  1.3758 -0.7739
  876MPD2    N112911   3.152   1.068  16.298 -0.0332  0.2113  0.3177
  876MPD2    H712912   3.078   1.135  16.277 -1.4730 -1.2365  0.7726
  877MPD2     C12913   3.007   1.487  15.694  0.2770  0.2373 -0.2774
  877MPD2    C112914   3.138   1.442  15.696 -0.5131 -0.1535  0.0738
  877MPD2    C212915   3.204   1.435  15.573 -0.2093  0.1025 -0.2355
  877MPD2    C312916   3.145   1.483  15.458  0.2682 -0.1840  0.2853
  877MPD2    C412917   3.009   1.506  15.460 -0.6113 -0.2789 -0.3174
  877MPD2    C512918   2.943   1.507  15.580 -0.3767 -0.0206  0.2601
  877MPD2     H12919   3.307   1.400  15.576 -0.6594 -1.3282 -1.6052
  877MPD2    H112920   2.969   1.534  15.363 -0.8952 -0.5843 -0.2878
  877MPD2    H212921   2.951   1.498  15.786 -1.1867  0.2495 -1.1832
  877MPD2    H312922   2.844   1.546  15.597  0.0114  1.3822 -0.6343
  877MPD2     N12923   3.217   1.504  15.334  0.3185 -0.4551  0.1249
  877MPD2    H512924   3.162   1.506  15.249  0.4943 -1.7912 -0.0186
  877MPD2    N112925   3.206   1.405  15.820 -0.3467 -0.5720  0.5508
  877MPD2    H712926   3.302   1.375  15.806  0.3752  2.1219 -0.2836
  878MPD2     C12927   2.912   0.377  13.513 -0.0214  0.3001 -0.1438
  878MPD2    C112928   2.868   0.508  13.536 -0.4534  0.0364 -0.3402
  878MPD2    C212929   2.914   0.569  13.648  0.4994  0.3756  0.1094
  878MPD2    C312930   3.016   0.512  13.729  0.1552 -0.3717 -0.6377
  878MPD2    C412931   3.065   0.390  13.697 -0.6294 -0.4365 -0.1841
  878MPD2    C512932   3.020   0.328  13.585 -0.2762  0.1118 -0.0842
  878MPD2     H12933   2.896   0.674  13.668 -0.5975 -0.0380  1.2870
  878MPD2    H112934   3.157   0.357  13.745 -1.3375 -0.2733  1.2866
  878MPD2    H212935   2.879   0.317  13.429  1.6941 -0.7155 -0.0901
  878MPD2    H312936   3.076   0.244  13.547  0.6772  0.2186  1.0956
  878MPD2     N12937   3.071   0.592  13.833 -0.0435  0.6358  0.4758
  878MPD2    H512938   3.038   0.687  13.831  0.0064  0.6595  0.7596
  878MPD2    N112939   2.783   0.574  13.443 -0.2473  0.2441 -0.2540
  878MPD2    H712940   2.754   0.526  13.359  1.7906  0.5968 -1.1531
  879MPD2     C12941   4.165   1.753  17.257  0.1651 -1.3313  0.3256
  879MPD2    C112942   4.126   1.624  17.269 -0.3267  0.0888  0.3976
  879MPD2    C212943   4.002   1.601  17.212  0.2196 -1.1198  0.2423
  879MPD2    C312944   3.921   1.695  17.146  0.0640 -0.1266  0.0077
  879MPD2    C412945   3.978   1.822  17.128  0.6599  0.3014  0.1515
  879MPD2    C512946   4.097   1.849  17.191 -0.0818  0.2686  0.2709
  879MPD2     H12947   3.960   1.501  17.217  0.2202 -1.1687 -0.8335
  879MPD2    H112948   3.925   1.898  17.073 -1.5742  0.0978  2.0512
  879MPD2    H212949   4.259   1.790  17.299 -0.8667  0.6292  0.9246
  879MPD2    H312950   4.138   1.947  17.172  0.0331 -0.1441 -1.6533
  879MPD2     N12951   3.792   1.661  17.091 -0.3547  0.0233  0.6197
  879MPD2    H512952   3.752   1.728  17.027  1.7938 -0.1952 -0.9500
  879MPD2    N112953   4.207   1.524  17.334  0.0733 -0.1737 -0.0439
  879MPD2    H712954   4.299   1.548  17.367  1.2834 -1.7298 -2.2731
  880MPD2     C12955   4.693   3.130   0.501  0.1905  0.8658 -0.1763
  880MPD2    C112956   0.000   3.252   0.468 -0.7223  0.4002  0.0078
  880MPD2    C212957   0.137   3.276   0.474  0.2126  0.6066  0.4812
  880MPD2    C312958   0.229   3.175   0.505 -0.5354 -0.3922  0.0077
  880MPD2    C412959   0.180   3.051   0.530  0.0124 -0.3281  0.2034
  880MPD2    C512960   0.045   3.035   0.529  0.3126 -0.2211  0.2889
  880MPD2     H12961   0.175   3.374   0.447  0.7876  0.7507  1.8172
  880MPD2    H112962   0.254   2.971   0.535  0.9081  0.3375 -2.1622
  880MPD2    H212963   4.587   3.111   0.514  0.1605 -0.3695 -2.2040
  880MPD2    H312964   0.007   2.936   0.553 -0.1121 -0.3305 -0.8702
  880MPD2     N12965   0.369   3.207   0.507  0.0551 -0.1900 -0.1704
  880MPD2    H512966   0.397   3.300   0.477  2.8304 -0.4970  1.4695
  880MPD2    N112967   4.642   3.351   0.445  0.6244  0.0990 -0.5581
  880MPD2    H712968   4.547   3.325   0.421 -0.0153  0.0263  2.0602
  881MPD2     C12969   4.548   4.066  17.518  0.3301  0.0450  0.1303
  881MPD2    C112970   4.632   3.959  17.540 -0.3777 -0.1413 -0.6068
  881MPD2    C212971   4.617   3.890  17.662 -0.7279 -0.1668  0.0962
  881MPD2    C312972   4.508   3.917  17.747 -0.7476  0.1262 -0.6121
  881MPD2    C412973   4.409   4.014  17.709 -0.0952 -0.2665  0.3966
  881MPD2    C512974   4.435   4.081  17.591 -0.4253  0.0726 -0.2525
  881MPD2     H12975   4.686   3.812  17.692 -1.0610 -0.5632 -0.1892
  881MPD2    H112976   4.321   4.039   0.012 -0.6465  0.7298 -0.8643
  881MPD2    H212977   4.546   4.107  17.418 -2.0832 -0.1419  0.1093
  881MPD2    H312978   4.356   4.142  17.549 -1.0858 -1.1982 -0.8440
  881MPD2     N12979   4.488   3.848   0.114 -0.4574 -0.7203 -0.4837
  881MPD2    H512980   4.395   3.865   0.150 -0.0715  0.1655  0.1218
  881MPD2    N112981   0.011   3.944  17.459 -0.0585  0.5759  0.2678
  881MPD2    H712982   0.039   4.020  17.398 -0.9345  0.7235  0.0539
  882MPD2     C12983   3.396   1.248  14.542  0.2930 -0.3824 -0.3614
  882MPD2    C112984   3.326   1.335  14.623  0.1914  0.0969 -0.1686
  882MPD2    C212985   3.189   1.351  14.597 -0.1177 -0.0799  0.0429
  882MPD2    C312986   3.132   1.286  14.487  0.1150 -0.1586  0.3758
  882MPD2    C412987   3.204   1.200  14.409 -0.3330 -1.0345 -0.0993
  882MPD2    C512988   3.334   1.187  14.431  0.3690  0.1636 -0.1172
  882MPD2     H12989   3.127   1.419  14.654  0.7821  0.7501  0.0218
  882MPD2    H112990   3.161   1.142  14.328 -1.3938  1.7433 -1.5355
  882MPD2    H212991   3.500   1.226  14.565  0.6470  0.9057 -0.7116
  882MPD2    H312992   3.388   1.116  14.369  2.7858  0.4105  1.7031
  882MPD2     N12993   2.994   1.289  14.460  0.0266  0.3337 -0.1281
  882MPD2    H512994   2.959   1.211  14.405  1.2761  0.6984 -1.4208
  882MPD2    N112995   3.388   1.390  14.743  0.4855  0.4341 -0.5577
  882MPD2    H712996   3.485   1.358  14.748  1.2362  2.8628  0.2941
  883MPD2     C12997   0.255   0.592  16.405  0.0734 -0.2374  0.5657
  883MPD2    C112998   0.309   0.675  16.318 -0.2279 -0.5495  0.0642
  883MPD2    C212999   0.415   0.752  16.357 -0.0779 -0.5527  0.0007
  883MPD2    C313000   0.455   0.758  16.492  0.0171 -0.0202  0.4933
  883MPD2    C413001   0.389   0.678  16.581  0.0247 -0.4253  0.4431
  883MPD2    C513002   0.299   0.589  16.537  0.3768  0.2733 -0.1247
  883MPD2     H13003   0.456   0.825  16.288  1.2842 -1.3545 -0.0288
  883MPD2    H113004   0.402   0.685  16.689 -0.8265 -0.9133  0.5762
  883MPD2    H213005   0.175   0.523  16.382 -0.1277  0.5573 -1.1016
  883MPD2    H313006   0.260   0.519  16.610 -0.2726  1.0600  0.2800
  883MPD2     N13007   0.551   0.856  16.530 -0.0040  0.0657 -0.3010
  883MPD2    H513008   0.573   0.920  16.455  2.5856  0.1163  0.4985
  883MPD2    N113009   0.264   0.693  16.183 -0.5997 -0.5724 -0.5472
  883MPD2    H713010   0.318   0.753  16.121  0.4141 -1.7672 -0.8223
  884MPD2     C13011   2.444   2.019  15.703 -0.9380 -0.8131  0.3549
  884MPD2    C113012   2.433   2.138  15.634 -0.2609 -0.3101  0.0706
  884MPD2    C213013   2.309   2.196  15.633  0.2026 -0.5605  0.4729
  884MPD2    C313014   2.198   2.145  15.693 -0.0290  0.3316 -0.2573
  884MPD2    C413015   2.211   2.024  15.754  0.3007 -0.2993 -0.2617
  884MPD2    C513016   2.336   1.962  15.762  0.0093  0.8277  0.0049
  884MPD2     H13017   2.293   2.288  15.578  0.0301 -1.4666 -0.9736
  884MPD2    H113018   2.130   1.975  15.807 -0.3480 -1.7958 -2.6386
  884MPD2    H213019   2.542   1.973  15.709 -0.0497  1.3029  1.8143
  884MPD2    H313020   2.354   1.867  15.812 -0.5484  1.8247  2.1036
  884MPD2     N13021   2.079   2.216  15.696  0.1235  0.2543 -0.1936
  884MPD2    H513022   2.081   2.312  15.663  0.7700  0.9661  1.9518
  884MPD2    N113023   2.544   2.198  15.570 -0.7000  0.5216 -0.1470
  884MPD2    H713024   2.633   2.161  15.601 -1.6656 -1.1793  0.6474
  885MPD2     C13025   1.149   1.539   0.339  0.1791 -0.3743  0.3478
  885MPD2    C113026   1.169   1.668   0.373  0.4591 -0.3916  0.0513
  885MPD2    C213027   1.125   1.765   0.285  0.6993  0.6246  0.2775
  885MPD2    C313028   1.083   1.744   0.163  0.2994 -0.5413  0.3075
  885MPD2    C413029   1.060   1.613   0.127 -0.0793  0.3119  0.0577
  885MPD2    C513030   1.105   1.509   0.212 -0.0912  0.3860 -0.3215
  885MPD2     H13031   1.141   1.871   0.304 -0.7486  0.8326  0.3166
  885MPD2    H113032   1.007   1.587   0.036 -1.6929  3.2781  0.1764
  885MPD2    H213033   1.159   1.454   0.405 -1.3421 -0.5367  0.3751
  885MPD2    H313034   1.101   1.407   0.176 -0.2294  0.4009 -0.3516
  885MPD2     N13035   1.058   1.849   0.080  0.0096 -0.3769 -0.0982
  885MPD2    H513036   1.072   1.943   0.115  0.9029 -0.9931  1.1628
  885MPD2    N113037   1.213   1.694   0.502  0.0157  0.0549  0.5805
  885MPD2    H713038   1.208   1.615   0.565 -0.3620 -0.0625  0.4037
  886MPD2     C13039   1.962   0.609  15.846 -0.8142  0.1705 -0.2497
  886MPD2    C113040   2.074   0.639  15.771 -0.4735 -0.3829  0.1258
  886MPD2    C213041   2.099   0.763  15.716 -0.3401 -0.2262  0.3024
  886MPD2    C313042   2.010   0.867  15.729 -0.3829  0.3314  0.6324
  886MPD2    C413043   1.901   0.839  15.812 -0.2998  0.0755 -0.1483
  886MPD2    C513044   1.874   0.718  15.872  1.0017 -0.2016  0.5121
  886MPD2     H13045   2.193   0.777  15.665 -0.1189 -1.0207  0.4905
  886MPD2    H113046   1.828   0.919  15.824  1.5759  1.6329  0.8051
  886MPD2    H213047   1.951   0.522  15.910 -0.0757 -0.2970 -0.7512
  886MPD2    H313048   1.788   0.707  15.936 -0.6298  1.8277 -1.3287
  886MPD2     N13049   2.029   0.986  15.665 -0.9626  0.4273 -0.4302
  886MPD2    H513050   2.100   0.994  15.593  0.0251  0.0338  0.5135
  886MPD2    N113051   2.173   0.534  15.746 -0.3084  0.5675  0.7445
  886MPD2    H713052   2.260   0.553  15.697  0.9810 -1.6647  2.1549
  887MPD2     C13053   2.631   0.472  16.278  0.1578  1.0846 -0.1730
  887MPD2    C113054   2.579   0.533  16.166  0.0603 -0.1673 -0.2222
  887MPD2    C213055   2.574   0.674  16.169  1.3324 -0.0279  0.4922
  887MPD2    C313056   2.607   0.742  16.282 -0.0118 -0.2231 -0.3290
  887MPD2    C413057   2.642   0.666  16.393  0.1961  0.1390 -0.1266
  887MPD2    C513058   2.661   0.533  16.395  0.0469  0.4006  0.1350
  887MPD2     H13059   2.547   0.733  16.082  2.1833  0.8740  0.8362
  887MPD2    H113060   2.649   0.708  16.493 -1.3744 -1.4060  0.6276
  887MPD2    H213061   2.632   0.364  16.280  2.1532  1.0691 -2.4845
  887MPD2    H313062   2.689   0.491  16.491  0.2937 -1.9285 -0.9509
  887MPD2     N13063   2.600   0.882  16.283  0.5063 -0.1482 -0.1367
  887MPD2    H513064   2.578   0.920  16.192 -0.9145  0.8771  0.6380
  887MPD2    N113065   2.547   0.471  16.042  0.7038 -0.6092  0.0848
  887MPD2    H713066   2.511   0.542  15.979  1.5607  0.1706  0.4853
  888MPD2     C13067   4.568   0.584  15.641 -0.1994  0.3943 -0.1118
  888MPD2    C113068   4.453   0.646  15.608  0.7127 -0.0929 -0.5229
  888MPD2    C213069   4.453   0.784  15.585 -0.3686  0.6106 -0.1548
  888MPD2    C313070   4.575   0.852  15.597  0.5083 -0.0331 -0.0554
  888MPD2    C413071   4.687   0.787  15.641  0.4131  0.5246 -0.1407
  888MPD2    C513072   4.680   0.653  15.665 -0.0187  0.5054  0.2808
  888MPD2     H13073   4.366   0.842  15.558 -0.6116 -0.6525 -2.1337
  888MPD2    H113074   0.037   0.840  15.669  0.0909  1.2213 -0.4293
  888MPD2    H213075   4.565   0.490  15.696  0.9455  0.5977  0.2947
  888MPD2    H313076   0.025   0.602  15.709  0.0576 -0.0221 -0.4633
  888MPD2     N13077   4.577   0.993  15.580 -0.3134 -0.8358  0.5620
  888MPD2    H513078   4.486   1.034  15.566 -0.3819 -0.8319  1.0074
  888MPD2    N113079   4.340   0.560  15.592 -0.3937  0.4089  0.8364
  888MPD2    H713080   4.342   0.464  15.624 -1.2441  0.4949  1.1632
  889MPD2     C13081   3.496   4.715  13.797 -0.2232 -0.2753  0.1013
  889MPD2    C113082   3.473   4.727  13.659  0.1392 -0.9604  0.1731
  889MPD2    C213083   3.441   0.113  13.606  0.6331  0.6867  0.1192
  889MPD2    C313084   3.412   0.217  13.694 -0.0862  0.4810 -0.0071
  889MPD2    C413085   3.408   0.194  13.829 -0.4723 -0.0595  0.3751
  889MPD2    C513086   3.447   0.072  13.880  0.6702  0.3746  0.7037
  889MPD2     H13087   3.454   0.137  13.501  0.4458  2.8235  0.5725
  889MPD2    H113088   3.389   0.280  13.893  1.4853  0.8818 -0.3258
  889MPD2    H213089   3.512   4.622  13.849 -1.2634  0.1682  1.2182
  889MPD2    H313090   3.460   0.062  13.987 -0.8280 -0.0532  0.8488
  889MPD2     N13091   3.387   0.355  13.654 -0.4334  0.5340 -0.1270
  889MPD2    H513092   3.367   0.415  13.733  0.0970  1.4586 -0.7025
  889MPD2    N113093   3.543   4.638  13.580  0.4917 -0.0770 -0.2488
  889MPD2    H713094   3.591   4.565  13.631 -0.5762 -1.1838 -0.8207
  890MPD2     C13095   2.906   1.828  15.129  0.0702 -0.2213 -0.0846
  890MPD2    C113096   3.039   1.829  15.140 -0.2977 -0.0732 -0.6625
  890MPD2    C213097   3.092   1.841  15.262  0.0663  0.1266 -0.0246
  890MPD2    C313098   3.010   1.844  15.371  0.7807 -0.6083  0.4646
  890MPD2    C413099   2.873   1.840  15.359 -0.9160 -0.7475 -0.2342
  890MPD2    C513100   2.821   1.838  15.234  0.7292 -0.9427 -0.4662
  890MPD2     H13101   3.200   1.842  15.269 -0.0717  0.7959  1.8271
  890MPD2    H113102   2.798   1.848  15.437  1.0015 -2.3555  1.7743
  890MPD2    H213103   2.852   1.825  15.035 -0.0797 -2.3277  0.0518
  890MPD2    H313104   2.716   1.859  15.213  0.8587  0.4818  0.3513
  890MPD2     N13105   3.079   1.837  15.494  0.3041 -0.0258  0.4166
  890MPD2    H513106   3.179   1.833  15.479  0.3243  1.0541  0.2824
  890MPD2    N113107   3.117   1.826  15.020  0.2442  0.2592 -0.0607
  890MPD2    H713108   3.058   1.810  14.939 -1.7452 -0.3501  1.4966
  891MPD2     C13109   1.203   4.717  16.994  0.5063  0.1178  0.2000
  891MPD2    C113110   1.143   0.104  16.998  0.0741 -0.4951  0.5624
  891MPD2    C213111   1.210   0.215  17.043  0.1339  0.0188  0.0288
  891MPD2    C313112   1.344   0.200  17.086 -0.2822 -0.2816 -0.2580
  891MPD2    C413113   1.401   0.075  17.085  0.0385  0.1276  0.2079
  891MPD2    C513114   1.332   4.704  17.042 -0.2290 -0.1810 -0.3439
  891MPD2     H13115   1.159   0.310  17.044  0.5320  0.1781  3.9274
  891MPD2    H113116   1.501   0.048  17.117 -0.1724 -2.8800 -1.6579
  891MPD2    H213117   1.143   4.634  16.961 -1.8202  1.8820 -0.0113
  891MPD2    H313118   1.375   4.605  17.054  0.3430  0.0486 -0.4968
  891MPD2     N13119   1.416   0.319  17.119 -0.7830  0.2946 -0.1508
  891MPD2    H513120   1.361   0.404  17.118 -0.8762  0.2168 -1.2954
  891MPD2    N113121   1.011   0.107  16.953 -0.6398  0.0782 -0.1603
  891MPD2    H713122   0.981   0.016  16.920 -0.4810  0.3583 -1.0749
  892MPD2     C13123   2.412   1.603  15.176  0.2271 -0.3583 -0.1995
  892MPD2    C113124   2.324   1.585  15.074 -0.0389 -0.5259  0.1448
  892MPD2    C213125   2.376   1.537  14.955  0.1155 -0.0853  0.4912
  892MPD2    C313126   2.504   1.505  14.933  0.4736 -0.0274  0.5528
  892MPD2    C413127   2.594   1.524  15.033  0.3510 -0.3790 -0.1424
  892MPD2    C513128   2.545   1.574  15.159  0.3758 -0.1405  0.3081
  892MPD2     H13129   2.290   1.526  14.891  0.3076  2.7551 -0.2489
  892MPD2    H113130   2.701   1.504  15.031  0.5522  0.7215 -0.5483
  892MPD2    H213131   2.376   1.645  15.269  2.3859  0.2559  0.3651
  892MPD2    H313132   2.624   1.593  15.231  0.8316 -0.2745 -0.1489
  892MPD2     N13133   2.555   1.466  14.804 -0.5798 -0.5000 -0.1494
  892MPD2    H513134   2.656   1.455  14.800 -0.6854 -1.8328  0.6339
  892MPD2    N113135   2.181   1.607  15.077 -0.5469 -0.1955  0.2169
  892MPD2    H713136   2.130   1.602  14.989 -0.3656  0.8557  0.0514
  893MPD2     C13137   4.046   0.146   1.373  0.0671 -0.2859 -0.4393
  893MPD2    C113138   4.143   0.178   1.472 -1.2341 -0.2924  0.0580
  893MPD2    C213139   4.098   0.234   1.597 -0.0261  0.1337 -0.4884
  893MPD2    C313140   3.967   0.279   1.603 -0.4568 -0.3842 -0.0731
  893MPD2    C413141   3.885   0.271   1.490 -1.0315  0.5241  0.1820
  893MPD2    C513142   3.924   0.201   1.380  0.2048 -0.1064  0.3639
  893MPD2     H13143   4.163   0.292   1.661  0.3901  0.3802 -1.1428
  893MPD2    H113144   3.781   0.302   1.491 -1.5530 -1.1747 -3.0132
  893MPD2    H213145   4.073   0.093   1.283 -3.0156  1.0894 -2.1674
  893MPD2    H313146   3.850   0.192   1.301 -0.4081  0.1602  0.9080
  893MPD2     N13147   3.915   0.350   1.715  0.0833  0.0675 -0.5995
  893MPD2    H513148   3.818   0.373   1.696  0.0506 -0.3703 -0.9729
  893MPD2    N113149   4.275   0.128   1.444 -0.4092  0.4415 -0.4250
  893MPD2    H713150   4.286   0.089   1.351  2.1494  1.1317 -0.3975
  894MPD2     C13151   2.792   2.260   1.689  0.1089  0.5218 -1.0062
  894MPD2    C113152   2.740   2.364   1.619 -0.0552  0.1497  0.5307
  894MPD2    C213153   2.825   2.420   1.522 -0.4946  0.7503  0.5421
  894MPD2    C313154   2.951   2.370   1.496 -0.2255 -0.3033 -0.3289
  894MPD2    C413155   3.006   2.268   1.569  0.2542  0.6807 -0.5407
  894MPD2    C513156   2.923   2.213   1.665  0.6126  0.2172  0.0119
  894MPD2     H13157   2.793   2.505   1.463  1.4860  1.0630 -0.0774
  894MPD2    H113158   3.096   2.211   1.551 -0.4216 -0.6994  0.3694
  894MPD2    H213159   2.749   2.208   1.774 -0.3059 -0.6846 -1.9544
  894MPD2    H313160   2.959   2.141   1.738 -0.9686  1.4846  2.0277
  894MPD2     N13161   3.018   2.431   1.394 -0.0540  0.2129  0.4862
  894MPD2    H513162   2.983   2.520   1.358 -1.8195 -0.3353  0.8228
  894MPD2    N113163   2.615   2.416   1.638  0.0878  0.1606 -0.0057
  894MPD2    H713164   2.598   2.496   1.578  0.7230 -0.6551 -1.2985
  895MPD2     C13165   2.046   0.940  13.976 -0.3384  1.1790 -0.2182
  895MPD2    C113166   1.931   0.888  14.042  0.1414  0.6494 -0.0923
  895MPD2    C213167   1.884   0.763  14.014 -0.6116 -0.4551 -0.0715
  895MPD2    C313168   1.937   0.696  13.908  0.2995 -0.0719  0.5837
  895MPD2    C413169   2.048   0.746  13.849 -0.8434 -0.4615 -0.1570
  895MPD2    C513170   2.104   0.867  13.876 -0.2201  0.4793 -0.1635
  895MPD2     H13171   1.793   0.730  14.062 -1.4934 -1.1514 -2.2233
  895MPD2    H113172   2.103   0.700  13.767 -0.1511 -0.5716  0.3630
  895MPD2    H213173   2.087   1.038  13.999  0.2334  0.7440  0.6602
  895MPD2    H313174   2.191   0.902  13.821 -1.4586  0.0937 -2.3514
  895MPD2     N13175   1.894   0.569  13.862  0.4963  0.7547  0.2406
  895MPD2    H513176   1.937   0.529  13.779  0.0853 -1.1172  0.9484
  895MPD2    N113177   1.849   0.951  14.139 -0.0766  0.1832 -0.4862
  895MPD2    H713178   1.769   0.898  14.172 -0.6929  0.3269 -1.7888
  896MPD2     C13179   3.692   3.501   1.030 -0.2820 -0.1178  0.5885
  896MPD2    C113180   3.697   3.365   1.029 -0.0634  0.4273 -0.3906
  896MPD2    C213181   3.580   3.286   1.016 -0.6696  0.3317  0.1639
  896MPD2    C313182   3.457   3.351   0.996 -0.4761  0.4768  0.7921
  896MPD2    C413183   3.456   3.483   1.010 -0.3026  0.0279  0.8088
  896MPD2    C513184   3.568   3.554   1.030 -0.1992 -0.4855 -0.7768
  896MPD2     H13185   3.587   3.180   0.992  0.6576  0.1250  1.5180
  896MPD2    H113186   3.368   3.546   1.002  1.6228  2.8660  2.0581
  896MPD2    H213187   3.778   3.562   1.055 -0.7317  0.4682  0.6886
  896MPD2    H313188   3.566   3.660   1.051 -0.6099 -0.6634  0.0795
  896MPD2     N13189   3.345   3.273   0.953 -0.5474  0.0171  0.1477
  896MPD2    H513190   3.367   3.176   0.933 -0.7558  0.2492 -1.1711
  896MPD2    N113191   3.824   3.305   1.044 -0.6588 -0.0237  0.0572
  896MPD2    H713192   3.892   3.377   1.066 -0.2832 -0.1969 -0.5415
  897MPD2     C13193   0.141   0.249  11.346 -0.0398 -0.0012  0.7472
  897MPD2    C113194   0.041   0.313  11.277 -0.0912  0.0813  0.2132
  897MPD2    C213195   4.660   0.324  11.331 -0.1531 -0.2308  0.2493
  897MPD2    C313196   4.639   0.285  11.463  0.5765 -0.8194  0.3763
  897MPD2    C413197   0.001   0.214  11.531 -0.2542 -0.3439 -1.0989
  897MPD2    C513198   0.120   0.197  11.470  0.2543 -0.4356 -0.5870
  897MPD2     H13199   4.580   0.377  11.280  0.7911  0.7105 -0.2470
  897MPD2    H113200   4.722   0.161  11.624  1.7271  1.2592  0.2039
  897MPD2    H213201   0.235   0.219  11.301  0.2635  0.9261  0.7692
  897MPD2    H313202   0.184   0.129  11.525  0.9405  0.1645 -0.6279
  897MPD2     N13203   4.514   0.319  11.513  0.5216 -0.1311 -0.0860
  897MPD2    H513204   4.441   0.360  11.455  2.0046  1.0179 -1.1589
  897MPD2    N113205   0.066   0.364  11.152 -0.5143  0.8083  0.6517
  897MPD2    H713206   0.162   0.375  11.121 -0.3328 -0.4070  0.7894
  898MPD2     C13207   2.113   0.583   0.433 -0.6797  0.7346  0.2071
  898MPD2    C113208   2.096   0.594   0.296 -0.2769  0.3069 -0.2408
  898MPD2    C213209   2.127   0.723   0.240 -0.1421 -0.1251  0.1819
  898MPD2    C313210   2.178   0.826   0.319 -0.0283  0.4334  0.1912
  898MPD2    C413211   2.205   0.804   0.448 -0.1558  0.2595 -0.0587
  898MPD2    C513212   2.166   0.682   0.506  0.2770  0.2768 -0.0741
  898MPD2     H13213   2.100   0.746   0.138  4.0368 -0.9609 -1.0890
  898MPD2    H113214   2.244   0.882   0.512 -0.0458  1.3997 -1.5191
  898MPD2    H213215   2.108   0.486   0.483 -1.2694  0.7230  0.1214
  898MPD2    H313216   2.173   0.663   0.612  0.2115  2.2159  0.2779
  898MPD2     N13217   2.206   0.951   0.257 -0.4090  0.2641  0.3405
  898MPD2    H513218   2.178   0.951   0.159 -0.8902  0.1397  0.4779
  898MPD2    N113219   2.044   0.492   0.214  0.3996  0.4419  0.2657
  898MPD2    H713220   2.048   0.496   0.112  0.8594  0.3934  0.2825
  899MPD2     C13221   2.822   1.004  17.382  0.8575  0.2829 -0.4729
  899MPD2    C113222   2.876   1.067  17.490 -0.4202 -0.1323  0.1112
  899MPD2    C213223   2.922   1.002  17.599  0.2148 -0.8520 -0.1038
  899MPD2    C313224   2.908   0.860  17.605 -0.3801  0.2088  0.4980
  899MPD2    C413225   2.856   0.798  17.497  0.3691 -0.2366 -0.4267
  899MPD2    C513226   2.823   0.867  17.384 -0.3854  0.2282 -0.0076
  899MPD2     H13227   2.977   1.066  17.667 -1.0503  1.2308 -1.0280
  899MPD2    H113228   2.828   0.694  17.509 -1.3939  0.3124  0.2726
  899MPD2    H213229   2.797   1.059  17.292 -1.4198  0.0476  0.0143
  899MPD2    H313230   2.782   0.815  17.298 -2.4443  1.2135  0.3925
  899MPD2     N13231   2.931   0.773  17.716  0.1873  0.1537  0.6715
  899MPD2    H513232   2.931   0.676  17.686 -0.7082  0.4627 -0.3379
  899MPD2    N113233   2.895   1.203  17.465  0.0309 -0.1263 -0.6130
  899MPD2    H713234   2.868   1.239  17.374 -0.5804  0.1727 -0.3122
  900MPD2     C13235   2.095   3.052  12.551 -0.0284 -0.6667  0.3992
  900MPD2    C113236   2.002   3.015  12.638 -0.4314 -0.2637 -0.3865
  900MPD2    C213237   1.868   3.050  12.621 -0.6993  0.9981 -0.5255
  900MPD2    C313238   1.827   3.122  12.515 -0.0331  0.2595  0.5234
  900MPD2    C413239   1.923   3.163  12.424  0.5819  0.0753  0.0926
  900MPD2    C513240   2.055   3.125  12.436 -0.3633 -0.1317 -0.1043
  900MPD2     H13241   1.794   3.028  12.697 -1.1457  1.4418 -0.8324
  900MPD2    H113242   1.899   3.229  12.341  2.7385  1.2046  0.3798
  900MPD2    H213243   2.200   3.035  12.571  1.1045  5.5953 -0.2334
  900MPD2    H313244   2.131   3.161  12.368 -0.4163 -0.0250 -0.1075
  900MPD2     N13245   1.686   3.155  12.502  0.2788 -0.5072 -0.0487
  900MPD2    H513246   1.619   3.110  12.565 -0.3778  0.6997  0.1023
  900MPD2    N113247   2.041   2.951  12.756 -0.3983 -0.6493 -0.1349
  900MPD2    H713248   2.142   2.948  12.757 -0.3858 -0.3894 -0.5731
  901MPD2     C13249   1.700   2.102  13.253 -0.3151 -0.9473 -0.3474
  901MPD2    C113250   1.815   2.094  13.178 -0.1493 -0.1541 -0.6148
  901MPD2    C213251   1.866   2.213  13.123  1.2262  0.0672 -0.2034
  901MPD2    C313252   1.820   2.337  13.154  0.0481 -0.0982 -0.4151
  901MPD2    C413253   1.717   2.343  13.244  0.5631  0.0899  0.0410
  901MPD2    C513254   1.652   2.227  13.282 -0.1111 -0.4628  0.0626
  901MPD2     H13255   1.964   2.207  13.077  1.7166 -0.8086  0.9387
  901MPD2    H113256   1.675   2.439  13.269 -0.6439 -0.4874  0.2426
  901MPD2    H213257   1.644   2.016  13.287 -2.2475  0.9282  1.3149
  901MPD2    H313258   1.562   2.227  13.343 -0.3915  0.7793 -0.3649
  901MPD2     N13259   1.890   2.448  13.108  0.1671 -0.6480 -0.9486
  901MPD2    H513260   1.953   2.434  13.030 -0.2351  0.4028 -1.4506
  901MPD2    N113261   1.866   1.965  13.161 -0.3539 -0.3437  0.1795
  901MPD2    H713262   1.825   1.885  13.208 -2.0202  0.6558  0.4407
  902MPD2     C13263   1.649   1.313  12.587 -0.0669  1.1064  0.1723
  902MPD2    C113264   1.520   1.289  12.541 -0.1289 -0.8403 -0.0043
  902MPD2    C213265   1.465   1.156  12.545 -0.0511 -0.7100 -0.2703
  902MPD2    C313266   1.538   1.054  12.598 -0.4173 -0.1907 -0.4589
  902MPD2    C413267   1.666   1.082  12.646  0.2740 -0.7111 -0.1747
  902MPD2    C513268   1.725   1.208  12.636 -0.9428  0.3116  0.4582
  902MPD2     H13269   1.370   1.133  12.498 -0.0354 -0.2514 -0.5344
  902MPD2    H113270   1.745   1.011  12.666  0.7390  0.6010  2.7461
  902MPD2    H213271   1.701   1.409  12.586 -0.9614  1.5862 -0.8189
  902MPD2    H313272   1.823   1.237  12.672 -0.1859  0.3167 -1.5933
  902MPD2     N13273   1.475   0.929  12.610  0.4954 -1.0411 -0.0906
  902MPD2    H513274   1.384   0.913  12.569  0.0382  1.3004  0.0223
  902MPD2    N113275   1.447   1.398  12.488 -0.8906 -0.3765 -0.5209
  902MPD2    H713276   1.480   1.491  12.514 -0.2738 -1.1568  1.5675
  903MPD2     C13277   1.046   0.834  12.107  0.5170  0.0450  0.0505
  903MPD2    C113278   1.073   0.845  12.242 -0.2711 -0.8001 -0.0838
  903MPD2    C213279   1.024   0.955  12.317 -0.4430  0.3683  0.0095
  903MPD2    C313280   0.962   1.059  12.256 -0.6472  0.6271 -0.9304
  903MPD2    C413281   0.951   1.051  12.113 -0.0009 -1.1545 -0.0022
  903MPD2    C513282   0.981   0.936  12.039  0.0229  0.4300  0.3461
  903MPD2     H13283   1.043   0.971  12.423 -0.2993  1.0508 -0.1226
  903MPD2    H113284   0.916   1.137  12.056  0.8925 -0.8574 -0.0986
  903MPD2    H213285   1.070   0.748  12.045 -0.0636 -0.3411  0.3618
  903MPD2    H313286   0.975   0.930  11.931  1.7380  1.3019  0.1956
  903MPD2     N13287   0.940   1.179  12.323  0.0385  0.6795 -0.3959
  903MPD2    H513288   0.981   1.183  12.416  0.8426  0.0873 -0.7288
  903MPD2    N113289   1.146   0.743  12.310  0.0142 -0.3639  0.1355
  903MPD2    H713290   1.211   0.696  12.247 -0.7294  0.8194 -1.5006
  904MPD2     C13291   0.901   0.102  14.402  0.1779  0.0122 -0.0093
  904MPD2    C113292   1.001   0.171  14.331 -0.2826 -0.0060  0.0211
  904MPD2    C213293   1.126   0.114  14.317  0.1167  0.1724 -0.6139
  904MPD2    C313294   1.163   0.004  14.388 -0.5826  0.2689  0.3496
  904MPD2    C413295   1.063   4.676  14.457  0.0107  0.1757  0.0745
  904MPD2    C513296   0.932   4.726  14.464  0.7478 -0.4397  0.1167
  904MPD2     H13297   1.199   0.177  14.268  0.9567  1.0757  1.8374
  904MPD2    H113298   1.089   4.586  14.510  0.2652 -0.8699 -1.8322
  904MPD2    H213299   0.799   0.139  14.404  0.8865  1.9713 -0.0577
  904MPD2    H313300   0.851   4.672  14.512  0.3727  1.4293  1.6219
  904MPD2     N13301   1.300   4.715  14.378 -0.3753  0.1657  0.3290
  904MPD2    H513302   1.358   0.041  14.326 -0.7089 -0.0248 -0.2902
  904MPD2    N113303   0.975   0.293  14.267  0.1677 -0.5375 -0.0303
  904MPD2    H713304   1.050   0.327  14.208 -0.4013 -1.3323 -1.2045
  905MPD2     C13305   0.969   0.385  13.602  0.1208 -0.2847 -0.4692
  905MPD2    C113306   1.037   0.460  13.693 -0.6817 -0.4172  0.0447
  905MPD2    C213307   1.179   0.458  13.682 -0.7959 -0.7742  0.0669
  905MPD2    C313308   1.241   0.373  13.586 -0.2062 -0.4578 -0.4291
  905MPD2    C413309   1.170   0.298  13.494  0.3549 -0.2957 -0.3295
  905MPD2    C513310   1.032   0.309  13.502  0.2512 -0.3226  0.0622
  905MPD2     H13311   1.235   0.506  13.762  0.7015 -3.2460  0.5100
  905MPD2    H113312   1.219   0.235  13.420  1.4181  2.4950 -1.9910
  905MPD2    H213313   0.861   0.383  13.607  0.1317 -0.8050 -0.3918
  905MPD2    H313314   0.963   0.249  13.445  0.8439  1.2223 -2.2636
  905MPD2     N13315   1.379   0.361  13.579  0.6546 -0.7033 -0.2141
  905MPD2    H513316   1.409   0.285  13.520 -1.6675 -0.0904 -2.1491
  905MPD2    N113317   0.968   0.513  13.810  0.1812 -0.2122  0.9347
  905MPD2    H713318   0.869   0.492  13.822  0.0525  1.8118  3.4246
  906MPD2     C13319   3.209   0.660  11.542 -0.8187  0.2558 -0.5486
  906MPD2    C113320   3.307   0.604  11.462 -0.2309  0.5877  0.6692
  906MPD2    C213321   3.339   0.466  11.475 -0.1709 -0.0712  0.0246
  906MPD2    C313322   3.270   0.380  11.552  0.2603  0.5480  0.1490
  906MPD2    C413323   3.168   0.431  11.626  0.5051  0.4676 -0.3214
  906MPD2    C513324   3.151   0.570  11.621  0.1687 -0.8431  0.0662
  906MPD2     H13325   3.417   0.428  11.411  1.3416  1.1529  1.1320
  906MPD2    H113326   3.103   0.372  11.690 -0.2971 -0.3029 -1.8554
  906MPD2    H213327   3.174   0.762  11.543 -0.0441  0.4894  1.1047
  906MPD2    H313328   3.068   0.611  11.678 -0.9301 -1.7928 -0.8321
  906MPD2     N13329   3.285   0.242  11.546  0.4526 -0.3656 -0.0566
  906MPD2    H513330   3.220   0.187  11.601  0.3947 -1.0864 -0.8376
  906MPD2    N113331   3.375   0.678  11.362 -0.1180  0.2991  0.4263
  906MPD2    H713332   3.450   0.632  11.311 -0.4153  0.0685  0.1995
  907MPD2     C13333   1.952   4.046  15.659 -0.5845 -0.2221  0.6565
  907MPD2    C113334   2.084   4.014  15.645 -0.1514  0.2433 -0.4934
  907MPD2    C213335   2.175   4.081  15.722  0.2648  0.3188 -0.6823
  907MPD2    C313336   2.144   4.180  15.817 -0.1780  0.7896 -0.2649
  907MPD2    C413337   2.014   4.219  15.821 -0.1522 -0.0915 -0.2748
  907MPD2    C513338   1.918   4.149  15.738 -0.0699 -0.5520 -0.4099
  907MPD2     H13339   2.279   4.048  15.721  0.3248  0.5182 -2.5210
  907MPD2    H113340   1.992   4.297  15.893 -2.7821 -3.2637  2.3566
  907MPD2    H213341   1.871   3.996  15.608  0.9187 -2.3932  0.4167
  907MPD2    H313342   1.816   4.183  15.730 -0.7638 -2.0682  2.0391
  907MPD2     N13343   2.248   4.229  15.905 -0.2803 -0.0477  0.0199
  907MPD2    H513344   2.345   4.199  15.893  0.3055  0.9162  2.4515
  907MPD2    N113345   2.121   3.907  15.567 -0.3818  0.0186  0.2788
  907MPD2    H713346   2.207   3.859  15.591  0.1943  1.8727  1.9059
  908MPD2     C13347   0.489   0.175  10.352  0.4270  0.6803  0.1513
  908MPD2    C113348   0.355   0.144  10.359 -0.1549  0.2783 -0.0447
  908MPD2    C213349   0.263   0.223  10.420  0.7410  0.3885 -0.1468
  908MPD2    C313350   0.306   0.337  10.481  0.2926  0.1526  0.7478
  908MPD2    C413351   0.437   0.380  10.468 -0.3385 -0.2466  0.8678
  908MPD2    C513352   0.524   0.292  10.417 -0.2958 -0.1096  0.1711
  908MPD2     H13353   0.158   0.201  10.431  0.5733 -0.4502 -3.6081
  908MPD2    H113354   0.472   0.470  10.517  0.3001 -0.4614  0.8063
  908MPD2    H213355   0.569   0.115  10.310 -1.2540 -1.7033  0.3314
  908MPD2    H313356   0.628   0.319  10.433 -0.1881 -1.5487  1.8806
  908MPD2     N13357   0.231   0.427  10.562 -0.2200  0.0648  0.4466
  908MPD2    H513358   0.283   0.506  10.599 -0.9435  0.0198  1.5710
  908MPD2    N113359   0.315   0.018  10.296  0.2161 -0.3196 -0.2384
  908MPD2    H713360   0.391   4.708  10.250  2.3026  0.7229  2.0949
  909MPD2     C13361   0.081   2.919  11.978 -0.6877  0.7518 -0.0207
  909MPD2    C113362   0.107   3.057  11.962 -0.1578  0.4991 -0.2395
  909MPD2    C213363   0.049   3.146  12.057 -0.2141  0.0070 -0.5549
  909MPD2    C313364   4.708   3.104  12.160  0.4030 -0.0737 -0.4607
  909MPD2    C413365   4.690   2.971  12.175  0.1996  0.0542 -0.2479
  909MPD2    C513366   0.004   2.883  12.088 -0.4156 -0.1628 -0.0650
  909MPD2     H13367   0.056   3.254  12.049  0.5266  0.0072  0.1180
  909MPD2    H113368   4.629   2.926  12.252  0.1801 -0.4021 -0.5306
  909MPD2    H213369   0.121   2.842  11.913 -1.6992 -0.2184  0.5132
  909MPD2    H313370   4.710   2.781  12.104 -0.5280 -0.1986 -0.5392
  909MPD2     N13371   4.636   3.198  12.237  0.4014 -0.6678  0.9604
  909MPD2    H513372   4.647   3.295  12.208  1.1619 -1.0495 -0.0108
  909MPD2    N113373   0.183   3.120  11.857  0.3162 -0.2642  0.5283
  909MPD2    H713374   0.213   3.217  11.864  0.6212 -0.3796  0.8931
  910MPD2     C13375   1.645   4.471  16.206 -0.2315  0.9780 -0.0893
  910MPD2    C113376   1.761   4.436  16.137 -0.1433 -0.2788  0.8616
  910MPD2    C213377   1.763   4.447  16.001  0.8162 -0.6197 -0.6118
  910MPD2    C313378   1.655   4.493  15.922 -0.1343  0.6019  0.7059
  910MPD2    C413379   1.543   4.523  15.990 -0.3704 -0.2616  0.1272
  910MPD2    C513380   1.538   4.515  16.130 -0.2031 -0.2297 -0.0693
  910MPD2     H13381   1.854   4.425  15.947  1.4228  1.7653 -0.5281
  910MPD2    H113382   1.461   4.569  15.936  0.4103 -1.3120 -1.9665
  910MPD2    H213383   1.636   4.471  16.314 -1.5487  2.2254 -0.1865
  910MPD2    H313384   1.445   4.547  16.177  0.1024 -0.3707  0.6287
  910MPD2     N13385   1.672   4.529  15.787 -0.0831  0.0951  0.2655
  910MPD2    H513386   1.590   4.565  15.739 -1.2001 -1.1669  1.2394
  910MPD2    N113387   1.872   4.386  16.206 -0.3306 -0.5086  0.2775
  910MPD2    H713388   1.952   4.353  16.153 -0.3330 -1.2246  0.7207
  911MPD2     C13389   3.953   0.131  16.533 -0.3993 -0.0105  0.1036
  911MPD2    C113390   4.059   0.216  16.522 -1.0165  0.2734  0.2264
  911MPD2    C213391   4.039   0.334  16.455  0.1511  0.3058 -0.2901
  911MPD2    C313392   3.909   0.370  16.417  0.4004  0.4074  0.4004
  911MPD2    C413393   3.805   0.279  16.421 -0.4904 -0.4484  0.5879
  911MPD2    C513394   3.828   0.157  16.477  0.9011  0.0760  0.3410
  911MPD2     H13395   4.115   0.408  16.434 -1.3723  1.7438 -0.8106
  911MPD2    H113396   3.704   0.291  16.381  0.3069 -1.3862 -1.6824
  911MPD2    H213397   3.959   0.038  16.588  2.2666 -0.6786 -1.3147
  911MPD2    H313398   3.759   0.073  16.474  1.0583 -0.0327 -0.2437
  911MPD2     N13399   3.870   0.480  16.333  0.1518  0.5575  0.7324
  911MPD2    H513400   3.782   0.466  16.284 -0.1594  2.1591  0.8379
  911MPD2    N113401   4.190   0.169  16.560  0.5430 -0.2113  0.3311
  911MPD2    H713402   4.209   0.071  16.581 -0.5814 -0.6553 -0.7751
  912MPD2     C13403   3.680   0.294  15.718 -0.4496 -0.1606 -0.7564
  912MPD2    C113404   3.683   0.310  15.854  0.1170 -0.2774 -0.1031
  912MPD2    C213405   3.711   0.208  15.935  0.1379  0.4895 -0.3558
  912MPD2    C313406   3.737   0.081  15.885  0.4126  0.8948  0.6362
  912MPD2    C413407   3.739   0.065  15.748 -0.0134 -1.2527 -0.9970
  912MPD2    C513408   3.705   0.172  15.670  0.8127 -0.1545 -0.0559
  912MPD2     H13409   3.715   0.223  16.042  2.0353  2.2455 -0.6687
  912MPD2    H113410   3.761   4.708  15.705 -0.5888 -1.6508 -0.3964
  912MPD2    H213411   3.649   0.381  15.661 -0.0949  0.7001  0.3491
  912MPD2    H313412   3.691   0.168  15.563 -0.2681  1.0212  0.0482
  912MPD2     N13413   3.771   4.718  15.979 -0.5028 -0.4377 -0.2087
  912MPD2    H513414   3.787   0.017  16.072 -1.4972  0.8793 -0.5807
  912MPD2    N113415   3.663   0.443  15.897 -0.0601 -0.5932  0.0792
  912MPD2    H713416   3.647   0.515  15.827 -1.7289  1.3294  2.3787
  913MPD2     C13417   4.087   1.621  10.934 -0.9885 -0.9537 -0.8207
  913MPD2    C113418   4.122   1.739  10.985  0.0798 -0.1183  0.7455
  913MPD2    C213419   4.113   1.854  10.907  0.3734 -0.4125 -0.0467
  913MPD2    C313420   4.094   1.846  10.766 -0.3384  0.0819  0.5324
  913MPD2    C413421   4.062   1.722  10.716  0.6619 -0.1315 -0.3401
  913MPD2    C513422   4.056   1.613  10.799  0.3989 -0.2641  0.6710
  913MPD2     H13423   4.135   1.952  10.948  1.0025 -0.5573 -0.0393
  913MPD2    H113424   4.057   1.712  10.608  2.5634  1.7016 -0.5892
  913MPD2    H213425   4.088   1.526  10.986 -0.7186  0.5930  2.0335
  913MPD2    H313426   4.027   1.513  10.766  0.1924  0.1554 -0.4234
  913MPD2     N13427   4.087   1.952  10.675  0.3598 -0.0659 -0.3213
  913MPD2    H513428   4.075   1.936  10.576 -1.0020  0.6950 -0.2794
  913MPD2    N113429   4.161   1.749  11.118 -0.4596 -0.3170 -0.1092
  913MPD2    H713430   4.167   1.656  11.159 -2.0450  0.1724  1.1997
  914MPD2     C13431   2.338   1.685  12.349  0.0878  0.1310  0.0646
  914MPD2    C113432   2.257   1.778  12.387  0.2383  0.1633  0.1422
  914MPD2    C213433   2.206   1.769  12.513 -0.6001 -0.1018 -0.0142
  914MPD2    C313434   2.250   1.678  12.610  0.1712 -0.5012 -0.1429
  914MPD2    C413435   2.327   1.574  12.568 -0.7169 -0.1998  0.1864
  914MPD2    C513436   2.373   1.583  12.435  0.4520 -0.2487  0.3663
  914MPD2     H13437   2.152   1.854  12.552  0.1962  0.2988  0.2186
  914MPD2    H113438   2.361   1.488  12.625  0.3433 -0.5449 -0.9608
  914MPD2    H213439   2.377   1.681  12.248  3.2289 -1.7656  1.3302
  914MPD2    H313440   2.425   1.500  12.388  0.7310  0.6393 -0.8865
  914MPD2     N13441   2.211   1.703  12.744 -0.4958 -0.2363 -0.0052
  914MPD2    H513442   2.163   1.790  12.767 -2.0393 -1.0238 -0.2075
  914MPD2    N113443   2.222   1.883  12.299 -1.2872  0.1795  0.5070
  914MPD2    H713444   2.282   1.883  12.217 -0.0989  1.1080  1.3741
  915MPD2     C13445   0.992   1.501  15.799 -0.8165 -0.0909 -0.7613
  915MPD2    C113446   0.876   1.580  15.782 -0.8997 -0.4489  0.3568
  915MPD2    C213447   0.850   1.683  15.874  0.1219  0.1469 -0.3387
  915MPD2    C313448   0.938   1.699  15.980  0.0348 -0.3527 -0.1061
  915MPD2    C413449   1.039   1.610  16.011  0.1930 -0.0737 -0.3802
  915MPD2    C513450   1.069   1.515  15.911  0.0375  0.1764  0.3693
  915MPD2     H13451   0.762   1.745  15.867 -0.0099 -0.0063 -0.0555
  915MPD2    H113452   1.108   1.616  16.094 -1.4993 -0.2120  1.0428
  915MPD2    H213453   1.018   1.423  15.729 -1.3149 -1.0203  0.0873
  915MPD2    H313454   1.160   1.460  15.931 -0.3672 -0.4262  0.5568
  915MPD2     N13455   0.910   1.810  16.066 -0.1873 -0.6127 -0.4871
  915MPD2    H513456   0.816   1.849  16.057 -1.0838 -2.7856 -0.5078
  915MPD2    N113457   0.789   1.556  15.675  0.5353 -0.1479  0.1369
  915MPD2    H713458   0.710   1.619  15.670 -0.1715 -1.1437 -1.1594
  916MPD2     C13459   3.311   0.297  15.857 -0.4680  0.1559 -0.0373
  916MPD2    C113460   3.370   0.215  15.954 -0.9770  0.0394 -0.4945
  916MPD2    C213461   3.384   0.084  15.911 -1.2750  0.3643 -0.2098
  916MPD2    C313462   3.366   0.046  15.779  0.8264 -0.0783  0.6573
  916MPD2    C413463   3.326   0.137  15.683  0.4883 -0.3733  0.9110
  916MPD2    C513464   3.286   0.258  15.729  0.3959  0.0824 -0.3679
  916MPD2     H13465   3.413   0.009  15.984  1.8145  1.6059 -0.1500
  916MPD2    H113466   3.302   0.110  15.581 -0.0019  2.3949  0.3065
  916MPD2    H213467   3.280   0.398  15.878 -1.2313  0.0755 -0.7779
  916MPD2    H313468   3.246   0.331  15.659  4.1302  2.1752 -0.2975
  916MPD2     N13469   3.398   4.651  15.747  0.1399 -0.4775 -0.2912
  916MPD2    H513470   3.399   4.586  15.825 -2.6468 -1.2607 -0.9065
  916MPD2    N113471   3.383   0.258  16.086 -0.0813 -0.1345 -0.6676
  916MPD2    H713472   3.342   0.347  16.110 -0.8409 -0.6263 -0.1608
  917MPD2     C13473   3.290   2.151  11.820 -0.6171  0.5825 -0.2742
  917MPD2    C113474   3.263   2.220  11.933  0.2866 -0.0667 -0.1867
  917MPD2    C213475   3.293   2.354  11.929  0.3779  0.6776 -0.3255
  917MPD2    C313476   3.351   2.415  11.818 -0.3294 -0.3596 -0.7486
  917MPD2    C413477   3.392   2.336  11.708 -0.6462 -0.4703  0.2223
  917MPD2    C513478   3.361   2.206  11.714 -0.2053  1.6932  0.6902
  917MPD2     H13479   3.281   2.419  12.015 -0.7088  1.0585 -0.7651
  917MPD2    H113480   3.444   2.377  11.623  1.2019 -3.6633 -0.1828
  917MPD2    H213481   3.269   2.044  11.817  0.8709  0.2581  1.3008
  917MPD2    H313482   3.381   2.140  11.631 -2.9379  0.0197  1.3533
  917MPD2     N13483   3.394   2.549  11.827 -0.3936  0.4992  1.1041
  917MPD2    H513484   3.459   2.579  11.754 -1.6887  0.4001 -0.0936
  917MPD2    N113485   3.199   2.156  12.033 -0.5302 -0.5245  0.0361
  917MPD2    H713486   3.148   2.070  12.016  0.0578 -0.7982 -0.3359
  918MPD2     C13487   3.375   2.636  12.750 -0.9570 -0.4401 -0.5331
  918MPD2    C113488   3.473   2.550  12.703  0.1508  0.1650 -0.1881
  918MPD2    C213489   3.426   2.426  12.667  0.4275 -0.0097 -0.1476
  918MPD2    C313490   3.289   2.395  12.666  0.0452  0.1162 -0.2262
  918MPD2    C413491   3.198   2.485  12.705  1.0787  0.1961 -0.6387
  918MPD2    C513492   3.247   2.600  12.752 -0.1611 -0.1384 -0.1097
  918MPD2     H13493   3.502   2.351  12.650  0.2238  0.0508 -1.2839
  918MPD2    H113494   3.090   2.481  12.701  0.9735  0.9874  1.3709
  918MPD2    H213495   3.391   2.725  12.810  1.6772 -2.4762  1.7356
  918MPD2    H313496   3.175   2.672  12.790  0.0181 -0.3658  0.6660
  918MPD2     N13497   3.256   2.269  12.609  0.8700 -0.1464 -0.5934
  918MPD2    H513498   3.338   2.221  12.574 -0.3434 -0.4097 -3.0349
  918MPD2    N113499   3.613   2.569  12.705 -0.4363  0.1706  0.8756
  918MPD2    H713500   3.670   2.488  12.685  0.4783  1.3307 -1.1269
  919MPD2     C13501   4.152   1.632  12.589 -0.1725 -0.3336  0.6174
  919MPD2    C113502   4.073   1.567  12.502  0.8977 -0.3717  0.0996
  919MPD2    C213503   4.025   1.626  12.388 -0.7743 -0.0994  0.1268
  919MPD2    C313504   4.042   1.761  12.371  0.4157  0.8545  0.4678
  919MPD2    C413505   4.133   1.825  12.450  0.6924  0.0900 -0.0206
  919MPD2    C513506   4.178   1.759  12.562 -0.0082 -0.8555 -0.1747
  919MPD2     H13507   3.964   1.562  12.326  1.1306 -1.5296 -0.2821
  919MPD2    H113508   4.186   1.912  12.412  2.5890 -0.9712  0.2472
  919MPD2    H213509   4.207   1.581  12.667  0.6045  2.3329  1.7901
  919MPD2    H313510   4.257   1.795  12.627  0.8198  0.1620 -1.7346
  919MPD2     N13511   3.994   1.836  12.266 -0.0180 -0.0839 -0.6426
  919MPD2    H513512   4.039   1.923  12.240 -1.7074  0.9861 -0.0326
  919MPD2    N113513   4.033   1.431  12.523 -0.0950  0.1705 -0.5457
  919MPD2    H713514   3.989   1.383  12.445 -0.2549  0.1543 -0.4462
  920MPD2     C13515   4.134   2.309  11.384 -0.3769  0.0606  0.1018
  920MPD2    C113516   4.046   2.201  11.363  0.1195  0.0707 -0.0034
  920MPD2    C213517   4.024   2.103  11.464 -0.8036  0.2182  0.2394
  920MPD2    C313518   4.090   2.108  11.581  0.1066  0.4268 -0.6504
  920MPD2    C413519   4.177   2.214  11.598  0.5633  0.1512  0.3907
  920MPD2    C513520   4.206   2.308  11.501  0.0383 -0.2054 -0.7862
  920MPD2     H13521   3.954   2.024  11.443  0.3624 -0.6624 -0.3416
  920MPD2    H113522   4.238   2.214  11.688  1.9909 -2.0891 -0.5886
  920MPD2    H213523   4.146   2.387  11.310  1.3122  0.0754  0.3925
  920MPD2    H313524   4.286   2.379  11.522 -1.7811  1.1760  1.4460
  920MPD2     N13525   4.057   2.005  11.671 -0.5533  0.1304 -0.2289
  920MPD2    H513526   4.001   1.929  11.635 -1.9126  0.6854  0.7383
  920MPD2    N113527   3.969   2.185  11.246  0.2382  0.5409  1.0962
  920MPD2    H713528   3.898   2.113  11.245  1.1630 -0.3550  0.3452
  921MPD2     C13529   0.289   0.544  16.888 -0.3181 -0.5118 -0.5040
  921MPD2    C113530   0.294   0.410  16.896 -0.0964  0.4124 -0.4973
  921MPD2    C213531   0.178   0.339  16.860  0.4785 -0.1946  0.3256
  921MPD2    C313532   0.060   0.416  16.845 -0.4243  0.3079 -0.1038
  921MPD2    C413533   0.064   0.554  16.838 -0.2121  0.2702  0.5210
  921MPD2    C513534   0.178   0.620  16.873  0.0306  0.2573  0.6768
  921MPD2     H13535   0.186   0.233  16.839  0.9392  0.0346 -0.6984
  921MPD2    H113536   4.715   0.615  16.825  1.3068  1.8884 -2.1949
  921MPD2    H213537   0.376   0.604  16.913 -0.9009  0.7748 -1.5268
  921MPD2    H313538   0.185   0.728  16.871  0.6685  0.2296  1.3725
  921MPD2     N13539   4.685   0.349  16.789  0.4682  0.1910 -0.6399
  921MPD2    H513540   4.627   0.414  16.738  1.5787  0.8324 -1.0848
  921MPD2    N113541   0.422   0.355  16.921 -0.9034 -0.2362  0.2545
  921MPD2    H713542   0.506   0.407  16.898 -0.1758 -2.6731 -2.5297
  922MPD2     C13543   1.375   2.806   0.466 -0.1436 -0.2833  0.1046
  922MPD2    C113544   1.351   2.933   0.420 -0.0288 -0.0438 -0.3802
  922MPD2    C213545   1.237   2.955   0.341  0.1747  0.3900  0.1770
  922MPD2    C313546   1.154   2.841   0.309  0.2276  0.1423 -0.4409
  922MPD2    C413547   1.190   2.715   0.350  0.9331  0.1177  0.6975
  922MPD2    C513548   1.295   2.698   0.433  0.3703  0.1308 -0.0926
  922MPD2     H13549   1.200   3.054   0.319 -2.3103 -0.1807  1.8187
  922MPD2    H113550   1.124   2.631   0.336  0.6001  0.3320  0.9890
  922MPD2    H213551   1.466   2.793   0.524  0.3816  1.9783 -0.1801
  922MPD2    H313552   1.312   2.599   0.472 -0.5572  0.1117  0.2464
  922MPD2     N13553   1.031   2.857   0.237 -0.9581  0.3025  0.0293
  922MPD2    H513554   0.996   2.949   0.211 -0.8785 -0.0217 -1.2285
  922MPD2    N113555   1.436   3.037   0.467 -0.1095 -0.4014 -0.4924
  922MPD2    H713556   1.517   3.001   0.516 -0.8468 -0.5280  0.6307
  923MPD2     C13557   1.238   1.054   9.632 -0.4573 -0.2085 -0.1286
  923MPD2    C113558   1.291   1.178   9.628 -0.0270  0.4084  0.0492
  923MPD2    C213559   1.394   1.218   9.546 -0.4982 -0.2490  1.0310
  923MPD2    C313560   1.436   1.121   9.452 -0.0687 -0.3683 -0.1803
  923MPD2    C413561   1.393   0.990   9.465 -1.0260  0.1146  0.1791
  923MPD2    C513562   1.289   0.961   9.553  0.3643 -0.9117  0.1808
  923MPD2     H13563   1.427   1.321   9.547 -1.8057  0.1846 -0.5478
  923MPD2    H113564   1.437   0.907   9.412  2.5226  1.4417  1.0937
  923MPD2    H213565   1.158   1.033   9.702  1.3514 -0.7698  1.7892
  923MPD2    H313566   1.252   0.860   9.568 -0.9380 -0.3694  0.5977
  923MPD2     N13567   1.543   1.134   9.359 -0.3721  0.1539 -0.1968
  923MPD2    H513568   1.578   1.052   9.311 -1.9069  0.4959 -1.8691
  923MPD2    N113569   1.231   1.269   9.721  0.4294 -0.4718  0.4910
  923MPD2    H713570   1.169   1.226   9.788  0.2857 -0.9083  0.0788
  924MPD2     C13571   3.027   4.110  15.748 -0.9130  0.4448 -0.2941
  924MPD2    C113572   3.013   4.159  15.874  0.2051 -0.2021 -0.4946
  924MPD2    C213573   2.917   4.256  15.901  0.0010 -0.0730 -0.0339
  924MPD2    C313574   2.827   4.296  15.807 -0.0644 -0.1776 -0.7476
  924MPD2    C413575   2.839   4.239  15.679 -0.1257  0.6951  0.1080
  924MPD2    C513576   2.936   4.148  15.653  0.1920 -0.4217 -0.1150
  924MPD2     H13577   2.917   4.302  15.999  1.9410  1.7490 -0.9038
  924MPD2    H113578   2.767   4.279  15.607 -0.0224  0.1415 -0.3059
  924MPD2    H213579   3.099   4.036  15.713 -1.0040  0.8558 -1.3219
  924MPD2    H313580   2.953   4.104  15.556  1.8865 -2.9057  1.2921
  924MPD2     N13581   2.715   4.372  15.836 -0.0518 -0.0100  0.2107
  924MPD2    H513582   2.643   4.381  15.766 -0.7743 -0.6682  0.8793
  924MPD2    N113583   3.084   4.119  15.988  0.1359  0.6866 -0.2282
  924MPD2    H713584   3.053   4.159  16.076  0.2188 -2.6332  1.3045
  925MPD2     C13585   1.431   1.416  15.302  0.2701  0.1268 -0.0484
  925MPD2    C113586   1.342   1.330  15.253  0.1882  0.0069  0.9764
  925MPD2    C213587   1.281   1.241  15.342  0.1633 -0.5236 -0.1332
  925MPD2    C313588   1.290   1.252  15.478 -0.1066 -0.4296  0.4779
  925MPD2    C413589   1.372   1.353  15.525 -0.7563 -0.3433 -0.0029
  925MPD2    C513590   1.446   1.427  15.439 -0.2064  0.2177  0.1623
  925MPD2     H13591   1.217   1.167  15.295 -1.2116 -0.1836  1.2032
  925MPD2    H113592   1.393   1.370  15.630 -0.8350 -2.6088  0.3735
  925MPD2    H213593   1.497   1.482  15.248 -0.4428  2.4964  2.0005
  925MPD2    H313594   1.520   1.493  15.483 -0.3663  0.5511 -0.0692
  925MPD2     N13595   1.228   1.159  15.561 -0.0821  0.3582  0.8969
  925MPD2    H513596   1.180   1.083  15.514  1.1188  1.5254 -2.2273
  925MPD2    N113597   1.315   1.324  15.116  0.3859  0.1648 -0.6112
  925MPD2    H713598   1.244   1.260  15.082  0.5736  0.7374 -2.0843
  926MPD2     C13599   0.243   4.534  13.817  0.4469  0.0697 -0.9275
  926MPD2    C113600   0.137   4.600  13.756 -0.6906 -0.0380  1.4688
  926MPD2    C213601   0.159   4.707  13.669  0.0003 -0.1267 -0.8522
  926MPD2    C313602   0.285   0.017  13.658 -0.4109 -0.3738 -0.3938
  926MPD2    C413603   0.393   4.696  13.726 -0.5262  0.5411 -0.2254
  926MPD2    C513604   0.367   4.589  13.810 -0.8801 -0.4639 -0.8059
  926MPD2     H13605   0.068   0.011  13.628 -1.3744 -1.0387  1.2510
  926MPD2    H113606   0.492   4.738  13.723  1.0434 -3.1521  0.1835
  926MPD2    H213607   0.232   4.447  13.881  0.4397  0.1462 -0.8245
  926MPD2    H313608   0.450   4.532  13.851  0.6358  2.9266  0.8367
  926MPD2     N13609   0.321   0.144  13.597 -0.2820  0.0602  0.3654
  926MPD2    H513610   0.415   0.178  13.607 -0.6558  2.0452 -2.7212
  926MPD2    N113611   0.003   4.556  13.759 -0.2993  0.3139  0.1846
  926MPD2    H713612   4.675   4.616  13.713 -0.5686  1.1537  1.6535
  927MPD2     C13613   0.776   1.157   0.249 -0.2478  0.2195 -0.1156
  927MPD2    C113614   0.674   1.251   0.232 -0.1948  0.3306 -0.1324
  927MPD2    C213615   0.681   1.344   0.124  0.1549 -0.6533 -0.8197
  927MPD2    C313616   0.790   1.336   0.039 -0.0087 -0.6469  0.7237
  927MPD2    C413617   0.898   1.255   0.067  0.3849  0.6841  0.8200
  927MPD2    C513618   0.886   1.162   0.166  0.1373 -0.3347  0.4655
  927MPD2     H13619   0.602   1.412   0.096  0.4386  0.2530  0.5782
  927MPD2    H113620   0.987   1.259   0.006  0.7728 -1.3703  1.2825
  927MPD2    H213621   0.774   1.088   0.332  0.5401  2.9525  2.2086
  927MPD2    H313622   0.969   1.094   0.175 -2.1038 -3.3056 -1.2041
  927MPD2     N13623   0.783   1.417  17.680 -0.1684 -0.4035 -0.4501
  927MPD2    H513624   0.703   1.479  17.671 -0.1747 -0.4228 -0.5315
  927MPD2    N113625   0.564   1.251   0.315  0.0933 -0.0675 -0.2732
  927MPD2    H713626   0.548   1.173   0.378 -2.5541  0.5026 -0.2353
  928MPD2     C13627   2.582   4.545   0.851 -0.1509  0.1896 -0.3297
  928MPD2    C113628   2.694   4.598   0.918 -0.1210  0.2431  0.3500
  928MPD2    C213629   2.810   4.619   0.842  0.3564 -0.6578  0.0980
  928MPD2    C313630   2.819   4.611   0.701  0.0077 -0.1135 -0.3426
  928MPD2    C413631   2.704   4.563   0.637  0.1958  0.0020 -0.3250
  928MPD2    C513632   2.592   4.525   0.714 -0.3596 -0.6636  0.3878
  928MPD2     H13633   2.892   4.673   0.888  1.4426 -0.5244 -2.0177
  928MPD2    H113634   2.697   4.545   0.531 -0.8139 -0.5039 -0.1677
  928MPD2    H213635   2.488   4.524   0.902 -0.5604  2.3927 -0.1892
  928MPD2    H313636   2.514   4.479   0.653  1.6736 -0.5407 -2.2985
  928MPD2     N13637   2.943   4.641   0.629  0.3828 -0.0817 -0.3472
  928MPD2    H513638   2.945   4.624   0.529 -0.7499 -1.0274 -0.2111
  928MPD2    N113639   2.684   4.646   1.046 -0.3745  0.3107  0.2997
  928MPD2    H713640   2.590   4.660   1.082 -1.8368 -1.2837 -2.8636
  929MPD2     C13641   2.294   0.945  10.079 -0.2288  0.0861 -0.5142
  929MPD2    C113642   2.229   0.830  10.036  0.4070  0.7350  0.4210
  929MPD2    C213643   2.103   0.842   9.972 -0.0052  0.1649  0.4668
  929MPD2    C313644   2.035   0.964   9.983 -0.6072 -0.1427  0.1738
  929MPD2    C413645   2.111   1.075  10.009 -0.4924  0.0805 -0.4777
  929MPD2    C513646   2.240   1.063  10.052  0.1609 -0.2287  0.2088
  929MPD2     H13647   2.044   0.750   9.972 -0.8099  0.6802  0.6240
  929MPD2    H113648   2.080   1.179   9.999 -0.7070  0.0452 -0.1750
  929MPD2    H213649   2.396   0.937  10.114  0.1397 -0.3362 -1.6831
  929MPD2    H313650   2.293   1.149  10.090 -1.1753  1.0999 -0.9702
  929MPD2     N13651   1.898   0.974   9.959  0.7776 -0.2753 -0.2341
  929MPD2    H513652   1.856   1.065   9.973 -1.8576 -1.2824 -1.5407
  929MPD2    N113653   2.297   0.708  10.066 -0.4783  0.5267 -0.0778
  929MPD2    H713654   2.381   0.715  10.123 -0.7584 -1.2599  0.5398
  930MPD2     C13655   4.579   2.498  14.376  0.0199  0.1993 -0.5063
  930MPD2    C113656   4.523   2.556  14.263  0.6732 -0.1640 -0.0029
  930MPD2    C213657   4.422   2.495  14.196 -0.0766 -0.1099 -0.1142
  930MPD2    C313658   4.362   2.375  14.240 -0.6795 -0.1442  0.3747
  930MPD2    C413659   4.422   2.313  14.353  0.2218 -0.2871 -1.0643
  930MPD2    C513660   4.529   2.376  14.414 -0.4035 -0.0894  0.6641
  930MPD2     H13661   4.393   2.538  14.101 -0.3279  2.9139  1.3281
  930MPD2    H113662   4.383   2.217  14.384  0.0888 -0.5075 -1.9016
  930MPD2    H213663   4.667   2.538  14.424 -2.0309  2.7969  1.0839
  930MPD2    H313664   4.579   2.331  14.499 -1.7039 -0.7956  1.0639
  930MPD2     N13665   4.264   2.310  14.162  0.0431  0.5413  0.3482
  930MPD2    H513666   4.252   2.210  14.173  0.3123  0.5330  0.5409
  930MPD2    N113667   4.590   2.664  14.211  0.4400 -0.2154  0.2626
  930MPD2    H713668   4.666   2.696  14.270  0.8735 -0.0141 -0.4090
  931MPD2     C13669   0.076   0.589   0.217 -0.3043 -0.7676 -0.2397
  931MPD2    C113670   0.136   0.695   0.288 -0.4180 -0.0578  0.4261
  931MPD2    C213671   0.147   0.682   0.427 -0.6196 -0.0968 -0.1314
  931MPD2    C313672   0.144   0.545   0.477 -0.2751 -0.8240 -0.2672
  931MPD2    C413673   0.087   0.444   0.409 -0.7042 -0.0594  0.1074
  931MPD2    C513674   0.061   0.464   0.273  0.8179  0.5277  1.0088
  931MPD2     H13675   0.192   0.761   0.486  1.6015 -0.2700 -1.5817
  931MPD2    H113676   0.071   0.343   0.446  2.5238 -0.6800 -0.1760
  931MPD2    H213677   0.054   0.616   0.115 -1.0439 -0.7831 -0.0879
  931MPD2    H313678   0.011   0.380   0.224 -0.5433  1.8678  0.1084
  931MPD2     N13679   0.167   0.524   0.613 -0.2086 -0.4178 -0.2828
  931MPD2    H513680   0.174   0.429   0.648 -3.2053 -0.3633  0.4746
  931MPD2    N113681   0.160   0.818   0.221  0.6530 -0.4614  0.0568
  931MPD2    H713682   0.121   0.840   0.129  2.7712  1.5962 -0.3407
  932MPD2     C13683   1.216   1.400  12.002  0.3047 -0.3190 -0.3481
  932MPD2    C113684   1.272   1.431  11.883  0.2216 -0.2204  0.1082
  932MPD2    C213685   1.326   1.324  11.816 -0.1158  0.4518  0.1858
  932MPD2    C313686   1.324   1.192  11.870  0.2388 -0.4707 -0.4263
  932MPD2    C413687   1.262   1.165  11.988 -0.1637 -0.1891 -0.5067
  932MPD2    C513688   1.216   1.275  12.056 -0.5268 -0.1995  0.1475
  932MPD2     H13689   1.379   1.345  11.724 -2.7345  3.1173 -0.7470
  932MPD2    H113690   1.251   1.062  12.019  0.9243 -0.4273 -0.8825
  932MPD2    H213691   1.165   1.479  12.056  0.8909  0.8445 -1.4949
  932MPD2    H313692   1.162   1.264  12.149  0.0462 -1.4213  0.3370
  932MPD2     N13693   1.400   1.089  11.811  0.0470 -0.4021 -0.4644
  932MPD2    H513694   1.413   1.004  11.865  0.2440 -1.1909 -1.7462
  932MPD2    N113695   1.258   1.554  11.817 -0.3421 -0.0273 -0.1147
  932MPD2    H713696   1.287   1.565  11.721 -2.2876 -0.6964 -0.7820
  933MPD2     C13697   2.534   0.686   1.345  0.7774  0.1382  0.0003
  933MPD2    C113698   2.576   0.610   1.236 -0.0342  0.1064  0.2571
  933MPD2    C213699   2.578   0.658   1.110  0.4517 -0.6039 -0.7726
  933MPD2    C313700   2.563   0.791   1.089  0.1868  0.5865  0.0475
  933MPD2    C413701   2.530   0.869   1.194 -0.1966 -0.6196  0.3817
  933MPD2    C513702   2.507   0.818   1.320  0.3888  0.7427 -0.8407
  933MPD2     H13703   2.620   0.594   1.033  1.0125 -1.5326  0.3021
  933MPD2    H113704   2.510   0.975   1.182  0.0383 -0.5675  0.4581
  933MPD2    H213705   2.540   0.653   1.448 -2.1640 -2.1723 -0.5729
  933MPD2    H313706   2.457   0.882   1.392 -0.4177  0.3735 -1.0703
  933MPD2     N13707   2.572   0.844   0.957 -0.2714  0.2020  0.4616
  933MPD2    H513708   2.592   0.766   0.895 -0.5633  0.6222 -0.1591
  933MPD2    N113709   2.618   0.478   1.263  0.1721  0.3245 -0.0238
  933MPD2    H713710   2.629   0.447   1.359  0.7985  1.1573  0.1668
  934MPD2     C13711   4.026   1.917   2.098 -0.5827  0.6985  0.5495
  934MPD2    C113712   4.107   1.822   2.041 -0.0101  0.5318 -0.4250
  934MPD2    C213713   4.067   1.770   1.922 -0.3040  0.6024 -0.3399
  934MPD2    C313714   3.957   1.823   1.860  0.5259  0.0938  0.0798
  934MPD2    C413715   3.873   1.912   1.924 -0.9592  0.6406  0.2893
  934MPD2    C513716   3.917   1.963   2.044 -0.1643  0.1426 -0.1374
  934MPD2     H13717   4.125   1.689   1.877  2.6607  1.7090  1.4981
  934MPD2    H113718   3.789   1.959   1.874  0.9080  1.9070 -1.6738
  934MPD2    H213719   4.060   1.960   2.191  2.2757 -1.6341  0.5800
  934MPD2    H313720   3.859   2.035   2.100  1.1018 -0.0407  1.3978
  934MPD2     N13721   3.925   1.778   1.730  0.0144  0.3609  0.9584
  934MPD2    H513722   3.836   1.813   1.697 -0.5592 -1.1644  0.8762
  934MPD2    N113723   4.224   1.773   2.100  0.0210 -0.4480  0.0260
  934MPD2    H713724   4.268   1.694   2.054  3.3497 -0.0464  2.5967
  935MPD2     C13725   4.271   1.138   1.033  0.5212  0.4288 -0.2032
  935MPD2    C113726   4.131   1.147   1.013 -1.2274  1.0790 -0.0303
  935MPD2    C213727   4.065   1.229   1.097 -0.4025  0.5912 -0.3271
  935MPD2    C313728   4.132   1.301   1.196  0.4563 -0.1724 -1.0629
  935MPD2    C413729   4.260   1.276   1.230  0.2173 -0.4318 -0.0047
  935MPD2    C513730   4.331   1.196   1.142  0.0283 -0.5450 -0.5576
  935MPD2     H13731   3.959   1.244   1.079 -0.5491  0.3033  0.2766
  935MPD2    H113732   4.308   1.313   1.320  1.2091  1.2112 -1.2029
  935MPD2    H213733   4.336   1.086   0.963  0.3914 -0.9407  0.7024
  935MPD2    H313734   4.437   1.179   1.158  0.0818  0.6134  0.3175
  935MPD2     N13735   4.074   1.413   1.264 -0.7963  0.2530 -0.0206
  935MPD2    H513736   4.132   1.461   1.332  0.1332 -0.4377 -0.3289
  935MPD2    N113737   4.056   1.086   0.910  0.4984 -0.8545  0.9368
  935MPD2    H713738   3.956   1.099   0.895  1.1556  3.0176 -0.1239
  936MPD2     C13739   2.051   4.050  12.839 -0.1195 -0.3625 -0.7032
  936MPD2    C113740   1.948   4.112  12.780 -0.3583 -0.0660 -0.2576
  936MPD2    C213741   1.978   4.189  12.671  0.0391 -0.7247  0.9266
  936MPD2    C313742   2.103   4.190  12.610  0.3935  0.3140  0.0627
  936MPD2    C413743   2.205   4.125  12.670  0.0811  0.8082 -0.6548
  936MPD2    C513744   2.178   4.057  12.788 -0.1106 -0.2486  0.3380
  936MPD2     H13745   1.902   4.260  12.639  3.5745  1.5430 -2.6148
  936MPD2    H113746   2.309   4.126  12.641  0.1642 -0.9912 -0.4307
  936MPD2    H213747   2.032   3.980  12.921 -1.0406  0.1132 -0.5042
  936MPD2    H313748   2.249   3.992  12.838 -1.0169  0.0451  2.0058
  936MPD2     N13749   2.132   4.267  12.498 -0.0523  0.5967 -1.0680
  936MPD2    H513750   2.231   4.284  12.481 -0.0781 -0.6638 -2.4510
  936MPD2    N113751   1.818   4.114  12.830 -0.4205  1.0748  0.5726
  936MPD2    H713752   1.751   4.155  12.765 -1.7371  1.0295  1.9015
  937MPD2     C13753   4.117   0.814  12.116 -0.1605 -0.6482 -0.4727
  937MPD2    C113754   4.120   0.955  12.130 -0.2529  0.1420  0.2109
  937MPD2    C213755   4.211   1.023  12.045 -0.0121  0.5189  0.2213
  937MPD2    C313756   4.282   0.967  11.940 -0.2192 -0.3707  0.5685
  937MPD2    C413757   4.266   0.832  11.925  0.4215  0.3186  0.2454
  937MPD2    C513758   4.188   0.761  12.007 -1.2422 -0.2326 -0.2744
  937MPD2     H13759   4.232   1.128  12.062 -0.7146  0.5275  1.0016
  937MPD2    H113760   4.326   0.784  11.848 -3.6282 -1.1328 -2.0094
  937MPD2    H213761   4.052   0.753  12.178 -2.1867  0.7407 -1.2501
  937MPD2    H313762   4.181   0.655  11.984  0.7225 -0.1235 -1.3899
  937MPD2     N13763   4.373   1.046  11.868  0.4205 -0.1997  0.1723
  937MPD2    H513764   4.360   1.146  11.875  2.7268  0.1138  0.1730
  937MPD2    N113765   4.078   1.025  12.246 -0.4407  0.0487 -0.5530
  937MPD2    H713766   4.107   1.123  12.244 -0.3155  0.0612  3.4480
  938MPD2     C13767   3.008   1.859   1.506  1.6691 -0.5235  0.8096
  938MPD2    C113768   2.875   1.836   1.475  0.2217  0.3016  0.9538
  938MPD2    C213769   2.817   1.721   1.523 -0.2504  0.3852  0.2786
  938MPD2    C313770   2.894   1.631   1.596  0.2938  0.2570 -0.8790
  938MPD2    C413771   3.029   1.647   1.608  0.6873  0.3429  0.6147
  938MPD2    C513772   3.084   1.763   1.560 -0.2609 -0.1867 -0.8401
  938MPD2     H13773   2.714   1.702   1.492  0.0277  0.9445 -0.9838
  938MPD2    H113774   3.097   1.575   1.653  3.8105  1.9963 -1.4052
  938MPD2    H213775   3.055   1.950   1.473  0.1669 -0.5205 -1.3674
  938MPD2    H313776   3.190   1.785   1.565 -0.2532 -0.0885 -1.5402
  938MPD2     N13777   2.846   1.503   1.643  0.2970 -0.4518  0.4240
  938MPD2    H513778   2.903   1.442   1.701  1.2471  0.2797  0.2356
  938MPD2    N113779   2.799   1.932   1.406 -0.0613 -0.2441 -1.1048
  938MPD2    H713780   2.699   1.914   1.418 -0.1537  1.3158  0.4817
  939MPD2     C13781   3.843   2.694   0.862  0.1206 -0.4564 -0.1622
  939MPD2    C113782   3.961   2.743   0.821 -0.1991  0.1944 -0.9812
  939MPD2    C213783   4.074   2.657   0.829 -0.8205  0.0752  0.0723
  939MPD2    C313784   4.058   2.527   0.884  0.1944  0.6560  0.4913
  939MPD2    C413785   3.939   2.483   0.951  0.3369  0.3295  0.0817
  939MPD2    C513786   3.841   2.575   0.933  0.4939  0.5480  0.2869
  939MPD2     H13787   4.167   2.683   0.779  0.3938 -0.6842  1.9238
  939MPD2    H113788   3.931   2.385   0.996 -3.2293  1.0068  0.9250
  939MPD2    H213789   3.745   2.742   0.856  0.1660 -0.4979 -1.4148
  939MPD2    H313790   3.740   2.543   0.959 -0.1911  1.3715 -1.3289
  939MPD2     N13791   4.185   2.464   0.900 -0.3108 -0.4297  0.0638
  939MPD2    H513792   4.264   2.523   0.878 -0.1909 -0.8072 -0.5133
  939MPD2    N113793   3.958   2.863   0.757 -0.0931 -0.5184 -0.4738
  939MPD2    H713794   3.864   2.895   0.739 -0.5887 -1.4941  0.4434
  940MPD2     C13795   2.666   3.990  13.046 -0.2218 -0.1826  0.9825
  940MPD2    C113796   2.540   3.933  13.068  0.8869  0.2657 -0.2726
  940MPD2    C213797   2.485   3.857  12.963 -0.3013 -0.0539 -0.0254
  940MPD2    C313798   2.543   3.856  12.834  0.3558  0.0669 -0.4206
  940MPD2    C413799   2.669   3.914  12.818 -0.1950 -0.2953 -0.0095
  940MPD2    C513800   2.728   3.979  12.924 -0.2232  0.4256  0.4260
  940MPD2     H13801   2.386   3.813  12.973  0.5400 -1.9192  0.0787
  940MPD2    H113802   2.710   3.919  12.718  0.9824  0.9113  0.5262
  940MPD2    H213803   2.712   4.061  13.114  0.6048  2.5476 -2.4094
  940MPD2    H313804   2.819   4.034  12.902  0.1714 -0.5294 -0.3117
  940MPD2     N13805   2.472   3.806  12.720  0.5109  0.1034  0.3244
  940MPD2    H513806   2.519   3.801  12.630  1.7032  2.1570  0.8514
  940MPD2    N113807   2.467   3.938  13.190 -0.4213 -0.4507  0.3757
  940MPD2    H713808   2.380   3.886  13.192 -1.9909  2.1320 -0.8126
  941MPD2     C13809   1.298   4.045  10.130  0.1000  0.2719  0.2123
  941MPD2    C113810   1.388   3.949  10.180  0.3131 -0.1605 -0.5976
  941MPD2    C213811   1.345   3.844  10.262  0.0921  0.2880 -0.0984
  941MPD2    C313812   1.222   3.861  10.322 -0.1992 -0.3617 -0.6768
  941MPD2    C413813   1.141   3.962  10.286  0.1434  0.1338  0.1214
  941MPD2    C513814   1.173   4.050  10.184  0.0874 -1.0570  0.0388
  941MPD2     H13815   1.407   3.761  10.294 -1.1885 -1.1553 -1.3548
  941MPD2    H113816   1.053   3.984  10.346  0.3431 -0.4456  0.6279
  941MPD2    H213817   1.335   4.120  10.061 -0.4815  2.2785  2.0960
  941MPD2    H313818   1.104   4.130  10.160  0.9458 -0.5397 -0.6759
  941MPD2     N13819   1.176   3.774  10.424 -0.3068  0.4506  0.0675
  941MPD2    H513820   1.081   3.786  10.458 -0.1562  2.4970 -0.2349
  941MPD2    N113821   1.519   3.936  10.132 -0.5694  1.0528 -0.1428
  941MPD2    H713822   1.571   3.857  10.169  0.8170  2.7601  1.5075
  942MPD2     C13823   1.816   0.990   9.534 -0.0862  0.0774  0.3203
  942MPD2    C113824   1.908   0.897   9.491 -0.1086 -0.1993 -0.1122
  942MPD2    C213825   2.039   0.899   9.535  0.4946  0.1068 -0.7456
  942MPD2    C313826   2.077   0.986   9.632  0.3349  0.8240 -0.4981
  942MPD2    C413827   1.992   1.083   9.656 -0.1353 -0.2584 -0.7548
  942MPD2    C513828   1.860   1.086   9.617 -0.3846 -0.4663 -0.3461
  942MPD2     H13829   2.107   0.821   9.503 -1.1310 -1.6487  0.0800
  942MPD2    H113830   2.026   1.162   9.721 -0.8665 -1.2354  0.8025
  942MPD2    H213831   1.712   0.997   9.501 -0.2560 -1.9179  0.4699
  942MPD2    H313832   1.798   1.169   9.649  2.1902  1.0202  0.7297
  942MPD2     N13833   2.207   0.981   9.696  0.2975  0.3999  0.4466
  942MPD2    H513834   2.233   1.064   9.748 -0.1963  0.7325  0.1615
  942MPD2    N113835   1.879   0.795   9.395  0.1526 -0.0071  0.2380
  942MPD2    H713836   1.942   0.717   9.379 -1.3291 -1.5422  1.9081
  943MPD2     C13837   0.620   3.270  10.256  0.0314 -0.1557  0.0624
  943MPD2    C113838   0.489   3.283  10.312  0.2978 -0.8002  0.4692
  943MPD2    C213839   0.453   3.386  10.396 -0.1788  0.0394  0.5398
  943MPD2    C313840   0.554   3.479  10.420 -0.2838 -0.0792  0.8533
  943MPD2    C413841   0.684   3.470  10.362 -0.2034  0.3750  0.2437
  943MPD2    C513842   0.711   3.373  10.273  0.5138  0.4044  0.2969
  943MPD2     H13843   0.356   3.386  10.446 -0.6064  0.7867 -0.2770
  943MPD2    H113844   0.763   3.542  10.376 -1.1032  1.9869 -3.0682
  943MPD2    H213845   0.645   3.187  10.191  0.9405 -0.3455  0.6613
  943MPD2    H313846   0.811   3.372  10.231 -0.0395 -3.6824 -0.8983
  943MPD2     N13847   0.526   3.595  10.500 -0.4312  0.4060  0.2540
  943MPD2    H513848   0.604   3.653  10.527 -1.8058  1.7971  1.2634
  943MPD2    N113849   0.399   3.173  10.290 -0.0530  0.5355 -0.5522
  943MPD2    H713850   0.438   3.096  10.237 -0.7250 -0.4367  0.3664
  944MPD2     C13851   4.420   2.574  11.194 -0.7804  0.3167  0.1650
  944MPD2    C113852   4.550   2.617  11.203 -0.5099 -0.2442  0.0260
  944MPD2    C213853   4.588   2.678  11.316 -0.1738  0.2187 -0.1570
  944MPD2    C313854   4.495   2.702  11.421 -0.2001  0.2738  0.2517
  944MPD2    C413855   4.368   2.662  11.399 -0.2641 -0.0742 -0.2998
  944MPD2    C513856   4.327   2.596  11.289 -0.0307 -0.5051  0.3096
  944MPD2     H13857   4.690   2.712  11.332 -1.3194  1.7455  3.8535
  944MPD2    H113858   4.289   2.688  11.468 -0.3694 -0.1167 -0.4040
  944MPD2    H213859   4.384   2.528  11.103 -3.8324  1.0897  0.9766
  944MPD2    H313860   4.224   2.567  11.276 -0.3800  0.1670  1.6062
  944MPD2     N13861   4.539   2.755  11.548 -0.0482 -0.0622  0.1477
  944MPD2    H513862   4.637   2.778  11.560 -0.3348  0.9680  0.5424
  944MPD2    N113863   4.638   2.577  11.098 -0.5096  0.4473 -0.3746
  944MPD2    H713864   4.591   2.524  11.025 -0.9168 -1.3503  1.1921
    1TMC1    C113865   3.590   3.025  14.274 -0.1890 -0.1943  0.7869
    1TMC1    C213866   3.553   3.159  14.250  0.1691 -0.4590 -0.0402
    1TMC1    C313867   3.617   3.247  14.335  0.1412 -0.0362 -0.4139
    1TMC1    C413868   3.697   2.988  14.351 -0.3784  0.7053  0.2362
    1TMC1    C513869   3.765   3.084  14.420  0.1836 -0.0172  0.4489
    1TMC1    C613870   3.725   3.214  14.420  0.6667  0.2441  0.1265
    1TMC1     C13871   3.520   2.910  14.213  0.2908  0.2566 -0.3992
    1TMC1     O13872   3.565   2.799  14.228 -0.4213 -0.0340  0.4163
    1TMC1     H13873   3.479   3.201  14.183  0.4422  0.5753  0.2948
    1TMC1    H113874   3.724   2.884  14.365  2.6436  1.8445  2.7062
    1TMC1    H213875   3.769   3.287  14.487  1.1357  0.6198 -0.5837
    1TMC1    C713876   3.827   3.046  14.547  0.2327 -0.3029 -0.0138
    1TMC1    C813877   3.604   3.383  14.296 -0.0223  0.3400  0.1912
    1TMC1    O113878   3.829   3.117  14.647  0.4529  0.2056  0.1993
    1TMC1    O213879   3.650   3.425  14.194  0.6397  0.1770 -0.1319
    1TMC1    O313880   3.910   2.953  14.510  0.2860  0.2590  0.5977
    1TMC1    H313881   3.895   2.927  14.417 -0.3074 -0.7993  0.9900
    1TMC1    O513882   3.606   3.448  14.406  0.2240 -0.1054 -0.1439
    1TMC1    H513883   3.557   3.402  14.478 -1.6800  0.8769 -0.7979
    2MPD2     C13884   3.115   2.729  13.947 -0.2367  0.6271 -0.0133
    2MPD2    C113885   3.088   2.857  13.990  0.0100  0.7148 -0.3580
    2MPD2    C213886   3.186   2.923  14.063  0.8291  0.2138  0.5871
    2MPD2    C313887   3.312   2.875  14.089  0.0985  0.3770  0.2681
    2MPD2    C413888   3.337   2.754  14.041  0.9026 -0.5410 -0.8046
    2MPD2    C513889   3.242   2.683  13.963  0.0932  1.1106 -0.5911
    2MPD2     H13890   3.154   3.020  14.097 -0.8489 -0.4145  0.7773
    2MPD2    H113891   3.435   2.710  14.053  0.5323 -1.2879 -0.5697
    2MPD2    H213892   3.055   2.661  13.888 -0.3098 -0.9248  1.8620
    2MPD2    H313893   3.276   2.583  13.940 -0.2772  1.0636 -0.9181
    2MPD2     N13894   3.397   2.950  14.167 -0.4309 -0.0987  0.0041
    2MPD2    H513895   3.364   3.042  14.195 -4.3917 -1.3116 -0.6397
    2MPD2    N113896   2.957   2.903  13.963 -0.4953  0.2429 -0.4505
    2MPD2    H713897   2.901   2.841  13.905  0.7820 -0.3231 -1.0863
    3TMC2    C113898   2.784   3.052  13.920  0.3239 -0.3962 -0.1900
    3TMC2    C213899   2.694   2.960  13.963 -0.5123 -0.2746 -0.2059
    3TMC2    C313900   2.570   2.954  13.906 -0.2399  0.3888 -0.5626
    3TMC2    C413901   2.749   3.158  13.839  0.6895  0.0542 -0.4838
    3TMC2    C513902   2.622   3.167  13.799  0.6078  0.2752 -0.0344
    3TMC2    C613903   2.534   3.062  13.825 -0.1065 -0.0972 -0.3576
    3TMC2     C13904   2.921   3.033  13.966 -0.0103  0.0669 -0.1694
    3TMC2     O13905   2.983   3.138  13.971  0.5335 -0.8724  0.0495
    3TMC2     H13906   2.723   2.888  14.039 -1.4294 -0.9862 -0.5203
    3TMC2    H113907   2.824   3.232  13.813  0.9371 -0.1617 -0.3907
    3TMC2    H213908   2.435   3.063  13.779 -0.4946  1.8495  0.4972
    3TMC2    C713909   2.587   3.258  13.686  0.4735 -0.0638 -0.3597
    3TMC2    C813910   2.474   2.877  13.975  0.5626  0.5146  0.3266
    3TMC2    O113911   2.490   3.232  13.615 -0.5033  0.0654  0.0675
    3TMC2    O213912   2.497   2.775  14.035  0.1044  0.1089 -0.1715
    3TMC2    O513913   2.383   2.967  14.021  0.1664 -0.1878 -0.1127
    3TMC2    H513914   2.396   3.052  13.972  0.7106  0.4741  1.1621
    4TMC2    C113915   2.938   4.189  13.670 -0.6673 -0.7005 -0.2577
    4TMC2    C213916   3.050   4.217  13.756  0.6389 -0.2940  1.0240
    4TMC2    C313917   3.108   4.102  13.812  0.0637  0.3565 -0.8981
    4TMC2    C413918   2.876   4.068  13.664  0.1099 -0.3068  0.6159
    4TMC2    C513919   2.932   3.963  13.731  0.0998  0.4032  0.4176
    4TMC2    C613920   3.043   3.977  13.811 -0.3214  0.4187 -0.1343
    4TMC2     C13921   2.855   4.305  13.649 -0.4673 -0.2765 -0.9209
    4TMC2     O13922   2.869   4.402  13.726  0.3502  0.5009 -0.1772
    4TMC2     H13923   3.090   4.316  13.778  2.3749 -0.7653 -0.0067
    4TMC2    H113924   2.785   4.058  13.606  0.9810 -0.1497 -0.7789
    4TMC2    H213925   3.082   3.883  13.848 -0.3158  1.2306  1.9777
    4TMC2    C713926   2.873   3.833  13.730 -0.4983 -0.7938  0.0121
    4TMC2    C813927   3.180   4.136  13.934  0.3378 -0.8367 -0.2608
    4TMC2    O113928   2.895   3.756  13.823 -0.2604  0.1958  0.1461
    4TMC2    O213929   3.254   4.233  13.942  0.0170  0.7493  0.3853
    4TMC2    O513930   3.138   4.066  14.040  0.0757  0.0567  0.4350
    4TMC2    H513931   3.070   4.001  14.013 -1.1015  0.3067  2.7229
    5MPD2     C13932   2.423   4.532  13.458 -0.0305 -0.8667  0.3902
    5MPD2    C113933   2.483   4.454  13.360  0.3604  0.7959 -0.3755
    5MPD2    C213934   2.608   4.386  13.380  0.4584 -0.3773  0.1782
    5MPD2    C313935   2.663   4.385  13.512  0.1937 -0.4559  1.4217
    5MPD2    C413936   2.609   4.468  13.611 -0.1352  0.2642 -1.4958
    5MPD2    C513937   2.505   4.557  13.570 -0.7617 -0.5434 -0.5000
    5MPD2     H13938   2.654   4.326  13.303 -0.7454  1.5838 -2.0743
    5MPD2    H113939   2.656   4.488  13.707  0.2087 -0.9950 -1.4071
    5MPD2    H213940   2.330   4.584  13.440  0.6816 -0.2001 -1.3942
    5MPD2    H313941   2.476   4.632  13.642  0.3734 -1.7290  1.2028
    5MPD2     N13942   2.775   4.301  13.536  0.5373 -0.7971 -0.4914
    5MPD2    H513943   2.788   4.228  13.466  2.0444  0.1965 -1.2428
    5MPD2    N113944   2.418   4.444  13.237 -0.0994 -0.6264  0.5012
    5MPD2    H713945   2.333   4.499  13.232 -0.1491 -0.8164 -0.7248
    6MPD1     C13946   1.045   0.721  13.262 -0.0042  0.3100 -0.5809
    6MPD1    C113947   1.124   0.782  13.169  0.3323  0.6831  0.3430
    6MPD1    C213948   1.214   0.702  13.101 -0.8171  0.4221 -0.5311
    6MPD1    C313949   1.218   0.565  13.127  0.6943 -0.2401 -0.6250
    6MPD1    C413950   1.140   0.512  13.225  0.3873  0.0590 -0.3367
    6MPD1    C513951   1.050   0.589  13.297  0.2812 -0.2265 -0.0100
    6MPD1     H13952   1.287   0.749  13.036 -0.6474  2.0320  0.8312
    6MPD1    H113953   1.136   0.407  13.250  1.2810 -0.2145 -1.3398
    6MPD1    H213954   0.970   0.787  13.304  0.7817 -0.9051  2.6573
    6MPD1    H313955   0.990   0.536  13.369 -1.2397  2.8451  1.0057
    6MPD1     N13956   1.313   0.483  13.068 -0.0207  0.5114 -0.4075
    6MPD1    H513957   1.309   0.385  13.093  2.2587  0.7329  0.7901
    6MPD1    N113958   1.128   0.923  13.150 -0.1556 -0.2278 -0.4534
    6MPD1    H613959   1.051   0.967  13.200 -0.9587 -1.3685 -0.6856
    6MPD1    H713960   1.201   0.962  13.209  1.5152 -1.1759 -1.8898
    7MPD2     C13961   1.622   4.532  13.172  0.1785 -0.7048 -0.3052
    7MPD2    C113962   1.681   4.592  13.063  0.1785 -0.7396 -0.5206
    7MPD2    C213963   1.803   4.536  13.015 -0.0980 -0.6180 -0.2497
    7MPD2    C313964   1.862   4.426  13.075  0.1273 -0.3363 -0.4728
    7MPD2    C413965   1.801   4.380  13.190  0.2402 -0.2481 -0.7177
    7MPD2    C513966   1.683   4.429  13.240 -0.2744  0.5945 -0.0596
    7MPD2     H13967   1.839   4.578  12.923 -1.0884  2.2945  0.7074
    7MPD2    H113968   1.844   4.298  13.246  0.0729  0.3233  0.2621
    7MPD2    H213969   1.529   4.573  13.210  0.5354  0.9946 -1.2873
    7MPD2    H313970   1.648   4.387  13.333 -2.7215  0.3415 -1.1094
    7MPD2     N13971   1.983   4.373  13.025 -0.1388 -0.5046 -0.4334
    7MPD2    H513972   2.029   4.293  13.068 -1.6765 -1.6783 -0.9645
    7MPD2    N113973   1.627   4.699  12.990 -0.5288 -0.8669  0.2752
    7MPD2    H713974   1.676   4.713  12.903 -0.1226 -0.7397  0.5245
    8TMC3    C113975   2.178   4.371  12.894  0.2640 -0.0554 -0.3223
    8TMC3    C213976   2.247   4.376  13.016 -0.1326  0.7192 -0.6502
    8TMC3    C313977   2.376   4.419  13.004 -0.7855 -0.1067 -0.7962
    8TMC3    C413978   2.227   4.435  12.784  0.8062  0.1650 -0.2887
    8TMC3    C513979   2.358   4.473  12.781 -0.1549 -0.3662  0.8287
    8TMC3    C613980   2.436   4.461  12.890  0.5808  0.2104  0.0619
    8TMC3     C13981   2.046   4.419  12.913  1.1468 -0.3720 -0.1435
    8TMC3     O13982   2.006   4.494  12.823  0.2174  0.0406 -0.3245
    8TMC3     H13983   2.194   4.352  13.107  1.0675  1.0303  0.1211
    8TMC3    H113984   2.169   4.438  12.693 -0.9443  1.7877  0.8821
    8TMC3    H213985   2.541   4.487  12.898  0.5625  1.2172 -3.1804
    8TMC3    C713986   2.358   4.617  12.750  0.0196 -0.9725  0.0062
    8TMC3    C813987   2.470   4.398  13.121  1.3209  0.4333 -0.0614
    8TMC3    O113988   2.474   4.662  12.750  1.0505  0.0862  0.1619
    8TMC3    O213989   2.582   4.351  13.103 -0.3344  0.4135  0.1734
    9TMC3    C113990   1.481   0.398  12.935  0.5083 -0.2752 -0.4166
    9TMC3    C213991   1.596   0.429  12.870  0.5328  0.0592  0.0891
    9TMC3    C313992   1.689   0.333  12.850  0.0927 -0.3450 -0.3998
    9TMC3    C413993   1.466   0.279  13.005 -0.7962  0.5552  0.4827
    9TMC3    C513994   1.559   0.183  12.982 -0.3755 -1.3207  1.2146
    9TMC3    C613995   1.673   0.210  12.918 -1.1706 -0.4572  0.3924
    9TMC3     C13996   1.402   0.509  12.968 -0.2547 -0.1760 -0.1845
    9TMC3     O13997   1.412   0.612  12.904  0.0758  0.2073 -0.3317
    9TMC3     H13998   1.599   0.526  12.822 -0.0875 -0.8666 -1.8345
    9TMC3    H113999   1.374   0.241  13.047 -1.3749 -0.1050 -1.4167
    9TMC3    H214000   1.755   0.139  12.925 -0.2827  0.3525 -1.8398
    9TMC3    C714001   1.552   0.057  13.048 -0.1165  0.6372 -0.1514
    9TMC3    C814002   1.816   0.361  12.798  0.5338  0.6023  0.0296
    9TMC3    O114003   1.498   0.064  13.155  0.0007 -0.2185 -0.0915
    9TMC3    O214004   1.861   0.476  12.795 -0.2286 -0.1062  0.0848
   10MPD2     C14005   2.291   0.165  12.740  0.6929  0.5038 -0.2317
   10MPD2    C114006   2.199   0.063  12.746  0.2956 -0.0735  0.1270
   10MPD2    C214007   2.070   0.091  12.760 -0.9701  0.0267 -0.0266
   10MPD2    C314008   2.018   0.211  12.760 -0.1904 -0.3899  0.0019
   10MPD2    C414009   2.110   0.312  12.746  0.6377 -0.2247  0.0739
   10MPD2    C514010   2.245   0.294  12.739  0.5532  0.1360  0.1338
   10MPD2     H14011   2.006   0.007  12.782 -1.0893  0.0032 -0.4541
   10MPD2    H114012   2.072   0.413  12.737  1.0379 -0.1183 -0.4174
   10MPD2    H214013   2.397   0.154  12.720  0.8032  0.7276  0.2051
   10MPD2    H314014   2.306   0.381  12.717 -0.8536  1.5316  1.8750
   10MPD2     N14015   1.877   0.242  12.768  0.0982  0.4546 -0.7609
   10MPD2    H514016   1.822   0.157  12.767  0.2359  0.3662 -0.8559
   10MPD2    N114017   2.237   4.673  12.763  1.0976 -0.0670  0.3127
   10MPD2    H714018   2.158   4.612  12.782 -0.4088  0.9576 -2.6296
   11MPD2     C14019   2.552   3.505  13.512 -0.2744 -0.2781  0.2013
   11MPD2    C114020   2.641   3.486  13.620 -0.5153 -0.1544 -0.1963
   11MPD2    C214021   2.714   3.596  13.658 -0.1817  0.0747  0.2051
   11MPD2    C314022   2.713   3.714  13.586 -0.4325 -0.2198  0.3100
   11MPD2    C414023   2.634   3.722  13.479  0.2653 -0.0311  0.1507
   11MPD2    C514024   2.554   3.617  13.442 -0.3329 -0.0282  0.1764
   11MPD2     H14025   2.779   3.587  13.744 -1.0709 -1.2900  0.7199
   11MPD2    H114026   2.642   3.813  13.421 -1.6872  0.7493  1.1169
   11MPD2    H214027   2.487   3.422  13.486  0.3097 -0.2840 -1.2332
   11MPD2    H314028   2.493   3.617  13.352  0.9756 -0.2018 -0.7049
   11MPD2     N14029   2.785   3.827  13.625 -0.0962  0.3303  0.6574
   11MPD2    H514030   2.778   3.906  13.562  0.8841  0.9767  1.3659
   11MPD2    N114031   2.664   3.372  13.694 -0.3096 -0.0997 -0.4771
   11MPD2    H714032   2.733   3.381  13.768 -0.0597  1.4220 -0.8871
    1MPD1     C14033   0.911   1.022  17.384 -0.0985 -0.7432  0.4421
    1MPD1    C114034   0.990   1.095  17.292  0.3885  0.2364 -0.5831
    1MPD1    C214035   1.012   1.037  17.169 -0.5011 -0.1501  0.2246
    1MPD1    C314036   0.944   0.921  17.132 -0.0329  0.8411 -0.1705
    1MPD1    C414037   0.870   0.851  17.226  0.0811  0.3042 -0.5308
    1MPD1    C514038   0.845   0.911  17.349  0.1165  1.0869 -0.0442
    1MPD1     H14039   1.079   1.094  17.106  0.9657  0.4657  2.3354
    1MPD1    H114040   0.818   0.758  17.205  2.0324 -0.5543 -1.5390
    1MPD1    H214041   0.903   1.049  17.488 -1.0576 -1.5080  0.5711
    1MPD1    H314042   0.776   0.876  17.426  3.3743 -0.2626  2.3053
    1MPD1     N14043   0.971   0.848  17.013  0.5362  0.3366 -0.0308
    1MPD1    H514044   0.921   0.760  17.005 -1.4086  1.3883  0.4108
    1MPD1    N114045   1.075   1.200  17.331 -0.2377  0.8430 -0.2109
    1MPD1    H614046   1.101   1.261  17.254  0.7655 -1.2020 -1.4720
    1MPD1    H714047   1.034   1.262  17.401  0.3178 -0.4859  1.2929
    2MPD1     C14048   1.788   0.933  16.527 -0.1141  0.0811  0.1469
    2MPD1    C114049   1.719   1.035  16.588 -0.3836  0.3461 -0.5224
    2MPD1    C214050   1.581   1.024  16.585 -0.1317  0.1035  0.9307
    2MPD1    C314051   1.517   0.913  16.539  0.1646  0.1903 -0.2129
    2MPD1    C414052   1.588   0.809  16.485 -0.3837 -0.1419 -0.1191
    2MPD1    C514053   1.728   0.823  16.471 -0.1306 -0.0290 -0.4470
    2MPD1     H14054   1.518   1.107  16.615  0.1897  0.6638  0.0579
    2MPD1    H114055   1.545   0.724  16.435  1.4339 -0.2212 -1.5404
    2MPD1    H214056   1.896   0.927  16.528 -0.2064 -1.1501  2.5420
    2MPD1    H314057   1.786   0.749  16.418 -0.0971  0.1344 -0.6381
    2MPD1     N14058   1.376   0.913  16.553  0.0176  0.3902  0.7130
    2MPD1    H514059   1.339   0.986  16.614  2.3956  1.1541  1.2143
    2MPD1    N114060   1.793   1.148  16.634  0.1650  0.2885 -0.5120
    2MPD1    H614061   1.742   1.188  16.713  0.7729 -1.5680  0.8083
    2MPD1    H714062   1.886   1.123  16.665  0.1732  1.8951  0.7491
    3TMC3    C114063   1.181   0.800  16.600 -0.0491  0.4171  0.2872
    3TMC3    C214064   1.064   0.759  16.535 -0.5272  0.6723  0.8473
    3TMC3    C314065   0.963   0.726  16.620  0.5191 -0.4403  0.3499
    3TMC3    C414066   1.195   0.826  16.730 -0.7106 -1.0009  0.3627
    3TMC3    C514067   1.084   0.798  16.808  0.4426  0.7580  0.5630
    3TMC3    C614068   0.968   0.746  16.759 -0.4423  0.9057 -0.0545
    3TMC3     C14069   1.295   0.806  16.518 -0.6723  0.3514  0.4738
    3TMC3     O14070   1.294   0.718  16.433 -0.1609  0.6941  0.2597
    3TMC3     H14071   1.069   0.733  16.430 -1.9583  0.1576  0.8998
    3TMC3    H114072   1.289   0.855  16.775 -0.5135 -0.3114 -0.4813
    3TMC3    H214073   0.879   0.732  16.819 -0.7743  2.4686 -0.1870
    3TMC3    C714074   1.081   0.875  16.935 -0.4175 -0.0422 -0.0805
    3TMC3    C814075   0.863   0.628  16.579  0.5661  0.4320 -0.3339
    3TMC3    O114076   1.166   0.964  16.929 -0.0908  0.3547 -0.0971
    3TMC3    O214077   0.823   0.551  16.666  0.0541 -0.0816  0.1169
    4MPD1     C14078   0.531   0.401  16.249  0.1362 -0.0712 -0.3577
    4MPD1    C114079   0.615   0.489  16.179 -0.4046  0.2753 -0.3736
    4MPD1    C214080   0.716   0.555  16.245 -0.5347  0.0704 -0.7491
    4MPD1    C314081   0.732   0.555  16.385  0.0502 -0.6247 -0.0087
    4MPD1    C414082   0.642   0.474  16.450 -0.4480 -0.3181 -0.1359
    4MPD1    C514083   0.546   0.400  16.380 -0.0385  0.5731 -0.2383
    4MPD1     H14084   0.783   0.614  16.183  0.5036  0.6650  0.9050
    4MPD1    H114085   0.629   0.482  16.557  2.0642 -0.3067  0.1893
    4MPD1    H214086   0.453   0.349  16.194 -0.3348 -0.1421  0.3763
    4MPD1    H314087   0.486   0.336  16.444  1.0447 -0.6004 -0.3878
    4MPD1     N14088   0.833   0.637  16.444  0.1059  0.1247 -0.0194
    4MPD1    H514089   0.872   0.705  16.379  0.7851 -0.6138 -0.3711
    4MPD1    N114090   0.594   0.496  16.041 -0.0275 -0.2634  0.2268
    4MPD1    H614091   0.493   0.488  16.028 -0.2535 -4.0142  4.1097
    4MPD1    H714092   0.615   0.584  15.996  0.6964 -0.7301 -0.3467
    1TCq1    O114093   1.657   1.948  10.276 -0.7197  0.3549  0.4043
    1TCq1    C114094   1.653   1.827  10.215  0.1328  0.3605 -0.2619
    1TCq1    O214095   1.741   1.791  10.140 -0.7208 -0.3404 -0.0215
    1TCq1    C214096   1.632   1.725  10.312  0.1148  0.0474  0.3417
    1TCq1    C314097   1.691   1.606  10.295 -0.5844 -0.5751  0.2741
    1TCq1    C414098   1.687   1.518  10.399  0.4428 -0.0357 -0.3197
    1TCq1    C514099   1.633   1.549  10.518  0.1824 -0.0355  1.0331
    1TCq1    C614100   1.556   1.659  10.521  0.2279 -0.2703 -0.0588
    1TCq1    C714101   1.553   1.754  10.424  0.7254 -0.4882  0.6663
    1TCq1    C814102   1.513   1.695  10.658 -0.5005  0.1591  0.0170
    1TCq1    O414103   1.495   1.817  10.672 -0.3213  0.6502 -0.0358
    1TCq1    C914104   1.782   1.413  10.395  0.0616  0.1609  0.2141
    1TCq1    O514105   1.788   1.335  10.497 -0.0460  0.2682 -0.3763
    1TCq1    O614106   1.874   1.426  10.306 -0.1238 -0.4499 -0.1404
    1TCq1    H114107   1.564   1.972  10.299 -1.0336 -0.6008  0.1456
    1TCq1    H214108   1.727   1.583  10.196 -2.9155 -1.5839 -0.3270
    1TCq1    H314109   1.648   1.483  10.603  0.2917 -2.0154 -0.5099
    1TCq1    H414110   1.492   1.842  10.437 -0.2139 -1.2278  1.2220
    2MPD1     C14111   1.349   1.618  11.123  0.2449 -0.4050  0.0936
    2MPD1    C114112   1.359   1.492  11.065  0.5087  0.4182  0.1560
    2MPD1    C214113   1.395   1.490  10.930  0.2584  0.0303  0.1926
    2MPD1    C314114   1.432   1.604  10.866 -0.0876 -0.7516  0.1976
    2MPD1    C414115   1.418   1.727  10.927 -0.6245 -0.1938 -0.2779
    2MPD1    C514116   1.370   1.737  11.058  0.3174  0.1196 -0.1904
    2MPD1     H14117   1.400   1.396  10.875 -0.1685 -0.3910  0.8638
    2MPD1    H114118   1.465   1.816  10.888 -1.8816  0.6545  0.1513
    2MPD1    H214119   1.311   1.626  11.224  1.8797 -0.0835  0.6869
    2MPD1    H314120   1.376   1.837  11.101  0.6851  0.3917 -0.8716
    2MPD1     N14121   1.474   1.592  10.737  0.1622 -0.5445  0.1563
    2MPD1    H514122   1.468   1.503  10.688  0.8523  0.5310 -1.8844
    2MPD1    N114123   1.331   1.373  11.137 -0.5642  0.3760  0.4238
    2MPD1    H614124   1.358   1.287  11.091 -2.7746  0.6458 -1.3881
    2MPD1    H714125   1.375   1.374  11.228 -0.7968  1.6371  0.5215
    1TMC1    C114126   1.090   3.653   1.402 -0.5976  0.4878 -0.3638
    1TMC1    C214127   1.165   3.768   1.387 -0.3590 -0.0676  0.2160
    1TMC1    C314128   1.112   3.882   1.434  0.4455  0.3837 -0.1862
    1TMC1    C414129   0.961   3.653   1.454 -0.0616 -0.2256 -0.2585
    1TMC1    C514130   0.909   3.780   1.479  0.0604  0.4042  0.3419
    1TMC1    C614131   0.984   3.889   1.477  0.1513  0.0276 -0.1494
    1TMC1     C14132   1.139   3.535   1.337 -0.0012  0.2486 -0.0770
    1TMC1     O14133   1.261   3.524   1.323  0.3318 -0.3544 -0.3335
    1TMC1     H14134   1.263   3.775   1.342 -0.2058 -1.7415  0.2878
    1TMC1    H114135   0.912   3.558   1.471 -0.6564 -0.2436 -2.0828
    1TMC1    H214136   0.935   3.983   1.501  2.1015  1.7532 -2.8459
    1TMC1    C714137   0.787   3.803   1.546  0.1920  0.4344 -0.5469
    1TMC1    C814138   1.183   3.999   1.408 -0.3963 -0.4068  0.0420
    1TMC1    O114139   0.767   3.908   1.609 -0.1128  0.5820 -0.8287
    1TMC1    O214140   1.227   4.026   1.293  0.2329 -0.4273 -0.5627
    1TMC1    O314141   0.717   3.688   1.550 -0.7709 -0.0627  0.3464
    1TMC1    H314142   0.720   3.638   1.466  0.4047 -1.1593  1.0455
    1TMC1    O514143   1.148   4.085   1.508 -0.2897  0.0649  0.5393
    1TMC1    H514144   1.133   4.029   1.587  0.0732 -0.4007  0.2826
    2MPD1     C14145   1.067   3.099   1.079  0.2270  0.0994 -0.1634
    2MPD1    C114146   0.947   3.154   1.107 -1.3026 -0.1091  0.5589
    2MPD1    C214147   0.945   3.287   1.153 -0.0424 -0.4879 -0.3141
    2MPD1    C314148   1.054   3.347   1.212 -0.7289  0.4422  0.0475
    2MPD1    C414149   1.170   3.280   1.197 -0.8556  0.1989 -0.2143
    2MPD1    C514150   1.181   3.164   1.124  0.1859  0.2964  0.2500
    2MPD1     H14151   0.846   3.327   1.168  0.1506 -0.5063  0.9879
    2MPD1    H114152   1.261   3.314   1.245 -1.2277  1.4899 -0.4218
    2MPD1    H214153   1.078   2.994   1.053 -3.4090 -1.1305  3.1808
    2MPD1    H314154   1.276   3.117   1.103 -0.3506 -1.2418  1.2030
    2MPD1     N14155   1.037   3.465   1.278  0.1909 -0.4909 -0.9748
    2MPD1    H514156   0.946   3.509   1.288  0.5846  0.4382 -1.4413
    2MPD1    N114157   0.838   3.089   1.050 -0.6397 -0.1919  0.4734
    2MPD1    H614158   0.753   3.089   1.106  0.2424 -2.5123  1.8301
    2MPD1    H714159   0.867   2.992   1.039  1.4485  0.2601  2.0055
    1MPD1     C14160   3.477   0.126  12.739 -0.1842 -0.3957 -0.1334
    1MPD1    C114161   3.566   0.234  12.760 -0.1775 -0.0933  0.6910
    1MPD1    C214162   3.568   0.342  12.668 -1.0028  0.5372  0.1848
    1MPD1    C314163   3.478   0.350  12.568  0.3468 -0.8470 -0.1658
    1MPD1    C414164   3.382   0.250  12.561  0.2424  0.1043  0.1342
    1MPD1    C514165   3.387   0.133  12.637  0.5043  1.0417 -0.6680
    1MPD1     H14166   3.640   0.423  12.681  1.1846 -1.8744  2.9292
    1MPD1    H114167   3.317   0.247  12.475  1.6036 -3.3895 -0.7584
    1MPD1    H214168   3.495   0.034  12.793 -0.1854  0.9792  2.1894
    1MPD1    H314169   3.320   0.048  12.626 -1.1253  2.0187  1.6518
    1MPD1     N14170   3.485   0.463  12.480 -0.5470  0.8176  0.7795
    1MPD1    H514171   3.563   0.524  12.500  0.0857  0.4785 -0.6215
    1MPD1    N114172   3.672   0.215  12.845  0.0930  0.2901  0.6781
    1MPD1    H614173   3.640   0.154  12.920  0.4752 -3.0486 -1.8579
    1MPD1    H714174   3.700   0.302  12.889  0.5722  1.1623 -1.3363
    2MPD1     C14175   2.658   1.170  11.990 -0.2306  0.4104 -0.5839
    2MPD1    C114176   2.725   1.053  11.980  0.1426 -0.0596  0.0281
    2MPD1    C214177   2.770   1.013  11.853 -0.9271  0.4267 -0.3720
    2MPD1    C314178   2.753   1.089  11.742  0.2603 -0.1225  0.3282
    2MPD1    C414179   2.685   1.210  11.755 -0.0972  0.3892  0.4032
    2MPD1    C514180   2.645   1.249  11.880 -0.4912  0.4831 -0.7576
    2MPD1     H14181   2.819   0.917  11.842 -1.3689  0.3972 -2.1659
    2MPD1    H114182   2.679   1.290  11.683  1.8040  1.2793  1.2325
    2MPD1    H214183   2.612   1.197  12.085 -1.0539  0.4481 -0.9931
    2MPD1    H314184   2.589   1.340  11.893 -1.8054 -0.5362  0.7682
    2MPD1     N14185   2.802   1.054  11.615 -0.4555  0.0537  0.4947
    2MPD1    H514186   2.792   1.119  11.537  2.7581 -1.5564 -1.2489
    2MPD1    N114187   2.716   0.959  12.083 -0.7359 -0.3793 -0.1163
    2MPD1    H614188   2.797   0.898  12.078 -0.8825 -0.7535  2.2388
    2MPD1    H714189   2.723   1.004  12.174  0.1592  0.1475 -0.4461
    3MPD1     C14190   2.830   0.209  11.194  0.0499 -0.5326 -0.4265
    3MPD1    C114191   2.897   0.225  11.311  0.7282 -0.4231 -0.5506
    3MPD1    C214192   2.961   0.345  11.330  0.0150  0.7736 -0.3588
    3MPD1    C314193   2.966   0.446  11.239 -0.1257 -0.5947 -0.0998
    3MPD1    C414194   2.902   0.422  11.119 -0.1376  0.2381  0.6157
    3MPD1    C514195   2.834   0.302  11.095 -0.4197  0.4647  0.7764
    3MPD1     H14196   3.006   0.366  11.427 -1.6031  0.3494  0.4903
    3MPD1    H114197   2.908   0.489  11.034 -0.5534  0.3164  0.6509
    3MPD1    H214198   2.757   0.128  11.192  1.5345 -1.8649 -0.6578
    3MPD1    H314199   2.778   0.301  11.002  1.7821  0.8763 -0.5458
    3MPD1     N14200   3.005   0.575  11.277  0.5644  0.7538  0.5566
    3MPD1    H514201   3.036   0.599  11.371  2.6826 -0.7365  0.2492
    3MPD1    N114202   2.869   0.138  11.418 -0.1885 -0.0519 -0.1144
    3MPD1    H614203   2.946   0.130  11.484 -1.0077 -2.4096  0.5642
    3MPD1    H714204   2.858   0.043  11.383 -0.3376 -0.5049  1.1355
    4MPD2     C14205   3.173   0.976  11.959  0.1956  0.1918  0.1587
    4MPD2    C114206   3.261   1.033  12.045  0.0096  0.5145  0.2020
    4MPD2    C214207   3.328   1.150  12.003  0.1271  0.5256  0.0202
    4MPD2    C314208   3.317   1.195  11.879  0.4904  0.1709 -0.0391
    4MPD2    C414209   3.221   1.139  11.791  0.1090  0.5049  0.0109
    4MPD2    C514210   3.154   1.027  11.835  0.3298  0.1409 -0.1768
    4MPD2     H14211   3.412   1.184  12.062  1.2277  3.8230 -3.4997
    4MPD2    H114212   3.211   1.176  11.689 -2.8004  2.3555  0.9646
    4MPD2    H214213   3.130   0.878  11.977  2.6917 -0.5950  1.8141
    4MPD2    H314214   3.086   0.974  11.769 -2.0597  2.3576  0.4995
    4MPD2     N14215   3.401   1.305  11.843  0.9254 -0.1348  0.1193
    4MPD2    H514216   3.448   1.357  11.916  0.1571  0.2780  0.3236
    4MPD2    N114217   3.304   0.973  12.166 -0.0084  0.0090  0.2071
    4MPD2    H714218   3.392   1.004  12.206 -0.5280  0.2801  1.1266
    5TMC3    C114219   3.288   0.839  12.358  0.4235 -0.5528 -0.1633
    5TMC3    C214220   3.283   0.702  12.358  0.1020 -0.0185 -0.0094
    5TMC3    C314221   3.399   0.638  12.351  0.8451 -0.2612 -0.0783
    5TMC3    C414222   3.413   0.893  12.381 -0.6668  0.8698  0.4522
    5TMC3    C514223   3.533   0.824  12.372  0.0476  0.4546 -0.6470
    5TMC3    C614224   3.526   0.691  12.354 -0.1814 -0.6266  0.4892
    5TMC3     C14225   3.224   0.884  12.236  0.4605  0.0090 -0.2366
    5TMC3     O14226   3.116   0.836  12.208  0.2933 -0.1714 -0.0540
    5TMC3     H14227   3.184   0.662  12.337 -0.1551  0.3753  0.4524
    5TMC3    H114228   3.417   1.001  12.386  0.5203  0.8899 -0.8970
    5TMC3    H214229   3.615   0.630  12.360 -0.1747 -0.5357  1.3424
    5TMC3    C714230   3.632   0.904  12.288 -0.7755 -0.3884 -0.4043
    5TMC3    C814231   3.388   0.497  12.393  0.2453  0.3335  0.2568
    5TMC3    O114232   3.590   1.017  12.261 -0.0972  0.1668  0.4756
    5TMC3    O214233   3.275   0.451  12.375 -0.7454  0.3406 -0.4503
    6TMC3    C114234   2.901   0.922  11.444  0.6164 -0.4291  0.3344
    6TMC3    C214235   2.935   0.797  11.402 -0.1771 -0.0196 -0.0856
    6TMC3    C314236   2.975   0.796  11.266  0.2234  0.1033  0.6059
    6TMC3    C414237   2.924   1.041  11.372 -0.3924  0.1589  0.0056
    6TMC3    C514238   2.978   1.026  11.241  0.3526 -0.9154  0.5541
    6TMC3    C614239   3.000   0.908  11.187 -0.5112 -0.2103 -0.1227
    6TMC3     C14240   2.855   0.931  11.580  0.2571 -0.3264  0.5643
    6TMC3     O14241   2.887   0.830  11.643  0.0519 -0.4521  0.3124
    6TMC3     H14242   2.918   0.712  11.467  1.4204  0.6880  1.2549
    6TMC3    H114243   2.924   1.142  11.412  1.7034 -0.5031  1.6597
    6TMC3    H214244   3.003   0.899  11.079  1.5143 -2.5099  0.1257
    6TMC3    C714245   3.090   1.120  11.222  0.1507 -0.3365  0.5996
    6TMC3    C814246   2.996   0.683  11.199  0.1730 -0.1427 -0.0728
    6TMC3    O114247   3.090   1.218  11.291 -0.4065 -0.2822  0.2438
    6TMC3    O214248   2.982   0.687  11.076 -0.0980  0.1431  0.0723
    7MPD2     C14249   3.830   0.892  11.818  0.7151  0.6100  0.7534
    7MPD2    C114250   3.788   1.001  11.894 -0.6317 -0.3936 -0.5914
    7MPD2    C214251   3.759   0.986  12.029 -0.0745  0.6242 -0.1425
    7MPD2    C314252   3.770   0.855  12.087  0.6412 -0.1093 -0.0659
    7MPD2    C414253   3.824   0.749  12.014  0.0392 -0.2757 -0.0014
    7MPD2    C514254   3.844   0.768  11.877  0.6278  0.2857 -0.8252
    7MPD2     H14255   3.718   1.068  12.086 -0.9708 -0.9614  1.4739
    7MPD2    H114256   3.808   0.645  12.039 -1.8131  0.2392  0.9810
    7MPD2    H214257   3.848   0.903  11.712 -1.6284 -1.6453  0.1032
    7MPD2    H314258   3.859   0.680  11.815 -2.3170 -1.6112  1.1434
    7MPD2     N14259   3.721   0.825  12.217 -0.4426  0.2939 -0.1644
    7MPD2    H514260   3.725   0.728  12.246 -1.9962 -0.0735 -1.1748
    7MPD2    N114261   3.781   1.123  11.828 -0.2337  0.6749  0.5250
    7MPD2    H714262   3.809   1.117  11.730 -0.2096 -1.9485  0.6842
    8TMC3    C114263   3.731   1.340  11.778 -0.3240  0.1588  0.3328
    8TMC3    C214264   3.776   1.316  11.653  0.5570 -0.0816  0.2477
    8TMC3    C314265   3.691   1.364  11.554  0.2643 -0.9693 -0.2264
    8TMC3    C414266   3.623   1.420  11.805  0.0284  0.2365 -0.4088
    8TMC3    C514267   3.535   1.448  11.708  0.9785 -0.1003 -0.1105
    8TMC3    C614268   3.576   1.433  11.578  0.1183 -0.9788 -0.1705
    8TMC3     C14269   3.762   1.245  11.885 -0.3529  0.0918 -0.2761
    8TMC3     O14270   3.739   1.274  12.003 -0.0773  0.0727 -0.2667
    8TMC3     H14271   3.866   1.266  11.618 -0.1818 -0.5945 -0.9468
    8TMC3    H114272   3.601   1.433  11.911  1.7878  2.8440 -0.3686
    8TMC3    H214273   3.509   1.466  11.500  0.2084  1.0091  0.5879
    8TMC3    C714274   3.416   1.363  11.713  0.6925 -0.1565  0.7770
    8TMC3    C814275   3.697   1.303  11.429  1.5188 -0.5742  0.2485
    8TMC3    O114276   3.364   1.314  11.609  0.2110  0.2736  0.0980
    8TMC3    O214277   3.800   1.269  11.372  0.2469  0.5704 -0.0592
    9MPD2     C14278   3.594   1.194  11.162  0.4479 -0.7293  0.1626
    9MPD2    C114279   3.516   1.212  11.274 -0.3610 -0.0303  1.0163
    9MPD2    C214280   3.378   1.180  11.268 -0.4074  0.2447 -0.0266
    9MPD2    C314281   3.313   1.144  11.151 -0.0933  0.6301 -0.4650
    9MPD2    C414282   3.400   1.125  11.042  0.3562 -0.2736  0.6433
    9MPD2    C514283   3.534   1.144  11.049 -0.9252  0.0254  0.1384
    9MPD2     H14284   3.315   1.207  11.352  0.5910  0.2965  0.7083
    9MPD2    H114285   3.362   1.073  10.955 -1.3486  1.7011  0.2016
    9MPD2    H214286   3.701   1.215  11.168  0.4434 -0.7061  0.1608
    9MPD2    H314287   3.591   1.108  10.964  0.1837 -0.2831  1.0082
    9MPD2     N14288   3.193   1.082  11.141  0.6618  0.1444  0.1127
    9MPD2    H514289   3.178   1.024  11.059 -1.5792 -0.1266  0.7243
    9MPD2    N114290   3.570   1.261  11.395  0.9096 -0.1798 -0.2851
    9MPD2    H714291   3.503   1.267  11.472 -2.0892  1.7005 -3.0590
    1MPD1     C14292   2.943   3.109  15.372  0.4236  0.1620 -0.4655
    1MPD1    C114293   2.975   2.998  15.446  0.3616 -0.9599 -0.3154
    1MPD1    C214294   3.003   3.021  15.578 -0.6267  0.0413  0.0449
    1MPD1    C314295   3.016   3.146  15.632 -0.8373  0.2389 -0.2094
    1MPD1    C414296   2.984   3.260  15.552  0.7972  0.4360  0.5465
    1MPD1    C514297   2.950   3.233  15.423  0.3937 -0.2518 -0.6517
    1MPD1     H14298   3.039   2.943  15.644 -0.0495  0.0804 -0.2225
    1MPD1    H114299   2.995   3.361  15.589 -0.4227  0.9282 -0.4540
    1MPD1    H214300   2.915   3.104  15.268 -0.8195  0.6494 -0.1553
    1MPD1    H314301   2.933   3.317  15.357  2.1012  2.0843  1.8656
    1MPD1     N14302   3.050   3.176  15.765 -0.4278  0.2135  0.6313
    1MPD1    H514303   3.030   3.270  15.797  1.4563  1.6018 -2.3731
    1MPD1    N114304   2.947   2.867  15.396  0.2127 -0.1826  0.5905
    1MPD1    H614305   2.968   2.862  15.296  2.3315  1.0034  0.9697
    1MPD1    H714306   3.001   2.796  15.446  1.4754  0.3958  0.0429
    2TMC2    C114307   3.229   3.326  16.108  0.4262  0.3836 -0.4703
    2TMC2    C214308   3.229   3.253  16.223  0.9966 -0.2751  0.7373
    2TMC2    C314309   3.199   3.122  16.209  0.0162 -0.0886 -0.6883
    2TMC2    C414310   3.181   3.282  15.989  0.1538  0.0631 -0.7598
    2TMC2    C514311   3.139   3.151  15.981 -0.3394  0.6894  0.1744
    2TMC2    C614312   3.147   3.064  16.094 -0.4643 -0.1735 -0.2445
    2TMC2     C14313   3.302   3.452  16.098 -0.6198  0.0277 -0.0214
    2TMC2     O14314   3.306   3.514  15.994  0.0759  0.0494  0.0724
    2TMC2     H14315   3.264   3.287  16.320  0.4868  0.9522  0.4798
    2TMC2    H114316   3.199   3.343  15.901 -2.2308  1.4083 -0.3215
    2TMC2    H214317   3.087   2.975  16.104 -0.2929 -0.2643 -0.0230
    2TMC2    C714318   3.092   3.084  15.862 -0.1136  0.0448 -0.1989
    2TMC2    C814319   3.215   3.041  16.328 -0.0083  0.4594  0.4453
    2TMC2    O114320   3.097   2.961  15.864  0.0152 -0.0887  0.0616
    2TMC2    O214321   3.215   3.091  16.439  0.1427  0.2129 -0.4664
    2TMC2    O514322   3.224   2.910  16.301  0.2529 -0.0161 -0.1463
    2TMC2    H514323   3.242   2.896  16.206 -0.1237  2.6431 -0.6091
    3MPD1     C14324   3.573   3.831  16.302 -0.4154 -0.3483  0.3088
    3MPD1    C114325   3.578   3.723  16.389 -0.6895  0.2328 -0.3350
    3MPD1    C214326   3.500   3.617  16.358  0.3387  0.7290 -0.1801
    3MPD1    C314327   3.429   3.606  16.245 -0.4248 -0.3094  0.3981
    3MPD1    C414328   3.427   3.711  16.158  0.1367  0.4731 -0.4959
    3MPD1    C514329   3.482   3.835  16.199 -0.5026  0.8468  0.0220
    3MPD1     H14330   3.501   3.528  16.420  1.2149  0.0842 -1.1232
    3MPD1    H114331   3.364   3.719  16.070  0.2802  0.9461 -0.5554
    3MPD1    H214332   3.631   3.922  16.314 -1.9031  0.8003 -1.1547
    3MPD1    H314333   3.464   3.923  16.138 -2.1670  0.3546 -0.1989
    3MPD1     N14334   3.360   3.488  16.220  0.0564 -0.7212  0.0393
    3MPD1    H514335   3.354   3.419  16.294  1.2897 -0.2539  0.5778
    3MPD1    N114336   3.683   3.710  16.483 -0.4105 -0.3072 -0.0717
    3MPD1    H614337   3.661   3.647  16.560  0.6355  2.2482  2.3039
    3MPD1    H714338   3.713   3.801  16.517  0.1971 -0.8332  0.7937
    1TMC1    C114339   0.839   2.873  13.636 -0.1174 -0.8176  0.2692
    1TMC1    C214340   0.750   2.781  13.583 -0.4333  0.4618 -0.6926
    1TMC1    C314341   0.618   2.812  13.578 -0.8274  0.3011  0.5925
    1TMC1    C414342   0.788   2.980  13.712  0.5799 -0.3916  0.1407
    1TMC1    C514343   0.655   2.997  13.712  0.0939  0.4117  0.4034
    1TMC1    C614344   0.565   2.921  13.635  0.1352 -0.0721 -0.0851
    1TMC1     C14345   0.970   2.877  13.579 -0.0935 -0.6066  0.5484
    1TMC1     O14346   1.025   2.772  13.544  0.4969  0.5278  0.1973
    1TMC1     H14347   0.790   2.703  13.519  0.2048  0.5037 -0.3432
    1TMC1    H114348   0.845   3.054  13.767  2.2154 -0.5880 -1.2750
    1TMC1    H214349   0.458   2.935  13.635  0.0661 -0.6084 -2.3589
    1TMC1    C714350   0.599   3.097  13.786 -0.4166 -0.4851  0.7894
    1TMC1    C814351   0.538   2.711  13.517  0.4265  0.3605  0.2815
    1TMC1    O114352   0.486   3.079  13.831 -0.0692 -0.2316  0.1548
    1TMC1    O214353   0.529   2.604  13.573  0.9645  0.2303  0.2920
    1TMC1    O314354   0.634   3.219  13.726  0.2420  0.2538 -0.4782
    1TMC1    H314355   0.721   3.223  13.681 -1.7857 -0.3121 -4.4537
    1TMC1    O514356   0.445   2.776  13.444 -0.0085  0.3909  0.5411
    1TMC1    H514357   0.474   2.858  13.398  0.3699 -0.7329 -1.2300
    2MPD2     C14358   1.241   2.962  13.465  0.2132 -0.5146  0.6337
    2MPD2    C114359   1.133   3.048  13.498  0.9387  0.2613 -0.5165
    2MPD2    C214360   1.152   3.176  13.458  0.2585 -0.2696 -0.3235
    2MPD2    C314361   1.257   3.224  13.391  0.4232 -0.0148 -0.5857
    2MPD2    C414362   1.364   3.143  13.368 -0.2598 -0.0277  0.2447
    2MPD2    C514363   1.356   3.014  13.412  0.0468 -0.4677 -0.2999
    2MPD2     H14364   1.075   3.247  13.486  1.8068  0.4202  2.0990
    2MPD2    H114365   1.459   3.179  13.331  0.8945 -1.9318  1.3545
    2MPD2    H214366   1.234   2.857  13.491 -1.6686 -0.5355  0.0343
    2MPD2    H314367   1.438   2.948  13.385  0.6789  0.2720 -0.1753
    2MPD2     N14368   1.249   3.355  13.349  0.8111 -0.1498 -0.7428
    2MPD2    H514369   1.160   3.399  13.372  1.7154  1.3080 -0.0609
    2MPD2    N114370   1.015   3.007  13.556  0.3816 -0.3929 -0.1096
    2MPD2    H714371   0.945   3.080  13.568  1.5581  0.5823  0.7448
    3TCq1    O114372   1.272   3.969  13.053 -0.2911  0.3527 -0.0944
    3TCq1    C114373   1.339   3.869  13.116  0.3458  0.3910 -0.0165
    3TCq1    O214374   1.450   3.888  13.169 -0.2237 -0.2352 -0.0106
    3TCq1    C214375   1.252   3.762  13.146 -0.2094 -0.3830  0.2754
    3TCq1    C314376   1.123   3.782  13.172  0.5354 -0.7332  0.2583
    3TCq1    C414377   1.055   3.673  13.223 -0.5183 -0.8121  0.2166
    3TCq1    C514378   1.113   3.553  13.243  0.3021  0.4193 -0.0626
    3TCq1    C614379   1.252   3.540  13.221  0.6805  0.2606  0.2942
    3TCq1    C714380   1.324   3.647  13.173  0.3243 -0.0541 -1.2804
    3TCq1    C814381   1.322   3.421  13.260  0.2113 -0.1241  0.0716
    3TCq1    O414382   1.443   3.410  13.231  0.0635 -0.1724  0.1929
    3TCq1    C914383   0.928   3.692  13.275  0.1392 -0.1165 -0.1412
    3TCq1    O514384   0.869   3.803  13.263 -0.3245 -0.4889 -0.0209
    3TCq1    O614385   0.874   3.592  13.331 -0.0149  0.0788  0.3326
    3TCq1    H114386   1.188   3.939  13.012 -0.2325 -1.2719  0.9535
    3TCq1    H214387   1.076   3.879  13.169  2.2334  0.0608 -0.3217
    3TCq1    H314388   1.048   3.467  13.256  0.4148  0.0772 -1.6794
    3TCq1    H414389   1.426   3.638  13.137  1.0650 -1.4004  1.0978
    1MPD2     C14390   1.003   4.253  15.534 -0.2631 -0.4067 -0.3147
    1MPD2    C114391   0.922   4.169  15.451  0.4730 -0.1958  0.4645
    1MPD2    C214392   0.978   4.059  15.394  0.1931  0.2579 -0.2650
    1MPD2    C314393   1.120   4.041  15.402 -0.2648  0.1386 -0.0408
    1MPD2    C414394   1.199   4.119  15.483  0.1003  0.8641 -0.0165
    1MPD2    C514395   1.140   4.228  15.545 -0.4144  0.6860 -0.1389
    1MPD2     H14396   0.925   4.000  15.320 -1.1214  0.5438  0.4596
    1MPD2    H114397   1.304   4.098  15.498 -0.4906 -2.1707 -0.2172
    1MPD2    H214398   0.953   4.334  15.587  2.5503 -0.1663  1.9961
    1MPD2    H314399   1.199   4.300  15.601 -0.5918 -0.9079  2.0815
    1MPD2     N14400   1.181   3.934  15.333  0.0385  0.0872 -0.0276
    1MPD2    H514401   1.281   3.924  15.341 -0.0336  0.0126  0.8111
    1MPD2    N114402   0.784   4.198  15.446  0.0065  0.3358  0.0701
    1MPD2    H714403   0.751   4.286  15.487  1.9466  2.3472 -2.6810
    2TMC3    C114404   0.569   4.191  15.357 -0.3730  0.0397 -0.4311
    2TMC3    C214405   0.477   4.094  15.331 -0.1531 -0.5749 -0.0610
    2TMC3    C314406   0.400   4.096  15.221  0.2982  0.0213  0.0258
    2TMC3    C414407   0.575   4.298  15.271  0.5466 -1.1504  0.3204
    2TMC3    C514408   0.472   4.313  15.179  0.2108  0.5263 -0.3160
    2TMC3    C614409   0.374   4.217  15.156  0.4148  0.6096  0.0005
    2TMC3     C14410   0.693   4.123  15.375 -0.2918 -0.0001  0.8246
    2TMC3     O14411   0.705   4.009  15.333 -0.1689  0.5244 -0.1362
    2TMC3     H14412   0.478   4.000  15.385 -0.8597 -0.6307 -0.1480
    2TMC3    H114413   0.653   4.373  15.275  0.0977 -0.6440 -0.5701
    2TMC3    H214414   0.299   4.222  15.078  0.3413  2.8910  0.2091
    2TMC3    C714415   0.469   4.420  15.086  0.1358 -0.0419 -0.4339
    2TMC3    C814416   0.397   3.984  15.129  1.2187  0.1244 -0.4623
    2TMC3    O114417   0.359   4.468  15.065 -0.4345 -0.1658 -0.0880
    2TMC3    O214418   0.303   3.981  15.051  0.9626 -0.0710  0.2375
    3TCq1    O114419   1.179   0.422  14.506  0.4953 -0.0294 -0.2237
    3TCq1    C114420   1.130   0.394  14.634 -0.0901 -0.5967  0.0346
    3TCq1    O214421   1.032   0.440  14.692 -0.2586 -0.1269  0.5303
    3TCq1    C214422   1.166   0.257  14.672 -0.6226 -0.5296  0.1167
    3TCq1    C314423   1.297   0.229  14.674  0.5905 -0.3566  0.3164
    3TCq1    C414424   1.342   0.114  14.728  0.1585  0.1894  0.5273
    3TCq1    C514425   1.250   0.022  14.780  0.2330  0.5819  0.1554
    3TCq1    C614426   1.111   0.051  14.767 -0.4752  0.8178 -0.0271
    3TCq1    C714427   1.073   0.178  14.729 -0.0386 -0.3181 -0.3798
    3TCq1    C814428   1.007   4.692  14.806  0.2106 -0.1880  0.1175
    3TCq1    O414429   1.033   4.615  14.899  0.0135  0.5288 -0.1986
    3TCq1    C914430   1.481   0.079  14.722  0.3025 -0.1569 -0.3847
    3TCq1    O514431   1.547   0.156  14.651  0.4811  0.0362  0.4239
    3TCq1    O614432   1.526   4.715  14.782  0.1914  0.0558 -0.3871
    3TCq1    H114433   1.260   0.374  14.478  1.7691  1.1576  1.4594
    3TCq1    H214434   1.370   0.308  14.662 -0.1178  0.0869 -1.1187
    3TCq1    H314435   1.292   4.669  14.815 -2.1605  0.0999  1.8221
    3TCq1    H414436   0.968   0.205  14.730 -0.0137 -0.2562  0.9875
    4MPD2     C14437   0.653   0.010  14.736 -0.3062  0.2759 -0.8063
    4MPD2    C114438   0.760   4.696  14.803  0.6361 -0.2135 -0.4277
    4MPD2    C214439   0.732   4.615  14.914  0.1225 -0.4727  0.8115
    4MPD2    C314440   0.610   4.578  14.952 -0.1434  0.7758 -0.3407
    4MPD2    C414441   0.507   4.633  14.879 -0.3131  0.3920 -0.1785
    4MPD2    C514442   0.528   4.716  14.772  0.1425 -0.1508 -0.4930
    4MPD2     H14443   0.811   4.564  14.968 -0.7146 -3.2553 -0.5802
    4MPD2    H114444   0.403   4.607  14.896 -0.4760  1.3269  0.2419
    4MPD2    H214445   0.665   0.063  14.642 -0.8338  0.5865 -0.6995
    4MPD2    H314446   0.449   0.026  14.717 -1.3044  0.3531  2.0311
    4MPD2     N14447   0.590   4.464  15.039 -0.2930  0.3083  0.2078
    4MPD2    H514448   0.671   4.432  15.091 -0.3894  0.2392  0.3125
    4MPD2    N114449   0.890   4.725  14.753  0.1296 -0.3056  0.0995
    4MPD2    H714450   0.888   0.059  14.683 -1.9163  0.5731  1.0803
    5TMC2    C114451   1.133   3.647  14.977  0.2859 -0.2537  0.2321
    5TMC2    C214452   1.232   3.708  14.909  0.0844  0.6105  0.5996
    5TMC2    C314453   1.312   3.799  14.977  1.0004  0.6651 -0.2355
    5TMC2    C414454   1.130   3.665  15.114  0.7825 -0.1908 -0.0173
    5TMC2    C514455   1.212   3.753  15.183  0.0566  0.3445  0.0962
    5TMC2    C614456   1.309   3.820  15.113 -0.0978  0.2517  0.4718
    5TMC2     C14457   1.007   3.647  14.910  0.2758 -0.2117  0.6560
    5TMC2     O14458   1.009   3.648  14.788 -0.3698  0.3499 -0.2607
    5TMC2     H14459   1.254   3.687  14.805 -0.1440  0.3507  0.6048
    5TMC2    H114460   1.059   3.611  15.176  0.3045 -0.4525 -0.7943
    5TMC2    H214461   1.381   3.892  15.149 -0.2510  0.5600  0.1695
    5TMC2    C714462   1.118   3.831  15.264 -0.3936 -0.0579  0.8079
    5TMC2    C814463   1.443   3.805  14.925 -0.0040 -0.6912 -0.4263
    5TMC2    O114464   1.002   3.814  15.230  0.1695  0.4559  0.4492
    5TMC2    O214465   1.535   3.769  14.994 -0.6098  0.1550  0.2290
    5TMC2    O514466   1.454   3.878  14.820 -0.0418 -0.2752  0.5236
    5TMC2    H514467   1.365   3.896  14.781 -0.0561 -0.1406  0.6201
    6MPD2     C14468   0.503   3.788  14.939  0.0085 -0.5130  0.6846
    6MPD2    C114469   0.579   3.843  15.041  0.6863  0.1336 -0.5080
    6MPD2    C214470   0.706   3.801  15.058  0.0939 -0.3694  0.6430
    6MPD2    C314471   0.770   3.720  14.966 -0.5517  0.4634  0.3611
    6MPD2    C414472   0.696   3.668  14.864 -0.3304  0.1150 -0.4287
    6MPD2    C514473   0.559   3.692  14.854 -0.1029 -0.6131  0.3285
    6MPD2     H14474   0.753   3.846  15.145  2.1619 -1.0631 -0.1215
    6MPD2    H114475   0.731   3.595  14.792 -0.1875 -0.1400 -0.1009
    6MPD2    H214476   0.403   3.820  14.913  1.0635  0.8854 -1.6718
    6MPD2    H314477   0.502   3.642  14.777 -0.0249 -0.6672  0.3064
    6MPD2     N14478   0.911   3.690  14.995  0.3612  0.1027  0.5283
    6MPD2    H514479   0.953   3.713  15.085 -0.7945 -1.8199  1.5571
    6MPD2    N114480   0.520   3.924  15.138  0.9033  0.3590 -0.0343
    6MPD2    H714481   0.584   3.953  15.211 -0.7051  2.4815  0.5191
  945NH3     N114482   2.959   1.839  16.800 -0.5791  0.0829  0.3905
  945NH3     H214483   3.016   1.851  16.717  0.0788  0.7560  0.9341
  945NH3     H314484   2.917   1.747  16.788 -0.0570 -0.4623  2.6947
  945NH3     H414485   2.885   1.900  16.767 -0.9721 -1.6534 -1.9688
  946SOD     NA14486   2.445   3.539  14.622  0.2899 -0.5569  0.5439
  947SOD     NA14487   2.778   0.384  12.901 -0.3573 -0.1648 -0.0787
  948SOD     NA14488   3.050   3.927  16.871 -0.0377  0.4789  0.1081
  949SOD     NA14489   4.086   3.707   9.471 -1.1403  0.1196  0.7828
  950SOD     NA14490   3.228   3.785   4.509 -0.4687  0.9424  0.1640
  951SOD     NA14491   1.236   4.444  10.944  0.3094 -0.2154 -0.2430
  952SOD     NA14492   3.585   1.875   3.675  0.3259 -0.4332 -0.5549
  953SOD     NA14493   3.140   1.854  16.958 -0.0712  0.1206 -0.2189
  954SOL     OW14494   2.921   3.284  14.539  0.0834 -0.4151  0.0402
  954SOL    HW114495   2.834   3.261  14.570  1.1746 -2.0464  1.8695
  954SOL    HW214496   2.906   3.376  14.519 -0.0691 -0.6243 -0.8054
  955SOL     OW14497   3.995   1.989   6.024 -0.4199 -0.1317  0.4947
  955SOL    HW114498   3.932   1.922   6.049  0.3460  0.3675  3.7755
  955SOL    HW214499   4.056   1.982   6.097  0.5158  2.7654 -0.0296
  956SOL     OW14500   1.437   2.772   5.249  0.8345  0.2482 -0.7426
  956SOL    HW114501   1.458   2.703   5.312  2.2700  0.3959 -1.0520
  956SOL    HW214502   1.529   2.768   5.222  0.7653 -1.0434 -0.8150
  957SOL     OW14503   3.816   4.078   8.513 -0.1197  0.4430  0.0380
  957SOL    HW114504   3.801   3.996   8.558 -2.7425  0.9495  0.0702
  957SOL    HW214505   3.723   4.093   8.496  0.1014  1.6182 -0.1537
  958SOL     OW14506   3.926   3.773  17.002  0.1560 -0.2849  0.2419
  958SOL    HW114507   3.955   3.845  17.059  2.2483 -1.6916  0.9495
  958SOL    HW214508   3.831   3.782  17.009  0.5046  3.8854  0.0529
  959SOL     OW14509   1.873   0.133  17.098 -0.4528 -0.1905  0.2161
  959SOL    HW114510   1.887   0.184  17.018  3.7878 -0.3407  0.8650
  959SOL    HW214511   1.785   0.163  17.121  0.1075  0.6880  1.2215
  960SOL     OW14512   1.003   2.974   2.087  0.3441 -0.2871 -0.3755
  960SOL    HW114513   0.950   3.037   2.038  1.5579 -0.4309 -1.9201
  960SOL    HW214514   0.976   2.890   2.052 -0.3118  0.8066 -2.5142
  961SOL     OW14515   4.180   3.432   9.947 -0.5763  0.3959  0.2974
  961SOL    HW114516   4.135   3.374   9.886  1.1029 -0.1344 -0.4258
  961SOL    HW214517   4.260   3.384   9.964 -0.1979  0.8680 -0.1626
  962SOL     OW14518   0.447   4.717   8.020  0.2560 -0.2286  0.1399
  962SOL    HW114519   0.378   4.652   8.030  0.5761 -0.6077 -0.1077
  962SOL    HW214520   0.433   0.032   8.097 -1.5955 -2.0450  1.0835
  963SOL     OW14521   3.909   1.950  14.482  0.2721 -0.5926 -0.0002
  963SOL    HW114522   3.841   2.006  14.445  0.5487 -1.5817 -2.0078
  963SOL    HW214523   3.953   2.018  14.534  0.0692 -0.1225 -0.4411
  964SOL     OW14524   3.338   3.812   7.572 -0.4458  0.0026 -0.7218
  964SOL    HW114525   3.277   3.879   7.602 -1.5739 -1.2295 -0.3100
  964SOL    HW214526   3.386   3.863   7.506 -0.7315  0.0858 -0.8662
  965SOL     OW14527   3.817   3.012   2.564  0.8514 -0.4335 -0.6381
  965SOL    HW114528   3.829   3.016   2.659  0.4671  2.6270 -0.6922
  965SOL    HW214529   3.802   3.103   2.536  1.7264  0.1800  0.9003
  966SOL     OW14530   2.142   3.913   9.235 -0.1337  0.5508  0.3858
  966SOL    HW114531   2.230   3.897   9.268  0.3397 -0.0095 -1.1289
  966SOL    HW214532   2.096   3.830   9.247 -0.1845  0.5639  0.2831
  967SOL     OW14533   2.855   1.897   2.888  0.3529  0.8600 -0.6822
  967SOL    HW114534   2.832   1.990   2.884 -0.0282  0.7505 -0.9778
  967SOL    HW214535   2.906   1.881   2.809 -0.2872  1.0267 -1.1313
  968SOL     OW14536   1.503   4.233  11.145 -0.6163 -0.0833 -0.3389
  968SOL    HW114537   1.596   4.240  11.124 -0.0020 -2.4405  1.6353
  968SOL    HW214538   1.491   4.323  11.176 -1.0758  0.7921 -3.0050
  969SOL     OW14539   1.002   0.699  14.739  0.2725 -0.4614 -0.3341
  969SOL    HW114540   1.084   0.734  14.774 -0.1919 -1.3716  1.6489
  969SOL    HW214541   1.026   0.612  14.708  0.3396 -1.5686  2.8597
  970SOL     OW14542   2.230   1.189   8.069 -0.0530  0.1182  0.4681
  970SOL    HW114543   2.280   1.257   8.024  0.2127  0.1608  0.8302
  970SOL    HW214544   2.141   1.217   8.044  0.8836  1.6052 -1.1982
  971SOL     OW14545   0.421   1.360   7.303 -0.0737 -0.3094  0.6897
  971SOL    HW114546   0.367   1.430   7.339 -0.4335  1.0845 -2.5275
  971SOL    HW214547   0.374   1.345   7.220  1.4581 -0.0822 -0.2126
  972SOL     OW14548   1.184   3.450   4.915  0.4362  0.3921  0.2897
  972SOL    HW114549   1.230   3.394   4.977  0.8388  1.5072  1.0049
  972SOL    HW214550   1.253   3.509   4.884  0.5245  0.2252  0.1642
  973SOL     OW14551   3.019   0.328  15.218 -0.0943  0.7671 -0.2211
  973SOL    HW114552   2.950   0.350  15.156 -0.9152 -0.6324  0.2094
  973SOL    HW214553   2.971   0.304  15.296  0.3542  1.7091  0.3458
  974SOL     OW14554   3.431   2.313   2.312 -0.0663  0.2648  0.0114
  974SOL    HW114555   3.450   2.263   2.391 -1.4522 -2.0473 -1.1318
  974SOL    HW214556   3.353   2.268   2.281 -1.4673  1.6289  1.6110
  975SOL     OW14557   0.155   1.791   5.712  0.7372 -0.2527  0.4143
  975SOL    HW114558   0.136   1.698   5.699  2.2112 -0.5142  0.1574
  975SOL    HW214559   0.149   1.802   5.807 -2.4301 -1.0738  0.3041
  976SOL     OW14560   0.066   0.244  14.161 -0.1439  0.6414  0.0913
  976SOL    HW114561   4.721   0.280  14.188 -0.8633 -2.1294  1.5057
  976SOL    HW214562   0.125   0.316  14.184 -0.0583  1.0451 -1.3657
  977SOL     OW14563   3.163   3.658   0.007 -0.2116  0.4962 -0.1815
  977SOL    HW114564   3.194   3.698  17.681  1.0798 -0.9842 -0.4248
  977SOL    HW214565   3.070   3.681   0.004  0.0317  1.2918 -1.4530
  978SOL     OW14566   1.219   0.592   9.412  0.2306  0.5708  0.2997
  978SOL    HW114567   1.283   0.647   9.367  2.1807 -0.9964  1.1534
  978SOL    HW214568   1.149   0.656   9.427 -0.5384  0.3061 -2.1227
  979SOL     OW14569   1.077   3.273   6.623 -0.3769 -0.2741 -0.2436
  979SOL    HW114570   1.139   3.201   6.627 -1.9671 -1.6676 -0.8062
  979SOL    HW214571   1.135   3.349   6.631 -2.1591  1.0888 -0.3709
  980SOL     OW14572   3.407   1.485  12.057 -0.0357 -0.0994  0.1658
  980SOL    HW114573   3.359   1.501  12.139  1.2591  1.9872  0.5215
  980SOL    HW214574   3.338   1.524  12.003 -2.2483 -1.6039  1.8854
  981SOL     OW14575   0.482   1.926   8.940 -0.1293 -0.1184 -0.1446
  981SOL    HW114576   0.456   1.996   9.000  0.6746 -0.8384  1.0485
  981SOL    HW214577   0.450   1.850   8.989 -0.0124 -0.2869 -0.3302
  982SOL     OW14578   0.496   0.773   3.254 -0.3989  0.1835  0.0447
  982SOL    HW114579   0.484   0.700   3.315  0.7635  0.0987  0.1703
  982SOL    HW214580   0.591   0.783   3.248 -0.2005 -0.9007  1.3112
  983SOL     OW14581   2.556   4.392   8.789  0.2721  0.5015 -0.4385
  983SOL    HW114582   2.514   4.318   8.745 -0.2904  0.4273  0.2329
  983SOL    HW214583   2.519   4.474   8.757 -0.2282 -0.4046 -2.2146
  984SOL     OW14584   1.781   1.603   8.188  0.2496  0.0442 -0.1316
  984SOL    HW114585   1.714   1.661   8.152  0.4437 -0.6125 -1.5572
  984SOL    HW214586   1.843   1.663   8.230  2.0436 -0.8250 -1.5097
  985SOL     OW14587   4.360   0.046   7.178 -0.6279 -0.2664 -0.2227
  985SOL    HW114588   4.384   0.015   7.091 -2.8864 -0.1255 -0.8885
  985SOL    HW214589   4.417   4.724   7.225  0.5191  1.8350  1.1252
  986SOL     OW14590   3.752   2.771   6.767  0.3663 -0.3468 -0.1648
  986SOL    HW114591   3.731   2.752   6.858 -0.6731 -1.4414 -0.6292
  986SOL    HW214592   3.816   2.700   6.754  0.9401  0.0310  0.6283
  987SOL     OW14593   0.542   1.762   4.145  0.4559 -0.3269 -0.6038
  987SOL    HW114594   0.580   1.847   4.169 -0.9745  0.1611 -0.0250
  987SOL    HW214595   0.450   1.788   4.157  0.4807 -1.5433  2.2130
  988SOL     OW14596   1.500   3.937   4.072 -0.2650 -0.1988 -0.2316
  988SOL    HW114597   1.481   3.855   4.118  2.4492 -0.1352  0.9712
  988SOL    HW214598   1.539   3.982   4.146  1.8812  1.0984 -2.1665
  989SOL     OW14599   4.586   4.137   2.545 -0.1792  0.4821 -0.3589
  989SOL    HW114600   4.669   4.174   2.516 -0.6824  1.1742 -0.9483
  989SOL    HW214601   4.523   4.185   2.490  1.6606  2.5735 -0.6545
  990SOL     OW14602   3.331   0.220   7.658  0.4333 -0.2872  0.4261
  990SOL    HW114603   3.263   0.244   7.721  0.1573  0.5043 -0.1711
  990SOL    HW214604   3.299   0.149   7.602  1.3450 -0.9542  0.7534
  991SOL     OW14605   1.361   4.714   6.112  0.0792  0.0943  0.2294
  991SOL    HW114606   1.434   4.712   6.174 -1.2851 -0.1875  1.8525
  991SOL    HW214607   1.401   0.018   6.037  0.2708 -0.6089 -0.0732
  992SOL     OW14608   1.226   0.312   4.088  0.2582 -0.1354  0.4085
  992SOL    HW114609   1.230   0.238   4.149 -0.1821 -1.0635 -0.6746
  992SOL    HW214610   1.146   0.351   4.122  1.7503  2.7050  0.6575
  993SOL     OW14611   0.794   2.094   8.708  0.0197 -0.0467 -0.5563
  993SOL    HW114612   0.746   2.023   8.664 -1.0362  1.0602 -1.2166
  993SOL    HW214613   0.764   2.168   8.654 -2.3124 -1.2484 -0.9368
  994SOL     OW14614   4.033   0.495   1.259  0.3108  0.1066 -0.6805
  994SOL    HW114615   3.942   0.523   1.273  0.5740  0.4547  0.3194
  994SOL    HW214616   4.066   0.509   1.348 -1.7496  0.3902  0.0426
  995SOL     OW14617   0.207   1.851   3.306 -0.1744  0.6329  1.0702
  995SOL    HW114618   0.297   1.865   3.275 -0.9598  2.4352 -0.4026
  995SOL    HW214619   0.230   1.771   3.352  0.2991 -0.5772 -1.2827
  996SOL     OW14620   3.022   1.213   2.852  0.1961 -0.0541 -0.4009
  996SOL    HW114621   3.054   1.218   2.762 -0.6480  0.4106 -0.6784
  996SOL    HW214622   2.970   1.293   2.845  0.9380  0.4455 -0.2165
  997SOL     OW14623   3.697   2.057   5.934 -0.2610 -0.3594  0.3822
  997SOL    HW114624   3.670   2.101   6.015 -0.4229  2.2118 -1.0767
  997SOL    HW214625   3.792   2.071   5.933 -0.4061  0.7274  1.1563
  998SOL     OW14626   0.093   2.502   2.223  0.1273  0.1455 -0.3422
  998SOL    HW114627   0.182   2.471   2.206  0.1922  0.5727 -0.7794
  998SOL    HW214628   0.099   2.495   2.319 -0.8081 -1.0397 -0.3692
  999SOL     OW14629   1.512   2.105   3.351  0.0844  0.2180  0.2350
  999SOL    HW114630   1.439   2.079   3.296 -1.1839  3.5284  0.3609
  999SOL    HW214631   1.582   2.079   3.291 -1.8621 -1.2075 -1.4205
 1000SOL     OW14632   4.535   1.803   9.894 -0.5290  0.1189  0.1980
 1000SOL    HW114633   4.624   1.786   9.866 -0.4696 -1.5731  1.4054
 1000SOL    HW214634   4.529   1.764   9.981 -0.1144  0.3879  0.3494
 1001SOL     OW14635   4.002   1.126   3.234 -0.3490  0.3824 -0.1105
 1001SOL    HW114636   4.066   1.106   3.166 -2.1328 -0.2914 -1.6037
 1001SOL    HW214637   4.003   1.050   3.293 -1.8548  1.3107  1.1131
 1002SOL     OW14638   3.881   2.622   3.201 -0.1178 -0.4866 -0.1855
 1002SOL    HW114639   3.856   2.580   3.119 -0.6707 -0.5731  0.0269
 1002SOL    HW214640   3.951   2.561   3.226 -0.5302 -0.0337  2.0908
 1003SOL     OW14641   1.925   0.625  12.355 -0.0572  0.5962 -0.0918
 1003SOL    HW114642   1.832   0.625  12.332 -0.1473 -0.9907  0.2443
 1003SOL    HW214643   1.929   0.648  12.447  1.1022  0.1356 -0.0352
 1004SOL     OW14644   2.036   2.940   8.552 -0.5515  0.0270 -0.1613
 1004SOL    HW114645   1.959   2.904   8.507 -0.1656 -2.5087  1.1831
 1004SOL    HW214646   2.028   2.911   8.643  1.5832  1.9706  0.6254
 1005SOL     OW14647   3.394   2.678   9.518  0.0996  0.1333 -0.2210
 1005SOL    HW114648   3.481   2.638   9.512 -0.5671 -1.5751  1.6888
 1005SOL    HW214649   3.378   2.653   9.608  1.5760  1.2549  0.3636
 1006SOL     OW14650   2.417   0.483  15.341  0.6224 -0.3340 -0.4865
 1006SOL    HW114651   2.365   0.454  15.266 -0.2519 -1.7837  0.7040
 1006SOL    HW214652   2.505   0.469  15.306  0.8321 -1.1112  0.3626
 1007SOL     OW14653   1.876   1.788  15.811 -0.1579 -0.1352  0.4532
 1007SOL    HW114654   1.966   1.781  15.842  0.3132 -0.0190 -0.8746
 1007SOL    HW214655   1.884   1.860  15.749 -1.6541 -1.5107 -1.3565
 1008SOL     OW14656   4.626   0.734   4.254 -0.4282  0.5264 -0.1795
 1008SOL    HW114657   4.533   0.716   4.265 -0.2933 -0.1305 -0.1173
 1008SOL    HW214658   4.634   0.786   4.174 -0.3717  1.5048  0.4665
 1009SOL     OW14659   4.474   4.537   8.965  0.2801  0.1893  0.1439
 1009SOL    HW114660   4.504   4.572   8.881  1.4633 -1.1350  0.0161
 1009SOL    HW214661   4.477   4.621   9.011  1.2965 -1.2217  2.6682
 1010SOL     OW14662   3.500   2.808   8.111 -0.1011  0.7215  0.3838
 1010SOL    HW114663   3.565   2.781   8.175 -0.0453  1.9894  0.8597
 1010SOL    HW214664   3.553   2.842   8.038 -0.0089 -0.2113  0.0149
 1011SOL     OW14665   3.979   2.943   3.425  0.0699  0.3646 -0.7107
 1011SOL    HW114666   4.001   2.915   3.336  0.7861 -1.8532  0.1564
 1011SOL    HW214667   4.060   2.916   3.468  0.3516  0.3134 -1.2767
 1012SOL     OW14668   0.080   0.374   2.587 -0.2075  0.7016 -0.2783
 1012SOL    HW114669   0.069   0.330   2.672 -1.4559 -1.6793 -1.6714
 1012SOL    HW214670   4.729   0.373   2.557 -0.6326  2.0058  0.9296
 1013SOL     OW14671   1.415   1.152   5.226  0.5331  0.0215 -0.2347
 1013SOL    HW114672   1.447   1.156   5.316  2.6089 -1.9779 -0.8834
 1013SOL    HW214673   1.418   1.243   5.195  0.1522 -0.9883 -3.2673
 1014SOL     OW14674   1.804   0.495   2.641  0.2418  0.1284  0.0391
 1014SOL    HW114675   1.785   0.512   2.733  0.0781 -0.8982  0.1883
 1014SOL    HW214676   1.894   0.529   2.632 -0.5757  1.4951 -2.8934
 1015SOL     OW14677   0.580   1.252   1.695 -1.0371  0.1038  0.2253
 1015SOL    HW114678   0.613   1.341   1.705  1.0558 -0.3249 -2.9422
 1015SOL    HW214679   0.515   1.246   1.765 -3.0137 -0.1846 -1.6338
 1016SOL     OW14680   2.797   2.839  11.851 -0.2354 -0.3390  1.3687
 1016SOL    HW114681   2.790   2.751  11.812  2.0078  0.0171  0.1428
 1016SOL    HW214682   2.712   2.875  11.824 -0.0114  1.6576  3.3796
 1017SOL     OW14683   0.044   1.074   2.262  0.0573  0.3539  0.1873
 1017SOL    HW114684   0.104   1.142   2.230  1.0500 -0.6476 -0.0635
 1017SOL    HW214685   0.067   1.002   2.204 -1.3306 -0.0695  0.1699
 1018SOL     OW14686   0.477   4.279  11.331 -0.4285 -0.6779 -0.3362
 1018SOL    HW114687   0.557   4.320  11.365  0.6279 -2.3588 -0.8270
 1018SOL    HW214688   0.410   4.332  11.374 -0.5541 -1.0807 -0.0441
 1019SOL     OW14689   0.112   3.562   8.199 -0.0924  0.0530 -0.4325
 1019SOL    HW114690   0.112   3.603   8.113  0.5990  0.0483 -0.4332
 1019SOL    HW214691   0.206   3.550   8.210 -0.3422 -0.1879  1.5216
 1020SOL     OW14692   0.385   2.406  15.868  0.1108 -0.0767  0.0619
 1020SOL    HW114693   0.372   2.373  15.778 -2.0354  0.2916  0.2410
 1020SOL    HW214694   0.327   2.348  15.918  2.4473 -0.4750  2.2586
 1021SOL     OW14695   3.060   3.815   1.696 -0.0142 -0.3097 -0.1623
 1021SOL    HW114696   2.994   3.752   1.727 -1.0470  0.1852 -1.3658
 1021SOL    HW214697   3.144   3.774   1.716  0.3943 -0.3945 -2.1407
 1022SOL     OW14698   3.027   2.596   6.677 -0.1614  0.7536  0.1733
 1022SOL    HW114699   2.960   2.528   6.681  0.4043  0.1583 -0.4542
 1022SOL    HW214700   3.078   2.562   6.750 -0.3681 -1.1844 -0.5707
 1023SOL     OW14701   3.539   1.759  15.222 -0.1643  0.4129 -0.4756
 1023SOL    HW114702   3.459   1.785  15.177 -0.8166  1.1115  1.1095
 1023SOL    HW214703   3.602   1.800  15.163  0.0338  0.9551  0.1101
 1024SOL     OW14704   2.899   2.678   8.455 -0.1216  0.1226 -0.3267
 1024SOL    HW114705   2.992   2.691   8.439 -0.4257  3.3981  0.4867
 1024SOL    HW214706   2.885   2.766   8.492 -0.2672  0.2571 -0.6981
 1025SOL     OW14707   2.336   1.185   4.936 -0.3573  0.9024  0.0377
 1025SOL    HW114708   2.312   1.238   4.860 -0.0737  1.7305  0.5166
 1025SOL    HW214709   2.381   1.253   4.987  0.0172  0.6494  0.0380
 1026SOL     OW14710   2.684   1.654   7.307 -0.2055  0.3331 -0.2010
 1026SOL    HW114711   2.770   1.653   7.349  0.1760  1.1906 -0.9699
 1026SOL    HW214712   2.634   1.721   7.354 -2.3748 -1.6142  0.2757
 1027SOL     OW14713   0.872   0.606   2.681 -0.0873 -0.4700 -0.7348
 1027SOL    HW114714   0.889   0.577   2.770  0.4605 -0.4133 -0.8191
 1027SOL    HW214715   0.845   0.519   2.651  1.4985 -2.0070  2.3010
 1028SOL     OW14716   4.573   3.009   8.751 -0.1248 -0.4301  0.1206
 1028SOL    HW114717   4.632   3.030   8.824 -0.5516 -2.4707  1.0371
 1028SOL    HW214718   4.509   2.954   8.796 -2.8127  1.5047 -1.3457
 1029SOL     OW14719   2.907   1.384   6.492 -0.7662 -0.0844 -0.2270
 1029SOL    HW114720   2.957   1.395   6.411 -1.5309 -3.4645 -1.1940
 1029SOL    HW214721   2.828   1.432   6.466 -1.4841 -0.8855  0.4294
 1030SOL     OW14722   4.165   2.256   2.221  0.6029  0.8707 -0.1535
 1030SOL    HW114723   4.192   2.235   2.131  1.9042 -0.1065  0.4722
 1030SOL    HW214724   4.250   2.291   2.248  0.4996  1.5683 -0.7307
 1031SOL     OW14725   4.020   3.722   6.498 -0.1451  0.4958 -0.6656
 1031SOL    HW114726   3.979   3.790   6.551  0.2566  1.2566 -1.3247
 1031SOL    HW214727   4.021   3.646   6.556 -1.6268  1.3270  0.4448
 1032SOL     OW14728   3.609   3.407   9.617  0.2990 -0.2356  0.2971
 1032SOL    HW114729   3.521   3.392   9.652 -0.3603  1.9545 -0.4109
 1032SOL    HW214730   3.641   3.317   9.623  1.3274  0.0671 -0.7625
 1033SOL     OW14731   2.497   3.871   9.623 -0.2119  0.4439  0.0301
 1033SOL    HW114732   2.542   3.954   9.605 -0.8048  0.7144 -0.1843
 1033SOL    HW214733   2.508   3.860   9.717  1.5394 -0.4273 -0.2654
 1034SOL     OW14734   2.450   2.653   2.353 -0.3402  0.0809  0.8303
 1034SOL    HW114735   2.426   2.611   2.270 -0.0080  0.5753  0.4804
 1034SOL    HW214736   2.379   2.624   2.410 -1.2470 -0.4325 -0.5424
 1035SOL     OW14737   2.068   4.294   2.632 -0.1720  0.5652 -0.0523
 1035SOL    HW114738   1.974   4.305   2.617 -0.6413 -1.5845  1.2910
 1035SOL    HW214739   2.073   4.200   2.650 -2.2619  0.3340 -0.6866
 1036SOL     OW14740   4.023   2.413   9.820  0.0984  0.1544  0.0366
 1036SOL    HW114741   4.000   2.328   9.784  0.0595  1.1128 -2.1657
 1036SOL    HW214742   3.945   2.431   9.873  1.0731  1.0883  1.1699
 1037SOL     OW14743   0.449   3.152   2.662  0.5542 -0.1719  0.2867
 1037SOL    HW114744   0.362   3.120   2.686 -0.4955  1.5386 -1.1927
 1037SOL    HW214745   0.419   3.173   2.573 -1.4990 -1.2706  0.7247
 1038SOL     OW14746   1.047   1.603   6.163 -0.4336  0.4637 -0.3289
 1038SOL    HW114747   0.986   1.611   6.236 -0.4247 -2.3617  0.0090
 1038SOL    HW214748   1.033   1.511   6.140  2.0617  0.7664 -3.0988
 1039SOL     OW14749   2.796   3.700   6.980  0.1215 -0.3168  0.2415
 1039SOL    HW114750   2.785   3.764   7.050  3.9750  1.5046 -0.8026
 1039SOL    HW214751   2.891   3.701   6.965  0.0183  1.2409 -0.2997
 1040SOL     OW14752   0.957   2.415   1.956 -0.3743 -0.3139  0.3448
 1040SOL    HW114753   0.956   2.393   1.863 -0.1650 -1.5082  0.6206
 1040SOL    HW214754   0.917   2.337   1.994 -0.6980  0.9639  2.6694
 1041SOL     OW14755   4.112   4.180   7.859 -0.5350 -0.3450  0.1152
 1041SOL    HW114756   4.085   4.260   7.903 -0.6661 -0.7102  0.7107
 1041SOL    HW214757   4.108   4.213   7.770 -0.4016  2.3473  1.1263
 1042SOL     OW14758   3.198   2.340   2.574 -0.1529 -0.1791 -0.0490
 1042SOL    HW114759   3.142   2.296   2.638  2.0087 -1.6303  0.8671
 1042SOL    HW214760   3.262   2.269   2.571  0.4769  0.3511  0.8230
 1043SOL     OW14761   3.249   3.440   0.188 -0.0296  0.0072  0.3396
 1043SOL    HW114762   3.259   3.518   0.135 -1.0040  0.6544  1.0871
 1043SOL    HW214763   3.155   3.445   0.209  0.1103  0.3721  0.8703
 1044SOL     OW14764   1.589   4.738   8.691 -1.1580  0.9893 -0.2077
 1044SOL    HW114765   1.627   0.019   8.606 -1.7708 -0.4913 -0.8338
 1044SOL    HW214766   1.580   0.084   8.733  0.3700  1.2671 -0.4413
 1045SOL     OW14767   2.692   1.274   5.575 -0.3358 -0.1040 -0.0526
 1045SOL    HW114768   2.662   1.248   5.488 -3.4670 -1.2221  1.3588
 1045SOL    HW214769   2.761   1.209   5.594 -0.3448  0.0448  0.5089
 1046SOL     OW14770   3.921   1.075   8.973  0.3176 -0.5917  0.1410
 1046SOL    HW114771   3.873   1.070   8.890 -0.0014  4.3738 -0.0011
 1046SOL    HW214772   4.010   1.044   8.956 -0.0787 -2.0701  0.8329
 1047SOL     OW14773   1.061   1.930   4.823  0.0659 -0.0899  0.2254
 1047SOL    HW114774   0.992   1.946   4.888  1.5502 -3.6527  2.6318
 1047SOL    HW214775   1.017   1.970   4.747  1.9983  1.6982  0.0454
 1048SOL     OW14776   3.897   4.378   1.836 -0.1849 -0.4150 -0.0759
 1048SOL    HW114777   3.830   4.350   1.773 -0.6693 -0.5873  0.5092
 1048SOL    HW214778   3.899   4.472   1.820 -0.6924  0.0500  2.6823
 1049SOL     OW14779   2.372   1.313   8.337 -0.0354  0.5279  0.1868
 1049SOL    HW114780   2.293   1.260   8.326  0.3981 -0.0437 -0.2006
 1049SOL    HW214781   2.395   1.334   8.246  1.7429 -0.6540  0.3628
 1050SOL     OW14782   3.287   4.444   4.494  0.0646  0.6822 -0.1162
 1050SOL    HW114783   3.329   4.519   4.453 -0.2489  0.6006 -0.5894
 1050SOL    HW214784   3.259   4.400   4.414  1.5376 -2.1664  0.9090
 1051SOL     OW14785   0.531   1.251  12.404  0.3626  0.4448 -0.3048
 1051SOL    HW114786   0.567   1.177  12.355 -3.5926  0.0862 -2.7344
 1051SOL    HW214787   0.439   1.226  12.417  0.9908 -2.3341 -1.2163
 1052SOL     OW14788   4.553   3.578  16.340  0.0040  0.2108  0.1110
 1052SOL    HW114789   4.460   3.563  16.328  0.0192 -1.2012  1.8615
 1052SOL    HW214790   4.580   3.505  16.284  0.9547  1.0653 -0.5476
 1053SOL     OW14791   4.514   4.671   1.859  0.0145  1.3291  1.1849
 1053SOL    HW114792   4.523   4.626   1.943  0.0132  0.4530  0.7200
 1053SOL    HW214793   4.489   0.018   1.892  1.1164  2.4564 -0.9085
 1054SOL     OW14794   0.844   4.519   2.957  0.5277 -0.3324 -0.3697
 1054SOL    HW114795   0.764   4.522   2.903 -0.4017 -1.8817  0.9255
 1054SOL    HW214796   0.839   4.606   2.996  1.2871  0.6108 -2.3785
 1055SOL     OW14797   0.869   3.924   8.244  0.3225  0.3838  0.9806
 1055SOL    HW114798   0.839   3.995   8.301  1.4194  0.6780  1.1749
 1055SOL    HW214799   0.935   3.975   8.197  1.0625 -0.2414  1.3411
 1056SOL     OW14800   3.762   2.569  12.373 -0.3200 -0.4486 -0.1077
 1056SOL    HW114801   3.849   2.549  12.406  0.7545  1.2923 -1.8814
 1056SOL    HW214802   3.787   2.634  12.307  0.5474  0.3193  0.9883
 1057SOL     OW14803   3.474   1.080   1.357 -0.2207  0.0504 -0.1231
 1057SOL    HW114804   3.443   1.156   1.407  0.1319 -0.0375  0.2162
 1057SOL    HW214805   3.568   1.086   1.370 -0.2047  0.4733 -0.4285
 1058SOL     OW14806   1.806   0.402   1.972 -0.2660 -0.6931  0.2721
 1058SOL    HW114807   1.778   0.314   1.997 -0.6162 -0.4172  0.8421
 1058SOL    HW214808   1.792   0.399   1.877 -0.9608 -0.8925  0.3807
 1059SOL     OW14809   0.892   4.285   5.436 -0.4972  0.6275  0.0447
 1059SOL    HW114810   0.826   4.307   5.501 -1.2957 -0.1650 -0.5050
 1059SOL    HW214811   0.864   4.196   5.416  0.7761  0.6156 -1.7002
 1060SOL     OW14812   3.313   2.957   9.495  0.2357 -0.0461  0.1138
 1060SOL    HW114813   3.305   2.862   9.503 -1.4206  0.3698  3.4261
 1060SOL    HW214814   3.270   2.978   9.412  2.2880 -0.3562 -1.0398
 1061SOL     OW14815   2.450   1.717  16.736  0.0939  0.5215 -0.0080
 1061SOL    HW114816   2.453   1.813  16.728  0.3603  0.3963 -1.5215
 1061SOL    HW214817   2.357   1.697  16.749  0.5987 -2.3956 -0.9269
 1062SOL     OW14818   4.607   3.709   7.000  0.0723  0.4086 -0.3110
 1062SOL    HW114819   4.661   3.775   6.957  3.3979 -1.1606  1.4705
 1062SOL    HW214820   4.538   3.704   6.934 -1.8497  0.3815  1.6996
 1063SOL     OW14821   0.306   3.704   5.696 -0.6832  0.2363  0.6772
 1063SOL    HW114822   0.298   3.729   5.788 -1.0354 -1.3995  1.0903
 1063SOL    HW214823   0.355   3.782   5.668 -1.5248 -0.4372 -2.6632
 1064SOL     OW14824   2.927   2.148   4.669  0.1056 -0.0205 -0.1547
 1064SOL    HW114825   2.941   2.143   4.764  0.7326  0.4180 -0.2291
 1064SOL    HW214826   2.843   2.103   4.670 -0.0282  0.2507  0.7144
 1065SOL     OW14827   3.395   0.016   1.124  0.2575 -0.1066  0.9369
 1065SOL    HW114828   3.351   4.671   1.126 -1.5249  0.7445 -2.7417
 1065SOL    HW214829   3.365   0.065   1.201  1.5133  2.4474 -0.1617
 1066SOL     OW14830   1.684   1.860   7.040  0.0917  0.1214  0.2658
 1066SOL    HW114831   1.652   1.792   6.981  2.3236 -0.6832 -0.0156
 1066SOL    HW214832   1.760   1.890   6.991  0.3071 -0.5994  0.1675
 1067SOL     OW14833   0.700   3.167   7.461 -0.3521 -0.0907  0.2609
 1067SOL    HW114834   0.644   3.206   7.527 -2.0255 -1.0698 -0.6007
 1067SOL    HW214835   0.725   3.248   7.416  0.0574  1.7486  3.7778
 1068SOL     OW14836   3.637   4.230   2.103  0.2669 -0.0606 -0.1255
 1068SOL    HW114837   3.655   4.180   2.183  0.1252 -1.2646 -0.8404
 1068SOL    HW214838   3.720   4.278   2.100  0.4028 -0.4907 -2.8990
 1069SOL     OW14839   4.374   2.215   4.975 -0.3781 -0.5293 -0.2782
 1069SOL    HW114840   4.397   2.123   4.960 -2.0746 -1.1777  1.1108
 1069SOL    HW214841   4.427   2.231   5.053 -0.8356 -0.2449 -0.0309
 1070SOL     OW14842   3.990   1.855   8.935  0.2450 -0.2905  0.1325
 1070SOL    HW114843   4.016   1.820   8.850 -2.9087  0.9506 -1.3506
 1070SOL    HW214844   4.073   1.858   8.983  0.3922  2.0719 -0.2693
 1071SOL     OW14845   4.430   3.012   6.320 -0.1240  0.3181 -0.0790
 1071SOL    HW114846   4.501   2.985   6.261  0.4926 -0.6669  1.1081
 1071SOL    HW214847   4.351   2.978   6.278 -1.7289  1.0615  2.3647
 1072SOL     OW14848   0.024   2.742  14.993 -0.2824 -0.4001 -0.3760
 1072SOL    HW114849   0.005   2.708  14.906 -0.8686  0.8138 -0.7087
 1072SOL    HW214850   4.684   2.791  15.011 -0.3826 -0.2303 -1.3151
 1073SOL     OW14851   2.689   1.464   1.038  0.2079  0.2188  0.0905
 1073SOL    HW114852   2.716   1.384   1.083  2.5778  0.2654 -1.2575
 1073SOL    HW214853   2.769   1.515   1.049 -0.1845  1.3543 -2.2772
 1074SOL     OW14854   1.571   2.904   5.726  0.1244 -1.0080  0.0363
 1074SOL    HW114855   1.477   2.921   5.725  0.3326  0.1325 -0.9763
 1074SOL    HW214856   1.615   2.985   5.753 -0.3064 -0.9834  0.6565
 1075SOL     OW14857   3.710   3.400   3.584 -0.1320  0.0191 -0.4281
 1075SOL    HW114858   3.621   3.432   3.600 -0.3609  0.0496 -1.7005
 1075SOL    HW214859   3.694   3.327   3.524  0.5026 -1.3319  1.0504
 1076SOL     OW14860   0.860   4.710   8.359  0.7607  0.5728 -0.0152
 1076SOL    HW114861   0.849   0.055   8.315 -0.8095  0.5964  0.4156
 1076SOL    HW214862   0.903   4.661   8.288  0.4115  0.5098 -0.1821
 1077SOL     OW14863   4.467   3.517   6.775 -0.0076 -0.1200  0.8644
 1077SOL    HW114864   4.397   3.457   6.802  0.4210 -0.2080  1.7856
 1077SOL    HW214865   4.539   3.454   6.773 -0.2689 -0.4039  0.4248
 1078SOL     OW14866   2.162   4.404   6.947 -0.4350 -0.5391 -0.2892
 1078SOL    HW114867   2.181   4.458   7.024  1.2262 -0.7226 -0.5742
 1078SOL    HW214868   2.086   4.446   6.908  1.3596  0.6422 -2.4696
 1079SOL     OW14869   4.151   3.500   7.276  0.4715  0.1253 -0.1865
 1079SOL    HW114870   4.145   3.421   7.330 -0.9883  1.2272  1.2713
 1079SOL    HW214871   4.147   3.456   7.191  2.0502 -2.3308  1.0018
 1080SOL     OW14872   3.105   0.210   8.268  0.1819  0.1832  0.1035
 1080SOL    HW114873   3.024   0.208   8.217  0.5825  1.4341 -0.5966
 1080SOL    HW214874   3.146   0.285   8.224  1.3289 -0.7801 -0.4596
 1081SOL     OW14875   4.102   4.077  16.481  0.1071  0.6278  0.3543
 1081SOL    HW114876   4.174   4.024  16.514 -0.6202 -0.9302 -0.6204
 1081SOL    HW214877   4.120   4.155  16.534  1.7936  1.0155 -0.7804
 1082SOL     OW14878   1.468   0.537   8.221  0.0310 -0.2942 -0.1549
 1082SOL    HW114879   1.452   0.588   8.142  2.3079 -1.1816 -1.1723
 1082SOL    HW214880   1.498   0.610   8.274  1.7516  0.0311 -1.5950
 1083SOL     OW14881   4.585   4.383   2.980  0.6856 -0.2497  0.1811
 1083SOL    HW114882   4.527   4.347   2.913  0.5523  0.6165 -0.1771
 1083SOL    HW214883   4.525   4.411   3.049 -0.6393  1.7344 -1.7476
 1084SOL     OW14884   2.079   0.928   5.194 -0.7186 -0.0696 -0.4452
 1084SOL    HW114885   2.109   0.952   5.106  1.5481 -2.2214 -0.2702
 1084SOL    HW214886   1.983   0.931   5.194 -0.6919  0.7432 -2.1429
 1085SOL     OW14887   1.279   0.946   5.106 -0.1464 -0.8770 -0.2073
 1085SOL    HW114888   1.325   1.016   5.152 -0.0667 -0.2784 -1.1973
 1085SOL    HW214889   1.300   0.967   5.015  0.3675  0.1509  0.1532
 1086SOL     OW14890   1.918   0.330   5.980  0.3359  0.5074 -0.1017
 1086SOL    HW114891   1.945   0.249   6.022 -4.6016 -0.9980  0.1867
 1086SOL    HW214892   1.972   0.402   6.013  0.0813  2.0458 -2.9398
 1087SOL     OW14893   0.896   2.681  10.866 -0.0638 -0.4614  0.4263
 1087SOL    HW114894   0.945   2.693  10.948  0.4443 -0.3742  0.1145
 1087SOL    HW214895   0.888   2.586  10.867 -0.2563 -0.4534 -1.9582
 1088SOL     OW14896   2.409   2.781   4.173 -0.2656  0.3647 -0.3301
 1088SOL    HW114897   2.373   2.725   4.104  0.9564  0.5831 -1.1539
 1088SOL    HW214898   2.500   2.748   4.176  0.0094  1.0720 -1.1036
 1089SOL     OW14899   2.621   1.022   4.441  0.2522 -0.6670  0.2905
 1089SOL    HW114900   2.575   0.983   4.367  0.2331  0.4560 -0.3002
 1089SOL    HW214901   2.630   1.110   4.404 -1.2805 -1.0146 -0.8867
 1090SOL     OW14902   0.297   0.262   1.886  0.1384  0.0381 -0.3901
 1090SOL    HW114903   0.306   0.181   1.936 -1.0435  0.0125 -0.2033
 1090SOL    HW214904   0.305   0.221   1.800 -0.1199 -0.3128 -0.2495
 1091SOL     OW14905   4.181   0.953   6.471  0.3208  0.1465  0.1381
 1091SOL    HW114906   4.203   0.935   6.379  0.0159  0.2380  0.0488
 1091SOL    HW214907   4.086   0.949   6.473  0.2324  2.3810 -0.7908
 1092SOL     OW14908   3.838   4.526   6.104 -0.5714  0.0560 -0.0120
 1092SOL    HW114909   3.757   4.512   6.055 -1.0948 -0.4527  0.9985
 1092SOL    HW214910   3.900   4.484   6.044 -0.3275  0.2172  0.1291
 1093SOL     OW14911   0.697   4.573   6.456 -0.0770  0.1692 -0.4106
 1093SOL    HW114912   0.763   4.603   6.393  1.3267  0.7369  1.3223
 1093SOL    HW214913   0.681   4.659   6.494  3.5165  0.3589  0.7076
 1094SOL     OW14914   0.759   2.793   3.600 -0.0091  0.0814  0.5357
 1094SOL    HW114915   0.810   2.719   3.631 -1.7841 -1.3495  0.0191
 1094SOL    HW214916   0.698   2.754   3.537  0.3482 -0.8835  0.8053
 1095SOL     OW14917   1.333   1.371   2.797  0.0683 -0.1930  0.3743
 1095SOL    HW114918   1.284   1.356   2.878 -0.7352 -0.6738 -0.2017
 1095SOL    HW214919   1.311   1.288   2.755 -1.7377  0.4640  0.0458
 1096SOL     OW14920   4.127   1.525   0.188 -0.0878  0.0608 -0.3596
 1096SOL    HW114921   4.188   1.533   0.115 -1.8138  1.3442 -1.6636
 1096SOL    HW214922   4.142   1.601   0.245 -0.5575 -1.0249  1.2220
 1097SOL     OW14923   3.512   2.020  10.047 -0.0688 -0.4538  0.4724
 1097SOL    HW114924   3.577   2.040   9.980 -2.1925  0.1879 -1.3999
 1097SOL    HW214925   3.504   2.107  10.088  2.6981  0.4201 -0.8502
 1098SOL     OW14926   0.429   0.660  10.675 -0.4208 -0.6581 -0.0738
 1098SOL    HW114927   0.452   0.687  10.764  1.4996 -2.2379 -0.0979
 1098SOL    HW214928   0.440   0.737  10.620 -0.7289 -1.2644 -0.9778
 1099SOL     OW14929   3.595   2.730   7.305 -0.2160 -0.3398  0.0602
 1099SOL    HW114930   3.681   2.710   7.342 -0.0674 -0.7198 -0.4868
 1099SOL    HW214931   3.544   2.671   7.361  0.5635  0.4385  1.5755
 1100SOL     OW14932   2.548   2.893   5.992  0.2413 -0.0835  0.2956
 1100SOL    HW114933   2.571   2.927   6.079  1.3297  0.6241 -0.2740
 1100SOL    HW214934   2.461   2.855   6.000 -0.5508  1.9471  1.5911
 1101SOL     OW14935   0.833   0.281   7.416 -0.0268  0.2591 -0.3241
 1101SOL    HW114936   0.849   0.233   7.334 -2.2729 -1.3843  0.1906
 1101SOL    HW214937   0.751   0.328   7.401 -1.2218 -1.6209  0.1891
 1102SOL     OW14938   0.916   0.487   3.209 -0.3401 -0.9195 -0.0588
 1102SOL    HW114939   1.002   0.458   3.239  0.1218  0.3072 -0.1789
 1102SOL    HW214940   0.864   0.428   3.263  0.3903  0.0587  1.7263
 1103SOL     OW14941   4.194   3.655   3.303 -0.9908 -0.6627 -0.2236
 1103SOL    HW114942   4.153   3.596   3.365  2.4899 -2.5521  0.2509
 1103SOL    HW214943   4.122   3.717   3.293 -0.1452  0.3731  0.0998
 1104SOL     OW14944   0.298   4.727   1.967  0.5992 -0.1400  0.6478
 1104SOL    HW114945   0.338   4.640   1.970 -1.5891 -1.1390  0.5870
 1104SOL    HW214946   0.226   4.710   2.026 -0.8100  0.9214 -0.7565
 1105SOL     OW14947   3.178   3.147   2.288  0.2288 -0.1231  0.7458
 1105SOL    HW114948   3.096   3.140   2.239 -0.1826  1.0407  1.2648
 1105SOL    HW214949   3.212   3.058   2.290 -2.3411 -1.1058 -0.4843
 1106SOL     OW14950   3.747   1.065   5.803  0.1282 -0.3519  0.1246
 1106SOL    HW114951   3.796   1.039   5.880 -0.0571 -1.9867 -0.3096
 1106SOL    HW214952   3.824   1.081   5.748  1.5324 -1.0620  1.8748
 1107SOL     OW14953   1.810   3.810  15.106  0.1579  0.2133  0.1569
 1107SOL    HW114954   1.780   3.899  15.126  0.8466  0.1001  1.7026
 1107SOL    HW214955   1.748   3.763  15.162  1.1304 -0.9303  0.2789
 1108SOL     OW14956   2.009   2.962  10.744  0.0379 -0.1909 -0.0087
 1108SOL    HW114957   1.984   2.870  10.735 -0.2282 -0.1861  0.6923
 1108SOL    HW214958   2.031   2.984  10.654 -0.5074  0.9592  0.1432
 1109SOL     OW14959   1.222   2.068   1.260 -0.3492  1.1420 -0.2293
 1109SOL    HW114960   1.273   2.145   1.288 -0.8895  0.6491  2.1232
 1109SOL    HW214961   1.295   2.006   1.266 -0.2390  1.3863  0.9901
 1110SOL     OW14962   2.855   3.429   7.259 -0.4074  0.6922  0.2952
 1110SOL    HW114963   2.814   3.401   7.341 -3.0042 -4.4755 -2.7571
 1110SOL    HW214964   2.902   3.350   7.233 -0.4259  1.5006 -2.2473
 1111SOL     OW14965   2.615   2.438   6.440  0.3552  0.0985 -0.6984
 1111SOL    HW114966   2.594   2.524   6.404  3.2636  0.8615 -0.5474
 1111SOL    HW214967   2.710   2.430   6.443  0.4452  1.1607 -0.9030
 1112SOL     OW14968   1.771   0.402   4.078 -0.2753  0.1689  0.2226
 1112SOL    HW114969   1.865   0.416   4.064 -0.2327  0.8415  1.1532
 1112SOL    HW214970   1.755   0.322   4.028  0.0831 -0.6243  1.3720
 1113SOL     OW14971   2.940   3.039   6.207 -0.3994  0.1824 -0.1552
 1113SOL    HW114972   2.953   2.949   6.179 -0.1455 -0.0512  0.7018
 1113SOL    HW214973   3.000   3.083   6.147  1.2360  0.2155  1.5024
 1114SOL     OW14974   2.981   3.371   3.702  0.7185 -0.1285 -0.0308
 1114SOL    HW114975   3.016   3.286   3.675 -0.3377 -0.7604  0.5918
 1114SOL    HW214976   3.043   3.407   3.766 -0.2145  2.6586 -0.6826
 1115SOL     OW14977   0.063   2.043  13.469  0.2659 -0.4935 -0.3277
 1115SOL    HW114978   0.033   2.101  13.399  1.6815  1.4072  0.6627
 1115SOL    HW214979   4.722   1.991  13.475 -0.3430  0.9725  3.6498
 1116SOL     OW14980   4.032   1.950  15.311 -0.1380 -0.0875  0.0493
 1116SOL    HW114981   3.970   2.009  15.354  0.1438  0.7879 -0.7627
 1116SOL    HW214982   3.969   1.902  15.256  0.1382 -1.1873  0.6873
 1117SOL     OW14983   1.292   0.349   8.292  0.2136 -0.1007 -0.6795
 1117SOL    HW114984   1.311   0.283   8.225 -1.5787 -2.9738  1.5896
 1117SOL    HW214985   1.345   0.419   8.255 -0.6290  0.6066 -0.5612
 1118SOL     OW14986   3.688   2.128  14.451  0.1674  0.2549  0.0421
 1118SOL    HW114987   3.690   2.147  14.357  1.0907  0.5235  0.1178
 1118SOL    HW214988   3.735   2.204  14.486 -1.3844  0.7766  0.9728
 1119SOL     OW14989   1.403   4.612  10.969  0.1458 -0.3336 -0.1999
 1119SOL    HW114990   1.356   4.695  10.969  1.3477  0.3520 -0.8609
 1119SOL    HW214991   1.469   4.633  10.903  1.4535 -0.1544  1.1730
 1120SOL     OW14992   4.591   4.422   6.565  0.0853  0.0261  0.1594
 1120SOL    HW114993   4.637   4.490   6.515 -1.5269  1.1401  0.2123
 1120SOL    HW214994   4.592   4.461   6.652 -2.5481 -1.9441  1.0608
 1121SOL     OW14995   4.243   4.151  11.240  0.1085 -0.3941 -0.1488
 1121SOL    HW114996   4.273   4.238  11.216 -1.7086  0.2592 -0.0557
 1121SOL    HW214997   4.318   4.109  11.282  0.7018  2.5756  1.7875
 1122SOL     OW14998   3.256   3.420  14.330 -0.4473  0.1774 -0.0618
 1122SOL    HW114999   3.242   3.395  14.239  2.0343 -0.7996 -0.1561
 1122SOL    HW215000   3.169   3.391  14.359  0.1406 -0.6470  0.8601
 1123SOL     OW15001   1.893   2.898   7.786  0.6344 -0.3377  0.1076
 1123SOL    HW115002   1.951   2.906   7.710 -0.4110  1.7172 -0.4873
 1123SOL    HW215003   1.811   2.928   7.746 -0.4931 -0.9621  1.9558
 1124SOL     OW15004   3.634   0.355  13.342  0.4576  0.1942  0.0101
 1124SOL    HW115005   3.620   0.422  13.276 -1.0228  0.7618  0.9023
 1124SOL    HW215006   3.545   0.322  13.332  0.1566  0.9313  0.2943
 1125SOL     OW15007   4.437   0.631   3.540 -0.6468  0.0484  0.6484
 1125SOL    HW115008   4.438   0.723   3.515  3.2483  0.5218  2.6023
 1125SOL    HW215009   4.364   0.624   3.602  0.0413  1.7430  1.6393
 1126SOL     OW15010   3.367   2.359  17.179 -0.1526 -0.2784  0.1887
 1126SOL    HW115011   3.275   2.369  17.153 -0.2097  3.1868  1.7687
 1126SOL    HW215012   3.395   2.448  17.198 -0.8510  0.0910 -0.4981
 1127SOL     OW15013   1.323   0.167  10.635 -0.5529  0.1121 -0.3822
 1127SOL    HW115014   1.340   0.255  10.669 -0.3021  0.2303 -0.8049
 1127SOL    HW215015   1.353   0.175  10.544 -0.3115 -0.5615 -0.3599
 1128SOL     OW15016   2.880   1.851   3.595 -0.0369 -0.8320 -0.2075
 1128SOL    HW115017   2.873   1.854   3.690 -0.0587 -0.7444 -0.2122
 1128SOL    HW215018   2.885   1.755   3.587  1.0854 -0.8048  0.1896
 1129SOL     OW15019   0.833   2.900   4.588  0.6521  0.7094  0.0952
 1129SOL    HW115020   0.831   2.909   4.493  1.5215  3.3747  0.3421
 1129SOL    HW215021   0.831   2.804   4.597 -0.6487  0.8324  1.0843
 1130SOL     OW15022   1.528   4.709   4.640 -0.4632  0.2105  0.2858
 1130SOL    HW115023   1.607   0.023   4.643  0.5960 -1.3049 -0.5655
 1130SOL    HW215024   1.493   4.727   4.727  0.4401 -1.3640  0.9732
 1131SOL     OW15025   1.328   1.053   6.660 -0.0759 -0.4608  0.4289
 1131SOL    HW115026   1.283   1.063   6.744 -0.6894 -2.2303  0.3008
 1131SOL    HW215027   1.394   0.989   6.687 -0.9952 -2.5824 -2.4378
 1132SOL     OW15028   1.172   2.763   7.775 -0.0076 -0.0135 -0.3654
 1132SOL    HW115029   1.209   2.701   7.712 -0.6759 -1.9215  1.1038
 1132SOL    HW215030   1.081   2.757   7.747  0.0659  1.3694 -0.8693
 1133SOL     OW15031   1.795   2.332   6.614  0.6707 -0.1740  0.5832
 1133SOL    HW115032   1.703   2.341   6.641  0.6086 -1.3308  0.7517
 1133SOL    HW215033   1.800   2.237   6.627  0.0937 -0.6589 -2.6790
 1134SOL     OW15034   3.075   2.249   3.778  0.2006  0.3895  0.1520
 1134SOL    HW115035   2.999   2.200   3.809  0.1178 -0.0212 -0.6874
 1134SOL    HW215036   3.120   2.272   3.859  0.4285  0.8633 -0.1064
 1135SOL     OW15037   4.569   1.128  15.859  0.2031 -0.0357 -0.0281
 1135SOL    HW115038   4.573   1.033  15.854 -1.5225 -0.1587  1.0784
 1135SOL    HW215039   4.479   1.143  15.886  0.7417  3.0186  0.0381
 1136SOL     OW15040   0.269   0.865   4.805 -0.0852  0.4104 -0.2143
 1136SOL    HW115041   0.241   0.941   4.856  2.0370  0.5361  0.7529
 1136SOL    HW215042   0.311   0.812   4.873 -0.2383 -1.7891 -1.8277
 1137SOL     OW15043   4.090   0.057   7.094 -0.0160  0.0872 -0.6147
 1137SOL    HW115044   4.175   0.037   7.133 -0.2940 -1.9271 -1.0187
 1137SOL    HW215045   4.112   0.053   7.001  0.0524 -1.0570 -0.5463
 1138SOL     OW15046   3.798   0.044   8.323 -0.9025  0.2686 -1.1835
 1138SOL    HW115047   3.761   4.697   8.339  1.6055 -1.0844 -2.7544
 1138SOL    HW215048   3.732   0.074   8.261 -1.8414 -0.3781 -0.5019
 1139SOL     OW15049   2.854   0.703   4.038 -0.1799 -0.2039 -0.1853
 1139SOL    HW115050   2.805   0.782   4.016  0.0521 -0.5391 -1.8438
 1139SOL    HW215051   2.887   0.687   3.950 -0.7942 -1.4533 -0.1771
 1140SOL     OW15052   4.100   1.307   5.020  0.2315 -0.1747 -0.3062
 1140SOL    HW115053   4.028   1.358   5.058 -0.5213 -0.2032 -1.6864
 1140SOL    HW215054   4.082   1.322   4.927  2.5987  1.4335 -0.5083
 1141SOL     OW15055   4.497   2.144   1.671 -0.2063 -0.6106  0.2741
 1141SOL    HW115056   4.578   2.098   1.692  0.4823 -0.2269 -1.5116
 1141SOL    HW215057   4.463   2.084   1.604 -0.1696 -1.5413  1.0886
 1142SOL     OW15058   1.058   2.419   7.675 -0.1284 -0.1412 -0.2434
 1142SOL    HW115059   0.988   2.465   7.721  0.3528  1.7477 -1.3928
 1142SOL    HW215060   1.046   2.446   7.584 -0.2137 -1.9202 -0.7507
 1143SOL     OW15061   3.722   1.545   8.003  0.2423  0.4547 -0.3284
 1143SOL    HW115062   3.778   1.476   8.039 -0.9436 -0.9245 -1.1091
 1143SOL    HW215063   3.682   1.493   7.933 -1.6029 -1.9175  2.4686
 1144SOL     OW15064   0.981   0.452   6.719 -0.1572 -0.0679 -0.0511
 1144SOL    HW115065   1.034   0.385   6.763 -0.0404  0.1342  0.1183
 1144SOL    HW215066   1.041   0.527   6.714 -1.2141  0.9165  1.9280
 1145SOL     OW15067   4.489   0.119   7.859  0.0723  0.4671  0.2865
 1145SOL    HW115068   4.415   0.081   7.907 -1.4174  2.1264 -0.6738
 1145SOL    HW215069   4.450   0.203   7.836  0.3239  0.4536 -0.1923
 1146SOL     OW15070   3.315   2.268   8.079 -0.1084 -0.1309 -0.1610
 1146SOL    HW115071   3.238   2.288   8.025  0.0790  0.2205 -0.3017
 1146SOL    HW215072   3.330   2.348   8.129 -1.1037 -1.4091  2.1891
 1147SOL     OW15073   1.370   0.159   4.845 -0.1611  0.1675 -0.1646
 1147SOL    HW115074   1.380   0.216   4.769  0.5601  1.2669  0.7564
 1147SOL    HW215075   1.307   0.214   4.891  0.8148 -0.4668  1.9076
 1148SOL     OW15076   1.315   0.791  10.288  0.2377  0.3557 -0.4047
 1148SOL    HW115077   1.274   0.855  10.346  0.8152  3.0309 -2.9495
 1148SOL    HW215078   1.241   0.749  10.245  1.2764 -0.7753 -1.0983
 1149SOL     OW15079   1.556   4.714   2.239 -0.0976  0.4893 -0.0140
 1149SOL    HW115080   1.568   4.619   2.242 -0.5997  0.4085 -0.7838
 1149SOL    HW215081   1.572   4.738   2.331 -2.0177 -1.9976  0.9817
 1150SOL     OW15082   2.351   3.505   3.221 -0.0428 -0.2594  0.4819
 1150SOL    HW115083   2.269   3.474   3.182  2.5657 -3.3781 -2.5006
 1150SOL    HW215084   2.406   3.463   3.155  0.7098  1.5655 -0.0510
 1151SOL     OW15085   0.713   4.494   9.719 -0.6118 -0.3022  0.7047
 1151SOL    HW115086   0.646   4.512   9.653 -0.9578  0.8066  1.3437
 1151SOL    HW215087   0.733   4.401   9.720  0.5113 -0.0700  0.1968
 1152SOL     OW15088   4.133   0.668   6.611  0.2433 -0.4199 -0.0124
 1152SOL    HW115089   4.222   0.654   6.644 -0.2346 -0.7359  1.1513
 1152SOL    HW215090   4.105   0.577   6.600 -0.4640 -0.4579  2.1223
 1153SOL     OW15091   2.375   0.235   1.014  0.6991  0.5626 -0.0326
 1153SOL    HW115092   2.334   0.244   0.928  0.6674  2.4361  0.1734
 1153SOL    HW215093   2.428   0.315   1.014 -0.7536  1.5278  0.0161
 1154SOL     OW15094   1.012   0.844   5.482  0.7482 -0.3948 -0.6427
 1154SOL    HW115095   1.009   0.778   5.412 -0.4356 -1.5728  0.5148
 1154SOL    HW215096   1.047   0.923   5.442 -1.4557  2.4659  3.0992
 1155SOL     OW15097   0.584   4.192   8.854 -0.2635  0.1010  0.3472
 1155SOL    HW115098   0.626   4.192   8.940 -0.4436 -0.3324  0.4367
 1155SOL    HW215099   0.512   4.252   8.873 -1.6576 -1.5802  0.4148
 1156SOL     OW15100   2.905   4.513  12.482 -0.2673 -0.3105 -0.5725
 1156SOL    HW115101   2.997   4.537  12.479 -0.4055  0.3578  0.3954
 1156SOL    HW215102   2.893   4.515  12.577 -1.3181  1.4003 -0.7333
 1157SOL     OW15103   0.086   2.163  10.959  0.0029 -0.1526  0.7323
 1157SOL    HW115104   0.106   2.214  11.037 -0.8083  0.5305  0.4925
 1157SOL    HW215105   0.102   2.071  10.979  1.6895 -0.3423 -1.4534
 1158SOL     OW15106   2.380   3.769   9.111 -0.6534  0.2900  0.1769
 1158SOL    HW115107   2.455   3.813   9.151 -0.0560 -1.9055  1.4889
 1158SOL    HW215108   2.330   3.721   9.177  0.9511 -1.6168  0.0334
 1159SOL     OW15109   1.769   4.552   4.939 -0.1983  0.0700  0.4992
 1159SOL    HW115110   1.854   4.551   4.983  0.6266 -0.0713 -1.1129
 1159SOL    HW215111   1.709   4.582   5.007  0.9162 -0.7486  1.8659
 1160SOL     OW15112   4.035   3.082  12.784  0.2363  0.3396 -0.1782
 1160SOL    HW115113   4.090   3.028  12.840  0.5768 -0.2081 -1.0349
 1160SOL    HW215114   4.108   3.134  12.751 -0.6026  0.7746 -1.3770
 1161SOL     OW15115   3.024   2.135   2.314 -0.2778  0.5608 -0.3759
 1161SOL    HW115116   3.031   2.047   2.350 -2.3260  0.5861  0.0706
 1161SOL    HW215117   3.097   2.138   2.252  1.8362 -2.6178  1.9837
 1162SOL     OW15118   0.886   0.076   4.933 -0.3408 -0.2115  0.4292
 1162SOL    HW115119   0.882   0.171   4.923 -2.4053 -0.3761 -0.3237
 1162SOL    HW215120   0.827   0.052   4.862  0.4574 -1.3838  0.1481
 1163SOL     OW15121   3.862   0.030   6.229 -0.0380  0.9719  0.3885
 1163SOL    HW115122   3.859   4.678   6.198  1.7332  0.9819  0.2081
 1163SOL    HW215123   3.810   0.023   6.309  0.9447 -1.9723  0.7745
 1164SOL     OW15124   1.218   3.063   4.075 -0.7759 -0.0485 -0.2408
 1164SOL    HW115125   1.146   3.003   4.092 -1.7940  0.9135 -1.1237
 1164SOL    HW215126   1.223   3.077   3.980 -1.7681  0.8473 -0.1616
 1165SOL     OW15127   1.838   1.511   7.737 -0.4532 -0.1811  0.5607
 1165SOL    HW115128   1.809   1.451   7.806 -1.0649  1.6618  1.8961
 1165SOL    HW215129   1.888   1.583   7.776  0.1501  0.0848 -0.7044
 1166SOL     OW15130   3.771   0.784   6.198  0.3583  0.0166 -0.3155
 1166SOL    HW115131   3.797   0.760   6.109  1.5932  0.7830 -0.1525
 1166SOL    HW215132   3.700   0.720   6.208  2.1639 -1.6328  1.8992
 1167SOL     OW15133   4.648   0.121   8.895 -0.2246  0.0186  0.0726
 1167SOL    HW115134   4.622   0.145   8.806  0.5488  0.9252  0.0935
 1167SOL    HW215135   0.003   0.113   8.886 -0.3830 -1.8988  0.2320
 1168SOL     OW15136   1.182   1.248   9.300 -0.1626 -0.3176  0.6617
 1168SOL    HW115137   1.268   1.287   9.285  0.4768 -1.7766  0.5069
 1168SOL    HW215138   1.198   1.203   9.383 -1.2709 -0.6386  0.7093
 1169SOL     OW15139   0.387   2.664   9.080  0.0581  0.1141  0.1204
 1169SOL    HW115140   0.342   2.709   9.152  0.3002 -3.3208  2.3860
 1169SOL    HW215141   0.413   2.577   9.108 -0.2178  0.0002  0.0246
 1170SOL     OW15142   3.514   3.874  16.740 -0.2983  0.0343 -0.0045
 1170SOL    HW115143   3.498   3.926  16.661 -1.1440 -2.0918 -1.2301
 1170SOL    HW215144   3.609   3.883  16.740 -0.0593 -2.5679  0.6541
 1171SOL     OW15145   0.690   2.129  13.962 -0.3832  0.3321  0.4508
 1171SOL    HW115146   0.706   2.143  13.868 -1.6242 -1.1370  0.0204
 1171SOL    HW215147   0.606   2.173  13.972 -2.0710 -2.6918 -0.3276
 1172SOL     OW15148   2.412   1.727   3.945 -1.0503  0.6633 -0.4691
 1172SOL    HW115149   2.337   1.679   3.909  0.8272 -2.7242  0.1670
 1172SOL    HW215150   2.421   1.680   4.027  3.6295  1.4152 -0.5731
 1173SOL     OW15151   2.246   0.502   1.899 -0.3338 -0.3774 -0.3654
 1173SOL    HW115152   2.171   0.532   1.847  0.0676 -1.8220 -1.7809
 1173SOL    HW215153   2.202   0.438   1.955 -0.2396  1.8927  2.3203
 1174SOL     OW15154   1.142   2.235   6.466 -0.0209  0.0256  0.9774
 1174SOL    HW115155   1.077   2.173   6.434  0.2475  0.0390  0.4041
 1174SOL    HW215156   1.209   2.221   6.398 -1.7935 -0.6259 -0.6319
 1175SOL     OW15157   1.478   3.989  11.277  0.1601  0.3903  0.7197
 1175SOL    HW115158   1.508   4.012  11.365  0.8939 -1.2954  0.9017
 1175SOL    HW215159   1.484   4.072  11.229  0.2266  0.2303  0.4467
 1176SOL     OW15160   2.394   3.430   7.702 -0.9586 -0.5560 -0.8294
 1176SOL    HW115161   2.405   3.473   7.787 -2.2924  1.2087 -1.5617
 1176SOL    HW215162   2.432   3.489   7.636 -0.8566  0.9532  0.5797
 1177SOL     OW15163   0.282   3.708   8.407 -0.6940 -0.1840 -0.1181
 1177SOL    HW115164   0.203   3.757   8.384 -0.4390  0.0946 -0.4006
 1177SOL    HW215165   0.248   3.627   8.446 -0.3499 -0.2565  0.0344
 1178SOL     OW15166   2.671   3.595  10.989 -0.0945 -0.0896  0.2667
 1178SOL    HW115167   2.665   3.614  10.896  1.0803 -1.1941 -0.0435
 1178SOL    HW215168   2.617   3.667  11.022 -1.3724 -1.2547  0.7499
 1179SOL     OW15169   0.104   1.941   8.884  0.2862  0.1432  0.6114
 1179SOL    HW115170   0.132   2.032   8.883  0.4479  0.0487 -2.6738
 1179SOL    HW215171   0.187   1.898   8.903 -0.5852 -2.6135 -1.7520
 1180SOL     OW15172   1.094   2.185   9.249  0.3077  0.7711 -0.0198
 1180SOL    HW115173   1.000   2.193   9.234  0.5031  2.1307 -0.4614
 1180SOL    HW215174   1.112   2.092   9.265 -3.0811  0.3645  1.4588
 1181SOL     OW15175   0.388   2.795   7.321 -0.6234  0.6516 -0.3179
 1181SOL    HW115176   0.482   2.776   7.317 -1.0095 -1.7467  2.5508
 1181SOL    HW215177   0.392   2.879   7.275 -1.8027 -0.0967 -1.7964
 1182SOL     OW15178   1.465   2.320  14.303 -0.7056 -0.0490 -0.2652
 1182SOL    HW115179   1.399   2.361  14.359 -2.2291  1.0078 -2.8566
 1182SOL    HW215180   1.447   2.226  14.308  2.5717 -0.4902  3.4631
 1183SOL     OW15181   0.097   1.406   9.366  0.4415  0.0711 -0.1906
 1183SOL    HW115182   0.185   1.374   9.387  0.9343  2.0069  0.6971
 1183SOL    HW215183   0.125   1.482   9.314  3.3884 -0.4297  0.6359
 1184SOL     OW15184   3.022   0.145   1.942  0.2075 -0.1374  0.9608
 1184SOL    HW115185   2.947   0.131   2.000 -0.6428 -0.0217 -0.1148
 1184SOL    HW215186   3.044   0.238   1.930 -0.3189 -0.0766  0.4325
 1185SOL     OW15187   0.037   1.332   7.429  0.0271  0.2257 -0.2139
 1185SOL    HW115188   0.005   1.330   7.339 -3.2347  0.7311  0.9627
 1185SOL    HW215189   4.698   1.342   7.483 -0.4103 -0.7685 -0.6736
 1186SOL     OW15190   1.766   1.878  11.622 -0.6483 -0.3124 -0.1158
 1186SOL    HW115191   1.772   1.945  11.554  0.4777 -0.2227  0.0635
 1186SOL    HW215192   1.845   1.825  11.611  0.4174  0.5808  3.0736
 1187SOL     OW15193   1.636   0.990  13.019 -0.2134  0.2425 -0.2275
 1187SOL    HW115194   1.684   1.070  13.041 -1.0073  0.6015  0.1730
 1187SOL    HW215195   1.555   1.032  12.991  0.2908  1.1084 -0.3794
 1188SOL     OW15196   2.474   2.962  16.294 -0.2577 -0.5376 -0.2646
 1188SOL    HW115197   2.459   2.900  16.366 -0.6892  1.1364  1.1088
 1188SOL    HW215198   2.407   3.027  16.319  2.0086  1.6226  0.2162
 1189SOL     OW15199   0.500   2.089   1.599 -0.3175  0.0742 -0.1469
 1189SOL    HW115200   0.475   2.103   1.507 -3.3356 -0.9914  0.4895
 1189SOL    HW215201   0.582   2.135   1.610 -1.1581  2.0589 -2.3314
 1190SOL     OW15202   2.371   4.677  12.009  0.6073 -0.0015 -0.8246
 1190SOL    HW115203   2.420   4.666  12.091  0.1626 -0.8675 -0.6764
 1190SOL    HW215204   2.445   4.687  11.949  0.9095 -0.0355 -0.4548
 1191SOL     OW15205   0.516   2.115   1.334 -0.1937 -0.4347 -0.0679
 1191SOL    HW115206   0.594   2.061   1.316 -0.2481 -0.5334 -0.0082
 1191SOL    HW215207   0.492   2.139   1.244 -1.3712  0.1998  0.4202
 1192SOL     OW15208   1.685   2.651   8.668 -0.6498 -0.1971  0.0484
 1192SOL    HW115209   1.749   2.681   8.603 -2.2811  0.6135 -1.1784
 1192SOL    HW215210   1.728   2.566   8.680  1.4507  0.6456 -1.4686
 1193SOL     OW15211   4.462   2.931   2.737 -0.8230  0.1802 -0.2844
 1193SOL    HW115212   4.490   2.840   2.747 -2.8662 -0.0082  3.3274
 1193SOL    HW215213   4.380   2.923   2.785 -0.3767  1.0721  0.6385
 1194SOL     OW15214   3.265   1.869   6.446 -0.1585 -0.1934 -0.9468
 1194SOL    HW115215   3.288   1.933   6.513 -0.6763 -2.7132  1.6777
 1194SOL    HW215216   3.208   1.922   6.391 -1.5911  1.0990  1.7723
 1195SOL     OW15217   1.096   4.620  10.812  0.1696  0.4612 -0.1566
 1195SOL    HW115218   1.011   4.621  10.767  0.9982 -3.1928 -1.8402
 1195SOL    HW215219   1.153   4.625  10.735 -0.5988  2.0709 -0.6086
 1196SOL     OW15220   4.099   1.142  10.133  0.1514  0.4032  0.2619
 1196SOL    HW115221   4.049   1.171  10.057  1.0622 -0.2892 -0.6062
 1196SOL    HW215222   4.158   1.217  10.133  0.1127  0.4339  0.1477
 1197SOL     OW15223   0.512   3.701  16.818  0.0388  0.1724  0.1790
 1197SOL    HW115224   0.500   3.796  16.810  1.0048  0.3443  0.8364
 1197SOL    HW215225   0.524   3.683  16.724  0.3753  2.1464 -0.1711
 1198SOL     OW15226   2.537   3.304   9.211  0.0984 -0.6196 -0.2737
 1198SOL    HW115227   2.446   3.319   9.187  0.6608 -0.1284 -2.1208
 1198SOL    HW215228   2.529   3.212   9.237 -1.7077  0.1745  1.9691
 1199SOL     OW15229   2.250   2.182   7.214  0.3884  0.2415 -0.6683
 1199SOL    HW115230   2.157   2.163   7.205  0.7801 -1.5987 -0.7464
 1199SOL    HW215231   2.251   2.270   7.176 -1.3528  0.9675  0.9881
 1200SOL     OW15232   0.960   3.410   6.902  0.1498 -0.3107  0.6940
 1200SOL    HW115233   0.964   3.480   6.967 -0.5323 -0.6007  1.0453
 1200SOL    HW215234   1.050   3.416   6.867 -0.1448  0.3598  0.0471
 1201SOL     OW15235   0.441   1.381   6.666 -0.0084 -0.1070 -0.3999
 1201SOL    HW115236   0.475   1.465   6.637 -0.2346  0.8483  2.0364
 1201SOL    HW215237   0.511   1.325   6.634  0.6681  0.8127 -0.5316
 1202SOL     OW15238   1.234   1.611   4.239  0.0304  0.0863  0.8829
 1202SOL    HW115239   1.198   1.532   4.199  0.1205 -0.0635  1.0962
 1202SOL    HW215240   1.326   1.584   4.239 -0.5221 -1.8312  1.8751
 1203SOL     OW15241   3.545   3.085   2.723  0.0127 -0.4078  0.0179
 1203SOL    HW115242   3.577   3.140   2.652 -1.7798  2.5058  1.4759
 1203SOL    HW215243   3.570   3.140   2.796  0.1125  1.5618 -1.4977
 1204SOL     OW15244   2.613   0.787   3.780  0.0885 -0.3584  0.0221
 1204SOL    HW115245   2.582   0.743   3.859  0.2928  0.0171  0.3130
 1204SOL    HW215246   2.561   0.745   3.712 -1.4656 -0.7278  1.4230
 1205SOL     OW15247   4.563   3.525  10.725 -0.1312 -0.1858  0.2995
 1205SOL    HW115248   4.582   3.537  10.818 -0.0477  0.9591  0.1339
 1205SOL    HW215249   4.646   3.485  10.697 -0.0184  2.3224 -2.9627
 1206SOL     OW15250   2.866   2.456  12.527  0.4965 -0.0349  0.0024
 1206SOL    HW115251   2.913   2.381  12.563  1.7929 -0.0224 -1.6686
 1206SOL    HW215252   2.781   2.412  12.536  0.9540 -0.6678  1.2542
 1207SOL     OW15253   2.290   2.003   6.427  0.1582 -0.6151  0.5064
 1207SOL    HW115254   2.307   2.026   6.519  2.8448  0.0031 -0.1549
 1207SOL    HW215255   2.370   2.022   6.378  0.2336  2.0228  1.6746
 1208SOL     OW15256   4.668   2.150   3.220 -0.3019 -0.3261  0.4889
 1208SOL    HW115257   4.616   2.079   3.182  0.4639 -0.9918  0.6861
 1208SOL    HW215258   4.663   2.120   3.311  0.2082 -0.8621  0.3327
 1209SOL     OW15259   4.477   3.256   8.324 -0.6480 -0.1709  0.5522
 1209SOL    HW115260   4.532   3.236   8.248 -1.2485  0.7860 -0.1281
 1209SOL    HW215261   4.435   3.171   8.341 -0.3141 -0.5518 -0.5289
 1210SOL     OW15262   1.686   3.003  17.314 -0.1882  0.0042  0.5569
 1210SOL    HW115263   1.730   3.087  17.298  0.5991 -0.5042  0.0590
 1210SOL    HW215264   1.637   2.984  17.234 -1.4828 -4.1129  2.3348
 1211SOL     OW15265   3.529   2.874   9.749  0.0991 -0.4093 -0.3078
 1211SOL    HW115266   3.606   2.846   9.799 -0.2241 -0.8366 -0.0468
 1211SOL    HW215267   3.485   2.926   9.816 -0.3426  1.3122 -1.9407
 1212SOL     OW15268   1.694   2.870   3.231 -0.0007  0.0143  0.1322
 1212SOL    HW115269   1.640   2.923   3.290 -3.1776 -2.3276 -0.6587
 1212SOL    HW215270   1.777   2.915   3.244 -0.1649  0.3499  0.0403
 1213SOL     OW15271   3.727   1.858   8.673 -0.2587 -0.1097  0.5075
 1213SOL    HW115272   3.670   1.870   8.749 -1.2089  0.4867 -0.3112
 1213SOL    HW215273   3.818   1.869   8.701 -0.0347 -2.5705  0.7457
 1214SOL     OW15274   1.161   4.404   5.754  0.3478  0.0953 -0.6296
 1214SOL    HW115275   1.161   4.360   5.669 -0.6874 -1.6768  0.2982
 1214SOL    HW215276   1.235   4.464   5.744  0.0874  0.5613  0.2758
 1215SOL     OW15277   3.584   4.657   4.512  0.0801  0.2181  0.3780
 1215SOL    HW115278   3.589   0.012   4.527  0.6502  0.3243 -0.4680
 1215SOL    HW215279   3.520   4.659   4.441  0.8603 -2.7578 -0.4065
 1216SOL     OW15280   1.161   1.395   1.973  0.6864  0.2111  0.0867
 1216SOL    HW115281   1.122   1.330   1.914 -0.0231  0.1276  0.6517
 1216SOL    HW215282   1.251   1.363   1.986  0.0022 -2.1901 -1.0456
 1217SOL     OW15283   0.963   4.300   2.310 -0.5256  0.9395 -0.4146
 1217SOL    HW115284   0.934   4.209   2.298 -0.5499  0.8109  0.6460
 1217SOL    HW215285   0.904   4.324   2.382 -1.3277 -0.9752 -0.4404
 1218SOL     OW15286   3.465   1.559   2.868 -0.3980  0.0245  0.2297
 1218SOL    HW115287   3.422   1.475   2.884 -1.5211  0.4282 -0.6600
 1218SOL    HW215288   3.469   1.555   2.772 -0.2786 -2.4457  0.3381
 1219SOL     OW15289   3.054   3.703   9.600  0.0437 -0.0004  0.4372
 1219SOL    HW115290   3.129   3.721   9.543 -0.4383 -0.4289 -0.3260
 1219SOL    HW215291   3.105   3.688   9.680  1.7479 -0.7849 -0.7963
 1220SOL     OW15292   2.144   2.966  10.483  0.3445 -0.0631 -0.4595
 1220SOL    HW115293   2.227   3.004  10.511  0.0769  0.1778  0.0006
 1220SOL    HW215294   2.182   2.898  10.427 -0.9861 -0.7284 -0.5561
 1221SOL     OW15295   2.467   0.882   1.986 -0.3417  0.1817  0.1999
 1221SOL    HW115296   2.398   0.824   2.016 -0.4598 -0.9891 -2.3680
 1221SOL    HW215297   2.425   0.968   1.994 -0.9070 -0.1829  1.1615
 1222SOL     OW15298   2.816   0.888   8.125 -0.1566 -0.2022 -0.5128
 1222SOL    HW115299   2.860   0.870   8.042  1.8239  0.7363  0.3318
 1222SOL    HW215300   2.895   0.912   8.175 -1.0280  1.1215  0.2361
 1223SOL     OW15301   3.725   2.332  16.582 -0.0458 -0.2657 -0.3677
 1223SOL    HW115302   3.764   2.296  16.502  0.9140  1.7805 -0.8407
 1223SOL    HW215303   3.655   2.387  16.546 -1.6046 -0.9426  1.6676
 1224SOL     OW15304   4.522   4.668   5.162 -0.0683 -0.1447  0.6263
 1224SOL    HW115305   4.586   4.620   5.214 -2.2110  0.6093  3.9513
 1224SOL    HW215306   4.525   0.011   5.210 -1.4557 -0.8640  1.9557
 1225SOL     OW15307   3.910   0.859   4.700 -0.3843 -0.0403  0.0194
 1225SOL    HW115308   3.957   0.900   4.627 -0.1305 -0.5390 -0.0928
 1225SOL    HW215309   3.971   0.855   4.773 -1.1288  0.2779  0.6616
 1226SOL     OW15310   3.441   3.984   2.794 -0.0314 -0.7557  0.5401
 1226SOL    HW115311   3.380   3.920   2.758 -1.5978  1.0487 -0.0450
 1226SOL    HW215312   3.487   3.934   2.861  0.6870 -0.2779  0.4044
 1227SOL     OW15313   1.129   4.507   5.232 -0.1639  0.0894  0.8733
 1227SOL    HW115314   1.100   4.422   5.201 -1.9068  0.8204  0.4830
 1227SOL    HW215315   1.071   4.569   5.187  1.3385  1.6269  1.0915
 1228SOL     OW15316   4.097   0.294   5.585 -0.5783  0.2133 -0.2247
 1228SOL    HW115317   4.173   0.349   5.563 -0.7395  1.2731  1.8886
 1228SOL    HW215318   4.140   0.220   5.627 -1.1540  0.8738  1.5022
 1229SOL     OW15319   2.710   0.625   7.977  0.0743 -0.1475 -0.4331
 1229SOL    HW115320   2.686   0.712   8.008 -0.0620 -1.4619  3.2034
 1229SOL    HW215321   2.622   0.595   7.954 -1.1031  2.4385  0.6931
 1230SOL     OW15322   4.685   3.696   2.977  0.3962  0.4674 -0.3797
 1230SOL    HW115323   4.628   3.621   2.993 -0.5568  1.8229  2.7069
 1230SOL    HW215324   0.022   3.647   2.946  0.7557  0.5105  0.4257
 1231SOL     OW15325   1.412   0.307   6.596  0.0867  0.8798 -0.8971
 1231SOL    HW115326   1.483   0.262   6.550 -1.6882 -2.5244 -0.3366
 1231SOL    HW215327   1.364   0.229   6.625 -0.2238  1.6313  0.5816
 1232SOL     OW15328   3.086   0.247  13.222  0.0874  0.2707 -0.4209
 1232SOL    HW115329   3.150   0.277  13.158 -0.6089  1.8972 -0.3439
 1232SOL    HW215330   3.139   0.188  13.276 -1.3263 -0.8424 -0.2497
 1233SOL     OW15331   0.756   0.865   3.671 -0.4540  0.8559 -0.2874
 1233SOL    HW115332   0.735   0.781   3.711  0.4828  0.8351  0.1665
 1233SOL    HW215333   0.804   0.901   3.746  0.8062 -0.0458 -0.6649
 1234SOL     OW15334   3.098   2.232   4.448 -0.3096  0.3968  0.5856
 1234SOL    HW115335   3.039   2.207   4.519  0.2103 -2.1559  0.1180
 1234SOL    HW215336   3.089   2.327   4.451  0.9619  0.5438 -0.2957
 1235SOL     OW15337   1.695   1.290   8.476 -0.2209 -0.7724  0.0755
 1235SOL    HW115338   1.617   1.282   8.530  0.9231  1.3498  2.0463
 1235SOL    HW215339   1.758   1.319   8.542 -0.3546  0.0424 -0.1532
 1236SOL     OW15340   1.142   0.922   0.304 -0.2174 -0.3471  0.1026
 1236SOL    HW115341   1.084   0.873   0.362 -1.2320  0.5176 -0.1648
 1236SOL    HW215342   1.128   0.870   0.225  1.1083  0.5273 -0.7052
 1237SOL     OW15343   3.329   3.885   4.291  0.2028  0.1987  0.0789
 1237SOL    HW115344   3.264   3.953   4.276 -0.3157 -0.0482  1.1851
 1237SOL    HW215345   3.350   3.849   4.205 -1.1748  0.3353 -0.3043
 1238SOL     OW15346   2.547   2.423   3.645  0.2223 -0.1135  0.0442
 1238SOL    HW115347   2.528   2.377   3.727 -0.0727 -1.5447 -0.8201
 1238SOL    HW215348   2.470   2.479   3.648  1.5788  1.7735 -0.8393
 1239SOL     OW15349   1.735   2.346   1.210  0.1149  0.3503  0.0367
 1239SOL    HW115350   1.764   2.345   1.119 -0.7537 -1.3966 -0.2214
 1239SOL    HW215351   1.752   2.438   1.228  1.1864  0.0340  0.6708
 1240SOL     OW15352   4.479   3.628   6.483  0.6322  0.4909  0.4392
 1240SOL    HW115353   4.544   3.559   6.492 -1.4968 -1.6703 -0.5766
 1240SOL    HW215354   4.504   3.682   6.558  0.3714 -1.1131  1.7063
 1241SOL     OW15355   4.245   1.474   6.502  0.0442 -0.1708 -0.6345
 1241SOL    HW115356   4.199   1.553   6.473 -0.1794 -0.2354 -0.4572
 1241SOL    HW215357   4.252   1.502   6.593 -3.4933 -0.4554 -0.2818
 1242SOL     OW15358   2.521   3.070   2.865  0.0021  0.2577  0.1253
 1242SOL    HW115359   2.512   2.983   2.903 -1.1482  0.1764 -0.3390
 1242SOL    HW215360   2.600   3.060   2.812 -0.3334  0.5091 -0.4322
 1243SOL     OW15361   1.359   0.148   7.994 -0.5232  0.4797  0.2000
 1243SOL    HW115362   1.388   0.088   7.925 -0.8760 -0.6503  1.0306
 1243SOL    HW215363   1.321   0.212   7.935  1.1381  0.8716 -0.4427
 1244SOL     OW15364   0.048   1.992  12.701 -0.0823 -0.2316 -0.5026
 1244SOL    HW115365   0.139   1.964  12.692 -0.9194 -3.0085 -0.3620
 1244SOL    HW215366   0.055   2.085  12.721 -1.1755 -0.3703  0.5592
 1245SOL     OW15367   2.988   1.512   7.655  0.7053  0.3640 -0.6983
 1245SOL    HW115368   2.988   1.416   7.652  2.2339  0.3612 -0.2266
 1245SOL    HW215369   3.072   1.530   7.697  0.0227 -1.5479  1.5337
 1246SOL     OW15370   2.006   2.518   4.066  0.0470 -0.0830 -0.1254
 1246SOL    HW115371   2.094   2.481   4.056 -0.4442 -1.5104  0.8140
 1246SOL    HW215372   1.953   2.470   4.002 -2.1876  1.4048  0.6057
 1247SOL     OW15373   0.554   0.292  14.895  0.1942 -0.0020  0.0036
 1247SOL    HW115374   0.563   0.318  14.803  0.3502  0.5297  0.1692
 1247SOL    HW215375   0.572   0.199  14.901  3.8049  0.5581 -2.1326
 1248SOL     OW15376   4.570   2.919   7.928  0.2504 -0.2652  0.0852
 1248SOL    HW115377   4.484   2.882   7.907  0.4742  0.6295 -2.4608
 1248SOL    HW215378   4.603   2.841   7.972  1.3366 -0.6890 -1.5114
 1249SOL     OW15379   1.424   0.573   6.445  0.3414 -0.1837  0.2235
 1249SOL    HW115380   1.487   0.636   6.481  1.5938 -0.4278 -1.5121
 1249SOL    HW215381   1.458   0.497   6.492  0.5739  0.6214  1.3637
 1250SOL     OW15382   3.423   3.741  11.244  0.3155  0.4868  0.1104
 1250SOL    HW115383   3.452   3.690  11.319  1.0483  0.5194 -0.1512
 1250SOL    HW215384   3.328   3.731  11.243  0.4574 -1.0494  2.7070
 1251SOL     OW15385   0.912   4.539   1.836 -0.3143  0.4414 -0.3081
 1251SOL    HW115386   0.956   4.604   1.891  0.7467  0.6047 -1.3440
 1251SOL    HW215387   0.868   4.491   1.907 -0.3278  2.8186  1.2834
 1252SOL     OW15388   1.837   4.262   5.922 -0.4049 -0.0695  0.3767
 1252SOL    HW115389   1.815   4.190   5.982  0.4342 -1.9736 -1.5989
 1252SOL    HW215390   1.931   4.254   5.937 -0.5411 -3.5203 -0.4809
 1253SOL     OW15391   4.441   2.039   2.503 -0.1379 -0.3174 -0.1808
 1253SOL    HW115392   4.349   2.063   2.513  0.2947  0.9973  0.7217
 1253SOL    HW215393   4.481   2.122   2.477 -0.2840 -0.8423 -2.1013
 1254SOL     OW15394   2.602   0.117   9.374 -0.0324  0.5696 -0.3363
 1254SOL    HW115395   2.575   0.170   9.299 -1.1270  1.1056  0.4402
 1254SOL    HW215396   2.529   0.129   9.435  0.4971 -1.5575  0.7253
 1255SOL     OW15397   2.808   3.776   7.433 -0.0876 -0.0550 -0.3516
 1255SOL    HW115398   2.872   3.757   7.364 -1.0609  2.9462 -2.1148
 1255SOL    HW215399   2.745   3.825   7.381  1.5563  1.7149 -0.6942
 1256SOL     OW15400   1.284   2.342   1.249 -0.0829  0.0850 -0.1840
 1256SOL    HW115401   1.323   2.385   1.325  1.1267 -3.1514  1.0339
 1256SOL    HW215402   1.195   2.325   1.279 -0.2454  1.7065  0.2084
 1257SOL     OW15403   3.371   4.656   8.882  0.4655 -1.1830 -0.9440
 1257SOL    HW115404   3.283   4.633   8.913 -0.0924 -1.2182 -2.5596
 1257SOL    HW215405   3.419   4.683   8.960  1.3821  0.5688 -2.1376
 1258SOL     OW15406   1.707   1.249   5.236  0.1600  0.1678  0.5699
 1258SOL    HW115407   1.760   1.326   5.259 -0.9904  1.3880 -0.8964
 1258SOL    HW215408   1.639   1.249   5.303  1.4618 -0.2205  1.9215
 1259SOL     OW15409   4.622   1.403   6.116  0.3196  0.1472  0.2038
 1259SOL    HW115410   4.583   1.363   6.194 -0.7625  0.1465 -0.3439
 1259SOL    HW215411   4.660   1.321   6.085  0.6736  1.1868 -2.0672
 1260SOL     OW15412   1.114   3.551  11.120 -0.2857 -0.5968 -0.0294
 1260SOL    HW115413   1.182   3.564  11.054 -0.8458  0.8749 -0.3179
 1260SOL    HW215414   1.142   3.608  11.192 -0.7608  0.3966 -0.6299
 1261SOL     OW15415   1.440   3.136  12.160 -0.4313 -0.3015 -0.1547
 1261SOL    HW115416   1.488   3.070  12.111 -1.9207 -1.6445  0.2036
 1261SOL    HW215417   1.441   3.207  12.096 -0.7105  0.3231  0.5340
 1262SOL     OW15418   4.411   3.702   7.800 -0.2855 -1.0927  0.3482
 1262SOL    HW115419   4.470   3.627   7.807 -0.0549 -0.9938 -0.5358
 1262SOL    HW215420   4.431   3.746   7.882  0.9895  0.2809 -0.7121
 1263SOL     OW15421   4.428   3.499  15.328 -0.3910 -0.0397 -0.2654
 1263SOL    HW115422   4.416   3.408  15.356 -1.4493  1.1886  3.2539
 1263SOL    HW215423   4.522   3.515  15.326 -0.3894 -0.0821 -0.4984
 1264SOL     OW15424   0.480   1.675   8.487  0.4437 -0.0061 -0.5314
 1264SOL    HW115425   0.411   1.631   8.537  1.2905  0.2452  0.8810
 1264SOL    HW215426   0.501   1.746   8.548 -1.8908 -0.5713  0.9554
 1265SOL     OW15427   0.737   2.425   6.235 -0.0684 -0.0621  0.2230
 1265SOL    HW115428   0.784   2.498   6.194 -1.2344 -0.9534 -2.6680
 1265SOL    HW215429   0.664   2.466   6.280 -0.8717  0.3155 -1.4352
 1266SOL     OW15430   2.868   3.688   3.947 -0.3171  0.1404  0.3209
 1266SOL    HW115431   2.773   3.696   3.955 -0.4098 -0.2406 -0.5025
 1266SOL    HW215432   2.880   3.602   3.987  2.8127  0.9507  1.1503
 1267SOL     OW15433   3.775   1.336   4.463 -0.0674  0.2022  0.2739
 1267SOL    HW115434   3.795   1.377   4.380 -0.2896  0.2946  0.2647
 1267SOL    HW215435   3.857   1.288   4.475  0.4923  1.2539  0.6566
 1268SOL     OW15436   2.317   1.455   4.491  0.4363 -0.4348 -0.1382
 1268SOL    HW115437   2.412   1.443   4.486  0.6105  1.5868 -1.9460
 1268SOL    HW215438   2.286   1.410   4.412  1.7380 -1.3046 -0.1620
 1269SOL     OW15439   0.511   4.018   9.333 -0.0976 -0.2277 -0.1700
 1269SOL    HW115440   0.531   3.985   9.421 -0.7505 -0.9878 -0.3079
 1269SOL    HW215441   0.504   3.947   9.270 -1.2659 -0.5335  0.3054
 1270SOL     OW15442   1.608   2.056   2.579  0.1144 -0.0454  0.2774
 1270SOL    HW115443   1.596   2.002   2.656 -0.7448  0.0897  0.2346
 1270SOL    HW215444   1.659   2.127   2.618 -0.5086  0.9223 -0.6619
 1271SOL     OW15445   3.899   3.906   5.426 -0.1388  0.8475  0.2979
 1271SOL    HW115446   3.901   3.963   5.503  0.3092  0.4454  0.5842
 1271SOL    HW215447   3.962   3.944   5.366 -0.0092 -0.2532 -0.2585
 1272SOL     OW15448   1.092   1.583   7.790  0.4517  0.5062 -0.4032
 1272SOL    HW115449   1.001   1.597   7.816  0.6071  2.9623 -1.2290
 1272SOL    HW215450   1.130   1.558   7.875 -0.0299  0.8690 -0.0804
 1273SOL     OW15451   4.035   2.735  15.695  0.1527 -0.4065  0.3284
 1273SOL    HW115452   4.083   2.810  15.662 -0.6825  0.3587  0.8410
 1273SOL    HW215453   3.956   2.778  15.728 -0.6331 -2.2837  0.9414
 1274SOL     OW15454   1.275   0.687   5.196 -0.0613  0.3898  0.3180
 1274SOL    HW115455   1.353   0.679   5.142 -0.6402 -2.4140 -0.1086
 1274SOL    HW215456   1.250   0.773   5.163  1.0158  0.3592 -0.5567
 1275SOL     OW15457   1.528   4.427  10.521  0.2660 -0.3143 -0.4272
 1275SOL    HW115458   1.527   4.335  10.495 -0.8430 -0.8605  1.5713
 1275SOL    HW215459   1.622   4.442  10.509  0.3062 -0.8842 -0.8485
 1276SOL     OW15460   0.618   3.720   3.656 -0.3558 -0.2113  0.2549
 1276SOL    HW115461   0.543   3.775   3.637 -0.7732 -0.3081  1.6498
 1276SOL    HW215462   0.685   3.775   3.615 -0.0718 -1.3550 -0.8330
 1277SOL     OW15463   0.789   0.989   5.541  0.0017 -0.1919 -0.0778
 1277SOL    HW115464   0.759   1.024   5.625 -0.7680 -1.4444  0.1598
 1277SOL    HW215465   0.866   0.939   5.566 -0.2423 -1.6341 -2.1786
 1278SOL     OW15466   2.714   3.971   6.833  0.0485  0.0596  0.0434
 1278SOL    HW115467   2.745   3.930   6.753 -2.6594  0.1220 -1.0227
 1278SOL    HW215468   2.792   3.966   6.889 -0.9845 -0.9206  1.3943
 1279SOL     OW15469   2.223   2.692   1.252 -0.4212  0.1104  0.7440
 1279SOL    HW115470   2.188   2.717   1.337 -0.7529  0.0694  0.6214
 1279SOL    HW215471   2.153   2.631   1.226  0.1339  0.6537 -2.0817
 1280SOL     OW15472   2.978   0.547   3.138  0.0358  0.5607  0.2947
 1280SOL    HW115473   2.917   0.511   3.075 -0.2381 -1.3757  1.6318
 1280SOL    HW215474   3.032   0.592   3.074 -1.2301  4.0103  1.6778
 1281SOL     OW15475   2.945   4.325   6.265  0.4966 -0.4937 -0.6028
 1281SOL    HW115476   2.880   4.270   6.221 -0.8250  1.1956 -0.7724
 1281SOL    HW215477   2.988   4.378   6.197 -0.3691 -2.0705 -2.3699
 1282SOL     OW15478   2.557   2.510  13.820  0.4214 -0.6045  0.2085
 1282SOL    HW115479   2.631   2.498  13.760 -0.0874  0.1700 -0.5691
 1282SOL    HW215480   2.516   2.591  13.790  1.3996 -0.5719 -1.0274
 1283SOL     OW15481   0.286   1.325   3.685 -0.4232 -0.4694  0.3177
 1283SOL    HW115482   0.241   1.324   3.601 -0.8802 -0.1228  0.5606
 1283SOL    HW215483   0.255   1.406   3.727  0.2602  0.5403 -1.1217
 1284SOL     OW15484   3.474   4.432   5.232 -0.2573 -0.3090  0.6174
 1284SOL    HW115485   3.421   4.511   5.243  0.5301  0.2903  0.1740
 1284SOL    HW215486   3.432   4.387   5.159  0.3593 -1.3470  0.9070
 1285SOL     OW15487   4.512   1.727   0.108  0.2171  0.2703  0.5311
 1285SOL    HW115488   4.581   1.713   0.173  0.6102  0.5204  0.1723
 1285SOL    HW215489   4.564   1.781   0.048 -0.4279  0.5190  0.1934
 1286SOL     OW15490   2.743   1.216   1.122 -0.0477  0.1342  0.0109
 1286SOL    HW115491   2.800   1.140   1.135 -1.1554 -0.7433 -0.2578
 1286SOL    HW215492   2.665   1.179   1.080  0.4577 -0.3094 -0.5201
 1287SOL     OW15493   2.775   2.471   2.197  0.1172 -0.7096 -0.4950
 1287SOL    HW115494   2.840   2.421   2.147  1.0751 -0.1719  0.2086
 1287SOL    HW215495   2.710   2.403   2.214  0.2006 -0.7096 -0.1804
 1288SOL     OW15496   0.259   4.539   3.239 -0.1352  0.1173  0.3430
 1288SOL    HW115497   0.313   4.500   3.307  0.6726  0.1203 -0.2875
 1288SOL    HW215498   0.197   4.468   3.229 -1.1321  0.8406  1.3912
 1289SOL     OW15499   2.843   3.416   9.790  0.0371  0.2332 -0.8190
 1289SOL    HW115500   2.765   3.368   9.764  0.3637 -2.0516  2.4940
 1289SOL    HW215501   2.906   3.390   9.723 -1.2524 -3.9530 -0.4147
 1290SOL     OW15502   0.614   0.754  15.926 -0.1861 -0.4603  0.5817
 1290SOL    HW115503   0.536   0.802  15.952 -1.4951 -0.9899 -2.3827
 1290SOL    HW215504   0.678   0.813  15.966  0.1487 -0.5512  0.1817
 1291SOL     OW15505   0.099   2.808  16.232  0.2195 -0.2325  0.1283
 1291SOL    HW115506   0.070   2.861  16.306  1.1400 -0.5089  0.6780
 1291SOL    HW215507   0.192   2.802  16.254  0.9830 -4.4118 -4.2373
 1292SOL     OW15508   0.798   2.191   2.074 -0.0144  0.6203 -0.5404
 1292SOL    HW115509   0.847   2.119   2.115 -0.0023  0.0328 -1.5825
 1292SOL    HW215510   0.748   2.147   2.006  0.9383 -1.8867  0.3713
 1293SOL     OW15511   4.659   3.344   2.449  0.1692  0.0403 -0.1749
 1293SOL    HW115512   4.724   3.297   2.501 -0.9589 -0.4975  0.7475
 1293SOL    HW215513   4.606   3.268   2.424 -0.8535  1.3097 -1.8666
 1294SOL     OW15514   4.087   0.570   5.172  0.1865  0.1133 -0.1158
 1294SOL    HW115515   4.170   0.522   5.167  0.3675  0.4624 -0.4030
 1294SOL    HW215516   4.114   0.656   5.140  1.1400 -0.3480 -0.5653
 1295SOL     OW15517   3.633   1.005  15.281 -0.1397 -0.3678 -0.1390
 1295SOL    HW115518   3.570   0.991  15.211 -1.1312  2.3783  0.2135
 1295SOL    HW215519   3.661   1.095  15.265 -2.4239  0.4912  0.6414
 1296SOL     OW15520   4.587   4.390   9.172  0.1709 -0.0345 -0.6419
 1296SOL    HW115521   4.651   4.361   9.107  2.3649  1.4381  0.8664
 1296SOL    HW215522   4.530   4.432   9.107 -0.8132  1.2621  1.0819
 1297SOL     OW15523   3.011   0.127   5.983  0.0237 -0.1609 -0.0597
 1297SOL    HW115524   2.992   0.178   5.904  1.4501  0.4312 -0.0299
 1297SOL    HW215525   2.936   0.069   5.990 -0.8380  0.8424 -0.9417
 1298SOL     OW15526   4.397   1.823   7.819 -0.4882 -0.0384  0.3769
 1298SOL    HW115527   4.388   1.877   7.898  1.4857 -3.7013  3.1141
 1298SOL    HW215528   4.470   1.765   7.839 -0.4390 -0.7236 -1.7662
 1299SOL     OW15529   3.561   3.640   2.789 -0.7636 -0.3061  0.2037
 1299SOL    HW115530   3.567   3.601   2.701 -2.2846 -1.5482  0.6472
 1299SOL    HW215531   3.529   3.566   2.840 -0.7039 -1.0752 -0.8564
 1300SOL     OW15532   4.321   2.327   2.610  0.0197 -0.3490  0.2420
 1300SOL    HW115533   4.239   2.372   2.628 -1.1640 -1.8946 -1.2275
 1300SOL    HW215534   4.307   2.240   2.648 -0.9952 -0.6743 -0.8821
 1301SOL     OW15535   1.011   2.025  14.626 -0.3968  0.2218 -0.6530
 1301SOL    HW115536   0.928   2.029  14.674 -0.8416  1.0245 -1.4746
 1301SOL    HW215537   1.059   2.098  14.663 -0.6757 -0.5348  1.1870
 1302SOL     OW15538   2.824   0.344   6.650  0.3921  0.0614  0.2584
 1302SOL    HW115539   2.812   0.288   6.726  0.6476 -0.4388 -0.0672
 1302SOL    HW215540   2.912   0.328   6.617  1.4568  0.4188  2.9393
 1303SOL     OW15541   1.343   3.369   5.369 -0.4284  0.0471  0.8409
 1303SOL    HW115542   1.383   3.434   5.312  1.7296 -0.4509  1.7996
 1303SOL    HW215543   1.421   3.335   5.412 -0.8818 -0.7710  1.0280
 1304SOL     OW15544   3.492   4.481   9.844  0.4511  0.5765 -0.0713
 1304SOL    HW115545   3.542   4.445   9.917  0.3469  0.3613 -0.1075
 1304SOL    HW215546   3.546   4.549   9.803  1.9336  0.1839  1.2163
 1305SOL     OW15547   2.189   1.884   5.509 -0.0394  0.1107  1.0221
 1305SOL    HW115548   2.215   1.967   5.470  0.8994 -0.9771 -0.6904
 1305SOL    HW215549   2.170   1.836   5.428  4.0898  2.2113 -1.2135
 1306SOL     OW15550   1.408   4.670  15.599 -0.6575 -0.2260  0.3997
 1306SOL    HW115551   1.327   4.713  15.627  0.2116  1.7553 -0.1212
 1306SOL    HW215552   1.448   4.725  15.531 -1.4762 -1.8107 -1.3600
 1307SOL     OW15553   0.827   1.051   6.468 -0.2801 -0.1308  0.1004
 1307SOL    HW115554   0.890   0.999   6.419 -1.4134 -2.6367  1.2585
 1307SOL    HW215555   0.772   0.978   6.499 -0.2246 -0.2266 -0.0267
 1308SOL     OW15556   2.532   0.101   5.725  0.0203 -0.2848  0.9648
 1308SOL    HW115557   2.532   0.057   5.640  0.1245  0.4800  0.5606
 1308SOL    HW215558   2.564   0.191   5.710 -0.9002 -0.0152  0.6312
 1309SOL     OW15559   1.817   0.615   7.035 -0.2896 -0.0296 -0.2426
 1309SOL    HW115560   1.802   0.561   7.113  0.0274 -0.6206 -0.5867
 1309SOL    HW215561   1.905   0.650   7.046  0.4489 -1.3904 -1.8902
 1310SOL     OW15562   1.157   1.397   6.921 -0.1501 -0.2596  0.1336
 1310SOL    HW115563   1.061   1.393   6.924 -0.2058  0.7638 -0.4530
 1310SOL    HW215564   1.167   1.491   6.907 -0.9316 -0.2872 -0.5765
 1311SOL     OW15565   0.410   1.096   9.551  0.2850  0.0329 -0.1307
 1311SOL    HW115566   0.388   1.091   9.458  0.0809 -0.0171 -0.0788
 1311SOL    HW215567   0.354   1.028   9.588  0.7320 -1.4586 -2.1642
 1312SOL     OW15568   1.827   4.735   7.656  0.0872  0.5814 -0.3156
 1312SOL    HW115569   1.908   4.715   7.702 -0.6747  2.1286  1.7243
 1312SOL    HW215570   1.790   4.647   7.653 -0.6194  0.8821 -0.5987
 1313SOL     OW15571   3.210   2.252   7.626 -0.7277 -0.0404 -0.4195
 1313SOL    HW115572   3.275   2.275   7.558  1.5420 -0.0490  1.7574
 1313SOL    HW215573   3.131   2.263   7.573 -1.5209 -1.0225  0.5707
 1314SOL     OW15574   2.278   3.999   1.436  0.4844 -0.1999  0.5258
 1314SOL    HW115575   2.217   4.073   1.439 -2.0680 -2.2395 -1.5917
 1314SOL    HW215576   2.361   4.038   1.411  1.6541 -2.2654  1.1770
 1315SOL     OW15577   2.074   3.712   1.619  0.1729 -0.2014  0.4419
 1315SOL    HW115578   1.981   3.731   1.607 -0.3601 -0.8946  3.4481
 1315SOL    HW215579   2.107   3.728   1.531  0.5925 -0.4588  0.5512
 1316SOL     OW15580   4.462   0.975  10.063 -0.4322 -0.0994 -0.4906
 1316SOL    HW115581   4.400   0.990  10.135  0.2928 -0.0826  0.1370
 1316SOL    HW215582   4.435   1.036   9.995  0.2172 -0.8227 -1.3976
 1317SOL     OW15583   0.919   1.004   3.437  0.6226 -0.3514  0.0600
 1317SOL    HW115584   0.862   0.948   3.490 -1.5890  2.1621  0.3568
 1317SOL    HW215585   1.008   0.983   3.466  0.3992 -0.0938  0.9209
 1318SOL     OW15586   1.605   4.042   1.920  0.1483 -0.6029 -0.4020
 1318SOL    HW115587   1.582   4.073   2.008 -1.7344  1.8604 -1.7603
 1318SOL    HW215588   1.693   4.012   1.942  0.9593  1.3152 -1.0008
 1319SOL     OW15589   3.337   2.983   7.600  0.2602  0.2115 -0.4275
 1319SOL    HW115590   3.401   2.966   7.531  0.6895  0.9854 -0.2147
 1319SOL    HW215591   3.261   2.979   7.542 -1.4090 -0.7539  1.7931
 1320SOL     OW15592   3.485   0.172   9.411 -0.2176  0.3449 -0.5228
 1320SOL    HW115593   3.409   0.116   9.430  0.2112  0.6038  1.9583
 1320SOL    HW215594   3.471   0.179   9.316 -1.0540 -1.4537 -0.5344
 1321SOL     OW15595   3.046   4.092  16.715  0.1567 -0.9624  0.3540
 1321SOL    HW115596   3.115   4.155  16.693  1.6278 -2.3408  0.9713
 1321SOL    HW215597   2.982   4.147  16.759 -0.6864 -1.0729 -0.7455
 1322SOL     OW15598   4.007   3.748   9.048  0.4282  0.3707  0.1404
 1322SOL    HW115599   3.995   3.751   8.953  1.1262  1.5152  0.0903
 1322SOL    HW215600   4.052   3.664   9.056 -0.8258 -0.3093  0.0410
 1323SOL     OW15601   1.422   0.791   3.135 -0.2418 -0.1036  0.0147
 1323SOL    HW115602   1.353   0.753   3.189  0.9750  0.1653  1.7744
 1323SOL    HW215603   1.375   0.823   3.058 -0.7978  0.9626  0.7943
 1324SOL     OW15604   2.108   1.915   0.811  0.1485  0.1889 -0.1857
 1324SOL    HW115605   2.128   1.866   0.891 -0.5731 -1.3251 -0.9180
 1324SOL    HW215606   2.115   1.845   0.746 -1.5104  0.8741 -1.1056
 1325SOL     OW15607   1.415   3.827   1.883  0.3224 -0.3381  0.3227
 1325SOL    HW115608   1.460   3.911   1.871  0.2958 -0.2690  0.7099
 1325SOL    HW215609   1.327   3.857   1.861  1.5338  2.1073 -1.2197
 1326SOL     OW15610   3.804   0.563   0.371  0.2184 -0.1040  0.3601
 1326SOL    HW115611   3.756   0.485   0.343  0.4855 -0.3643  0.6324
 1326SOL    HW215612   3.748   0.638   0.352 -3.0166 -2.5415  0.2634
 1327SOL     OW15613   2.760   1.446   8.410 -0.3455  0.5576  0.7153
 1327SOL    HW115614   2.831   1.508   8.426  1.0802 -0.3678 -2.0585
 1327SOL    HW215615   2.820   1.372   8.403  0.4350  1.2712 -0.2658
 1328SOL     OW15616   1.834   1.595   9.293 -0.3125  0.0245 -0.6040
 1328SOL    HW115617   1.874   1.576   9.208 -0.0835  2.7481 -1.1015
 1328SOL    HW215618   1.762   1.647   9.257 -1.2721  0.0913  1.4029
 1329SOL     OW15619   3.346   0.734   3.245 -0.6222 -0.3270  0.1760
 1329SOL    HW115620   3.323   0.697   3.330 -0.2430 -0.1419  0.3548
 1329SOL    HW215621   3.428   0.781   3.256 -0.2567 -0.4029 -2.1254
 1330SOL     OW15622   1.548   4.426   2.346  0.2288 -0.2569  0.2195
 1330SOL    HW115623   1.515   4.428   2.436 -3.4081  0.3838 -1.1308
 1330SOL    HW215624   1.471   4.390   2.303  1.6572 -1.5957 -1.2304
 1331SOL     OW15625   1.332   0.696   6.934  0.0542  0.0237  0.2322
 1331SOL    HW115626   1.332   0.661   7.023 -0.9993  2.6089  1.2384
 1331SOL    HW215627   1.316   0.788   6.955 -1.7886 -0.2640  0.0958
 1332SOL     OW15628   0.922   0.785   2.510  0.4442  0.2583  0.5450
 1332SOL    HW115629   0.929   0.717   2.577 -0.0785 -2.3609 -2.0658
 1332SOL    HW215630   0.965   0.858   2.555 -0.4546  0.8441  0.4336
 1333SOL     OW15631   2.058   3.774  10.434 -0.2664  0.0460 -0.7881
 1333SOL    HW115632   2.005   3.727  10.498 -0.5314  1.9737  0.3978
 1333SOL    HW215633   2.017   3.748  10.351 -2.4824  0.6225  0.1385
 1334SOL     OW15634   3.895   1.314   3.943  0.5771 -0.1346  0.2197
 1334SOL    HW115635   3.940   1.232   3.923  1.2576  0.3139 -0.1083
 1334SOL    HW215636   3.893   1.360   3.859  1.1002 -0.8904 -0.2055
 1335SOL     OW15637   0.083   2.278  10.208 -0.0257 -0.0314 -0.0861
 1335SOL    HW115638   0.017   2.221  10.169 -0.2888  0.1500  0.1007
 1335SOL    HW215639   0.108   2.209  10.269  1.3098  1.3824  0.9641
 1336SOL     OW15640   0.468   4.111  12.470 -0.5654  0.3184 -0.4781
 1336SOL    HW115641   0.536   4.155  12.419  1.9443 -2.7774  0.1861
 1336SOL    HW215642   0.515   4.070  12.542  0.6145  0.3113 -1.2437
 1337SOL     OW15643   1.046   0.078   6.824  0.2951  0.2118  0.4345
 1337SOL    HW115644   1.131   0.079   6.867  0.1306  0.1452  0.7652
 1337SOL    HW215645   1.057   0.145   6.756  1.5989  0.3949  0.8323
 1338SOL     OW15646   3.958   1.031   8.149 -0.1472 -0.0946  0.1562
 1338SOL    HW115647   4.005   1.069   8.074  1.0641 -0.4368  0.7313
 1338SOL    HW215648   3.992   1.086   8.219 -3.5216  1.0617  0.8730
 1339SOL     OW15649   3.254   3.916   1.080 -0.9362 -0.3889  0.5101
 1339SOL    HW115650   3.179   3.975   1.080 -1.9285 -1.6397 -3.4804
 1339SOL    HW215651   3.208   3.832   1.078 -1.9946  0.2232 -1.1526
 1340SOL     OW15652   4.206   1.804   4.121 -0.4343 -0.2395  0.2188
 1340SOL    HW115653   4.280   1.827   4.176 -0.1970  0.9685 -0.6114
 1340SOL    HW215654   4.162   1.887   4.103  1.8506  0.7961 -0.5772
 1341SOL     OW15655   2.617   0.657   3.136  0.9694 -0.4764  0.2045
 1341SOL    HW115656   2.679   0.702   3.078 -1.6112  1.9473 -0.6773
 1341SOL    HW215657   2.649   0.685   3.222  1.9238 -0.7324 -0.0740
 1342SOL     OW15658   1.668   1.660  12.319  0.4210  0.7146  0.3521
 1342SOL    HW115659   1.744   1.684  12.266  1.0846  0.5349  1.2205
 1342SOL    HW215660   1.602   1.627  12.257 -0.2883  0.6520  1.1402
 1343SOL     OW15661   0.029   0.604   2.864  0.5868  0.2432 -0.2356
 1343SOL    HW115662   0.021   0.697   2.842  1.9620  0.6837  1.1439
 1343SOL    HW215663   0.125   0.597   2.863  0.7333  2.1323  0.1537
 1344SOL     OW15664   1.078   4.463   3.419  0.8137 -0.0499 -0.3557
 1344SOL    HW115665   1.099   4.410   3.496  1.4482 -0.5075 -0.8388
 1344SOL    HW215666   0.982   4.466   3.424  0.8977  1.6106  0.1524
 1345SOL     OW15667   1.039   3.153   7.248 -0.1213 -0.1766  0.2322
 1345SOL    HW115668   0.969   3.175   7.187 -2.6495  0.1399  3.2383
 1345SOL    HW215669   1.111   3.142   7.185  0.3930  1.0819  0.6021
 1346SOL     OW15670   0.595   3.685  10.964 -0.5800  0.9819  0.1836
 1346SOL    HW115671   0.682   3.694  10.926  0.6073 -2.8111  1.9913
 1346SOL    HW215672   0.576   3.769  11.005 -1.5948  0.6641  0.3682
 1347SOL     OW15673   2.559   0.690  15.019 -0.4385  0.5608  0.5257
 1347SOL    HW115674   2.557   0.594  15.015 -0.3254  0.4911  2.1693
 1347SOL    HW215675   2.536   0.719  14.931  0.7168 -0.8478 -0.2416
 1348SOL     OW15676   1.447   2.423   4.471  0.0015  0.5423 -0.0557
 1348SOL    HW115677   1.452   2.362   4.398 -1.1998 -0.8016  0.9829
 1348SOL    HW215678   1.536   2.457   4.483 -0.1901  1.1395 -0.3010
 1349SOL     OW15679   4.452   4.011   3.557 -0.6775 -0.2370 -0.1726
 1349SOL    HW115680   4.534   4.035   3.513 -1.5688 -0.0252 -1.7308
 1349SOL    HW215681   4.423   3.950   3.489 -0.8275 -0.6579  0.2773
 1350SOL     OW15682   2.164   1.006   7.744 -0.0572  0.1950 -0.3082
 1350SOL    HW115683   2.185   0.980   7.834 -0.6034  0.8550  0.0068
 1350SOL    HW215684   2.136   1.096   7.760 -0.2659  0.3006 -1.2434
 1351SOL     OW15685   0.147   4.552   9.023  0.7681  0.5056 -0.0808
 1351SOL    HW115686   0.110   4.501   9.095 -1.5741  0.1234 -1.5769
 1351SOL    HW215687   0.192   4.623   9.068 -1.2776  0.6247  1.7511
 1352SOL     OW15688   1.193   4.035   5.697  0.6912 -0.5075 -0.1076
 1352SOL    HW115689   1.131   4.046   5.769 -0.1565 -0.2104 -0.8731
 1352SOL    HW215690   1.165   4.102   5.634  0.7956 -0.8525 -0.5224
 1353SOL     OW15691   3.520   0.830   5.879  0.1520 -0.1813  0.0364
 1353SOL    HW115692   3.455   0.763   5.859 -0.4899  0.0931  1.1921
 1353SOL    HW215693   3.469   0.904   5.912  1.0632 -0.4308  1.9999
 1354SOL     OW15694   2.826   1.363  13.542 -0.5381  0.5386  0.0529
 1354SOL    HW115695   2.740   1.403  13.548 -0.4194  1.0937 -1.7563
 1354SOL    HW215696   2.869   1.433  13.494  2.8177 -1.0286  0.7320
 1355SOL     OW15697   2.081   0.321   8.173 -0.1897  0.1929  0.1760
 1355SOL    HW115698   1.988   0.329   8.193 -0.4717 -1.9935 -0.2698
 1355SOL    HW215699   2.119   0.400   8.211 -1.2492  1.0192 -0.4894
 1356SOL     OW15700   3.372   2.191   1.652  0.5086 -0.0847 -0.1582
 1356SOL    HW115701   3.464   2.185   1.627 -0.3149 -2.4315 -2.6984
 1356SOL    HW215702   3.321   2.240   1.587  0.0207 -1.3330 -0.7182
 1357SOL     OW15703   3.145   4.735   4.824 -0.1515 -0.0182 -0.5810
 1357SOL    HW115704   3.066   0.040   4.794 -0.0334  1.3874  1.1770
 1357SOL    HW215705   3.212   0.059   4.851 -2.6122  2.1415  0.5695
 1358SOL     OW15706   4.318   1.164   2.234  0.2697 -0.0851  0.3389
 1358SOL    HW115707   4.313   1.257   2.256 -1.9128 -0.3349  0.9142
 1358SOL    HW215708   4.244   1.138   2.289 -1.3134  0.1725 -1.6871
 1359SOL     OW15709   0.989   1.582  13.714 -0.6054 -0.4023 -0.2731
 1359SOL    HW115710   1.016   1.520  13.781  1.2287 -0.6330 -1.2264
 1359SOL    HW215711   1.024   1.543  13.634 -0.9024  0.5540 -0.8718
 1360SOL     OW15712   1.995   3.826   5.994  0.0607  0.1311 -0.1694
 1360SOL    HW115713   2.086   3.849   6.014  0.5042  0.4807 -2.5815
 1360SOL    HW215714   1.984   3.745   6.044  0.2264  0.6421  0.6947
 1361SOL     OW15715   2.923   0.600  12.494  0.0632  0.3012  0.0077
 1361SOL    HW115716   2.931   0.695  12.491  0.2120  0.2468 -1.4172
 1361SOL    HW215717   2.856   0.588  12.427 -1.9032 -0.2358  2.0911
 1362SOL     OW15718   0.614   1.192  12.026  0.3470 -0.1615  0.6732
 1362SOL    HW115719   0.659   1.268  12.063 -1.6413  0.6075  1.4922
 1362SOL    HW215720   0.611   1.136  12.104 -0.8933 -0.4090  0.4572
 1363SOL     OW15721   0.216   3.210   8.773 -0.0484  0.0722  0.0512
 1363SOL    HW115722   0.184   3.300   8.772  0.5434  0.3066  1.5801
 1363SOL    HW215723   0.307   3.230   8.752 -0.3446  0.8003 -0.5389
 1364SOL     OW15724   0.051   0.723   2.077 -0.1360 -0.1276 -0.0286
 1364SOL    HW115725   0.009   0.687   1.998  0.9942 -1.0803 -0.1983
 1364SOL    HW215726   0.128   0.762   2.036  0.4611  0.4234  1.6215
 1365SOL     OW15727   1.613   2.585   3.945  0.7947 -0.1723 -0.2179
 1365SOL    HW115728   1.620   2.581   3.850 -1.5306 -1.2020 -0.3519
 1365SOL    HW215729   1.666   2.661   3.968  2.8956 -2.4458  2.5207
 1366SOL     OW15730   2.679   0.067  16.280  0.4633  0.2402 -0.1833
 1366SOL    HW115731   2.636   0.128  16.220 -0.9381  0.9689  1.5601
 1366SOL    HW215732   2.620   0.068  16.356  0.3277 -0.5535 -0.2821
 1367SOL     OW15733   3.017   0.960   8.733  0.4581  0.3868  0.0688
 1367SOL    HW115734   2.939   1.014   8.736  0.2183  0.0318  0.2609
 1367SOL    HW215735   3.051   1.002   8.654 -0.4213  1.8571  0.4835
 1368SOL     OW15736   0.353   2.063  13.454 -0.1495  0.3381  0.0561
 1368SOL    HW115737   0.388   2.092  13.539 -0.8930 -1.2686  0.9129
 1368SOL    HW215738   0.258   2.066  13.462 -0.0647 -2.6168  2.6412
 1369SOL     OW15739   2.382   1.859   2.064 -0.5981 -0.0463 -0.1044
 1369SOL    HW115740   2.293   1.881   2.089 -0.6379  0.8018 -0.9904
 1369SOL    HW215741   2.390   1.908   1.982 -0.1220  1.9362  1.1296
 1370SOL     OW15742   0.657   1.403   3.843 -0.7124  0.0652 -0.8039
 1370SOL    HW115743   0.586   1.467   3.846 -0.7960 -0.0504 -0.1927
 1370SOL    HW215744   0.622   1.355   3.768 -1.6609  2.0548 -1.6199
 1371SOL     OW15745   4.391   4.216   0.663  0.2762 -0.2377  0.2568
 1371SOL    HW115746   4.473   4.241   0.619 -0.6405  0.8289 -0.8839
 1371SOL    HW215747   4.378   4.130   0.624  0.5630  0.3911 -1.2558
 1372SOL     OW15748   1.355   0.482  15.193  0.3009  0.2127  0.2731
 1372SOL    HW115749   1.433   0.444  15.153 -0.0296 -0.0547 -0.1138
 1372SOL    HW215750   1.363   0.451  15.283  1.7715  0.7692  0.3324
 1373SOL     OW15751   0.879   1.412   6.917  0.5885  0.1623 -0.1735
 1373SOL    HW115752   0.808   1.348   6.921  1.0223 -0.3740 -1.0051
 1373SOL    HW215753   0.839   1.498   6.908 -0.5402 -0.3322  0.1024
 1374SOL     OW15754   2.293   4.385  14.696 -0.4529 -0.2633  0.0451
 1374SOL    HW115755   2.285   4.476  14.724  0.8283 -0.9123  2.5715
 1374SOL    HW215756   2.201   4.358  14.689 -0.1622 -1.1340 -0.3595
 1375SOL     OW15757   0.679   2.948   8.550 -0.3188 -0.4676 -0.2661
 1375SOL    HW115758   0.769   2.981   8.554 -0.2210 -0.7295 -0.3356
 1375SOL    HW215759   0.645   3.016   8.492 -0.1925 -1.7180 -1.8047
 1376SOL     OW15760   0.886   2.204   6.317 -0.3107 -0.5231 -0.7284
 1376SOL    HW115761   0.838   2.281   6.286  0.0306  0.8583  2.2748
 1376SOL    HW215762   0.946   2.184   6.245  1.8727 -0.6130  1.1545
 1377SOL     OW15763   2.455   1.964  13.010 -0.2427  0.0698  0.1417
 1377SOL    HW115764   2.447   1.984  13.103  1.2069 -2.6191  0.8284
 1377SOL    HW215765   2.399   2.025  12.962  0.7131  0.6311 -0.2398
 1378SOL     OW15766   3.243   4.452  12.681  0.4002 -1.1013  0.2277
 1378SOL    HW115767   3.224   4.428  12.772  1.0165 -2.5024 -0.0264
 1378SOL    HW215768   3.177   4.521  12.673  1.9166  0.3193  0.0200
 1379SOL     OW15769   3.976   3.920   6.255 -0.4353  0.3263  0.6018
 1379SOL    HW115770   3.978   3.875   6.171 -1.7764 -0.1489  0.8172
 1379SOL    HW215771   4.012   3.855   6.316  0.7737  1.1326  0.7452
 1380SOL     OW15772   3.907   1.373  11.149 -0.3157  0.2104  0.1183
 1380SOL    HW115773   3.883   1.342  11.236  2.6532  3.2456  2.0064
 1380SOL    HW215774   3.874   1.462  11.152 -0.6542  0.2072 -2.8874
 1381SOL     OW15775   0.415   3.718   9.632  0.5686 -0.4069  0.8280
 1381SOL    HW115776   0.332   3.753   9.664  1.1619  0.7275  1.1050
 1381SOL    HW215777   0.463   3.800   9.624 -0.4513  0.0685 -0.6007
 1382SOL     OW15778   0.347   0.145   4.013 -0.1740 -0.4412 -0.4757
 1382SOL    HW115779   0.281   0.112   3.952 -0.2032 -0.1416 -0.6097
 1382SOL    HW215780   0.370   0.063   4.056 -1.2148 -0.4668  0.0196
 1383SOL     OW15781   2.095   3.388  13.071  0.8888 -0.0678  0.0802
 1383SOL    HW115782   2.150   3.463  13.048  0.1956  1.2017  2.4915
 1383SOL    HW215783   2.026   3.439  13.113  0.2906  0.1306 -1.1607
 1384SOL     OW15784   2.618   1.972   4.086  0.1799  0.3542 -0.1882
 1384SOL    HW115785   2.567   1.916   4.144  0.6695 -2.0068 -2.0609
 1384SOL    HW215786   2.561   1.978   4.010  1.0708  0.9446 -0.8141
 1385SOL     OW15787   2.261   3.580  13.038  0.0661 -1.0588  0.0101
 1385SOL    HW115788   2.266   3.652  13.100  0.4397  0.0152 -1.2705
 1385SOL    HW215789   2.246   3.625  12.955  1.3190  1.0390  0.9194
 1386SOL     OW15790   4.437   1.695   5.829 -0.0520 -0.3052 -0.2841
 1386SOL    HW115791   4.493   1.678   5.754  0.6960  0.9406  0.0100
 1386SOL    HW215792   4.479   1.771   5.868 -0.6139 -0.2672  0.2487
 1387SOL     OW15793   4.040   3.926  15.138 -0.2691 -0.2647  0.2663
 1387SOL    HW115794   4.044   3.895  15.047 -2.6170 -1.0564  0.4338
 1387SOL    HW215795   4.113   3.877  15.175  1.4830  0.1062 -2.6270
 1388SOL     OW15796   2.797   0.908  14.078  0.5768 -0.4574 -0.1058
 1388SOL    HW115797   2.742   0.960  14.137  0.0179  0.8354 -1.7649
 1388SOL    HW215798   2.741   0.900  14.001 -0.9254  1.7901  0.7462
 1389SOL     OW15799   1.192   3.036   4.484  0.2886  0.3852 -0.1008
 1389SOL    HW115800   1.164   2.971   4.420  1.2639 -0.9222  0.7998
 1389SOL    HW215801   1.193   3.117   4.433 -0.4654  1.2147  1.1814
 1390SOL     OW15802   0.061   1.863   7.604 -0.3208  0.1972 -0.6202
 1390SOL    HW115803   0.033   1.838   7.516 -0.2254  2.5280 -1.3237
 1390SOL    HW215804   0.154   1.839   7.599 -0.3627  0.2181 -1.5537
 1391SOL     OW15805   3.994   2.750   8.957  0.0995 -0.6787  0.2948
 1391SOL    HW115806   3.938   2.766   8.881 -0.1515  0.0131  0.6279
 1391SOL    HW215807   4.047   2.675   8.928  2.6558  0.7780  1.2520
 1392SOL     OW15808   3.476   0.344  10.777 -0.1869 -0.2662  0.2742
 1392SOL    HW115809   3.418   0.414  10.807  0.7432  0.0362  1.3600
 1392SOL    HW215810   3.485   0.299  10.862  0.2413  0.2390  0.4916
 1393SOL     OW15811   1.777   3.214   3.872 -0.9380  0.1961  0.9293
 1393SOL    HW115812   1.703   3.268   3.845  0.7522  2.2898  0.5215
 1393SOL    HW215813   1.849   3.261   3.831 -0.2652 -0.8475  0.9071
 1394SOL     OW15814   3.326   3.252  11.407  0.1162 -0.2773  0.8313
 1394SOL    HW115815   3.254   3.314  11.418 -0.1174 -0.6491  1.4093
 1394SOL    HW215816   3.397   3.299  11.449 -1.8158  1.6873  1.8816
 1395SOL     OW15817   1.281   2.615   2.127 -0.2583 -0.2176  0.4705
 1395SOL    HW115818   1.192   2.590   2.152 -0.6870 -0.9484 -1.8423
 1395SOL    HW215819   1.318   2.610   2.215 -2.7974 -1.1093  1.4894
 1396SOL     OW15820   3.910   3.608  15.087 -0.2690 -0.1272  0.2106
 1396SOL    HW115821   3.930   3.687  15.036 -1.0974 -1.1403 -1.7056
 1396SOL    HW215822   3.832   3.577  15.041 -1.0602 -0.0471  1.4948
 1397SOL     OW15823   4.084   3.091  17.614  0.6508  0.2839  0.3124
 1397SOL    HW115824   4.068   3.182  17.587  1.2482  1.1394  2.8059
 1397SOL    HW215825   3.993   3.066  17.631  1.6941 -1.5998  3.0653
 1398SOL     OW15826   2.104   3.571   3.820 -0.1685 -0.8835  0.2388
 1398SOL    HW115827   2.079   3.663   3.815 -1.7361 -1.4157 -1.9019
 1398SOL    HW215828   2.045   3.526   3.881 -0.7381 -0.5594 -0.0761
 1399SOL     OW15829   3.802   2.959  13.427  0.0083  0.1645 -0.0755
 1399SOL    HW115830   3.887   2.936  13.389  0.4108  1.7025 -0.0980
 1399SOL    HW215831   3.808   3.050  13.455 -2.7551 -0.5651  2.9064
 1400SOL     OW15832   0.049   2.238  17.495  0.1076  0.2325 -0.8804
 1400SOL    HW115833   0.004   2.245  17.579  2.3580 -2.8628  0.5598
 1400SOL    HW215834   0.036   2.327  17.462 -1.2909 -0.3395 -1.9068
 1401SOL     OW15835   3.153   2.807   4.260 -0.2611 -0.4529  0.3573
 1401SOL    HW115836   3.207   2.729   4.264  0.9950  0.4164  0.3966
 1401SOL    HW215837   3.185   2.837   4.175  0.4608 -0.1532  0.7310
 1402SOL     OW15838   2.164   3.880   8.336 -0.0860  0.3789 -0.7018
 1402SOL    HW115839   2.218   3.917   8.405  0.0790 -3.0767  1.0340
 1402SOL    HW215840   2.113   3.822   8.393 -0.5605  0.1276 -1.3847
 1403SOL     OW15841   3.145   3.983   5.200  0.0559 -0.3237  0.0160
 1403SOL    HW115842   3.083   4.054   5.182 -1.1116 -1.3892 -0.1761
 1403SOL    HW215843   3.129   3.925   5.125 -0.2285  1.3768 -1.2339
 1404SOL     OW15844   4.433   0.562   0.509 -0.0208  0.0434  0.1199
 1404SOL    HW115845   4.485   0.535   0.434  0.9370  1.0647  0.4121
 1404SOL    HW215846   4.380   0.626   0.462  0.4022  0.4871  0.2455
 1405SOL     OW15847   0.471   1.515  10.485  0.8383 -0.0554 -0.0857
 1405SOL    HW115848   0.472   1.609  10.501  1.3560  0.0782 -0.8962
 1405SOL    HW215849   0.421   1.502  10.566  0.1190  2.1039 -0.2020
 1406SOL     OW15850   3.494   2.946  13.509  0.2896 -0.0886 -0.1952
 1406SOL    HW115851   3.495   3.041  13.523  0.2157 -0.1144 -0.0077
 1406SOL    HW215852   3.568   2.941  13.449  0.6030 -1.1882  0.2800
 1407SOL     OW15853   2.292   1.378   5.649  0.2828 -0.2229 -0.1634
 1407SOL    HW115854   2.330   1.317   5.712 -0.7637 -1.0215 -0.2939
 1407SOL    HW215855   2.298   1.320   5.573  0.3174 -0.6037  0.1277
 1408SOL     OW15856   3.499   0.163   2.746 -0.4054  0.5641  0.5455
 1408SOL    HW115857   3.411   0.183   2.777 -1.6369 -1.4791 -1.6150
 1408SOL    HW215858   3.478   0.091   2.686 -0.3921 -0.3427  1.6197
 1409SOL     OW15859   4.498   3.112  13.723 -0.7139 -0.4099  0.2005
 1409SOL    HW115860   4.553   3.035  13.738  1.6017  1.0250 -0.7699
 1409SOL    HW215861   4.528   3.134  13.634  2.7929 -0.1845  1.4171
 1410SOL     OW15862   1.720   0.754   3.482 -0.1129 -0.1264  0.1082
 1410SOL    HW115863   1.804   0.796   3.465 -0.5791  1.2383  1.1737
 1410SOL    HW215864   1.712   0.765   3.577 -1.0075 -0.2331  0.0484
 1411SOL     OW15865   3.016   2.709   3.378 -0.1333 -0.0474  0.8347
 1411SOL    HW115866   2.926   2.733   3.355  0.0460  2.7566  3.1901
 1411SOL    HW215867   3.034   2.634   3.321  0.4906 -0.6496  1.8382
 1412SOL     OW15868   0.310   4.048   8.390  0.6451 -0.1481  0.7362
 1412SOL    HW115869   0.321   4.143   8.379 -0.8922  0.0210  0.5718
 1412SOL    HW215870   0.299   4.017   8.300 -0.1642  0.5869  0.5796
 1413SOL     OW15871   4.398   3.201   1.310 -0.0507  0.6167 -0.0282
 1413SOL    HW115872   4.337   3.162   1.373 -0.1248  0.3100 -0.2835
 1413SOL    HW215873   4.427   3.114   1.282  1.3672  0.7915  0.8949
 1414SOL     OW15874   2.160   2.689   5.552 -0.2308  0.5004  0.0303
 1414SOL    HW115875   2.177   2.607   5.599  2.6577  1.1991  0.1870
 1414SOL    HW215876   2.249   2.709   5.524  0.6440 -2.4592  0.6772
 1415SOL     OW15877   1.653   0.993   2.722  0.2946  0.8166  0.1516
 1415SOL    HW115878   1.678   0.931   2.654  0.8879  0.2028  0.9374
 1415SOL    HW215879   1.694   1.076   2.695 -2.1972  2.3291  1.0006
 1416SOL     OW15880   2.416   1.986   1.811 -0.8730  0.1236  0.2440
 1416SOL    HW115881   2.348   1.986   1.743 -1.1052  2.6604  0.4873
 1416SOL    HW215882   2.459   2.069   1.794 -0.8323 -0.2586 -1.5434
 1417SOL     OW15883   0.826   0.581   6.153  0.6970  0.2139 -0.1597
 1417SOL    HW115884   0.877   0.518   6.101 -0.8139 -0.2368 -1.0752
 1417SOL    HW215885   0.845   0.557   6.243  0.9837  2.4212  0.3842
 1418SOL     OW15886   2.172   0.767   2.694 -0.2020 -0.1640  0.1523
 1418SOL    HW115887   2.108   0.713   2.647 -0.3470  0.1236  0.0168
 1418SOL    HW215888   2.161   0.850   2.647 -0.7886 -0.3705 -0.0815
 1419SOL     OW15889   3.591   3.524  11.831  0.1283 -0.2949 -0.5971
 1419SOL    HW115890   3.548   3.448  11.871 -1.2385 -0.2001 -1.8985
 1419SOL    HW215891   3.570   3.516  11.738 -0.6883  0.3486 -0.4763
 1420SOL     OW15892   1.355   1.803   3.515  0.3552  0.1470 -0.1655
 1420SOL    HW115893   1.442   1.768   3.534  0.5295  0.7333  0.1067
 1420SOL    HW215894   1.291   1.742   3.553  0.8174  1.1683  2.2220
 1421SOL     OW15895   4.271   1.538   9.579 -0.2097  1.4700 -0.5207
 1421SOL    HW115896   4.313   1.624   9.573  1.1230  0.7712 -1.0717
 1421SOL    HW215897   4.227   1.540   9.494 -0.5873 -4.5882 -0.4627
 1422SOL     OW15898   3.333   4.338  17.372 -0.0185  0.2154 -0.0502
 1422SOL    HW115899   3.238   4.353  17.377  0.1558  2.0282 -2.0117
 1422SOL    HW215900   3.374   4.390  17.441 -0.4284 -1.0261  1.1309
 1423SOL     OW15901   1.373   2.563   5.756  0.0428 -0.1434 -0.0978
 1423SOL    HW115902   1.315   2.568   5.679  0.9296  1.3190 -0.6620
 1423SOL    HW215903   1.337   2.486   5.800  1.4755 -0.2408  0.8745
 1424SOL     OW15904   1.998   0.231   1.183  0.4123  0.1674 -0.6576
 1424SOL    HW115905   1.911   0.267   1.166  0.0834 -0.0701  0.5504
 1424SOL    HW215906   1.981   0.191   1.268  2.3200 -1.8157 -1.1797
 1425SOL     OW15907   0.857   1.836  12.704 -0.2145 -0.3300  0.6363
 1425SOL    HW115908   0.841   1.844  12.610 -0.0207 -0.1239  0.6199
 1425SOL    HW215909   0.949   1.862  12.704 -0.4656  0.4877  2.0477
 1426SOL     OW15910   1.884   2.613  15.957  0.3872 -0.3051 -0.0517
 1426SOL    HW115911   1.971   2.634  15.923 -0.2117  2.9764  0.4097
 1426SOL    HW215912   1.896   2.520  15.974  0.7152  0.0819  1.8044
 1427SOL     OW15913   3.057   2.091   9.618  0.4294  0.5193 -0.0494
 1427SOL    HW115914   3.003   2.120   9.544  1.8567 -0.3034 -1.3944
 1427SOL    HW215915   2.997   2.043   9.674  2.5450 -1.4841  0.4714
 1428SOL     OW15916   4.496   2.852   2.458  0.1808  0.3744 -0.0007
 1428SOL    HW115917   4.509   2.876   2.550  0.9002 -0.2248  0.0516
 1428SOL    HW215918   4.496   2.937   2.413  0.0231 -0.5946 -1.8159
 1429SOL     OW15919   1.811   0.361   8.184  0.0670 -0.2190  0.2259
 1429SOL    HW115920   1.735   0.328   8.137  0.2244  1.4209 -1.1852
 1429SOL    HW215921   1.771   0.375   8.270 -0.0235  1.5185 -0.0994
 1430SOL     OW15922   3.052   0.760   4.425 -1.2858 -0.0418 -1.2045
 1430SOL    HW115923   3.113   0.833   4.435  1.3212 -2.3720 -0.1428
 1430SOL    HW215924   2.969   0.787   4.462  0.2351  1.5737  1.0201
 1431SOL     OW15925   3.342   2.181  17.375 -0.0958 -0.5561  0.5084
 1431SOL    HW115926   3.259   2.167  17.328 -0.4067 -2.2194  1.5581
 1431SOL    HW215927   3.384   2.250  17.324  0.3574 -0.1897  1.3813
 1432SOL     OW15928   1.683   2.627   5.665 -0.3460 -0.4301 -0.1429
 1432SOL    HW115929   1.648   2.698   5.718 -0.5486 -1.2803  0.8539
 1432SOL    HW215930   1.609   2.626   5.604 -1.1907  0.2321  0.8840
 1433SOL     OW15931   2.675   1.030  13.065 -0.5083  0.0042 -0.1281
 1433SOL    HW115932   2.639   1.111  13.027 -1.1914 -0.9381 -1.4772
 1433SOL    HW215933   2.704   1.056  13.152 -0.2478 -0.8168  0.0260
 1434SOL     OW15934   3.984   3.021   9.081  0.3010  0.3585  0.2231
 1434SOL    HW115935   3.972   2.941   9.029 -0.4838  0.1199  0.7776
 1434SOL    HW215936   4.079   3.017   9.094  0.6591  0.9656 -2.1786
 1435SOL     OW15937   3.720   0.626   6.509  0.3627  0.7421 -0.1181
 1435SOL    HW115938   3.779   0.574   6.454 -0.1868  2.0159 -1.8903
 1435SOL    HW215939   3.644   0.568   6.513  1.6839 -1.1252 -2.0166
 1436SOL     OW15940   3.114   0.964   3.694  0.5042  0.4916 -0.0122
 1436SOL    HW115941   3.169   0.887   3.709 -0.4364  0.0861  1.4115
 1436SOL    HW215942   3.034   0.930   3.734  0.5610 -1.1500 -1.3129
 1437SOL     OW15943   0.435   3.869  17.194  0.3923  0.3507 -1.1919
 1437SOL    HW115944   0.497   3.942  17.190  0.6315  0.1255 -1.6301
 1437SOL    HW215945   0.374   3.880  17.121 -0.2405 -0.9740 -0.8501
 1438SOL     OW15946   3.720   3.669   6.618  0.7125 -0.0198 -0.2699
 1438SOL    HW115947   3.648   3.657   6.679  0.9543  0.1002  0.0394
 1438SOL    HW215948   3.784   3.725   6.663 -0.0043  0.4547  0.1597
 1439SOL     OW15949   4.394   0.204   4.789 -0.9289  0.8257 -0.0029
 1439SOL    HW115950   4.431   0.130   4.741  1.6894  1.8585  0.4201
 1439SOL    HW215951   4.310   0.207   4.742 -3.4664 -0.9706  4.3548
 1440SOL     OW15952   4.579   0.897  16.098 -0.2941 -0.0718 -0.0579
 1440SOL    HW115953   4.519   0.879  16.026 -0.6948 -0.1672  0.2974
 1440SOL    HW215954   4.521   0.873  16.171  1.4123 -0.6770  1.0829
 1441SOL     OW15955   3.317   3.060  14.482  0.2305 -0.3040  0.7737
 1441SOL    HW115956   3.262   3.120  14.533 -0.9564 -2.4706  2.0484
 1441SOL    HW215957   3.243   3.002  14.464  1.1486 -1.8993  2.0732
 1442SOL     OW15958   1.938   3.205  13.770 -0.3354  0.1092 -0.7069
 1442SOL    HW115959   2.022   3.249  13.763 -0.8609  1.1862 -0.2425
 1442SOL    HW215960   1.888   3.283  13.795 -1.1297 -0.7154  0.2991
 1443SOL     OW15961   3.617   0.848   3.350  0.1093 -1.2706 -0.3487
 1443SOL    HW115962   3.619   0.907   3.425  3.2488 -0.5084 -1.0320
 1443SOL    HW215963   3.688   0.791   3.378 -0.9547 -1.6218  1.6778
 1444SOL     OW15964   4.352   0.067   4.124 -0.3865 -0.1594  0.4733
 1444SOL    HW115965   4.269   0.055   4.078  0.1918  1.3701 -0.9421
 1444SOL    HW215966   4.373   4.714   4.136 -1.0028 -0.4380 -0.5488
 1445SOL     OW15967   2.635   0.841   7.088  0.2319  0.1699 -0.0560
 1445SOL    HW115968   2.564   0.793   7.046 -0.3749 -0.0977  1.2876
 1445SOL    HW215969   2.710   0.806   7.040  0.3338  1.8626 -1.1244
 1446SOL     OW15970   3.691   4.065   2.992  0.3720  0.2387  0.3419
 1446SOL    HW115971   3.656   3.978   2.973 -0.6291  1.1037 -1.7396
 1446SOL    HW215972   3.619   4.105   3.040 -0.4360  1.5396 -1.9813
 1447SOL     OW15973   1.266   2.740   6.782  0.4833  0.2536  0.1857
 1447SOL    HW115974   1.278   2.706   6.870 -0.6782  0.7094  0.5257
 1447SOL    HW215975   1.318   2.677   6.732  0.9705  2.8407 -2.5815
 1448SOL     OW15976   3.750   0.956   5.189  0.2193 -0.3880  0.2013
 1448SOL    HW115977   3.813   1.027   5.177  1.4069 -1.4316  0.2582
 1448SOL    HW215978   3.808   0.881   5.198 -1.6079 -1.6162  1.9658
 1449SOL     OW15979   2.480   0.789   2.868  0.0419 -0.8525  0.1166
 1449SOL    HW115980   2.466   0.860   2.805 -1.9689  0.4954  2.0480
 1449SOL    HW215981   2.395   0.789   2.913  0.0705  0.4278  0.1852
 1450SOL     OW15982   1.682   2.571   7.377  0.0006 -0.3514 -0.1985
 1450SOL    HW115983   1.753   2.536   7.430 -0.2836 -0.5998  0.0235
 1450SOL    HW215984   1.661   2.501   7.315  1.2832 -0.9178  0.0129
 1451SOL     OW15985   2.850   0.138  14.754  0.3371 -0.0490 -0.3135
 1451SOL    HW115986   2.828   0.055  14.797  0.9072 -0.4422 -0.7986
 1451SOL    HW215987   2.867   0.103  14.667  1.0426 -1.5929  0.4593
 1452SOL     OW15988   4.495   3.784   8.046  0.3319 -0.2848 -0.0968
 1452SOL    HW115989   4.529   3.748   8.128 -0.0167 -0.1530  0.1078
 1452SOL    HW215990   4.485   3.876   8.071  1.5385 -0.2443  0.2095
 1453SOL     OW15991   1.704   0.872   8.766 -0.1849  0.1558 -0.5435
 1453SOL    HW115992   1.738   0.906   8.849 -2.6848  0.9762  0.1284
 1453SOL    HW215993   1.637   0.814   8.804  0.1215 -0.3287 -0.7416
 1454SOL     OW15994   2.499   1.158   5.321  0.4671  0.0338  0.5802
 1454SOL    HW115995   2.514   1.109   5.240  3.4237  0.6453  0.7767
 1454SOL    HW215996   2.521   1.243   5.283  2.4142 -0.4613  0.6259
 1455SOL     OW15997   2.122   3.376   3.125  0.1454  0.1143 -0.1626
 1455SOL    HW115998   2.055   3.411   3.184  0.5363  2.2017 -0.9898
 1455SOL    HW215999   2.102   3.282   3.117  0.0977  0.2953 -1.9650
 1456SOL     OW16000   4.177   3.323   7.043 -0.4562 -0.8697  0.1786
 1456SOL    HW116001   4.194   3.263   6.971  2.1227  1.3851 -1.0851
 1456SOL    HW216002   4.194   3.261   7.114 -0.6646  1.4853  2.3132
 1457SOL     OW16003   1.334   2.061   3.577  0.4593 -0.2474 -0.1484
 1457SOL    HW116004   1.407   2.097   3.526  0.2734  1.7217  0.9634
 1457SOL    HW216005   1.335   1.969   3.552 -0.3221  0.3332 -2.2603
 1458SOL     OW16006   1.551   3.256   5.498  0.0341  0.0696  0.3086
 1458SOL    HW116007   1.645   3.273   5.504 -0.0064 -0.3855  2.4770
 1458SOL    HW216008   1.552   3.161   5.504  0.0825 -0.0050 -1.0006
 1459SOL     OW16009   2.631   2.878   1.293  0.4239  0.5288  0.3328
 1459SOL    HW116010   2.649   2.916   1.379 -0.5142 -1.1837  1.2787
 1459SOL    HW216011   2.644   2.950   1.231 -1.8135 -0.7394 -1.6113
 1460SOL     OW16012   4.037   0.813   2.399  0.1891 -0.6337 -0.5137
 1460SOL    HW116013   4.012   0.736   2.347  0.0502 -0.6626 -0.4046
 1460SOL    HW216014   4.132   0.801   2.396  0.2471 -0.1985 -0.3296
 1461SOL     OW16015   4.700   3.870   0.595  0.6331 -0.4881 -0.3557
 1461SOL    HW116016   4.676   3.928   0.667  0.1043 -1.2209  0.0518
 1461SOL    HW216017   4.721   3.789   0.643 -3.5218 -2.5223 -1.9998
 1462SOL     OW16018   2.881   2.608   4.773 -0.1842 -0.3207  0.0214
 1462SOL    HW116019   2.863   2.567   4.688  0.6571  0.5742 -0.5804
 1462SOL    HW216020   2.924   2.688   4.742 -0.0930 -0.1645  0.5464
 1463SOL     OW16021   0.058   3.612   7.592 -0.3273 -0.9802 -0.5822
 1463SOL    HW116022   0.111   3.537   7.563  1.8592  0.1778  0.4354
 1463SOL    HW216023   4.721   3.598   7.537 -0.3381 -1.9795 -0.3120
 1464SOL     OW16024   1.679   1.081   7.820  0.0665 -0.2566  0.1163
 1464SOL    HW116025   1.629   1.088   7.739  2.5470  0.5355 -1.3781
 1464SOL    HW216026   1.608   1.066   7.881  0.3223 -1.0915  0.2018
 1465SOL     OW16027   2.069   4.622   4.286 -0.2634  0.2473  0.4234
 1465SOL    HW116028   2.035   4.568   4.215 -1.8951  2.3676 -0.4047
 1465SOL    HW216029   2.052   4.706   4.244  3.5230 -1.1482 -3.9526
 1466SOL     OW16030   2.542   2.710   6.333  0.1311 -0.4128  0.4400
 1466SOL    HW116031   2.542   2.738   6.424  0.2152  1.6608 -0.1889
 1466SOL    HW216032   2.596   2.776   6.289 -0.2432  0.7737  1.7738
 1467SOL     OW16033   1.812   2.028   2.905 -0.3077  0.1087  0.2082
 1467SOL    HW116034   1.763   1.956   2.865 -0.0617 -0.1251  0.3282
 1467SOL    HW216035   1.752   2.099   2.883 -0.0447 -0.1844 -1.4669
 1468SOL     OW16036   3.503   4.090  14.431  0.2392  0.6304 -0.0262
 1468SOL    HW116037   3.593   4.065  14.409 -0.1757  1.2771 -2.4422
 1468SOL    HW216038   3.519   4.173  14.476 -0.2060  1.2149 -0.9415
 1469SOL     OW16039   4.710   2.860   8.546 -0.3793  0.1803 -0.0077
 1469SOL    HW116040   0.031   2.922   8.505 -2.5506  1.7694 -0.7819
 1469SOL    HW216041   4.676   2.911   8.619  2.5466  2.0223  0.0774
 1470SOL     OW16042   1.370   4.711   9.610  0.6533  0.2037 -0.0924
 1470SOL    HW116043   1.458   0.008   9.606  0.7417  0.4231  3.7174
 1470SOL    HW216044   1.340   4.689   9.522  2.2596 -1.3947 -0.2300
 1471SOL     OW16045   3.051   2.031   5.701 -0.1030  0.2587  0.4942
 1471SOL    HW116046   3.122   2.047   5.763  0.8022  1.5705 -0.8668
 1471SOL    HW216047   3.080   1.942   5.684 -1.1061  0.4885 -2.4865
 1472SOL     OW16048   0.606   0.921   6.915  0.2289 -0.2214  0.0278
 1472SOL    HW116049   0.688   0.928   6.867  0.3724 -0.3625  0.2538
 1472SOL    HW216050   0.558   0.891   6.837 -1.8890 -2.0611  2.0613
 1473SOL     OW16051   1.816   4.263   6.496 -0.1215  0.1406  0.2260
 1473SOL    HW116052   1.735   4.217   6.472  0.0949  0.7998 -1.7247
 1473SOL    HW216053   1.819   4.246   6.590 -0.9390  0.3180  0.2887
 1474SOL     OW16054   3.307   0.971   9.253  0.2369 -0.3344  0.0025
 1474SOL    HW116055   3.381   0.974   9.192  0.8030  3.6229  0.8342
 1474SOL    HW216056   3.292   0.877   9.260  0.1266 -0.1069  2.6072
 1475SOL     OW16057   0.843   3.893  10.430  0.0668  0.2249 -0.0179
 1475SOL    HW116058   0.801   3.848  10.357 -2.9468  0.6966  1.4598
 1475SOL    HW216059   0.817   3.983  10.409 -0.1893  0.3831  0.9705
 1476SOL     OW16060   1.649   2.874   9.622  0.0639  0.3580  0.4739
 1476SOL    HW116061   1.627   2.785   9.597  0.1551  1.2127 -2.6916
 1476SOL    HW216062   1.559   2.889   9.652 -0.3674 -2.0480  0.3775
 1477SOL     OW16063   4.392   3.155   8.611  0.4796  0.5586  0.0913
 1477SOL    HW116064   4.466   3.127   8.665 -0.3262  3.7398  2.8469
 1477SOL    HW216065   4.393   3.084   8.546 -0.7024 -1.4724  2.2849
 1478SOL     OW16066   3.863   4.055   0.270 -0.1780 -0.1764 -0.1127
 1478SOL    HW116067   3.860   3.959   0.262 -0.0431 -0.0812 -1.2972
 1478SOL    HW216068   3.882   4.062   0.364 -1.4477 -0.2309  0.1450
 1479SOL     OW16069   4.657   4.469   0.380 -0.4494  0.1186 -0.2939
 1479SOL    HW116070   4.633   4.379   0.401  0.6249  0.2484  1.4481
 1479SOL    HW216071   4.607   4.522   0.442 -2.2054 -1.7803 -0.0536
 1480SOL     OW16072   0.079   2.798  11.529  0.6175 -0.2121  0.2323
 1480SOL    HW116073   0.136   2.779  11.454  0.5734  2.0559 -0.3713
 1480SOL    HW216074   0.142   2.838  11.588 -0.3958 -0.3498  1.3941
 1481SOL     OW16075   0.479   2.717   3.450  0.1894 -0.2015  0.0515
 1481SOL    HW116076   0.480   2.750   3.540 -0.7271 -1.6718  0.6053
 1481SOL    HW216077   0.462   2.794   3.396 -1.6746  1.5060  3.0887
 1482SOL     OW16078   3.590   3.439  15.113  0.1478  1.0473  0.8886
 1482SOL    HW116079   3.504   3.465  15.081 -1.6505 -3.1180  2.4096
 1482SOL    HW216080   3.570   3.384  15.189  2.2932  1.5295  1.8215
 1483SOL     OW16081   4.536   2.322   9.849  0.1145  0.1308  0.0395
 1483SOL    HW116082   4.454   2.279   9.869  0.7972 -1.8133 -1.3121
 1483SOL    HW216083   4.595   2.247   9.864  1.0363  0.7193 -0.6301
 1484SOL     OW16084   0.479   0.179  17.549 -0.3452  0.4698 -0.1498
 1484SOL    HW116085   0.571   0.160  17.568 -0.8397  0.7580  2.5897
 1484SOL    HW216086   0.439   0.116  17.609 -0.0999  0.1799 -0.2902
 1485SOL     OW16087   1.112   1.100   6.850 -0.1128  0.1464  0.3287
 1485SOL    HW116088   1.082   1.112   6.940 -1.0350 -1.4991  0.2313
 1485SOL    HW216089   1.133   1.192   6.831  0.4942  0.1502  1.0042
 1486SOL     OW16090   1.477   1.181  10.772  0.0345 -0.1709  0.0658
 1486SOL    HW116091   1.476   1.086  10.786  3.6272 -0.1964  0.1229
 1486SOL    HW216092   1.386   1.209  10.762  0.2857  0.2898 -0.9956
 1487SOL     OW16093   0.927   0.130   3.484 -0.3363  1.0688  0.8495
 1487SOL    HW116094   0.851   0.156   3.535 -1.1082 -0.0436  0.2426
 1487SOL    HW216095   1.003   0.116   3.540  1.6801  0.4397 -2.0336
 1488SOL     OW16096   3.343   0.171  11.976  1.1237 -0.1291 -0.2733
 1488SOL    HW116097   3.317   0.090  12.020 -1.3488 -0.7294 -2.8210
 1488SOL    HW216098   3.436   0.148  11.966  1.0627 -0.2541 -0.5782
 1489SOL     OW16099   1.726   0.822  16.128  0.1660 -0.1017 -0.2732
 1489SOL    HW116100   1.750   0.911  16.155  0.0991  0.0607 -0.7549
 1489SOL    HW216101   1.657   0.843  16.066  0.0304 -0.5503 -0.2778
 1490SOL     OW16102   1.029   0.392   9.466  0.6088  0.1839 -0.2096
 1490SOL    HW116103   1.066   0.314   9.507 -0.4568  0.9251  2.1832
 1490SOL    HW216104   1.113   0.438   9.456  0.9934 -0.9180 -2.0030
 1491SOL     OW16105   3.276   3.144   9.244 -0.0710  0.5142 -0.2492
 1491SOL    HW116106   3.302   3.055   9.219  1.3618  0.8802 -0.0941
 1491SOL    HW216107   3.182   3.138   9.258 -0.2135 -0.3867 -1.7032
 1492SOL     OW16108   1.063   3.082   9.033  0.0949 -0.4021 -0.4403
 1492SOL    HW116109   0.991   3.052   8.977 -1.3661  1.4554  0.4484
 1492SOL    HW216110   1.126   3.010   9.039  0.4886 -0.0610 -0.4336
 1493SOL     OW16111   2.658   2.052  10.277 -0.5680  0.0105 -0.2044
 1493SOL    HW116112   2.699   2.114  10.337  0.2525 -1.2408  0.5338
 1493SOL    HW216113   2.714   1.976  10.290 -0.0906  0.3382 -0.3581
 1494SOL     OW16114   0.084   2.363   3.364  0.2212  0.5264  0.3634
 1494SOL    HW116115   0.138   2.442   3.362 -0.3537  0.8527 -2.2151
 1494SOL    HW216116   0.013   2.401   3.312 -0.0488 -2.9606 -1.7555
 1495SOL     OW16117   1.672   2.295  10.360 -0.1803 -0.4053  0.1547
 1495SOL    HW116118   1.744   2.325  10.303 -1.6113 -1.3174 -2.1421
 1495SOL    HW216119   1.664   2.205  10.326 -0.7766 -0.6017  0.8336
 1496SOL     OW16120   2.566   0.176   7.034 -0.2578 -0.3941 -0.5765
 1496SOL    HW116121   2.480   0.213   7.051 -0.6810 -2.1718  1.1013
 1496SOL    HW216122   2.566   0.140   6.945  2.7577 -2.5309  0.2676
 1497SOL     OW16123   1.890   0.955  12.455 -0.4082 -0.4921 -0.4892
 1497SOL    HW116124   1.979   0.937  12.485 -0.0269  0.0088 -1.3133
 1497SOL    HW216125   1.854   0.905  12.528 -0.4140 -1.1463 -0.9307
 1498SOL     OW16126   0.950   1.172   9.767  0.0917  0.0086  0.0415
 1498SOL    HW116127   0.974   1.111   9.838 -1.1663 -2.3755 -1.5846
 1498SOL    HW216128   0.868   1.208   9.800 -0.0107  2.1995 -2.6379
 1499SOL     OW16129   1.050   0.127  11.527 -0.3255 -0.5981 -0.2962
 1499SOL    HW116130   0.966   0.154  11.565 -1.2692 -1.0991 -2.0310
 1499SOL    HW216131   1.054   0.039  11.563 -3.1743 -0.6205 -0.0491
 1500SOL     OW16132   4.523   3.336  13.114 -0.5197  0.0746  0.6570
 1500SOL    HW116133   4.485   3.249  13.100 -0.8769  0.5957 -1.5895
 1500SOL    HW216134   4.467   3.365  13.187 -0.4397  0.7413  0.4540
 1501SOL     OW16135   2.179   2.369   8.984  0.0560 -0.2666  0.0913
 1501SOL    HW116136   2.114   2.434   8.957 -0.2745 -0.9169 -0.6717
 1501SOL    HW216137   2.206   2.327   8.902 -0.4523 -0.0230 -0.2021
 1502SOL     OW16138   0.462   4.607   9.130 -0.6891  0.1006  0.1433
 1502SOL    HW116139   0.485   4.575   9.043 -0.6133 -0.0432  0.2169
 1502SOL    HW216140   0.387   4.664   9.116 -2.1610 -1.7457  0.5883
 1503SOL     OW16141   4.243   1.884  17.727  0.3421 -0.2929  0.5303
 1503SOL    HW116142   4.321   1.903  17.675 -0.3073  4.7090  1.4215
 1503SOL    HW216143   4.179   1.943  17.688  2.3788 -0.2263 -2.7097
 1504SOL     OW16144   4.530   4.594   3.642  0.8814  1.2188 -0.9637
 1504SOL    HW116145   4.527   4.649   3.564 -3.2282  0.2729 -1.4638
 1504SOL    HW216146   4.530   4.661   3.711 -0.5235 -1.3483  1.5572
 1505SOL     OW16147   3.852   1.161   4.791  0.0615 -0.2851  0.2094
 1505SOL    HW116148   3.820   1.109   4.865 -1.8086  1.0301  0.3300
 1505SOL    HW216149   3.772   1.212   4.777 -0.0118 -0.5581 -0.3723
 1506SOL     OW16150   3.999   3.887  17.581 -0.0739  0.0443 -0.2787
 1506SOL    HW116151   3.976   3.804  17.623 -4.0033  0.2958 -1.9149
 1506SOL    HW216152   3.995   3.940  17.661  0.6077  0.1684 -0.3305
 1507SOL     OW16153   1.248   2.756  13.155  0.1275  0.2571 -0.2952
 1507SOL    HW116154   1.170   2.763  13.210  0.4779 -0.8874  0.3493
 1507SOL    HW216155   1.313   2.723  13.217 -1.0936 -1.5487  0.0412
 1508SOL     OW16156   1.813   0.254  16.727 -0.3182  0.5895  0.3858
 1508SOL    HW116157   1.790   0.222  16.639 -2.5206  1.0574  0.7998
 1508SOL    HW216158   1.724   0.259  16.760 -0.7318 -1.9049 -0.3287
 1509SOL     OW16159   3.234   1.504   7.764 -0.3734 -0.0932 -0.3371
 1509SOL    HW116160   3.257   1.412   7.776 -0.2071  0.1469  1.2690
 1509SOL    HW216161   3.263   1.543   7.847 -1.3030  1.1956 -0.6209
 1510SOL     OW16162   0.366   0.770   9.142  0.1671  0.4298 -0.3616
 1510SOL    HW116163   0.425   0.728   9.080  0.4096  2.7632 -1.6883
 1510SOL    HW216164   0.276   0.761   9.111 -0.4095  1.3207  1.0561
 1511SOL     OW16165   2.899   4.397   0.421 -0.2961 -0.0976  0.0578
 1511SOL    HW116166   2.977   4.379   0.475 -0.2015 -0.0812 -0.0739
 1511SOL    HW216167   2.835   4.330   0.445 -0.7068 -0.2653 -1.5225
 1512SOL     OW16168   1.987   2.533  11.750 -0.2273  0.6367 -0.2580
 1512SOL    HW116169   2.057   2.477  11.782  0.0526  0.9737 -0.2747
 1512SOL    HW216170   1.979   2.594  11.823 -1.1232  0.6241 -0.3404
 1513SOL     OW16171   2.558   4.366   4.725  0.1787  0.3807  0.0283
 1513SOL    HW116172   2.573   4.403   4.638 -1.2862 -1.4835 -1.0051
 1513SOL    HW216173   2.463   4.360   4.722  0.1458  1.3323 -0.8608
 1514SOL     OW16174   4.000   3.685   5.235 -0.5429 -0.1871 -0.1954
 1514SOL    HW116175   3.960   3.734   5.307  0.2559  2.0175 -1.2447
 1514SOL    HW216176   3.973   3.598   5.263 -0.5091  0.0592  0.6053
 1515SOL     OW16177   1.306   2.929   5.634  0.8676  0.0471  0.1317
 1515SOL    HW116178   1.229   2.884   5.668  0.3219  0.6677 -0.2709
 1515SOL    HW216179   1.292   2.906   5.542 -1.6699 -0.9857  0.7799
 1516SOL     OW16180   3.000   1.165   5.710 -0.1022  0.3994  0.2455
 1516SOL    HW116181   3.089   1.185   5.680 -0.2147 -1.0801 -1.0796
 1516SOL    HW216182   2.979   1.250   5.749  0.2325  0.2972  0.6490
 1517SOL     OW16183   2.299   2.008   4.284 -0.3858  0.3040  0.5276
 1517SOL    HW116184   2.379   1.957   4.268 -0.4751  0.8710 -1.7025
 1517SOL    HW216185   2.272   1.998   4.375 -0.4831  2.5346  0.7516
 1518SOL     OW16186   2.919   1.562  12.599 -0.4801 -0.4047 -0.4741
 1518SOL    HW116187   2.949   1.545  12.688  3.0243 -2.1425 -1.9884
 1518SOL    HW216188   2.920   1.657  12.615  0.8811 -0.6509  0.9072
 1519SOL     OW16189   2.785   0.853   9.496 -0.3809  0.1076 -0.3464
 1519SOL    HW116190   2.796   0.931   9.443 -2.5562  0.4910 -0.2609
 1519SOL    HW216191   2.874   0.818   9.502  0.2392  1.5983 -1.0176
 1520SOL     OW16192   0.460   3.695   8.618  0.1789  0.7502 -0.3937
 1520SOL    HW116193   0.384   3.726   8.569 -0.5741  1.3432  1.1420
 1520SOL    HW216194   0.471   3.770   8.676  1.6608  1.9158 -2.2083
 1521SOL     OW16195   1.854   2.059  16.789 -0.7944  0.2075 -0.3908
 1521SOL    HW116196   1.847   1.977  16.837 -1.7528  1.0471  0.8643
 1521SOL    HW216197   1.823   2.126  16.849 -1.3671 -1.0062  0.6619
 1522SOL     OW16198   1.154   0.564   5.984  0.4336 -0.3101 -0.2831
 1522SOL    HW116199   1.099   0.599   5.915  1.8854 -0.2393 -1.3995
 1522SOL    HW216200   1.201   0.643   6.012  0.3818 -0.4673  0.2549
 1523SOL     OW16201   2.689   0.520   4.718  0.1265  0.1695 -0.7119
 1523SOL    HW116202   2.632   0.492   4.647  2.8626 -0.5074 -2.6229
 1523SOL    HW216203   2.650   0.600   4.754 -1.6695 -1.7193  1.5755
 1524SOL     OW16204   0.390   4.355   1.392 -0.4733 -0.2168 -0.2419
 1524SOL    HW116205   0.311   4.360   1.446 -1.3602 -0.9357 -1.4679
 1524SOL    HW216206   0.393   4.260   1.382 -2.0577 -0.5011  1.8562
 1525SOL     OW16207   2.812   1.131   3.743 -0.3873 -0.4927  0.4698
 1525SOL    HW116208   2.821   1.038   3.724  2.4577 -0.3228  0.9147
 1525SOL    HW216209   2.887   1.168   3.696 -0.3941 -0.6934  0.3038
 1526SOL     OW16210   2.242   2.370   3.056  0.2681 -0.9861 -0.3694
 1526SOL    HW116211   2.183   2.308   3.098 -0.1895  0.1922  0.7259
 1526SOL    HW216212   2.322   2.333   3.093  0.4490 -1.2199 -0.9910
 1527SOL     OW16213   2.638   2.296   8.221 -0.0485  0.4579 -0.4815
 1527SOL    HW116214   2.725   2.323   8.190 -1.2452  1.0610 -3.2652
 1527SOL    HW216215   2.651   2.202   8.207 -1.9104  0.3787 -1.6510
 1528SOL     OW16216   0.220   3.475  14.613  0.4035 -0.2659  0.2266
 1528SOL    HW116217   0.153   3.457  14.547 -0.2711 -0.8006  1.0482
 1528SOL    HW216218   0.182   3.551  14.658  0.2075 -0.0255 -0.3489
 1529SOL     OW16219   3.138   1.446  11.159  0.4195  0.4602  0.1613
 1529SOL    HW116220   3.081   1.494  11.219 -0.4906  0.9054 -1.0731
 1529SOL    HW216221   3.091   1.366  11.182 -0.4994  1.5678  2.1713
 1530SOL     OW16222   2.457   4.187   2.260  0.1987  0.0763  0.4624
 1530SOL    HW116223   2.453   4.282   2.246 -0.8259 -0.2732 -1.6354
 1530SOL    HW216224   2.389   4.181   2.328 -0.3533 -3.4600 -0.3952
 1531SOL     OW16225   4.054   1.157   7.920 -0.2169  0.2973 -0.2864
 1531SOL    HW116226   4.069   1.145   7.827  3.1085  0.2020  0.2500
 1531SOL    HW216227   4.074   1.250   7.933  0.7104  0.6092 -3.9310
 1532SOL     OW16228   2.039   2.790  16.533 -0.1409 -0.2593  0.5072
 1532SOL    HW116229   1.987   2.740  16.470  1.0653 -2.1863  1.0134
 1532SOL    HW216230   1.970   2.817  16.593 -1.6322 -0.2204 -1.2579
 1533SOL     OW16231   0.690   3.524   1.033 -0.6106 -0.6481  0.4843
 1533SOL    HW116232   0.775   3.565   1.017 -1.2285  0.2222 -0.5787
 1533SOL    HW216233   0.624   3.589   1.009  1.6101  2.0554  1.6665
 1534SOL     OW16234   4.511   4.342   3.387  0.2650  0.1942  0.0416
 1534SOL    HW116235   4.452   4.406   3.346 -1.4226 -0.9489  0.6505
 1534SOL    HW216236   4.451   4.303   3.452 -0.1087  0.0895 -0.3605
 1535SOL     OW16237   2.028   0.024   6.452 -0.4299  0.2872 -0.6648
 1535SOL    HW116238   2.004   0.098   6.396  1.2942  0.4240 -1.2106
 1535SOL    HW216239   1.943   4.721   6.464 -0.4175 -0.1177 -2.0246
 1536SOL     OW16240   0.146   2.624   8.890 -0.2315 -0.1581 -0.2470
 1536SOL    HW116241   0.207   2.672   8.946 -0.3917  0.0392 -0.2435
 1536SOL    HW216242   0.103   2.570   8.957  1.6882 -0.9725  0.3427
 1537SOL     OW16243   1.286   4.057   7.853 -0.4054  0.7487  0.6927
 1537SOL    HW116244   1.301   4.010   7.935 -0.4975  0.1510  0.3703
 1537SOL    HW216245   1.216   4.118   7.875  1.5364  2.3062  2.4971
 1538SOL     OW16246   4.651   4.083   5.406  0.6426 -0.3810  0.1743
 1538SOL    HW116247   4.677   4.172   5.384  1.8447 -0.7945 -0.0606
 1538SOL    HW216248   4.597   4.101   5.482 -0.2904 -1.6859 -0.1757
 1539SOL     OW16249   2.288   3.859   6.083 -0.8615 -0.3869 -0.4281
 1539SOL    HW116250   2.285   3.815   6.167 -1.7916  0.6110  0.0625
 1539SOL    HW216251   2.330   3.940   6.113  0.2492 -1.4937  1.0053
 1540SOL     OW16252   2.097   1.653   7.939 -0.6075 -0.1341 -0.0866
 1540SOL    HW116253   2.136   1.584   7.886  3.6556  2.0222  0.2483
 1540SOL    HW216254   2.123   1.625   8.027  2.0779 -1.3940 -1.2794
 1541SOL     OW16255   2.869   4.552  12.204 -0.2281 -0.5935  0.1548
 1541SOL    HW116256   2.864   4.538  12.299  0.7975 -0.8394  0.1770
 1541SOL    HW216257   2.934   4.485  12.184  0.4074 -0.0576  0.4077
 1542SOL     OW16258   1.640   3.443   4.875 -0.3265 -0.8446 -0.0826
 1542SOL    HW116259   1.614   3.533   4.854 -0.6600 -0.8113  0.4630
 1542SOL    HW216260   1.712   3.458   4.936 -1.3185  0.9983  0.6546
 1543SOL     OW16261   1.408   2.306   8.825 -0.2307  0.9154  0.2000
 1543SOL    HW116262   1.374   2.377   8.880  2.0799  1.7598  0.5664
 1543SOL    HW216263   1.330   2.285   8.774 -0.6173  0.9813  0.7628
 1544SOL     OW16264   3.376   4.502   8.313  0.1823  0.3470 -0.5130
 1544SOL    HW116265   3.356   4.595   8.309 -0.6468  0.1267 -1.6963
 1544SOL    HW216266   3.384   4.485   8.407 -3.0825  4.3820  0.4783
 1545SOL     OW16267   1.736   3.484   7.192 -0.2046 -0.2686 -1.0585
 1545SOL    HW116268   1.811   3.527   7.234 -0.0116  0.4820 -2.1732
 1545SOL    HW216269   1.671   3.554   7.190 -0.8018 -0.8116 -0.5196
 1546SOL     OW16270   4.083   4.235   7.585 -0.1805  0.2557  0.5030
 1546SOL    HW116271   4.159   4.178   7.573  2.1668  3.7957 -1.2737
 1546SOL    HW216272   4.011   4.172   7.581  2.1072 -2.3925  1.2755
 1547SOL     OW16273   0.744   1.573   8.766 -0.3302 -0.1935 -0.6355
 1547SOL    HW116274   0.835   1.559   8.791 -0.2781  0.3240 -0.5368
 1547SOL    HW216275   0.709   1.512   8.831  0.7387 -0.0138  0.1089
 1548SOL     OW16276   2.745   1.971  10.000 -0.1453  0.2524  0.6091
 1548SOL    HW116277   2.690   1.903  10.038  2.2975 -1.1522  1.5998
 1548SOL    HW216278   2.684   2.045  10.011 -0.3217  0.0705  0.8576
 1549SOL     OW16279   3.148   0.002  13.794  0.0982 -0.0732  0.3160
 1549SOL    HW116280   3.095   0.075  13.825 -0.7405 -0.1938 -0.8418
 1549SOL    HW216281   3.233   0.014  13.836 -0.2949  1.0086  0.7943
 1550SOL     OW16282   0.607   0.688   1.337  0.4354 -0.4804  0.6702
 1550SOL    HW116283   0.556   0.608   1.333 -0.8301  0.2625  1.8367
 1550SOL    HW216284   0.541   0.733   1.391 -0.6398  0.3448 -1.3107
 1551SOL     OW16285   3.403   2.327   7.442  0.1443 -0.0704 -0.4842
 1551SOL    HW116286   3.476   2.309   7.383  1.4040  1.9900  0.4754
 1551SOL    HW216287   3.412   2.420   7.459  1.5546 -0.2528 -0.2585
 1552SOL     OW16288   2.005   2.172   8.616 -0.4050 -0.2085 -0.1703
 1552SOL    HW116289   1.962   2.191   8.700  0.9342 -1.3766  0.7925
 1552SOL    HW216290   2.095   2.160   8.645  0.1733  1.5325 -1.2523
 1553SOL     OW16291   2.076   3.854   1.970 -0.5505 -0.4458 -0.6048
 1553SOL    HW116292   1.980   3.856   1.980 -0.3590  1.0747  0.8071
 1553SOL    HW216293   2.088   3.882   1.879  3.7573 -0.6937 -0.0999
 1554SOL     OW16294   3.786   2.629  10.959 -0.0848  0.3737  0.4380
 1554SOL    HW116295   3.693   2.617  10.975 -0.1789 -0.4991 -0.7606
 1554SOL    HW216296   3.792   2.723  10.974 -2.1864  0.1831  2.3192
 1555SOL     OW16297   3.459   0.265   6.216  0.0941  0.2992 -0.4117
 1555SOL    HW116298   3.446   0.170   6.206 -1.4497  0.5638 -0.8761
 1555SOL    HW216299   3.379   0.291   6.170  1.5142  2.8851 -1.4299
 1556SOL     OW16300   3.186   1.103  13.224  0.4531 -0.5836  0.7414
 1556SOL    HW116301   3.142   1.035  13.275  1.1821  0.9642  3.4337
 1556SOL    HW216302   3.212   1.155  13.300 -1.6788 -1.0217  1.7516
 1557SOL     OW16303   1.478   1.901   7.710  0.1456 -0.2316 -0.0046
 1557SOL    HW116304   1.526   1.824   7.679 -0.4635  0.3293 -2.3138
 1557SOL    HW216305   1.549   1.957   7.740 -0.3192  0.2864  0.1140
 1558SOL     OW16306   2.021   4.349  14.694  0.7647 -0.0408  0.1979
 1558SOL    HW116307   2.002   4.308  14.779  0.9884  1.3982  0.9426
 1558SOL    HW216308   1.960   4.423  14.690  1.0722  0.2499  0.9475
 1559SOL     OW16309   0.388   2.272   9.707  0.1614  0.3132 -0.3929
 1559SOL    HW116310   0.478   2.248   9.733  1.1825  1.9382 -2.4802
 1559SOL    HW216311   0.351   2.242   9.790  0.9612  0.3972 -0.0004
 1560SOL     OW16312   2.376   1.057   7.361  0.1942  0.4796 -0.7803
 1560SOL    HW116313   2.428   1.135   7.342  0.5787  0.1075 -1.2485
 1560SOL    HW216314   2.292   1.097   7.382  0.2586 -0.7084  1.7046
 1561SOL     OW16315   0.922   4.512  10.141 -0.1864 -0.2597  0.7153
 1561SOL    HW116316   0.883   4.425  10.145 -0.8356  0.0391  0.9000
 1561SOL    HW216317   0.868   4.559  10.077  2.4178  2.5597  0.5962
 1562SOL     OW16318   0.338   4.471   9.802 -0.0068  0.9809 -0.5619
 1562SOL    HW116319   0.389   4.401   9.761 -1.3463 -0.8929  1.0060
 1562SOL    HW216320   0.248   4.445   9.781 -0.0525  1.4216 -0.9264
 1563SOL     OW16321   0.306   1.573  16.564  0.3158 -0.9977 -0.0930
 1563SOL    HW116322   0.235   1.631  16.591  0.3284 -2.1294  2.3900
 1563SOL    HW216323   0.307   1.494  16.618 -1.7581 -1.8267 -1.3006
 1564SOL     OW16324   2.523   2.860   7.462 -0.0944 -0.4744  0.4334
 1564SOL    HW116325   2.544   2.779   7.414 -2.1191 -0.6362 -0.1725
 1564SOL    HW216326   2.495   2.918   7.391  1.0721 -0.2230  0.1662
 1565SOL     OW16327   2.810   4.491   2.750 -0.2245  0.5959  0.2469
 1565SOL    HW116328   2.778   4.448   2.671  1.3793  0.7167 -0.4650
 1565SOL    HW216329   2.893   4.444   2.752 -1.0850 -0.8226  2.0302
 1566SOL     OW16330   0.353   1.758   6.874 -0.3181  0.3920 -0.2418
 1566SOL    HW116331   0.298   1.680   6.872  0.7244 -0.3689  1.0477
 1566SOL    HW216332   0.393   1.754   6.960  0.8664  2.7858 -0.6745
 1567SOL     OW16333   2.089   0.369   2.090 -0.5276  0.0418  0.0936
 1567SOL    HW116334   2.002   0.373   2.048 -1.3436  0.5091  1.8248
 1567SOL    HW216335   2.060   0.345   2.178  1.4679 -0.4679  0.6148
 1568SOL     OW16336   0.508   2.480   3.228  0.1158  0.2358  0.3908
 1568SOL    HW116337   0.486   2.571   3.208  1.0047  0.1125 -1.1182
 1568SOL    HW216338   0.586   2.470   3.283  1.5454  0.5199 -1.5852
 1569SOL     OW16339   0.557   2.951  10.127 -0.1048  0.3006 -0.1379
 1569SOL    HW116340   0.584   2.896  10.200  0.2099 -0.0825 -0.5439
 1569SOL    HW216341   0.644   2.954  10.086 -0.0008 -0.3231  0.0469
 1570SOL     OW16342   1.749   3.073   8.921 -0.1212  0.3581 -0.5183
 1570SOL    HW116343   1.698   3.002   8.883 -0.4065  0.6898 -0.7613
 1570SOL    HW216344   1.795   3.016   8.982  3.5403  1.2041 -2.4776
 1571SOL     OW16345   0.657   1.391   8.954 -0.0782 -0.1931  0.1248
 1571SOL    HW116346   0.731   1.434   8.997  0.3729  0.0545 -0.9025
 1571SOL    HW216347   0.604   1.363   9.029  0.7318  0.5526  0.9815
 1572SOL     OW16348   4.455   0.689  11.454  0.1807  0.0543 -0.1886
 1572SOL    HW116349   4.542   0.662  11.483 -1.0318 -2.0899  1.5210
 1572SOL    HW216350   4.446   0.766  11.510  2.9692  1.0558 -1.1593
 1573SOL     OW16351   1.285   1.112   2.713  0.6326 -0.0470  0.0913
 1573SOL    HW116352   1.318   1.093   2.626 -1.6484  2.0156 -1.2078
 1573SOL    HW216353   1.346   1.067   2.772  1.1749  2.4495  1.4675
 1574SOL     OW16354   2.668   3.734   6.458 -0.6536 -0.4763 -0.2227
 1574SOL    HW116355   2.719   3.790   6.516  0.5018 -0.4181 -1.2881
 1574SOL    HW216356   2.690   3.647   6.493 -2.2935 -0.6852  0.2890
 1575SOL     OW16357   2.454   1.185   2.264 -0.1289  0.1892  0.3915
 1575SOL    HW116358   2.406   1.163   2.184 -0.6781  1.5475  0.3465
 1575SOL    HW216359   2.475   1.278   2.254 -0.6043  0.5652  2.8857
 1576SOL     OW16360   0.374   2.616   2.084 -0.3229  0.4620 -0.2563
 1576SOL    HW116361   0.468   2.598   2.096  0.2334  3.6713  0.2314
 1576SOL    HW216362   0.347   2.526   2.102 -1.6851  0.8512 -0.4112
 1577SOL     OW16363   1.209   0.363  14.116  0.1780  0.3279 -0.1264
 1577SOL    HW116364   1.278   0.428  14.102 -0.0133  0.9373  1.7760
 1577SOL    HW216365   1.203   0.333  14.025  1.1573  0.9795 -0.4062
 1578SOL     OW16366   3.600   2.516   8.621  0.6632 -0.1063  0.0016
 1578SOL    HW116367   3.613   2.478   8.708 -1.5126  0.6032  0.6617
 1578SOL    HW216368   3.682   2.522   8.572  0.6398  0.2852  0.0100
 1579SOL     OW16369   0.049   3.499  14.388  0.1811 -0.5939  0.7433
 1579SOL    HW116370   4.722   3.449  14.340 -0.3678  0.1143  0.7689
 1579SOL    HW216371   0.133   3.473  14.350  0.5765 -1.7207  2.3907
 1580SOL     OW16372   0.846   1.590   7.904 -0.2330  0.4952  0.2090
 1580SOL    HW116373   0.762   1.599   7.859  0.7670  0.4880 -1.6620
 1580SOL    HW216374   0.830   1.547   7.988 -0.3681 -1.0386 -0.6131
 1581SOL     OW16375   0.178   3.688  17.750 -0.5482  0.1934  0.2971
 1581SOL    HW116376   0.152   3.664  17.661 -2.3530 -2.7540  1.6122
 1581SOL    HW216377   0.093   3.690   0.037  0.1392 -0.5864  1.7270
 1582SOL     OW16378   4.726   1.027   7.638 -0.6289 -0.0658 -0.2123
 1582SOL    HW116379   4.647   1.080   7.631 -0.5054 -0.0807 -1.7356
 1582SOL    HW216380   4.690   0.954   7.588  0.8031 -0.8799 -0.0605
 1583SOL     OW16381   3.010   3.888   4.101 -0.3202 -0.0451 -0.0906
 1583SOL    HW116382   2.992   3.809   4.049 -1.9244  0.2417  0.0360
 1583SOL    HW216383   3.044   3.944   4.030  0.4799  0.8283  0.9866
 1584SOL     OW16384   4.585   0.089   3.883  0.4264 -0.1198  0.4399
 1584SOL    HW116385   4.532   0.134   3.818  1.8119 -1.2720 -1.4735
 1584SOL    HW216386   4.583   0.150   3.957 -0.9898  0.0223  0.2894
 1585SOL     OW16387   1.681   2.659   5.193  0.4552 -0.0769  0.7226
 1585SOL    HW116388   1.741   2.642   5.120  0.4120 -0.9372  0.8882
 1585SOL    HW216389   1.629   2.578   5.192  0.1064  0.1767 -1.5746
 1586SOL     OW16390   1.776   3.716  17.234 -0.6931 -0.2112 -0.4015
 1586SOL    HW116391   1.847   3.780  17.232  1.6350 -2.7817  1.2760
 1586SOL    HW216392   1.793   3.659  17.159 -1.2356  1.0305 -1.4760
 1587SOL     OW16393   2.320   0.125   5.349 -0.2413 -0.4984 -0.0614
 1587SOL    HW116394   2.309   0.051   5.408 -2.3283  1.4130  1.9661
 1587SOL    HW216395   2.374   0.189   5.395  0.3614 -0.4899 -0.7716
 1588SOL     OW16396   3.338   4.604   0.827  0.3032 -0.6727 -0.6246
 1588SOL    HW116397   3.321   4.570   0.915 -0.2723  1.5298  0.1278
 1588SOL    HW216398   3.260   4.659   0.817  1.2621  1.0250  1.1346
 1589SOL     OW16399   2.527   4.203   8.574  0.0430 -0.2189  0.3942
 1589SOL    HW116400   2.488   4.141   8.513  1.1099 -0.5100  0.0092
 1589SOL    HW216401   2.572   4.261   8.512  1.9812 -2.2807 -0.1176
 1590SOL     OW16402   4.244   2.733   7.278 -0.0991  0.0360 -0.5023
 1590SOL    HW116403   4.163   2.735   7.228  1.3123 -0.3485 -2.8062
 1590SOL    HW216404   4.243   2.649   7.323 -2.8639  0.4089  0.1361
 1591SOL     OW16405   3.333   2.856   3.639  0.2183  0.0221  0.2598
 1591SOL    HW116406   3.291   2.770   3.637  2.6913 -1.1492 -2.0025
 1591SOL    HW216407   3.417   2.840   3.596  0.0501  2.3553 -0.9842
 1592SOL     OW16408   3.978   0.883  10.624  0.0422  0.0764  0.3590
 1592SOL    HW116409   3.915   0.920  10.561  0.7300 -0.5722 -0.7104
 1592SOL    HW216410   3.936   0.803  10.656 -2.4828  1.3807  0.3608
 1593SOL     OW16411   2.135   1.034   1.095  0.0411 -0.3333  0.2242
 1593SOL    HW116412   2.202   1.059   1.031 -1.7870  0.4400 -1.3812
 1593SOL    HW216413   2.116   0.941   1.081 -0.7370 -0.4762  2.3114
 1594SOL     OW16414   1.085   2.920   4.709 -0.1923 -0.2463  0.1311
 1594SOL    HW116415   1.025   2.889   4.642 -0.0350  0.0866 -0.1622
 1594SOL    HW216416   1.111   2.998   4.660  0.3189  1.6327  3.3625
 1595SOL     OW16417   4.310   3.721   6.796  0.1597  0.3439 -0.1087
 1595SOL    HW116418   4.229   3.672   6.807 -0.2170  1.1335  0.6694
 1595SOL    HW216419   4.369   3.647   6.778 -1.5855 -1.4447  1.5242
 1596SOL     OW16420   0.546   2.198  11.637  0.2019  0.0061  0.0479
 1596SOL    HW116421   0.495   2.118  11.649  2.3337 -1.3798 -0.2438
 1596SOL    HW216422   0.486   2.241  11.576  2.2584  1.1112 -1.1768
 1597SOL     OW16423   3.563   4.147   7.482  0.0462 -0.2312  0.1497
 1597SOL    HW116424   3.474   4.179   7.498  0.0885  0.2375 -0.5725
 1597SOL    HW216425   3.555   4.052   7.471 -0.0899 -0.3589  1.3625
 1598SOL     OW16426   2.280   4.038   4.227  0.2430  0.6043 -0.0767
 1598SOL    HW116427   2.286   3.987   4.147  0.3887 -0.5829  0.6908
 1598SOL    HW216428   2.295   3.973   4.296 -0.9560  0.7225  0.2967
 1599SOL     OW16429   3.443   2.470   6.584  0.2247 -0.3092  0.3744
 1599SOL    HW116430   3.386   2.427   6.648 -0.3917  0.0333  0.0613
 1599SOL    HW216431   3.506   2.518   6.638 -3.3182  3.3126  1.3230
 1600SOL     OW16432   4.165   2.454   1.634  0.0616 -0.1932 -0.0479
 1600SOL    HW116433   4.161   2.531   1.578 -0.2198 -1.0548 -1.2274
 1600SOL    HW216434   4.257   2.429   1.643 -0.5009 -2.5345 -0.5910
 1601SOL     OW16435   1.872   3.188   6.484 -0.5973  0.6518  0.3967
 1601SOL    HW116436   1.779   3.203   6.499 -0.4156 -0.6267  2.8242
 1601SOL    HW216437   1.899   3.193   6.576 -1.1596  3.4217  0.4109
 1602SOL     OW16438   2.020   2.920   2.304 -0.1357  0.0373  0.0137
 1602SOL    HW116439   2.068   2.900   2.223  1.0044  3.2084 -0.0853
 1602SOL    HW216440   2.086   2.947   2.368 -0.6120  0.4659  0.3160
 1603SOL     OW16441   4.442   3.901   8.774  0.2142  0.5284  0.0464
 1603SOL    HW116442   4.523   3.860   8.742 -0.4867 -2.4752  2.0586
 1603SOL    HW216443   4.378   3.893   8.703 -0.5128  1.1284  0.6353
 1604SOL     OW16444   2.593   1.045  10.208 -0.0123 -0.0580  0.1110
 1604SOL    HW116445   2.533   1.091  10.266  0.4854  0.6245  0.0789
 1604SOL    HW216446   2.656   1.114  10.190  2.1091 -2.1709 -0.5259
 1605SOL     OW16447   1.383   0.401   0.458  0.3021  0.7168  0.8622
 1605SOL    HW116448   1.434   0.343   0.514  1.2541 -0.1667 -0.9371
 1605SOL    HW216449   1.441   0.415   0.383 -0.0647  3.5962  1.1168
 1606SOL     OW16450   2.819   2.930   0.485  0.2602  0.2646 -0.2250
 1606SOL    HW116451   2.856   2.872   0.419 -1.6234 -0.1988 -0.8724
 1606SOL    HW216452   2.770   2.873   0.544  0.0169 -0.8307 -1.4864
 1607SOL     OW16453   4.342   0.328  10.775  0.2582 -0.3712 -0.2373
 1607SOL    HW116454   4.391   0.246  10.763 -1.3227 -0.9164 -2.8358
 1607SOL    HW216455   4.352   0.367  10.688 -0.7366 -0.1772 -0.2560
 1608SOL     OW16456   2.077   4.373   2.190 -0.2599  0.3068 -0.2629
 1608SOL    HW116457   2.000   4.317   2.200 -0.3770  0.3575 -0.8788
 1608SOL    HW216458   2.111   4.355   2.103 -2.8125 -2.4748 -0.6699
 1609SOL     OW16459   2.962   2.563  15.743  0.0406  0.3206 -0.2337
 1609SOL    HW116460   3.029   2.595  15.683  0.7103  0.1239  0.4102
 1609SOL    HW216461   2.899   2.630  15.718 -0.9485 -0.1935  0.8733
 1610SOL     OW16462   1.342   0.943   4.214  0.7584  0.1193 -0.2841
 1610SOL    HW116463   1.407   0.917   4.279 -0.8638 -2.1420  0.4369
 1610SOL    HW216464   1.262   0.903   4.248  2.0577 -0.6396  1.9002
 1611SOL     OW16465   2.532   3.757   6.825 -0.2527 -0.0075  0.6466
 1611SOL    HW116466   2.498   3.755   6.914 -0.4240 -1.2251  0.5534
 1611SOL    HW216467   2.604   3.819   6.831  0.4155 -0.6833 -0.3560
 1612SOL     OW16468   3.526   0.858   6.699  0.0986  0.5091  0.0018
 1612SOL    HW116469   3.503   0.903   6.780  1.0789 -0.8298  1.0089
 1612SOL    HW216470   3.439   0.846   6.659  0.5340 -4.1940  0.4822
 1613SOL     OW16471   3.616   3.274  10.209  0.2987  0.3674 -0.1215
 1613SOL    HW116472   3.537   3.269  10.155  0.4966  0.0925 -0.3858
 1613SOL    HW216473   3.587   3.268  10.300 -0.8985  1.7299 -0.4220
 1614SOL     OW16474   3.531   1.650   3.670 -0.3201  0.2336 -0.1739
 1614SOL    HW116475   3.510   1.601   3.590 -0.1562  0.5111 -0.3832
 1614SOL    HW216476   3.551   1.576   3.727  0.2323  1.6687  1.4943
 1615SOL     OW16477   2.819   4.605   9.276 -0.2445 -0.5685 -0.1377
 1615SOL    HW116478   2.831   4.549   9.200  0.0428 -0.3284 -0.2671
 1615SOL    HW216479   2.872   4.679   9.248 -1.5991  1.0080  1.4596
 1616SOL     OW16480   4.493   3.657   9.762  0.0454 -0.3059 -0.4659
 1616SOL    HW116481   4.422   3.598   9.735  0.1144 -1.5408  2.0761
 1616SOL    HW216482   4.556   3.590   9.789 -2.1581 -2.1668  0.0665
 1617SOL     OW16483   2.722   3.962   7.643 -0.7646 -0.1658  0.4994
 1617SOL    HW116484   2.740   3.888   7.585  2.9809  1.6506 -0.6605
 1617SOL    HW216485   2.671   3.918   7.710 -1.8364  1.3935  0.6951
 1618SOL     OW16486   4.218   3.811   2.165  0.1482 -0.0340  0.0173
 1618SOL    HW116487   4.162   3.781   2.094  2.0695  1.2191 -2.0558
 1618SOL    HW216488   4.157   3.853   2.226  0.3401  0.5747 -0.2030
 1619SOL     OW16489   0.203   1.237   5.822  0.6642  0.1737 -0.2831
 1619SOL    HW116490   0.161   1.261   5.739 -1.4131 -0.7263  0.4968
 1619SOL    HW216491   0.247   1.157   5.793 -0.2440 -0.1493 -0.7784
 1620SOL     OW16492   3.158   0.061  12.953 -0.3974 -0.2450 -0.4601
 1620SOL    HW116493   3.070   0.025  12.942 -0.1916 -1.1693  0.8775
 1620SOL    HW216494   3.146   0.138  12.897 -0.4067 -0.6065 -0.9539
 1621SOL     OW16495   3.386   3.752   8.802  0.3052 -0.0712  0.2534
 1621SOL    HW116496   3.292   3.759   8.816  0.8297  0.8636  3.2520
 1621SOL    HW216497   3.407   3.666   8.837  1.3808  0.3040  0.5472
 1622SOL     OW16498   4.007   2.334   7.705  0.3475  0.8960 -0.4392
 1622SOL    HW116499   3.942   2.282   7.657 -0.0908  2.5335 -1.6347
 1622SOL    HW216500   3.998   2.294   7.791  0.4856 -0.6208 -1.1135
 1623SOL     OW16501   4.296   2.216   5.587 -0.1745 -0.2298  0.0502
 1623SOL    HW116502   4.357   2.225   5.514 -0.0324 -2.3759 -0.1039
 1623SOL    HW216503   4.294   2.121   5.602 -0.0186 -0.7527 -3.1488
 1624SOL     OW16504   2.013   0.765  11.783 -0.2162 -0.3899 -0.2070
 1624SOL    HW116505   2.011   0.810  11.867 -0.9940 -1.4821  0.3688
 1624SOL    HW216506   2.079   0.699  11.801  0.2657  0.0949 -0.2020
 1625SOL     OW16507   0.338   4.351   2.985 -0.6548  0.1336  0.3911
 1625SOL    HW116508   0.254   4.318   3.018  0.0946 -1.7943  0.3775
 1625SOL    HW216509   0.395   4.336   3.060  1.4201 -3.1131 -1.7923
 1626SOL     OW16510   0.724   2.139   3.843  0.2354  0.0958 -0.0713
 1626SOL    HW116511   0.698   2.079   3.773 -0.5013 -2.4764  2.3901
 1626SOL    HW216512   0.638   2.161   3.879 -0.0293  0.1064 -0.7039
 1627SOL     OW16513   1.583   0.011   1.842 -0.0588  0.3133  0.4341
 1627SOL    HW116514   1.540   4.715   1.765  0.0082 -0.2889  0.6754
 1627SOL    HW216515   1.510   0.055   1.887 -2.3729 -1.7623 -1.3453
 1628SOL     OW16516   2.430   0.582   0.783 -0.3839 -0.1473 -0.2154
 1628SOL    HW116517   2.462   0.624   0.703 -0.4658 -1.1867 -0.8008
 1628SOL    HW216518   2.470   0.495   0.778  0.8077  0.4557 -1.0823
 1629SOL     OW16519   2.231   2.650   5.937  0.4672  0.3542  0.0181
 1629SOL    HW116520   2.244   2.745   5.942  1.0312  0.2390  0.8055
 1629SOL    HW216521   2.266   2.622   6.021  2.0194  1.2254 -0.3297
 1630SOL     OW16522   3.649   1.718   4.199 -0.1756 -0.3995 -0.3938
 1630SOL    HW116523   3.669   1.628   4.226  2.9910  1.4382  3.3491
 1630SOL    HW216524   3.721   1.764   4.243  1.2405 -1.3184 -1.7705
 1631SOL     OW16525   1.776   4.008   8.402  0.4384  0.1028 -0.2117
 1631SOL    HW116526   1.818   3.963   8.330 -0.4674  0.9517 -1.2795
 1631SOL    HW216527   1.729   3.931   8.434 -0.4794  0.4041 -0.8287
 1632SOL     OW16528   3.598   1.597   7.193  0.2222  0.5818 -0.1467
 1632SOL    HW116529   3.558   1.528   7.141  2.0662  0.3947 -1.3026
 1632SOL    HW216530   3.687   1.563   7.201 -0.1733 -0.3143  0.3641
 1633SOL     OW16531   2.006   1.119   6.743 -0.3121  0.1563 -0.6486
 1633SOL    HW116532   2.004   1.036   6.792 -0.9363  0.7783  0.3699
 1633SOL    HW216533   2.101   1.129   6.736  0.0644 -0.8905  2.7162
 1634SOL     OW16534   3.540   1.716   4.613  0.7182 -0.3810  0.4247
 1634SOL    HW116535   3.511   1.784   4.552 -0.9602  0.0661  1.7476
 1634SOL    HW216536   3.635   1.728   4.603  0.3876  1.6211 -0.3970
 1635SOL     OW16537   1.629   3.272   2.890  1.1479  0.3949  0.0898
 1635SOL    HW116538   1.550   3.321   2.867 -0.4356 -2.2166  0.0028
 1635SOL    HW216539   1.602   3.187   2.924 -4.5419  1.0706 -2.7698
 1636SOL     OW16540   2.574   0.242   6.252 -0.3802  0.2399  0.1501
 1636SOL    HW116541   2.502   0.270   6.308 -0.3087 -1.3588  1.0318
 1636SOL    HW216542   2.536   0.255   6.165 -0.8966 -1.6005  0.0954
 1637SOL     OW16543   0.476   0.416  14.337  0.2457  0.3996 -0.2452
 1637SOL    HW116544   0.541   0.384  14.274 -0.0287 -1.6270  0.5074
 1637SOL    HW216545   0.512   0.502  14.361  0.8747 -0.1667  0.8634
 1638SOL     OW16546   0.955   2.381   1.672 -0.3112  0.3953 -0.2224
 1638SOL    HW116547   1.023   2.366   1.606 -1.5343 -1.0781 -1.1217
 1638SOL    HW216548   0.902   2.454   1.641  0.8657  1.5076  0.3414
 1639SOL     OW16549   1.433   2.417  15.599 -0.0846  0.2292 -0.2019
 1639SOL    HW116550   1.375   2.398  15.673 -2.0253  1.6110 -1.3299
 1639SOL    HW216551   1.456   2.509  15.615 -0.9389  0.3235  0.4912
 1640SOL     OW16552   1.547   2.552   3.392 -0.4480  0.1548  0.0554
 1640SOL    HW116553   1.511   2.512   3.313 -0.1209  0.9528 -0.4874
 1640SOL    HW216554   1.641   2.565   3.383 -0.5514 -0.3480 -1.6946
 1641SOL     OW16555   2.245   1.201   5.465 -0.0460  0.1118 -0.7948
 1641SOL    HW116556   2.198   1.230   5.387 -2.2001 -2.9481 -0.6041
 1641SOL    HW216557   2.328   1.171   5.429  0.8921  2.5126 -0.6494
 1642SOL     OW16558   2.683   3.539  12.285  0.1701 -0.0983  0.2430
 1642SOL    HW116559   2.655   3.448  12.276 -0.8158  0.0234  2.1457
 1642SOL    HW216560   2.663   3.577  12.200 -1.4457 -0.4360  0.4833
 1643SOL     OW16561   0.699   0.842   6.592 -0.1259  0.3843  0.8866
 1643SOL    HW116562   0.686   0.752   6.561 -0.0859  0.3756  0.8946
 1643SOL    HW216563   0.614   0.861   6.631  0.0679 -0.5267  1.7516
 1644SOL     OW16564   1.476   4.561   8.137 -0.5872  0.7414  0.1789
 1644SOL    HW116565   1.473   4.466   8.146  0.6571  0.6336 -0.5625
 1644SOL    HW216566   1.546   4.566   8.072 -0.3351  0.5257  0.4326
 1645SOL     OW16567   2.291   4.529   8.988  0.1176  0.0035  0.0103
 1645SOL    HW116568   2.386   4.525   9.000  0.1374  2.3763  0.7237
 1645SOL    HW216569   2.277   4.622   8.969  0.9653  0.1684  0.1827
 1646SOL     OW16570   0.825   0.772   7.860  0.1387 -0.5146  0.4244
 1646SOL    HW116571   0.866   0.819   7.788  0.4781 -0.6503  0.5311
 1646SOL    HW216572   0.735   0.763   7.827  0.8925  0.0419 -1.8153
 1647SOL     OW16573   1.291   0.315   6.161  0.1174 -0.0197  0.0124
 1647SOL    HW116574   1.353   0.244   6.146  0.7517  0.6751 -0.6989
 1647SOL    HW216575   1.324   0.381   6.100 -1.6923  1.2191  0.3735
 1648SOL     OW16576   4.180   1.304   8.559 -0.5626  0.3848  0.6103
 1648SOL    HW116577   4.238   1.329   8.631 -1.0141 -0.1052  1.1438
 1648SOL    HW216578   4.092   1.307   8.598  0.8248 -0.0192  3.7665
 1649SOL     OW16579   3.155   3.244   8.152 -0.1060  0.4446 -0.3600
 1649SOL    HW116580   3.236   3.222   8.199 -0.0882  0.5718 -0.3326
 1649SOL    HW216581   3.126   3.156   8.129  0.4017  0.5119 -1.2352
 1650SOL     OW16582   1.417   0.166  10.393  0.2051 -0.7250 -0.3495
 1650SOL    HW116583   1.479   0.222  10.346  2.1774 -0.5445  2.4603
 1650SOL    HW216584   1.445   0.078  10.366  2.8359  0.5589 -1.8600
 1651SOL     OW16585   0.988   2.045   8.344 -0.3004 -0.4575  0.3815
 1651SOL    HW116586   0.950   2.114   8.290 -1.1776 -1.2343  0.0085
 1651SOL    HW216587   1.035   1.996   8.277 -2.0371 -0.5904 -0.7188
 1652SOL     OW16588   1.578   3.664   1.731 -0.0254  0.0348  0.5615
 1652SOL    HW116589   1.627   3.625   1.804  1.9949 -1.9402 -1.8041
 1652SOL    HW216590   1.538   3.731   1.785 -1.9800 -1.5097  1.0099
 1653SOL     OW16591   3.820   2.998   1.466  0.4136  0.5514  0.0295
 1653SOL    HW116592   3.779   2.928   1.516  1.4034 -1.4313 -1.9218
 1653SOL    HW216593   3.877   3.035   1.534  0.4273 -1.0955  0.9238
 1654SOL     OW16594   2.236   2.397   6.405 -1.0460 -0.2806  0.0735
 1654SOL    HW116595   2.268   2.427   6.489  0.9950 -0.3706 -0.6860
 1654SOL    HW216596   2.143   2.374   6.413 -1.0160 -0.2755  0.4269
 1655SOL     OW16597   3.957   3.224   3.413  0.3177 -0.3765 -0.2013
 1655SOL    HW116598   3.925   3.218   3.323  1.5843  1.2066 -0.7676
 1655SOL    HW216599   3.984   3.133   3.423 -0.2734 -0.5206  0.1136
 1656SOL     OW16600   2.465   0.812  17.417  0.5903 -0.0685  0.1909
 1656SOL    HW116601   2.525   0.832  17.345  1.2017 -0.4704  0.5901
 1656SOL    HW216602   2.384   0.856  17.391  0.5254  0.4801  1.3295
 1657SOL     OW16603   4.616   0.813   3.979 -0.7295  0.7276  0.4932
 1657SOL    HW116604   4.523   0.824   3.958 -1.1647 -1.8643  1.0154
 1657SOL    HW216605   4.627   0.718   3.978  1.0951  0.9238  1.2644
 1658SOL     OW16606   0.692   0.034   9.592 -0.2827  0.0105 -0.0293
 1658SOL    HW116607   0.652   0.076   9.668  0.7763  2.0837 -0.5955
 1658SOL    HW216608   0.623   0.029   9.526  0.3999  1.5469 -0.8622
 1659SOL     OW16609   1.493   2.065   2.204 -0.1311 -0.6011  0.6147
 1659SOL    HW116610   1.412   2.037   2.162 -0.0031 -0.6966  0.4321
 1659SOL    HW216611   1.549   2.091   2.131  0.2766 -0.7567  0.8659
 1660SOL     OW16612   2.025   2.453   8.012 -0.0059 -0.3333  0.0308
 1660SOL    HW116613   1.970   2.389   8.057  1.4141 -2.0335 -0.6468
 1660SOL    HW216614   2.114   2.419   8.024  0.0694 -0.3974 -0.6945
 1661SOL     OW16615   2.415   2.320  12.737 -0.3438 -0.4196 -0.2036
 1661SOL    HW116616   2.339   2.281  12.693  0.5611 -1.5032 -0.8098
 1661SOL    HW216617   2.374   2.381  12.798  0.5574  1.4953 -1.5438
 1662SOL     OW16618   2.995   1.094  14.723  0.0822  0.2098 -0.4615
 1662SOL    HW116619   2.984   1.132  14.636  2.0802  0.5266 -0.5767
 1662SOL    HW216620   3.049   1.015  14.715  1.5898  1.3248 -1.3731
 1663SOL     OW16621   0.832   3.228  13.538  0.1484 -0.5018  0.6060
 1663SOL    HW116622   0.813   3.267  13.452  3.1333 -0.6143 -0.0959
 1663SOL    HW216623   0.875   3.307  13.570  0.4590 -0.7395  0.7783
 1664SOL     OW16624   0.860   3.786   5.088 -0.0519 -0.1063  0.0273
 1664SOL    HW116625   0.769   3.814   5.099 -1.1634 -3.3159 -1.1040
 1664SOL    HW216626   0.904   3.870   5.103  1.9687 -0.8739 -1.6644
 1665SOL     OW16627   0.495   0.849   0.954 -0.3090  0.8163  0.2864
 1665SOL    HW116628   0.471   0.927   1.003  0.3278  0.5171  1.0785
 1665SOL    HW216629   0.432   0.859   0.882 -1.1201 -0.9389  0.7473
 1666SOL     OW16630   4.487   2.737   1.998  0.2256 -0.4190 -0.3891
 1666SOL    HW116631   4.469   2.646   1.974 -0.4793 -0.8029  1.6450
 1666SOL    HW216632   4.583   2.731   2.000  0.1159 -1.9470  0.3988
 1667SOL     OW16633   2.187   4.534  10.290 -0.4388  0.0136 -0.5109
 1667SOL    HW116634   2.236   4.459  10.258  0.9604  0.9778 -0.6421
 1667SOL    HW216635   2.231   4.556  10.372 -0.5382  3.5965 -1.4141
 1668SOL     OW16636   0.181   2.803   8.221 -0.1898  0.2455 -0.1527
 1668SOL    HW116637   0.253   2.749   8.255 -2.1511 -2.6276 -0.5992
 1668SOL    HW216638   0.154   2.747   8.149  0.9816 -0.3709 -0.1092
 1669SOL     OW16639   1.289   4.292   3.647  0.0900  0.1580  0.2329
 1669SOL    HW116640   1.362   4.277   3.708  0.1805  1.7391  0.5386
 1669SOL    HW216641   1.216   4.286   3.709  0.8490 -3.6701  0.7358
 1670SOL     OW16642   3.605   0.685  12.687  0.4184  0.0960 -0.1555
 1670SOL    HW116643   3.699   0.669  12.688  0.7713  1.9698 -1.5609
 1670SOL    HW216644   3.603   0.777  12.659  1.7484  0.2130  0.1557
 1671SOL     OW16645   2.504   0.190  10.924  0.3207 -0.1368 -0.1230
 1671SOL    HW116646   2.481   0.200  10.832  0.0601  0.3684 -0.0045
 1671SOL    HW216647   2.503   0.097  10.946  0.6673  0.3385  1.9394
 1672SOL     OW16648   3.951   4.621  13.677  0.4367  0.0311 -0.2121
 1672SOL    HW116649   4.026   4.674  13.704 -1.6560  2.7702  0.1450
 1672SOL    HW216650   3.952   4.553  13.744 -1.2050 -0.6492 -0.8879
 1673SOL     OW16651   0.984   1.207   5.825  0.2508  0.4667 -0.1877
 1673SOL    HW116652   1.054   1.142   5.827 -0.7972 -0.7324 -2.0877
 1673SOL    HW216653   1.035   1.285   5.802  2.7810 -0.4141  2.4154
 1674SOL     OW16654   2.268   0.400   2.865  0.6170  0.2435 -0.0847
 1674SOL    HW116655   2.235   0.368   2.780 -2.3906  0.5778  0.9417
 1674SOL    HW216656   2.359   0.419   2.841  0.7928 -0.9713 -0.3868
 1675SOL     OW16657   4.028   3.233   4.038 -0.5658 -0.1792  0.0342
 1675SOL    HW116658   4.100   3.175   4.063 -1.4400 -0.9982  0.6408
 1675SOL    HW216659   4.039   3.240   3.943  2.9555 -2.0053  0.2780
 1676SOL     OW16660   0.702   1.571   5.746 -0.0171 -0.3667  0.0527
 1676SOL    HW116661   0.775   1.630   5.766  0.4148 -0.8917  0.0204
 1676SOL    HW216662   0.644   1.638   5.709 -1.6262 -1.3127  0.8748
 1677SOL     OW16663   4.733   3.825  10.050 -0.2036  0.0622  0.4505
 1677SOL    HW116664   4.695   3.903  10.010  2.1866  0.0454 -1.8554
 1677SOL    HW216665   4.655   3.771  10.065 -1.4081  1.1181 -2.0378
 1678SOL     OW16666   0.499   1.678   0.243 -0.7970  0.0606  0.1485
 1678SOL    HW116667   0.472   1.588   0.264 -0.2511 -0.4877 -1.5157
 1678SOL    HW216668   0.544   1.695   0.326 -1.0564 -0.5725  0.4170
 1679SOL     OW16669   3.293   0.188  10.641  0.2847  0.3785 -0.4162
 1679SOL    HW116670   3.355   0.247  10.683  1.6102 -0.6989 -0.8275
 1679SOL    HW216671   3.208   0.210  10.679  0.8418  1.4873  0.1994
 1680SOL     OW16672   2.796   3.797   3.210  0.6102 -0.6985  0.8709
 1680SOL    HW116673   2.778   3.710   3.246  1.0805 -0.9320  0.5422
 1680SOL    HW216674   2.864   3.828   3.269  0.9389 -0.0778  0.1602
 1681SOL     OW16675   4.630   3.387   5.538 -0.1611  0.1565  0.2477
 1681SOL    HW116676   4.696   3.441   5.581 -0.5279  1.0224 -0.2919
 1681SOL    HW216677   4.638   3.295   5.565  0.0329  0.5111  1.3732
 1682SOL     OW16678   1.077   4.721  11.261 -0.5552 -0.0402  0.1441
 1682SOL    HW116679   0.982   4.732  11.261 -0.5490  0.0209  1.7997
 1682SOL    HW216680   1.085   0.034  11.341 -4.2789 -0.7808  1.0120
 1683SOL     OW16681   1.723   2.474   4.481 -0.2430  0.0408  0.1475
 1683SOL    HW116682   1.787   2.524   4.532  0.3780 -2.2201  1.5971
 1683SOL    HW216683   1.715   2.523   4.399  0.5914 -0.5713 -0.2867
 1684SOL     OW16684   0.368   0.137   2.637 -0.3287 -0.6208  0.6849
 1684SOL    HW116685   0.304   0.067   2.622 -2.1837  1.0227  0.8860
 1684SOL    HW216686   0.445   0.106   2.589  0.1927 -0.2025  1.2544
 1685SOL     OW16687   4.111   0.948   2.636 -0.1596 -0.3968  0.3338
 1685SOL    HW116688   4.109   0.933   2.542 -1.7313 -0.0800  0.3179
 1685SOL    HW216689   4.045   0.891   2.676  2.4108 -2.4670  1.6592
 1686SOL     OW16690   0.063   4.275  11.552  0.0236  0.5087 -0.0059
 1686SOL    HW116691   4.717   4.267  11.510  0.0526 -0.3823  0.0917
 1686SOL    HW216692   0.077   4.181  11.566  0.0737  0.0457 -3.1449
 1687SOL     OW16693   1.632   0.254   7.996  0.2511  0.5462 -0.1830
 1687SOL    HW116694   1.538   0.247   8.007  0.4120  0.4082  1.0870
 1687SOL    HW216695   1.638   0.342   7.961  1.1262  0.2576 -0.7590
 1688SOL     OW16696   0.627   4.400   6.750 -0.7686 -0.5271 -0.1786
 1688SOL    HW116697   0.710   4.431   6.715 -0.3155 -1.3312  0.1682
 1688SOL    HW216698   0.652   4.365   6.836 -0.3766 -1.7047 -0.7701
 1689SOL     OW16699   0.403   2.870  12.694 -0.6888  0.0005  0.2058
 1689SOL    HW116700   0.400   2.775  12.698 -1.6821  0.0205 -0.0004
 1689SOL    HW216701   0.322   2.892  12.648 -0.3888  0.2382 -0.2112
 1690SOL     OW16702   3.538   2.447   3.198 -0.0744  0.1317  0.3988
 1690SOL    HW116703   3.509   2.357   3.215  0.3759  0.0273  0.6128
 1690SOL    HW216704   3.598   2.440   3.124 -0.8162  0.1524 -0.1999
 1691SOL     OW16705   0.815   3.636   6.120  0.2870  0.6909 -0.3949
 1691SOL    HW116706   0.860   3.621   6.203 -1.7491 -1.7672  0.2751
 1691SOL    HW216707   0.733   3.586   6.120  0.7861 -0.1076  1.8088
 1692SOL     OW16708   3.616   4.104   6.171 -0.5038  0.3288 -0.3385
 1692SOL    HW116709   3.536   4.150   6.144 -1.9701 -1.1150  1.5657
 1692SOL    HW216710   3.571   4.043   6.228  1.3189 -2.7584 -2.1976
 1693SOL     OW16711   3.470   2.083  12.585  0.4524 -0.1649 -0.2877
 1693SOL    HW116712   3.438   2.084  12.675  1.0159  0.0640 -0.0958
 1693SOL    HW216713   3.549   2.029  12.587  1.1334  0.7930 -1.4501
 1694SOL     OW16714   3.146   4.481   5.471  0.5154  0.6485  0.2606
 1694SOL    HW116715   3.153   4.497   5.377  1.1980 -2.6031 -0.2321
 1694SOL    HW216716   3.072   4.421   5.471  1.3908 -0.4049 -1.1641
 1695SOL     OW16717   3.272   2.658   4.858  0.8043 -0.0588 -0.0318
 1695SOL    HW116718   3.257   2.701   4.774 -1.0795 -1.1476 -0.2444
 1695SOL    HW216719   3.251   2.566   4.843  0.6176  0.2299 -1.4714
 1696SOL     OW16720   1.228   3.884   3.530 -0.2884 -0.0438 -0.2745
 1696SOL    HW116721   1.188   3.838   3.604 -0.3160 -1.5734 -1.2450
 1696SOL    HW216722   1.309   3.908   3.574 -0.9384 -0.3160  1.0764
 1697SOL     OW16723   3.659   2.548   9.052 -0.2846 -0.1626  0.1607
 1697SOL    HW116724   3.570   2.557   9.018  0.0567  2.2379 -0.1047
 1697SOL    HW216725   3.644   2.592   9.136 -0.0536  1.8109 -0.8244
 1698SOL     OW16726   1.812   4.034   6.076 -0.5650  0.3394  0.4739
 1698SOL    HW116727   1.883   3.973   6.096 -1.3749 -0.5268  0.7511
 1698SOL    HW216728   1.756   4.002   6.147  0.3627 -0.7238  0.7246
 1699SOL     OW16729   3.202   3.811  15.484  0.3689  0.4762 -0.6774
 1699SOL    HW116730   3.295   3.825  15.466  0.9661 -0.0188  2.0371
 1699SOL    HW216731   3.170   3.799  15.395  0.7108  0.0828 -0.7449
 1700SOL     OW16732   2.744   0.339   2.263  0.0210 -0.2731 -1.0240
 1700SOL    HW116733   2.764   0.404   2.195 -1.1349  0.6204 -0.5064
 1700SOL    HW216734   2.649   0.345   2.252 -0.2833  0.4461  2.0095
 1701SOL     OW16735   0.641   4.154   5.812  0.1655 -0.2670 -0.1142
 1701SOL    HW116736   0.580   4.104   5.866  0.1590  0.7320  0.8149
 1701SOL    HW216737   0.694   4.086   5.770  1.1496  0.2426  0.3145
 1702SOL     OW16738   4.183   4.548   3.410 -0.2968 -0.1466 -0.2911
 1702SOL    HW116739   4.137   4.508   3.335  1.5513  0.2828 -1.6411
 1702SOL    HW216740   4.152   4.492   3.482 -0.9996 -0.6230 -0.9582
 1703SOL     OW16741   2.018   0.311   2.954 -0.4288  0.2558 -0.6105
 1703SOL    HW116742   1.996   0.224   2.920 -2.0814 -0.1416  1.4644
 1703SOL    HW216743   2.110   0.315   2.931 -0.5417  0.2501 -1.0695
 1704SOL     OW16744   4.176   1.544   9.021 -0.2329 -0.9259 -0.2505
 1704SOL    HW116745   4.211   1.510   8.939 -2.2266 -0.8044 -1.1639
 1704SOL    HW216746   4.230   1.623   9.023  1.1847 -1.9121  0.6604
 1705SOL     OW16747   1.048   1.891   6.733  0.1114  0.0561  0.3382
 1705SOL    HW116748   1.093   1.810   6.758 -1.6659 -1.3991 -1.2522
 1705SOL    HW216749   1.069   1.908   6.641 -4.5643 -2.0990 -1.1132
 1706SOL     OW16750   1.484   2.934   6.673 -0.0421 -0.6020  0.5018
 1706SOL    HW116751   1.477   2.846   6.636 -1.5796 -0.8286  1.3589
 1706SOL    HW216752   1.392   2.956   6.688 -0.0025  0.5926 -1.0348
 1707SOL     OW16753   4.334   4.329  13.036  0.1653 -0.5620  1.0140
 1707SOL    HW116754   4.283   4.256  13.070 -0.2651 -1.7534 -2.2781
 1707SOL    HW216755   4.424   4.296  13.040  1.5664  3.0928 -0.1544
 1708SOL     OW16756   4.406   2.732   8.790 -0.6699 -0.4351  0.2703
 1708SOL    HW116757   4.352   2.699   8.862  0.2116 -1.1954  0.5895
 1708SOL    HW216758   4.481   2.672   8.798 -0.1017  0.6198  2.8333
 1709SOL     OW16759   1.769   2.862   5.324 -0.2887 -0.1692  0.3558
 1709SOL    HW116760   1.823   2.844   5.402 -1.9347 -0.2341  1.4844
 1709SOL    HW216761   1.751   2.774   5.292 -0.0603 -1.0638  2.6959
 1710SOL     OW16762   2.660   1.230   4.235 -0.3378  0.1434 -0.3971
 1710SOL    HW116763   2.748   1.244   4.199 -0.4796  0.7369 -0.5067
 1710SOL    HW216764   2.629   1.160   4.177  0.0616  0.5492 -1.1039
 1711SOL     OW16765   2.617   4.229   0.038 -0.0909 -0.3150 -0.2882
 1711SOL    HW116766   2.698   4.198  17.753  0.6823 -0.0132  1.0186
 1711SOL    HW216767   2.556   4.236  17.720  0.0623 -0.0865 -0.3945
 1712SOL     OW16768   3.725   1.892  10.252 -0.0824 -0.1903 -0.3072
 1712SOL    HW116769   3.759   1.981  10.244 -1.5336  0.3817  0.0026
 1712SOL    HW216770   3.657   1.910  10.316  1.7184 -1.2639  1.9120
 1713SOL     OW16771   0.997   1.850  13.707  0.2475  0.3021 -0.0345
 1713SOL    HW116772   1.089   1.858  13.684  0.3829 -0.4107  0.2423
 1713SOL    HW216773   0.989   1.754  13.710  0.3285  0.3336  0.9499
 1714SOL     OW16774   3.315   0.201  14.174 -0.8320  0.5645  0.8209
 1714SOL    HW116775   3.344   0.134  14.237  0.2496 -0.5933 -0.9234
 1714SOL    HW216776   3.297   0.274  14.233 -1.8627  1.6826 -0.8951
 1715SOL     OW16777   0.020   0.209   3.501  0.5681 -0.3962 -0.2952
 1715SOL    HW116778   4.681   0.159   3.478 -1.4023  3.0740 -1.1182
 1715SOL    HW216779   0.086   0.148   3.535  1.8094  0.9173 -0.3614
 1716SOL     OW16780   2.518   0.339  13.430 -0.7800 -0.1996  0.3568
 1716SOL    HW116781   2.553   0.254  13.402 -0.5209  0.3960 -1.1192
 1716SOL    HW216782   2.481   0.376  13.350 -1.1302 -2.0923 -0.3533
 1717SOL     OW16783   4.599   1.873   8.452 -0.9707  0.7938 -0.3891
 1717SOL    HW116784   4.510   1.845   8.474 -0.8312  1.3602  0.9060
 1717SOL    HW216785   4.569   1.952   8.407  2.2603  1.8196 -0.7766
 1718SOL     OW16786   4.101   4.581   2.010  0.3648  0.0815  0.1299
 1718SOL    HW116787   4.037   4.577   1.939  1.8635 -0.7233 -1.1838
 1718SOL    HW216788   4.168   4.641   1.979  1.6525 -1.4611 -0.0895
 1719SOL     OW16789   1.478   2.541  11.654  0.1765 -0.5871 -0.2561
 1719SOL    HW116790   1.550   2.544  11.718 -1.5563 -0.8369  1.7113
 1719SOL    HW216791   1.408   2.584  11.704  0.2355 -1.4969  0.6136
 1720SOL     OW16792   4.076   2.039   4.027 -0.2085 -0.3589  0.4133
 1720SOL    HW116793   4.039   1.985   3.957  0.9869 -0.4622 -0.1311
 1720SOL    HW216794   4.075   2.129   3.994 -2.0641 -1.1019 -1.5419
 1721SOL     OW16795   2.672   3.726   4.558  0.2048  0.4200 -0.4769
 1721SOL    HW116796   2.643   3.685   4.639 -2.1371  0.9294 -1.0715
 1721SOL    HW216797   2.605   3.793   4.549  0.3778  0.4937 -1.2468
 1722SOL     OW16798   4.574   0.261   8.667  0.0883  0.0319  0.5068
 1722SOL    HW116799   4.547   0.272   8.576 -1.7403 -1.2126  0.8937
 1722SOL    HW216800   4.647   0.322   8.679  0.6512 -0.4885 -0.1776
 1723SOL     OW16801   4.731   3.158   5.695 -0.4358  0.4005  0.2052
 1723SOL    HW116802   0.077   3.178   5.734 -0.9089  0.3129  1.3039
 1723SOL    HW216803   4.712   3.068   5.721 -0.0876  0.8803  2.1701
 1724SOL     OW16804   0.491   0.681   4.259 -0.4877  0.1922  0.0840
 1724SOL    HW116805   0.531   0.751   4.311 -3.2666  1.8270 -0.0015
 1724SOL    HW216806   0.531   0.603   4.298  0.2528  1.0541  1.0583
 1725SOL     OW16807   0.373   3.983   5.646  0.3742 -0.3209 -0.3311
 1725SOL    HW116808   0.295   4.011   5.597 -0.2909  0.7267  1.3171
 1725SOL    HW216809   0.446   4.031   5.608  0.1524  1.0746  0.9895
 1726SOL     OW16810   2.554   4.652  12.221 -0.0296 -0.4583  0.1188
 1726SOL    HW116811   2.643   4.663  12.256 -0.3444  4.9785 -0.8016
 1726SOL    HW216812   2.493   4.639  12.293  0.1837  0.4844  0.4576
 1727SOL     OW16813   3.941   2.802   0.082  0.0736 -0.3101  0.3087
 1727SOL    HW116814   3.858   2.769   0.117 -0.6565  0.7495 -0.4336
 1727SOL    HW216815   3.922   2.783  17.746 -0.8663  1.7819  0.0618
 1728SOL     OW16816   3.702   1.432   5.055  0.4972 -0.0092 -0.0343
 1728SOL    HW116817   3.620   1.385   5.070  0.3787  0.1042 -0.3317
 1728SOL    HW216818   3.674   1.487   4.982 -1.6219  1.4262  1.8535
 1729SOL     OW16819   4.016   4.229   4.501 -0.9352 -0.8351 -0.1765
 1729SOL    HW116820   3.936   4.178   4.515 -0.4377 -0.7151  3.2092
 1729SOL    HW216821   3.977   4.308   4.464  1.0795  0.5536  0.6704
 1730SOL     OW16822   1.856   2.934  16.718  0.1079 -0.0006 -0.1451
 1730SOL    HW116823   1.842   3.012  16.770 -0.9786 -0.8781  0.8944
 1730SOL    HW216824   1.842   2.980  16.635 -0.0851  0.1372 -0.0344
 1731SOL     OW16825   4.675   2.944   6.180  0.0452  0.5470 -0.0231
 1731SOL    HW116826   4.738   2.874   6.198 -2.0617 -0.9863  1.4415
 1731SOL    HW216827   4.729   3.023   6.185 -1.0123  1.3772 -1.6958
 1732SOL     OW16828   4.599   3.344   7.853 -0.6090  0.4432 -0.1667
 1732SOL    HW116829   4.646   3.394   7.920  1.0920  0.2020 -1.1776
 1732SOL    HW216830   4.654   3.267   7.838 -1.1850  0.3120 -1.6600
 1733SOL     OW16831   3.882   1.666   8.441  0.1712 -0.4480  0.4787
 1733SOL    HW116832   3.941   1.606   8.396  1.4407 -1.2388  3.1881
 1733SOL    HW216833   3.865   1.615   8.520 -0.4842 -0.3333  0.4128
 1734SOL     OW16834   3.371   3.625   4.436 -0.2328  0.0766  0.5580
 1734SOL    HW116835   3.404   3.644   4.348  1.3084 -1.8602  0.7346
 1734SOL    HW216836   3.420   3.549   4.467 -0.1341  0.1384  0.5518
 1735SOL     OW16837   3.837   1.286  17.372 -0.3228  0.0314  0.0350
 1735SOL    HW116838   3.820   1.350  17.303 -1.0934 -2.1840 -1.7958
 1735SOL    HW216839   3.932   1.289  17.381 -0.2624  0.8723 -0.9512
 1736SOL     OW16840   3.988   2.898   4.341 -0.3417  0.1798 -0.0272
 1736SOL    HW116841   4.058   2.943   4.294  1.0332  0.0184  1.8794
 1736SOL    HW216842   3.916   2.958   4.318 -2.3296 -0.8966  3.2939
 1737SOL     OW16843   1.422   2.524   4.142  0.1852 -0.2338  0.1085
 1737SOL    HW116844   1.448   2.563   4.058  1.8495 -2.2563 -0.3094
 1737SOL    HW216845   1.498   2.542   4.196  0.0942 -0.1906  0.2221
 1738SOL     OW16846   3.078   3.702   6.933  0.0374  0.1426 -0.0872
 1738SOL    HW116847   3.101   3.698   6.841 -0.4359  0.1971 -0.2089
 1738SOL    HW216848   3.159   3.679   6.978  0.5584 -0.2413 -1.2400
 1739SOL     OW16849   0.003   2.915   7.225  0.0271  0.1672  0.3633
 1739SOL    HW116850   4.736   2.893   7.132 -2.1453  2.6254 -0.0744
 1739SOL    HW216851   0.064   2.989   7.227  0.1538  0.0517  0.7418
 1740SOL     OW16852   0.936   2.788  14.300  0.2123  0.3105 -0.0827
 1740SOL    HW116853   0.897   2.866  14.261 -2.0689 -0.9977 -0.3816
 1740SOL    HW216854   0.966   2.749  14.218  0.3425 -2.5941  1.3440
 1741SOL     OW16855   1.913   2.608   0.198 -0.7546  0.0024  0.2118
 1741SOL    HW116856   1.849   2.587   0.266  0.5881  1.5849  1.9526
 1741SOL    HW216857   1.859   2.656   0.134  1.3055  0.8914 -0.8471
 1742SOL     OW16858   0.376   0.492  17.213  0.2986  0.1918  0.3503
 1742SOL    HW116859   0.400   0.401  17.231 -0.7842 -0.2750 -0.4948
 1742SOL    HW216860   0.282   0.481  17.196  0.1635 -0.4351  1.4961
 1743SOL     OW16861   4.397   1.956   3.291  0.2767  0.0162 -0.0038
 1743SOL    HW116862   4.321   1.997   3.250  0.1248 -1.0661 -0.8085
 1743SOL    HW216863   4.381   1.874   3.245 -0.5885  0.9756 -1.3979
 1744SOL     OW16864   3.328   1.669   1.806 -0.5380 -0.3926 -0.0477
 1744SOL    HW116865   3.334   1.765   1.804 -0.7260 -0.3516  1.2076
 1744SOL    HW216866   3.239   1.668   1.842 -0.5572  0.2673 -0.0639
 1745SOL     OW16867   3.110   2.394   2.314  0.4920  1.0151 -0.4200
 1745SOL    HW116868   3.147   2.388   2.402  0.8552  0.7379 -0.5922
 1745SOL    HW216869   3.066   2.309   2.314  1.3496  0.5789 -1.1993
 1746SOL     OW16870   4.170   4.258   4.848 -0.2721 -0.4758  0.6105
 1746SOL    HW116871   4.080   4.226   4.849  0.9938 -4.0234 -0.4202
 1746SOL    HW216872   4.169   4.334   4.907 -1.1094  0.7814 -1.0140
 1747SOL     OW16873   4.163   1.522   6.154  0.3287 -0.3336 -0.2952
 1747SOL    HW116874   4.247   1.527   6.108  0.0914  1.4584 -0.5507
 1747SOL    HW216875   4.145   1.428   6.145 -1.2644 -0.1656  1.0768
 1748SOL     OW16876   0.367   1.264   4.576 -0.0299 -0.0701 -0.4377
 1748SOL    HW116877   0.287   1.217   4.595 -0.3909 -0.1019 -2.0566
 1748SOL    HW216878   0.326   1.349   4.558 -0.1318  0.0406  0.3284
 1749SOL     OW16879   2.093   3.554   6.594  0.4446 -0.7195 -0.2051
 1749SOL    HW116880   2.087   3.496   6.670  0.7372  0.0938  0.4392
 1749SOL    HW216881   2.163   3.615   6.620 -0.3793 -0.2408  0.8620
 1750SOL     OW16882   1.111   0.438   7.302 -0.2194 -0.4170 -0.5857
 1750SOL    HW116883   1.107   0.533   7.291 -1.5284 -0.4191 -0.1384
 1750SOL    HW216884   1.034   0.407   7.253 -1.5867 -1.3543  2.1506
 1751SOL     OW16885   0.154   4.687   2.642  0.2694  0.4235 -0.1666
 1751SOL    HW116886   0.072   4.675   2.690  0.4006 -0.2869 -0.1171
 1751SOL    HW216887   0.140   4.620   2.576 -1.4749 -0.3628  0.9933
 1752SOL     OW16888   1.114   4.726   2.041 -0.1947  0.5333 -0.0788
 1752SOL    HW116889   1.159   4.660   1.987  0.0201  0.5066  0.1319
 1752SOL    HW216890   1.180   0.050   2.067  0.6331 -0.0044 -0.8598
 1753SOL     OW16891   3.327   1.738   2.221 -0.3799 -0.0177 -0.0474
 1753SOL    HW116892   3.382   1.813   2.199  1.1643 -1.1844 -0.2131
 1753SOL    HW216893   3.396   1.682   2.256 -0.1080 -0.2955 -1.0163
 1754SOL     OW16894   0.196   2.276   9.315  0.4955 -0.8493  0.3724
 1754SOL    HW116895   0.287   2.287   9.339  0.4284 -0.0056  0.2428
 1754SOL    HW216896   0.181   2.186   9.345 -1.0018 -0.8804 -0.4151
 1755SOL     OW16897   4.367   4.578   8.432  0.0058 -0.2714  0.1242
 1755SOL    HW116898   4.297   4.520   8.462 -2.0530  1.5423 -1.1478
 1755SOL    HW216899   4.353   4.643   8.502 -1.3030  2.0725 -2.3010
 1756SOL     OW16900   3.691   0.580  13.101 -0.3134 -0.1582 -0.0764
 1756SOL    HW116901   3.763   0.567  13.040 -0.6728 -0.1148 -0.5132
 1756SOL    HW216902   3.639   0.650  13.063  0.6011  0.1136 -0.8210
 1757SOL     OW16903   3.785   4.650   5.216 -0.0189  0.2030 -0.5042
 1757SOL    HW116904   3.783   4.693   5.131  0.1683  0.4285 -0.3935
 1757SOL    HW216905   3.720   4.580   5.211 -0.9236  1.1684 -2.1435
 1758SOL     OW16906   4.523   3.601  11.828 -0.7830  0.5021 -0.3879
 1758SOL    HW116907   4.457   3.669  11.836 -1.0952  0.2337 -0.6985
 1758SOL    HW216908   4.494   3.557  11.749  3.9660 -1.1499 -1.2323
 1759SOL     OW16909   4.370   3.382   6.429  0.0750 -0.0156 -0.3088
 1759SOL    HW116910   4.404   3.470   6.446  2.3325 -1.2702  1.4429
 1759SOL    HW216911   4.453   3.337   6.414 -0.3253 -1.1551  0.9291
 1760SOL     OW16912   0.292   4.307   7.488  0.0163  0.2425  0.6701
 1760SOL    HW116913   0.204   4.342   7.505 -0.2290  1.1433 -2.4508
 1760SOL    HW216914   0.268   4.216   7.469 -0.9628  0.3860  1.2287
 1761SOL     OW16915   0.019   3.477  17.452  0.3105  0.0979 -0.5848
 1761SOL    HW116916   4.728   3.473  17.361  0.8686  1.2457 -0.8202
 1761SOL    HW216917   0.026   3.569  17.475 -0.3430 -0.3281  1.3016
 1762SOL     OW16918   3.503   2.975   4.791  0.1771  0.7328  0.3381
 1762SOL    HW116919   3.585   2.927   4.793 -0.0651  0.2780 -0.5583
 1762SOL    HW216920   3.457   2.961   4.874  0.7884 -0.5402  0.4634
 1763SOL     OW16921   0.560   3.292   7.661 -0.6530  0.0553 -0.0508
 1763SOL    HW116922   0.562   3.388   7.669 -1.2925  0.2085 -1.6885
 1763SOL    HW216923   0.614   3.269   7.736  2.3147  2.0933 -1.5822
 1764SOL     OW16924   3.657   2.521   0.677 -0.0489 -0.1793 -0.1294
 1764SOL    HW116925   3.595   2.592   0.659  1.0269  0.4824 -1.2291
 1764SOL    HW216926   3.626   2.503   0.766 -1.7562  0.9573 -0.4936
 1765SOL     OW16927   1.683   1.782  13.301  0.0273 -0.3836 -0.2810
 1765SOL    HW116928   1.643   1.714  13.248 -2.0948 -0.4379  1.3909
 1765SOL    HW216929   1.607   1.802  13.357 -0.8082  0.6066 -1.7774
 1766SOL     OW16930   4.284   1.414   5.196 -0.4503 -0.2919 -0.1320
 1766SOL    HW116931   4.218   1.371   5.142 -0.2039 -1.6814  0.6506
 1766SOL    HW216932   4.241   1.415   5.281  1.3970  3.2227  0.7502
 1767SOL     OW16933   2.812   1.020   2.707  0.1216  0.2726  0.4174
 1767SOL    HW116934   2.837   0.928   2.720 -1.8825 -0.1629  1.0976
 1767SOL    HW216935   2.888   1.071   2.679 -0.7221  0.5330 -1.4129
 1768SOL     OW16936   1.640   4.480   0.551 -0.7456 -0.2873  0.1081
 1768SOL    HW116937   1.728   4.461   0.519 -0.3953  2.2837 -0.4233
 1768SOL    HW216938   1.592   4.500   0.471 -1.3227 -0.6162  0.3704
 1769SOL     OW16939   1.580   0.252   4.273 -0.2343  0.4306 -0.4134
 1769SOL    HW116940   1.552   0.339   4.299  2.7000  1.1765  0.2346
 1769SOL    HW216941   1.664   0.275   4.232  0.1177 -1.8096 -0.9812
 1770SOL     OW16942   2.500   1.785   4.261  0.1788  0.3231 -0.8594
 1770SOL    HW116943   2.422   1.736   4.237 -0.2693  0.6468 -0.0517
 1770SOL    HW216944   2.491   1.771   4.355 -1.3405  0.8006 -0.9458
 1771SOL     OW16945   3.321   0.649  15.760  0.0683  0.5545  0.1027
 1771SOL    HW116946   3.416   0.656  15.752  0.2590 -1.0317  1.0494
 1771SOL    HW216947   3.301   0.623  15.670 -0.0465 -0.9778  0.5650
 1772SOL     OW16948   2.356   3.956   9.955 -0.3649 -0.0105 -0.3612
 1772SOL    HW116949   2.289   4.006  10.002  0.5830  2.8351 -2.0871
 1772SOL    HW216950   2.387   4.022   9.894  0.3790  0.5507  0.6216
 1773SOL     OW16951   1.512   0.311   9.285  0.2596 -0.1499 -0.7392
 1773SOL    HW116952   1.464   0.385   9.247 -0.7878 -0.0792  0.7380
 1773SOL    HW216953   1.507   0.331   9.378  2.3589  2.0684 -1.1082
 1774SOL     OW16954   3.242   2.098   2.160 -0.5045 -0.0126 -0.1019
 1774SOL    HW116955   3.287   2.013   2.167  2.6034  1.6917  0.6506
 1774SOL    HW216956   3.240   2.108   2.065  3.5470  0.8944 -0.0920
 1775SOL     OW16957   4.229   2.780   8.538  0.1401  0.1197  0.5190
 1775SOL    HW116958   4.292   2.751   8.604 -0.3040  0.5516  1.1289
 1775SOL    HW216959   4.176   2.703   8.520 -0.5674  1.2013 -2.0831
 1776SOL     OW16960   2.442   3.049   4.178 -0.0581  0.0011  0.4125
 1776SOL    HW116961   2.414   2.957   4.176 -1.1117  0.3015  1.6726
 1776SOL    HW216962   2.449   3.067   4.272 -1.6351  0.8915  0.3378
 1777SOL     OW16963   3.749   0.798  10.106  0.2209 -0.0317  0.7181
 1777SOL    HW116964   3.677   0.830  10.161 -0.8116  0.7340 -1.0828
 1777SOL    HW216965   3.825   0.838  10.147 -1.0510  0.4654  2.5810
 1778SOL     OW16966   1.325   4.062  11.904 -0.2036 -0.2223  0.3872
 1778SOL    HW116967   1.377   3.995  11.948 -2.4464 -0.5900  2.4882
 1778SOL    HW216968   1.380   4.140  11.904  2.0041 -1.7893  1.4862
 1779SOL     OW16969   4.533   1.418   5.117 -0.2317 -0.7165  0.1958
 1779SOL    HW116970   4.451   1.402   5.165 -0.6884 -1.3469 -0.7983
 1779SOL    HW216971   4.531   1.346   5.055  0.2100 -0.4299 -0.1525
 1780SOL     OW16972   2.510   1.331   8.093  0.1159  0.1726  0.3029
 1780SOL    HW116973   2.544   1.255   8.047 -1.0013 -0.9123  1.2554
 1780SOL    HW216974   2.592   1.375   8.115  0.1535  0.9946 -1.4873
 1781SOL     OW16975   1.172   1.030   8.866 -0.1527 -0.4982 -0.0787
 1781SOL    HW116976   1.136   0.943   8.880 -2.7046  0.6244  0.4815
 1781SOL    HW216977   1.143   1.072   8.947 -0.0671  2.4121 -1.5548
 1782SOL     OW16978   4.139   2.844  11.792  0.3847  1.0477  0.0864
 1782SOL    HW116979   4.087   2.800  11.725  0.0761  2.6840 -0.7417
 1782SOL    HW216980   4.227   2.815  11.769  0.3773  0.2091  1.1357
 1783SOL     OW16981   2.111   4.481   7.274  0.0320  0.6686  0.1797
 1783SOL    HW116982   2.067   4.492   7.358 -0.6482 -0.5978 -0.0118
 1783SOL    HW216983   2.181   4.546   7.273  1.2975 -0.6818  1.1266
 1784SOL     OW16984   2.005   3.858   0.440 -0.5749  0.3198  0.5147
 1784SOL    HW116985   2.030   3.767   0.425 -1.3206  0.1468  0.3139
 1784SOL    HW216986   1.909   3.859   0.431 -0.4294  2.2463 -0.8697
 1785SOL     OW16987   3.367   2.783  10.104  0.3618  0.4061  0.4710
 1785SOL    HW116988   3.363   2.841  10.028  1.3368 -3.2387 -2.3477
 1785SOL    HW216989   3.366   2.848  10.174 -0.6746  2.6034 -1.6093
 1786SOL     OW16990   2.038   1.691  10.703  0.4973  0.0832  0.3814
 1786SOL    HW116991   2.070   1.616  10.754  0.8587 -0.2845 -0.3810
 1786SOL    HW216992   2.022   1.650  10.618 -1.7317  0.1210  0.7841
 1787SOL     OW16993   3.947   2.460   9.273  0.9981  0.5667  0.1060
 1787SOL    HW116994   3.915   2.371   9.293 -2.1124  1.0223 -3.0456
 1787SOL    HW216995   4.036   2.459   9.308  1.0633  1.2676 -0.0595
 1788SOL     OW16996   1.342   3.006   7.231 -0.4833  0.6182  0.6360
 1788SOL    HW116997   1.408   3.076   7.233 -0.0519  0.2377 -0.7010
 1788SOL    HW216998   1.299   3.019   7.146  1.5041  1.1606 -0.2765
 1789SOL     OW16999   3.748   3.482   6.139 -0.2453 -0.7105  0.4451
 1789SOL    HW117000   3.751   3.415   6.207 -3.6961 -0.7509  0.5699
 1789SOL    HW217001   3.728   3.553   6.199 -1.5031  0.4206 -1.2949
 1790SOL     OW17002   0.503   3.756   8.201  0.3673 -0.3561 -0.8283
 1790SOL    HW117003   0.431   3.777   8.141  0.2955  3.5499  0.6122
 1790SOL    HW217004   0.453   3.717   8.273 -1.6995  0.9066 -1.5748
 1791SOL     OW17005   4.492   3.187   6.014 -0.2807 -0.0596 -0.4580
 1791SOL    HW117006   4.541   3.254   5.966  0.7829  0.1014  0.8574
 1791SOL    HW217007   4.434   3.245   6.063 -0.2420  0.7239 -1.3438
 1792SOL     OW17008   3.892   1.858   4.976 -0.0349 -0.8280 -0.3167
 1792SOL    HW117009   3.892   1.898   5.063  1.0658  1.7833 -1.5207
 1792SOL    HW217010   3.954   1.792   5.004  1.2249  0.1830 -0.7368
 1793SOL     OW17011   3.475   4.374  13.933  0.2019  0.0180 -0.4005
 1793SOL    HW117012   3.529   4.333  13.866  0.4141 -0.6334  0.1662
 1793SOL    HW217013   3.406   4.307  13.941 -0.6723  0.7982 -1.5192
 1794SOL     OW17014   1.287   2.959   8.755 -0.1281 -1.2601 -0.2841
 1794SOL    HW117015   1.215   2.897   8.761 -0.8658 -0.5546 -1.8214
 1794SOL    HW217016   1.272   2.981   8.663  0.4656  0.0988 -0.0685
 1795SOL     OW17017   0.725   1.813   8.913 -0.3967  0.1830  0.3723
 1795SOL    HW117018   0.641   1.857   8.912 -1.2782 -1.5313 -0.7907
 1795SOL    HW217019   0.713   1.735   8.858  2.2340 -0.5234  0.7641
 1796SOL     OW17020   0.307   1.526   6.998  0.1857  0.1231  0.4882
 1796SOL    HW117021   0.246   1.567   7.060  0.1658 -0.2438  0.7105
 1796SOL    HW217022   0.264   1.441   6.990  1.2516 -0.3864  0.3183
 1797SOL     OW17023   3.978   3.610   7.630 -0.1554  0.1468 -0.3668
 1797SOL    HW117024   3.963   3.516   7.625 -0.8944  0.1436  1.8830
 1797SOL    HW217025   3.894   3.640   7.664 -0.0096 -2.2315  2.0293
 1798SOL     OW17026   2.367   3.532   9.846  0.5187 -0.3161  0.3186
 1798SOL    HW117027   2.313   3.464   9.807 -0.5932  0.9793 -0.3998
 1798SOL    HW217028   2.413   3.488   9.917 -2.0210  0.6249  2.5483
 1799SOL     OW17029   4.349   3.520  12.112 -0.1656 -0.1414  0.1662
 1799SOL    HW117030   4.405   3.527  12.034 -0.7802 -2.1665 -0.4488
 1799SOL    HW217031   4.262   3.514  12.073  0.7205 -0.3879 -1.7830
 1800SOL     OW17032   4.049   4.048   5.226  0.5374 -0.2801 -0.9775
 1800SOL    HW117033   4.093   4.085   5.303  2.1436  0.9135 -2.4598
 1800SOL    HW217034   4.119   4.058   5.162 -0.0150 -0.9759 -1.6864
 1801SOL     OW17035   3.496   1.309   4.414  0.0481  0.1458  0.9633
 1801SOL    HW117036   3.587   1.337   4.425 -0.3388  0.6193  3.0134
 1801SOL    HW217037   3.447   1.389   4.435  0.7959  0.8085  0.1606
 1802SOL     OW17038   0.432   1.027  17.678 -0.2320  0.5356  0.7729
 1802SOL    HW117039   0.338   1.008  17.678  0.4059 -2.6613  0.2291
 1802SOL    HW217040   0.467   0.951  17.631 -0.3227  0.3411  1.0231
 1803SOL     OW17041   0.639   0.507   7.062  0.3458 -0.2388  0.1962
 1803SOL    HW117042   0.574   0.577   7.049 -1.0656 -1.8756 -1.7177
 1803SOL    HW217043   0.666   0.487   6.973  1.4142 -0.9442  0.6809
 1804SOL     OW17044   3.538   3.892   7.364  0.2161 -0.2683 -0.2044
 1804SOL    HW117045   3.572   3.803   7.350  1.7381 -0.0763  2.2767
 1804SOL    HW217046   3.527   3.927   7.276  2.9244  1.0760  0.0181
 1805SOL     OW17047   3.267   3.819   8.385 -0.5169  0.0715  0.4201
 1805SOL    HW117048   3.214   3.740   8.374 -1.4042  1.0796 -2.4852
 1805SOL    HW217049   3.344   3.782   8.428  0.1306  0.7223 -0.2033
 1806SOL     OW17050   1.021   3.774   7.881  0.3547  0.0334 -0.2797
 1806SOL    HW117051   1.025   3.682   7.906  0.3478 -0.0107 -0.4421
 1806SOL    HW217052   0.970   3.804   7.956 -0.3754 -0.8117 -0.4393
 1807SOL     OW17053   1.468   4.313   6.222  0.3551 -0.2605  0.5172
 1807SOL    HW117054   1.501   4.277   6.140  1.0702  1.0755  0.2142
 1807SOL    HW217055   1.386   4.346   6.186 -0.0266 -0.7330  0.9595
 1808SOL     OW17056   3.354   0.657   9.598  0.7571 -0.2763 -0.3845
 1808SOL    HW117057   3.373   0.573   9.641 -1.3036 -0.5133  0.0910
 1808SOL    HW217058   3.301   0.617   9.529  0.5901  1.9711 -1.5423
 1809SOL     OW17059   0.218   1.019   6.820  0.3671 -0.4559  0.1332
 1809SOL    HW117060   0.149   1.077   6.788  1.6629  0.8946 -0.2059
 1809SOL    HW217061   0.283   1.087   6.840  0.1430 -0.3148  0.3697
 1810SOL     OW17062   1.852   2.370  16.450  0.1802 -0.1056 -0.2068
 1810SOL    HW117063   1.870   2.445  16.393  0.5828  1.1406  1.5319
 1810SOL    HW217064   1.899   2.388  16.532 -1.5880 -0.4902  0.8887
 1811SOL     OW17065   2.945   1.649  13.534  0.1957  0.5957  0.1759
 1811SOL    HW117066   2.855   1.636  13.564  0.9088 -2.1947  1.1098
 1811SOL    HW217067   2.954   1.741  13.557 -1.2851  0.5743  0.8723
 1812SOL     OW17068   1.705   0.143   3.396 -0.6483  0.1072 -0.2721
 1812SOL    HW117069   1.671   0.158   3.307 -0.7174  0.1504 -0.2389
 1812SOL    HW217070   1.645   0.075   3.429  0.0314  0.4932  1.7542
 1813SOL     OW17071   3.013   4.621  10.581  0.8128 -0.0628  0.0765
 1813SOL    HW117072   2.935   4.569  10.561  1.1370 -0.8141  0.7620
 1813SOL    HW217073   3.080   4.554  10.564  0.8448 -0.5507  2.1212
 1814SOL     OW17074   3.465   0.571   8.361 -0.2918 -0.4718 -0.4583
 1814SOL    HW117075   3.466   0.644   8.299  0.8572  1.2509  1.6131
 1814SOL    HW217076   3.553   0.582   8.396 -0.5114  0.0360 -0.0602
 1815SOL     OW17077   0.343   1.268   1.472 -0.0102 -0.1533 -0.7988
 1815SOL    HW117078   0.406   1.324   1.517  0.3117  0.1537 -1.6284
 1815SOL    HW217079   0.400   1.201   1.433  1.2016  0.8753 -0.7836
 1816SOL     OW17080   3.920   1.288   3.444  0.2813 -0.5458  0.1546
 1816SOL    HW117081   3.827   1.278   3.424 -0.1893  3.2055  0.4974
 1816SOL    HW217082   3.960   1.230   3.379 -2.4752  0.5225 -2.4777
 1817SOL     OW17083   1.175   0.091  15.561  0.2594  0.1022  0.6381
 1817SOL    HW117084   1.199   0.075  15.470 -1.2900  2.4756 -0.1699
 1817SOL    HW217085   1.081   0.077  15.559  0.4465 -0.9473 -0.8916
 1818SOL     OW17086   4.596   3.165  15.906 -0.0529  0.0609  0.4668
 1818SOL    HW117087   4.553   3.133  15.826 -0.2839 -1.0583  1.0479
 1818SOL    HW217088   4.649   3.088  15.928  0.0297  0.6192  2.1744
 1819SOL     OW17089   1.496   0.243   9.032  0.1234  0.3577 -0.0498
 1819SOL    HW117090   1.503   0.234   9.127  0.9865 -0.6998 -0.2090
 1819SOL    HW217091   1.457   0.159   9.006 -1.2265  1.0247 -0.1328
 1820SOL     OW17092   1.979   2.399   2.263  0.1054  0.3224 -0.2236
 1820SOL    HW117093   1.913   2.367   2.201  0.9857 -2.9831  0.5623
 1820SOL    HW217094   1.911   2.429   2.323 -0.5178 -2.1073  0.2798
 1821SOL     OW17095   0.608   3.589  15.588 -0.5318  0.0411  0.5743
 1821SOL    HW117096   0.603   3.517  15.525 -2.6949  0.7621 -0.0558
 1821SOL    HW217097   0.635   3.545  15.668 -0.8915 -2.1986 -0.5298
 1822SOL     OW17098   1.756   3.067   6.212 -0.0932 -0.2515 -0.4587
 1822SOL    HW117099   1.766   3.027   6.298 -3.4592 -1.1594 -0.4824
 1822SOL    HW217100   1.663   3.090   6.201 -0.1138 -0.5473 -0.8872
 1823SOL     OW17101   3.941   0.804   8.764 -0.1703  0.2412 -0.0592
 1823SOL    HW117102   4.016   0.760   8.724 -1.0941  0.4225 -2.0092
 1823SOL    HW217103   3.929   0.880   8.707  0.7740 -1.3674 -2.4009
 1824SOL     OW17104   2.716   0.680   1.644  0.0501 -0.3219  0.6937
 1824SOL    HW117105   2.720   0.705   1.736  2.2660 -4.3012  1.6976
 1824SOL    HW217106   2.644   0.738   1.619 -0.3680 -1.4958 -0.8064
 1825SOL     OW17107   2.370   2.735   3.894  0.0196 -0.1556  0.3884
 1825SOL    HW117108   2.331   2.698   3.816  0.3336  1.7367 -0.6593
 1825SOL    HW217109   2.345   2.827   3.891  0.9121  0.1390  1.8008
 1826SOL     OW17110   1.599   0.725  13.874 -0.4328  0.3018 -0.1025
 1826SOL    HW117111   1.539   0.730  13.948 -0.7928  0.3947 -0.3970
 1826SOL    HW217112   1.548   0.673  13.812 -1.3183  1.3367 -0.2475
 1827SOL     OW17113   4.132   2.310   4.006 -0.2903 -0.1058 -0.4146
 1827SOL    HW117114   4.158   2.398   3.979 -0.2284 -0.0353 -0.1226
 1827SOL    HW217115   4.111   2.323   4.099  1.4189 -2.8224  0.3634
 1828SOL     OW17116   2.411   4.713   1.107  0.6793 -0.0696 -0.0922
 1828SOL    HW117117   2.426   0.064   1.080  1.0280 -0.2902 -0.6315
 1828SOL    HW217118   2.328   4.700   1.062  0.8699  1.1915 -0.8188
 1829SOL     OW17119   2.732   0.192   2.492  0.0552 -0.2157 -0.5533
 1829SOL    HW117120   2.741   0.237   2.408  1.5074 -0.2011 -0.4005
 1829SOL    HW217121   2.727   0.101   2.465 -0.0889  0.3056 -2.2435
 1830SOL     OW17122   0.727   2.514  11.598  1.4772 -0.1811 -0.5969
 1830SOL    HW117123   0.814   2.475  11.586  0.4821 -2.2283 -1.2184
 1830SOL    HW217124   0.693   2.433  11.637  1.8279  0.8891  1.9697
 1831SOL     OW17125   1.769   0.149   2.032  0.5397 -0.5232  0.2104
 1831SOL    HW117126   1.684   0.107   2.046  1.1660 -1.1420  2.0912
 1831SOL    HW217127   1.810   0.086   1.973 -1.2437 -0.5723 -0.9863
 1832SOL     OW17128   2.138   1.345   8.997 -0.1900  0.1091  0.1018
 1832SOL    HW117129   2.152   1.440   8.988  0.2651 -0.0703 -1.0730
 1832SOL    HW217130   2.222   1.309   8.970 -1.3944 -1.7279 -1.1810
 1833SOL     OW17131   2.879   4.126  12.439  0.7742  0.0573  0.5867
 1833SOL    HW117132   2.880   4.221  12.424 -1.9804 -0.1062 -0.5408
 1833SOL    HW217133   2.785   4.113  12.435  0.6121  1.4638 -0.1245
 1834SOL     OW17134   3.932   1.067   2.966 -0.0953  0.2190 -0.0069
 1834SOL    HW117135   3.913   1.005   2.896  1.8420 -0.7234  0.3298
 1834SOL    HW217136   4.021   1.046   2.992 -0.3424  0.9543  1.4946
 1835SOL     OW17137   3.365   1.001   8.453 -0.3304 -0.5608 -0.0857
 1835SOL    HW117138   3.355   0.915   8.411  2.2183 -0.1671 -1.5495
 1835SOL    HW217139   3.278   1.024   8.484  0.5343 -0.6652  2.3962
 1836SOL     OW17140   2.293   0.753  10.642  0.0997  0.0741  0.2948
 1836SOL    HW117141   2.356   0.693  10.683  2.0087  0.1960 -2.5054
 1836SOL    HW217142   2.234   0.775  10.714 -0.6856  3.0044 -1.2728
 1837SOL     OW17143   4.613   3.486   8.097  0.0191 -0.0009  0.5689
 1837SOL    HW117144   4.685   3.521   8.149 -1.2296 -0.8979  2.8932
 1837SOL    HW217145   4.613   3.395   8.128  0.0591 -0.6428 -1.3151
 1838SOL     OW17146   2.553   1.870   7.414  0.5978 -0.1674  0.0070
 1838SOL    HW117147   2.537   1.878   7.508 -0.5478 -0.7711 -0.1347
 1838SOL    HW217148   2.565   1.963   7.397 -1.8761  0.4014  1.4317
 1839SOL     OW17149   2.676   1.829   5.575 -0.2507  0.5690 -0.4545
 1839SOL    HW117150   2.764   1.796   5.555 -0.9108 -0.7631 -1.1092
 1839SOL    HW217151   2.623   1.762   5.534  1.2424 -1.4720  0.9117
 1840SOL     OW17152   0.551   3.749  16.281  0.4755 -0.1197  0.4179
 1840SOL    HW117153   0.519   3.789  16.200  1.4360  1.3431  0.7547
 1840SOL    HW217154   0.512   3.816  16.337 -0.5331 -1.6975  1.6199
 1841SOL     OW17155   4.429   0.650   6.703  0.9489  0.4944  0.3876
 1841SOL    HW117156   4.422   0.558   6.727 -0.6577  0.2518 -1.0768
 1841SOL    HW217157   4.480   0.649   6.622 -0.1286 -0.8515 -0.2648
 1842SOL     OW17158   3.904   0.883   7.253 -0.6381 -0.0435  0.0853
 1842SOL    HW117159   3.871   0.884   7.164  1.2561 -3.5126 -0.6227
 1842SOL    HW217160   3.940   0.794   7.254  0.9067  0.5566 -1.4183
 1843SOL     OW17161   1.453   0.969   6.423  0.0888 -0.1062  0.1559
 1843SOL    HW117162   1.438   0.989   6.331  1.0251  1.2533  0.2982
 1843SOL    HW217163   1.413   1.045   6.466 -1.9168 -1.3257  0.4634
 1844SOL     OW17164   3.585   4.438   9.129 -0.1144  1.0584  0.0369
 1844SOL    HW117165   3.558   4.456   9.219 -1.6279 -2.0059  0.2028
 1844SOL    HW217166   3.502   4.410   9.090 -0.5761  2.4859  0.0175
 1845SOL     OW17167   1.715   4.628   0.317  0.7949 -0.7339  0.1691
 1845SOL    HW117168   1.685   4.706   0.364  0.2597 -1.4041  0.9352
 1845SOL    HW217169   1.630   4.587   0.304  0.2256  0.9337 -1.4328
 1846SOL     OW17170   1.191   1.081   5.387  0.2031  0.0206  0.2128
 1846SOL    HW117171   1.135   1.159   5.391  1.2129  0.8626 -1.6300
 1846SOL    HW217172   1.250   1.118   5.321  1.5517  0.2309  1.5634
 1847SOL     OW17173   3.224   4.022   3.910 -0.6553 -0.1953 -0.0743
 1847SOL    HW117174   3.238   3.939   3.865  0.8583 -0.8973  1.7173
 1847SOL    HW217175   3.307   4.030   3.957 -0.7241 -0.8435  0.1640
 1848SOL     OW17176   3.117   1.347   8.612 -0.5224 -0.2251 -0.3082
 1848SOL    HW117177   3.120   1.402   8.690  0.4703 -3.2598  1.7705
 1848SOL    HW217178   3.061   1.404   8.559  1.2713  0.8437 -1.0318
 1849SOL     OW17179   1.683   3.384   9.068 -0.0050 -0.0283 -0.3093
 1849SOL    HW117180   1.693   3.465   9.118  1.3574 -1.0204  1.0327
 1849SOL    HW217181   1.770   3.350   9.049 -0.0685  0.9960 -2.3685
 1850SOL     OW17182   3.293   4.423   3.799 -0.7819 -0.0465  0.0865
 1850SOL    HW117183   3.314   4.332   3.823 -1.1010 -0.3349 -0.7430
 1850SOL    HW217184   3.200   4.417   3.777 -0.8351  1.6774 -0.1151
 1851SOL     OW17185   0.930   4.430  14.292  0.0647  0.4113 -0.1043
 1851SOL    HW117186   0.892   4.470  14.370 -0.1098  0.2440 -0.1057
 1851SOL    HW217187   0.981   4.357  14.328  1.6015  1.4461 -0.1769
 1852SOL     OW17188   2.103   0.594   9.720 -0.6283  0.7345  0.2783
 1852SOL    HW117189   2.079   0.615   9.810 -1.0977 -0.7920  0.5104
 1852SOL    HW217190   2.173   0.654   9.695 -0.4998 -0.7428 -2.8560
 1853SOL     OW17191   4.344   3.264   3.756 -1.0679  0.6543  0.0486
 1853SOL    HW117192   4.394   3.188   3.786 -1.0423  0.8308  0.4502
 1853SOL    HW217193   4.380   3.325   3.820  0.0627 -0.2743  0.2729
 1854SOL     OW17194   3.028   4.448   6.722 -0.2227  0.3236 -0.4558
 1854SOL    HW117195   3.012   4.525   6.667 -0.2951  0.2307 -0.5640
 1854SOL    HW217196   3.012   4.482   6.810  0.6475 -0.4642 -0.0034
 1855SOL     OW17197   1.923   3.457   4.720  0.5075 -0.4214  0.5553
 1855SOL    HW117198   1.892   3.379   4.673  0.7842 -0.0425 -0.2654
 1855SOL    HW217199   1.989   3.414   4.774 -0.3054 -1.0224  1.0707
 1856SOL     OW17200   0.185   4.335   6.788  0.2435 -0.4450 -0.1490
 1856SOL    HW117201   0.190   4.264   6.723  1.4841  0.0537 -0.5959
 1856SOL    HW217202   0.164   4.408   6.729 -0.5124  1.2404  2.2035
 1857SOL     OW17203   1.882   3.095  11.144  0.0486  0.0258  0.1330
 1857SOL    HW117204   1.839   3.021  11.186 -2.4766  0.7811 -1.1293
 1857SOL    HW217205   1.828   3.170  11.169  0.3204 -0.1716  1.3040
 1858SOL     OW17206   3.934   4.144   2.291  0.0328 -0.4455 -0.0938
 1858SOL    HW117207   3.935   4.234   2.258  0.5204 -0.8711 -1.2277
 1858SOL    HW217208   4.024   4.135   2.323  0.9330  0.8713 -2.2550
 1859SOL     OW17209   2.078   3.555   0.709  0.4771  0.0179  0.1302
 1859SOL    HW117210   2.045   3.624   0.766  0.7785  0.6585 -0.4621
 1859SOL    HW217211   2.019   3.481   0.720  0.3506 -0.0018 -0.6395
 1860SOL     OW17212   4.538   3.541   6.129  0.0883  0.1825 -0.3579
 1860SOL    HW117213   4.493   3.510   6.051 -0.1724 -0.6300  0.1156
 1860SOL    HW217214   4.465   3.585   6.173 -0.8334 -0.0052 -1.7054
 1861SOL     OW17215   3.772   3.272  14.994  0.2021  0.3127 -0.2528
 1861SOL    HW117216   3.782   3.185  15.033 -0.5206  0.3526  0.0254
 1861SOL    HW217217   3.739   3.319  15.071 -0.1838  2.5224 -1.7831
 1862SOL     OW17218   2.444   1.005  13.755  0.3663 -0.5231 -0.4007
 1862SOL    HW117219   2.443   1.083  13.699 -2.2147 -0.4685 -0.2490
 1862SOL    HW217220   2.462   1.035  13.844 -2.5641  1.0932 -0.3662
 1863SOL     OW17221   2.377   4.659  11.019 -0.1300  0.4532  0.5242
 1863SOL    HW117222   2.470   4.643  11.004 -0.2205  0.1453  0.2844
 1863SOL    HW217223   2.369   4.590  11.085 -1.5471  2.0410  2.0072
 1864SOL     OW17224   3.842   4.401   4.229  0.7906 -0.2463  0.8891
 1864SOL    HW117225   3.803   4.457   4.296 -1.9287  0.2296 -1.1370
 1864SOL    HW217226   3.778   4.333   4.246 -1.9092  2.0559 -0.1543
 1865SOL     OW17227   4.328   1.805  14.070  0.4005  0.3957 -0.2709
 1865SOL    HW117228   4.257   1.778  14.012 -0.1500 -1.4863  1.2960
 1865SOL    HW217229   4.409   1.805  14.019 -0.6734  0.0547 -1.9680
 1866SOL     OW17230   2.724   0.998   6.813 -0.4957 -0.0389 -0.2051
 1866SOL    HW117231   2.699   1.083   6.777 -0.2820 -0.5324 -1.5026
 1866SOL    HW217232   2.730   1.013   6.907 -1.8542 -3.4042  0.4192
 1867SOL     OW17233   4.696   3.338  10.448  0.3553  0.5712  0.4519
 1867SOL    HW117234   0.041   3.322  10.405 -0.2670 -1.7309  0.0585
 1867SOL    HW217235   4.635   3.302  10.383 -0.8950  0.5894  1.6260
 1868SOL     OW17236   0.469   3.495   5.025 -0.0130  0.2707 -0.0421
 1868SOL    HW117237   0.496   3.451   5.106 -2.8754  0.3868  0.9749
 1868SOL    HW217238   0.444   3.578   5.065 -2.6854 -0.6348  0.1822
 1869SOL     OW17239   3.798   1.878   5.259  0.1915 -0.1483  0.0500
 1869SOL    HW117240   3.783   1.945   5.325 -0.0541  0.1181 -0.2718
 1869SOL    HW217241   3.715   1.878   5.210  0.3339  0.8483 -0.1850
 1870SOL     OW17242   0.854   4.328   5.132 -0.3501 -0.3961 -0.2070
 1870SOL    HW117243   0.769   4.352   5.097 -1.1195 -1.1797  1.1589
 1870SOL    HW217244   0.850   4.377   5.214 -3.1154  1.6237 -1.5854
 1871SOL     OW17245   1.399   1.726  15.196 -0.2736  0.6956  0.3756
 1871SOL    HW117246   1.320   1.713  15.248 -0.0781  1.4126  0.8481
 1871SOL    HW217247   1.388   1.649  15.139 -1.2818 -0.9204  2.7573
 1872SOL     OW17248   1.390   2.791   4.410 -0.9389 -0.6095 -0.3672
 1872SOL    HW117249   1.366   2.763   4.498  1.1913 -0.3688  0.2967
 1872SOL    HW217250   1.317   2.752   4.361 -2.2384 -1.2731  2.1049
 1873SOL     OW17251   2.481   1.084  14.026 -0.4596 -0.4716 -0.1314
 1873SOL    HW117252   2.396   1.092  14.070 -0.1449 -2.1281  0.7628
 1873SOL    HW217253   2.542   1.100  14.099 -1.9344 -0.2361  1.0492
 1874SOL     OW17254   0.102   4.486   3.833  0.0407  0.8503 -0.1662
 1874SOL    HW117255   0.137   4.491   3.745 -0.0713  2.5736 -0.1204
 1874SOL    HW217256   0.016   4.443   3.828  0.4765  0.1666 -1.7345
 1875SOL     OW17257   3.719   2.044   7.320  0.2122  0.2561 -0.6219
 1875SOL    HW117258   3.692   2.123   7.272 -1.8531 -0.6271 -0.9117
 1875SOL    HW217259   3.635   1.998   7.314  0.4062  0.1442 -2.6815
 1876SOL     OW17260   1.762   4.189   2.556  0.2935  0.1020 -0.8467
 1876SOL    HW117261   1.759   4.242   2.476 -1.5321 -0.2434 -1.0197
 1876SOL    HW217262   1.717   4.105   2.543  0.7449 -0.6545  2.6452
 1877SOL     OW17263   4.136   3.101   6.416 -0.2293 -0.0626 -0.4314
 1877SOL    HW117264   4.055   3.152   6.416  0.4706  1.0303  0.7254
 1877SOL    HW217265   4.137   3.058   6.330 -0.3538  0.7886 -0.8602
 1878SOL     OW17266   3.010   3.702   3.588  0.6378 -1.0140  0.1613
 1878SOL    HW117267   3.087   3.658   3.624 -1.1082 -2.4728  2.1495
 1878SOL    HW217268   2.943   3.634   3.594  0.6214 -1.0646 -0.6638
 1879SOL     OW17269   4.496   3.701   5.416 -0.1082 -0.7969 -0.3316
 1879SOL    HW117270   4.422   3.648   5.447 -1.1848  0.4166 -0.8241
 1879SOL    HW217271   4.542   3.635   5.365  1.8475  1.4123 -1.3993
 1880SOL     OW17272   2.539   3.946  14.012  0.7541 -0.2008 -0.0748
 1880SOL    HW117273   2.529   3.980  13.923 -2.2458  0.2406  0.4333
 1880SOL    HW217274   2.448   3.954  14.038 -0.1766  0.8651 -3.7163
 1881SOL     OW17275   2.951   0.634   3.666 -0.1160 -0.3311 -0.2266
 1881SOL    HW117276   3.015   0.572   3.700 -3.5875 -3.6272  0.1771
 1881SOL    HW217277   2.946   0.610   3.573 -0.6789  0.9050 -0.5176
 1882SOL     OW17278   3.234   3.519   3.561 -0.1988  0.1784  0.2880
 1882SOL    HW117279   3.327   3.527   3.542  0.5236  1.0283  4.1111
 1882SOL    HW217280   3.208   3.440   3.513  2.8743 -1.7149  1.7483
 1883SOL     OW17281   4.711   3.389   2.922 -0.0596  0.3948  0.1999
 1883SOL    HW117282   4.683   3.298   2.919 -1.0757  0.6906  0.6917
 1883SOL    HW217283   4.626   3.428   2.902 -1.0497 -1.9856 -0.1266
 1884SOL     OW17284   0.450   0.246  17.293  0.1521  0.0144  0.1062
 1884SOL    HW117285   0.461   0.239  17.388  0.5215  2.6886  0.2803
 1884SOL    HW217286   0.388   0.175  17.274  1.0054 -0.6640 -0.1030
 1885SOL     OW17287   3.592   1.034   8.617 -0.5555  0.3734  0.1342
 1885SOL    HW117288   3.669   0.979   8.608  0.6742  2.0753  0.2727
 1885SOL    HW217289   3.532   0.999   8.550 -1.2017 -2.0137  1.9595
 1886SOL     OW17290   1.660   3.374  12.080  0.1763  0.2294 -0.0745
 1886SOL    HW117291   1.675   3.312  12.152 -0.7092 -0.3162 -0.3600
 1886SOL    HW217292   1.619   3.446  12.129  0.9653 -0.3439  1.4492
 1887SOL     OW17293   3.865   2.466   4.040 -0.2204  0.1793 -0.6847
 1887SOL    HW117294   3.910   2.515   4.108  0.2802 -0.4114 -0.5824
 1887SOL    HW217295   3.776   2.482   4.073  0.0708 -1.0574  0.7515
 1888SOL     OW17296   0.577   3.383   9.041  0.0736  0.5463  0.9117
 1888SOL    HW117297   0.558   3.476   9.050  2.3772  0.9974  1.1292
 1888SOL    HW217298   0.592   3.383   8.946 -1.4929 -0.1208  0.6614
 1889SOL     OW17299   4.408   0.548   7.909  0.2891  0.4389  0.1015
 1889SOL    HW117300   4.493   0.507   7.894 -1.8070 -3.2651 -1.9060
 1889SOL    HW217301   4.360   0.482   7.859 -0.4545  1.2905 -0.2910
 1890SOL     OW17302   3.984   3.941  16.282  0.3653  0.0838 -0.7620
 1890SOL    HW117303   3.992   3.992  16.362 -2.0616  0.1459 -0.5575
 1890SOL    HW217304   4.078   3.928  16.269  0.4307  0.3844 -0.5738
 1891SOL     OW17305   1.881   2.855   6.436 -0.1393  0.0898  0.2088
 1891SOL    HW117306   1.965   2.849   6.482  0.0354  0.0114 -0.1205
 1891SOL    HW217307   1.837   2.934   6.467 -2.8013 -1.3984  0.2061
 1892SOL     OW17308   4.341   0.560   4.283  0.7388  0.5065 -0.3164
 1892SOL    HW117309   4.354   0.626   4.351  0.7775 -0.8709  1.0120
 1892SOL    HW217310   4.357   0.481   4.334  0.0741  1.8838  2.0095
 1893SOL     OW17311   4.466   1.328   6.566 -0.1859 -0.1415  0.6363
 1893SOL    HW117312   4.423   1.403   6.525  0.8663  0.2142  0.1765
 1893SOL    HW217313   4.518   1.296   6.492 -0.7055 -1.7871  0.9883
 1894SOL     OW17314   2.573   1.729   1.799  0.1305 -0.1450  0.4188
 1894SOL    HW117315   2.519   1.807   1.811 -2.0288 -1.4833 -0.5726
 1894SOL    HW217316   2.538   1.682   1.724  0.2039  0.2061  0.1652
 1895SOL     OW17317   2.688   3.375  11.595 -0.0482 -0.5525  0.3318
 1895SOL    HW117318   2.672   3.397  11.504 -0.2611 -0.0264  0.4944
 1895SOL    HW217319   2.640   3.441  11.647 -2.1982 -0.6952 -1.4790
 1896SOL     OW17320   4.154   4.528   4.399  0.0208  0.1562  0.3561
 1896SOL    HW117321   4.145   4.481   4.316  1.4946  0.4400  0.0479
 1896SOL    HW217322   4.112   4.611   4.377  0.9687  0.2220 -1.1804
 1897SOL     OW17323   0.566   2.573   9.554 -0.5751  0.1779 -0.1692
 1897SOL    HW117324   0.613   2.648   9.518  1.3901 -1.2532 -0.6102
 1897SOL    HW217325   0.527   2.615   9.631  0.9795  1.8402 -0.2830
 1898SOL     OW17326   2.054   2.918   8.833  0.1944 -0.4765 -0.0065
 1898SOL    HW117327   2.136   2.890   8.792  0.8741 -2.2636  2.5661
 1898SOL    HW217328   2.056   2.878   8.920  0.9485 -0.7189 -0.1368
 1899SOL     OW17329   1.304   4.406  10.741 -0.3893 -0.3628 -0.0120
 1899SOL    HW117330   1.314   4.335  10.677  0.4726 -0.5679  0.3535
 1899SOL    HW217331   1.304   4.476  10.675  1.8112  0.2271  0.6159
 1900SOL     OW17332   3.956   3.407  16.107  0.1722 -0.0301 -0.4478
 1900SOL    HW117333   4.022   3.340  16.126  0.8763  1.3290  1.8253
 1900SOL    HW217334   3.943   3.392  16.013  0.7542  0.9854 -0.6921
 1901SOL     OW17335   2.705   3.221  13.330 -0.7148  0.4915 -0.5464
 1901SOL    HW117336   2.680   3.214  13.422 -2.1111  0.1160 -0.9711
 1901SOL    HW217337   2.783   3.165  13.328 -3.3244 -3.1675  0.7596
 1902SOL     OW17338   3.151   0.488   0.049  0.5318  0.5733 -0.2405
 1902SOL    HW117339   3.114   0.557   0.104 -0.3004 -0.3970  0.4230
 1902SOL    HW217340   3.087   0.479  17.734 -0.6899 -0.7939  1.0520
 1903SOL     OW17341   1.476   2.258   2.401  0.2926  0.4484 -0.1844
 1903SOL    HW117342   1.476   2.199   2.325 -0.5812 -2.4425  2.0912
 1903SOL    HW217343   1.479   2.195   2.472 -1.6791 -2.3165 -2.5288
 1904SOL     OW17344   0.690   1.958  15.607  0.4721 -0.1358  0.6909
 1904SOL    HW117345   0.649   2.028  15.556  2.8888  0.6080 -0.2593
 1904SOL    HW217346   0.760   1.937  15.545  0.0270 -1.1773  0.5543
 1905SOL     OW17347   0.388   3.952   8.772 -0.1135 -0.3908 -0.3050
 1905SOL    HW117348   0.432   4.017   8.718  1.3268 -0.9933  0.1180
 1905SOL    HW217349   0.299   3.960   8.738  1.0291 -0.2599 -3.2839
 1906SOL     OW17350   3.134   0.242   2.263 -0.3625  0.0145  0.0185
 1906SOL    HW117351   3.208   0.229   2.323  0.5808  0.8569 -0.9516
 1906SOL    HW217352   3.075   0.174   2.293  0.9632 -1.1381  0.0062
 1907SOL     OW17353   3.607   2.520   2.075 -0.6319 -0.1402 -0.1174
 1907SOL    HW117354   3.645   2.480   2.153  0.5237 -0.5809 -0.9087
 1907SOL    HW217355   3.619   2.612   2.100 -3.3357  0.5357 -1.2263
 1908SOL     OW17356   2.871   3.859   6.616  0.3749 -0.1566 -0.1572
 1908SOL    HW117357   2.902   3.921   6.549  2.9788 -0.4732  0.7676
 1908SOL    HW217358   2.956   3.826   6.643  0.6862  2.7339  2.3793
 1909SOL     OW17359   1.388   1.353  10.495  0.4369  0.0166  0.6618
 1909SOL    HW117360   1.327   1.312  10.557  1.2622 -0.4607  1.1655
 1909SOL    HW217361   1.455   1.284  10.490  1.7189  1.3024 -0.0862
 1910SOL     OW17362   2.518   3.331   3.087 -0.1138 -0.1443  0.3957
 1910SOL    HW117363   2.479   3.246   3.065  0.8559 -0.9352  1.7264
 1910SOL    HW217364   2.600   3.301   3.127 -1.5954 -3.4367  0.9697
 1911SOL     OW17365   0.911   0.509   7.140  0.5690 -0.5982  0.1706
 1911SOL    HW117366   0.820   0.494   7.115  1.0208 -0.9514 -1.2335
 1911SOL    HW217367   0.924   0.588   7.087 -1.7701  0.0917  0.6336
 1912SOL     OW17368   2.572   3.308   5.557  0.0419 -0.1548 -0.2256
 1912SOL    HW117369   2.606   3.296   5.468  2.6837 -1.2466  0.9313
 1912SOL    HW217370   2.609   3.226   5.589 -0.4536 -0.5494 -0.6493
 1913SOL     OW17371   0.699   1.393   5.952  0.7537  0.3732  0.2847
 1913SOL    HW117372   0.707   1.464   5.889 -0.9294  1.6970  1.5642
 1913SOL    HW217373   0.626   1.417   6.009 -1.0057 -0.6782 -1.5190
 1914SOL     OW17374   1.480   1.444  15.872 -0.0048 -0.0792  0.1068
 1914SOL    HW117375   1.491   1.428  15.778 -0.0253 -0.2404  0.1305
 1914SOL    HW217376   1.572   1.424  15.887 -0.2535 -2.9942 -2.1835
 1915SOL     OW17377   2.853   3.588   8.162  1.0212  0.0910  0.1830
 1915SOL    HW117378   2.816   3.586   8.073 -0.9079  1.5180  0.9468
 1915SOL    HW217379   2.859   3.495   8.183 -1.7738 -0.0796  0.2679
 1916SOL     OW17380   2.327   2.426   8.529  0.0355  0.4538  1.0362
 1916SOL    HW117381   2.381   2.420   8.608  0.5533 -1.1284  0.5736
 1916SOL    HW217382   2.253   2.482   8.552 -1.0860  0.0534 -1.5813
 1917SOL     OW17383   2.358   0.509   8.604 -0.2312  0.0027 -0.5545
 1917SOL    HW117384   2.353   0.529   8.698  1.6705  0.0934 -0.4715
 1917SOL    HW217385   2.441   0.550   8.581  0.3246  0.4841  2.2961
 1918SOL     OW17386   4.321   3.469  15.821  0.7886 -0.4789  0.3390
 1918SOL    HW117387   4.404   3.515  15.810 -0.0849  0.6247 -1.5308
 1918SOL    HW217388   4.262   3.543  15.810  0.6467 -0.6413 -0.0053
 1919SOL     OW17389   2.251   2.568  15.419  0.1606 -0.0613 -0.6982
 1919SOL    HW117390   2.259   2.492  15.362 -1.3462 -2.8012  2.7817
 1919SOL    HW217391   2.177   2.622  15.389  0.2594 -0.4164 -1.5905
 1920SOL     OW17392   2.144   2.397   3.686 -0.3311 -0.3981 -0.2024
 1920SOL    HW117393   2.074   2.404   3.751  0.1552 -1.5405  0.4417
 1920SOL    HW217394   2.158   2.303   3.672 -2.0136 -0.5390 -1.0620
 1921SOL     OW17395   1.949   2.374   3.037  0.2210 -0.2051  0.3030
 1921SOL    HW117396   1.873   2.379   2.980  1.3412  0.3312 -1.1575
 1921SOL    HW217397   2.001   2.308   2.991  1.0188 -0.0013  0.8959
 1922SOL     OW17398   1.116   3.506   2.812  0.1420 -0.0541  0.8313
 1922SOL    HW117399   1.038   3.550   2.779 -0.5927 -1.7973  0.2028
 1922SOL    HW217400   1.077   3.419   2.797 -0.1166  0.3094 -0.6073
 1923SOL     OW17401   2.787   3.029   6.892  0.8015 -0.5905  0.2417
 1923SOL    HW117402   2.819   3.113   6.858 -2.0976  0.4678  0.1076
 1923SOL    HW217403   2.733   3.061   6.964  0.5212  0.8545 -0.6050
 1924SOL     OW17404   4.108   1.142   4.668 -0.6623  0.2956 -0.4717
 1924SOL    HW117405   4.021   1.128   4.705 -0.2954 -0.7905 -0.0193
 1924SOL    HW217406   4.110   1.234   4.641  3.9910  0.4316  0.4734
 1925SOL     OW17407   3.681   1.435   3.108 -0.1817 -0.1559 -0.7446
 1925SOL    HW117408   3.600   1.412   3.153 -0.0609 -1.0343 -0.9929
 1925SOL    HW217409   3.736   1.358   3.123  0.0514  0.3296  0.9377
 1926SOL     OW17410   0.301   2.324   8.983  0.4014 -0.4671  0.4935
 1926SOL    HW117411   0.258   2.337   9.068 -0.6844  0.2833 -0.1676
 1926SOL    HW217412   0.393   2.311   9.006  1.7300  2.8172 -2.9850
 1927SOL     OW17413   4.010   0.906  17.665 -0.0686 -0.2257  0.4758
 1927SOL    HW117414   3.959   0.959  17.604 -0.7658 -0.3812  0.9249
 1927SOL    HW217415   4.073   0.971  17.697  1.3122  0.2008 -3.0944
 1928SOL     OW17416   0.774   4.413   7.779  0.8153 -0.0956 -0.5044
 1928SOL    HW117417   0.745   4.464   7.853  0.3974 -0.9231 -0.0980
 1928SOL    HW217418   0.688   4.405   7.738  1.9572  1.0467 -3.1371
 1929SOL     OW17419   4.609   3.658   8.858 -0.0567  0.2778 -0.0951
 1929SOL    HW117420   4.541   3.651   8.925 -0.1175  1.2820 -0.0597
 1929SOL    HW217421   4.676   3.602   8.896  0.2215  1.7297  1.5387
 1930SOL     OW17422   3.590   4.386  15.130 -0.2871 -0.2364  0.2028
 1930SOL    HW117423   3.640   4.384  15.212 -1.1314  0.8754  0.7391
 1930SOL    HW217424   3.565   4.478  15.134  1.0724  0.1932 -1.3513
 1931SOL     OW17425   4.709   3.391  13.420 -0.4914  0.1927  0.0753
 1931SOL    HW117426   4.647   3.319  13.433 -1.0981  0.2199 -2.5720
 1931SOL    HW217427   4.653   3.469  13.425 -0.9959 -0.0591 -1.6369
 1932SOL     OW17428   1.592   2.502   6.871 -0.0789  0.1464 -0.5043
 1932SOL    HW117429   1.670   2.498   6.926 -0.7125  2.4330  0.5491
 1932SOL    HW217430   1.528   2.475   6.937  0.2831  0.6625  0.0602
 1933SOL     OW17431   4.548   0.780  14.501  0.0575  0.5072 -0.0594
 1933SOL    HW117432   4.576   0.698  14.542 -1.5402 -0.7248 -1.4763
 1933SOL    HW217433   4.552   0.840  14.575  0.5213 -0.3010  0.5728
 1934SOL     OW17434   0.921   3.103   7.727  1.0123 -0.2555  0.0630
 1934SOL    HW117435   0.981   3.133   7.659 -0.0107 -0.6727 -1.0185
 1934SOL    HW217436   0.907   3.013   7.697  0.4214 -0.4554  0.9366
 1935SOL     OW17437   1.304   3.495   6.568 -0.8999  0.2094  0.4470
 1935SOL    HW117438   1.370   3.507   6.500 -2.1158  3.0661 -0.2388
 1935SOL    HW217439   1.230   3.546   6.536 -0.5114  0.8745  0.6011
 1936SOL     OW17440   0.263   2.959   9.007  0.2474  0.6199 -0.1436
 1936SOL    HW117441   0.232   2.906   9.080 -0.1699  1.2435  0.1309
 1936SOL    HW217442   0.347   2.995   9.036  0.1281  0.7301  0.0596
 1937SOL     OW17443   0.265   0.755   9.405  0.0806 -0.1875 -0.5753
 1937SOL    HW117444   0.331   0.791   9.346  0.6486 -1.6787 -0.8427
 1937SOL    HW217445   0.249   0.670   9.364  2.3386 -1.1218  0.5007
 1938SOL     OW17446   2.206   0.596  17.704 -0.1124  0.1295 -0.9197
 1938SOL    HW117447   2.281   0.625   0.000 -1.7569 -0.5296  1.8300
 1938SOL    HW217448   2.186   0.684  17.670  1.5349  1.0202  0.3940
 1939SOL     OW17449   2.459   0.325   8.366  0.0805 -0.0932  0.0334
 1939SOL    HW117450   2.473   0.251   8.306  0.7654  0.6245 -0.6921
 1939SOL    HW217451   2.545   0.342   8.405  0.3728  0.5223 -0.8771
 1940SOL     OW17452   0.286   1.626   4.006  0.1070 -0.0193  0.5074
 1940SOL    HW117453   0.220   1.674   4.055 -0.1556  1.0884 -0.9654
 1940SOL    HW217454   0.238   1.594   3.930 -1.1749  1.7171  0.5815
 1941SOL     OW17455   0.607   2.215   6.087  0.0744 -0.2834  0.5494
 1941SOL    HW117456   0.542   2.267   6.040 -2.7733 -3.8258  0.5288
 1941SOL    HW217457   0.657   2.284   6.130  1.6992 -1.1998  0.1292
 1942SOL     OW17458   1.933   4.476   6.773  0.5167 -0.2657 -0.5223
 1942SOL    HW117459   1.861   4.524   6.815  1.1512  1.5722 -1.5323
 1942SOL    HW217460   1.903   4.386   6.787  1.2155 -0.6021 -1.1569
 1943SOL     OW17461   2.739   0.725   2.699 -0.0999 -0.0640  0.3205
 1943SOL    HW117462   2.645   0.733   2.710 -0.0332  2.6310 -1.0289
 1943SOL    HW217463   2.754   0.641   2.741 -0.4982  1.4692  3.4779
 1944SOL     OW17464   3.554   2.352  15.268  0.0479  0.1316  0.4334
 1944SOL    HW117465   3.612   2.278  15.286 -1.7219 -1.2777  0.4132
 1944SOL    HW217466   3.529   2.337  15.176  0.1248 -0.7174  0.5476
 1945SOL     OW17467   4.088   1.283   6.371 -0.3220 -0.6319 -0.0429
 1945SOL    HW117468   4.139   1.332   6.436 -0.3614 -1.2035  0.4154
 1945SOL    HW217469   4.018   1.240   6.420 -1.2688  1.3334  0.3487
 1946SOL     OW17470   3.523   2.176   9.530  0.1213 -0.4276  0.0756
 1946SOL    HW117471   3.525   2.082   9.542  0.1149 -0.4890 -0.4027
 1946SOL    HW217472   3.434   2.205   9.548  0.2877  0.7553 -0.9719
 1947SOL     OW17473   0.566   3.026   7.021  0.2012  0.0945  0.3974
 1947SOL    HW117474   0.554   2.940   6.981 -0.5897  0.1498  0.5189
 1947SOL    HW217475   0.496   3.069   6.972 -0.2459 -1.3858 -0.2734
 1948SOL     OW17476   0.061   4.271   4.100 -0.9564  0.2049 -0.0150
 1948SOL    HW117477   4.730   4.330   4.075  0.1885  2.2812  1.6416
 1948SOL    HW217478   0.043   4.204   4.034 -3.6015  0.6187  0.2834
 1949SOL     OW17479   4.090   0.100   9.386 -0.2035 -0.0223 -0.2063
 1949SOL    HW117480   4.020   0.108   9.320  1.5284  1.6158 -1.8505
 1949SOL    HW217481   4.127   0.016   9.359 -1.0098 -0.3695 -0.2372
 1950SOL     OW17482   4.195   3.594   1.708 -0.7273  0.6125  0.0632
 1950SOL    HW117483   4.117   3.584   1.654 -0.9443  0.7048  0.3553
 1950SOL    HW217484   4.269   3.550   1.666 -0.4632 -0.7548  1.9639
 1951SOL     OW17485   4.144   3.190   7.671  0.3026  0.1737 -0.2268
 1951SOL    HW117486   4.151   3.113   7.727  0.0661  1.4806  1.5966
 1951SOL    HW217487   4.225   3.230   7.702 -0.5410  1.4112  0.3781
 1952SOL     OW17488   3.485   1.443   6.978  0.1545  0.1276  0.4715
 1952SOL    HW117489   3.560   1.390   6.950 -1.4301 -2.7211  1.5353
 1952SOL    HW217490   3.427   1.424   6.905 -1.0369 -1.2924  1.7681
 1953SOL     OW17491   1.238   2.112   6.847 -0.3767 -0.7351 -0.4295
 1953SOL    HW117492   1.205   2.074   6.929  1.1754 -0.9332  0.1162
 1953SOL    HW217493   1.264   2.035   6.795  2.2092  0.9698 -1.6805
 1954SOL     OW17494   4.538   0.648   9.197 -0.3172 -0.1293 -0.4047
 1954SOL    HW117495   4.537   0.692   9.282  1.1252 -1.9025  0.5238
 1954SOL    HW217496   4.456   0.600   9.211  0.7170 -1.4147  1.2796
 1955SOL     OW17497   3.448   1.017   6.225 -0.5624  0.4426  0.0362
 1955SOL    HW117498   3.480   0.927   6.215 -1.9714 -0.1662  1.0497
 1955SOL    HW217499   3.523   1.051   6.274 -0.1628 -0.2496 -0.0880
 1956SOL     OW17500   4.370   1.037  16.969 -0.1049 -0.5048  0.2139
 1956SOL    HW117501   4.389   1.102  16.901  2.7329 -0.9980  0.5694
 1956SOL    HW217502   4.290   1.078  17.002 -0.6244 -1.5595  0.2657
 1957SOL     OW17503   0.829   3.888   3.550  0.0205  0.2218  0.1282
 1957SOL    HW117504   0.865   3.961   3.500 -0.3787 -2.3522 -4.0034
 1957SOL    HW217505   0.883   3.823   3.505  0.8991  1.9485 -1.3303
 1958SOL     OW17506   3.923   3.439   5.310  0.2318 -0.1444 -0.3956
 1958SOL    HW117507   3.889   3.430   5.221  3.4832 -2.6516 -1.3479
 1958SOL    HW217508   3.840   3.451   5.357  1.4410  1.4128  1.3526
 1959SOL     OW17509   3.790   4.251   6.821 -0.1808 -0.3846  0.5099
 1959SOL    HW117510   3.785   4.330   6.875 -1.6017 -0.3110  0.2502
 1959SOL    HW217511   3.809   4.279   6.731  0.6626 -0.6591  0.5945
 1960SOL     OW17512   0.871   3.731   6.458 -0.1666  0.2042  0.0788
 1960SOL    HW117513   0.855   3.641   6.428  0.1329 -0.2654  1.3475
 1960SOL    HW217514   0.964   3.726   6.479 -0.5234 -1.7480  1.2067
 1961SOL     OW17515   3.381   2.610   5.782 -0.0812  0.0169 -1.0684
 1961SOL    HW117516   3.443   2.590   5.853 -1.0732  0.8802  0.0376
 1961SOL    HW217517   3.332   2.683   5.820  0.4551 -0.2992  0.2520
 1962SOL     OW17518   0.852   2.250   8.228  0.1260  0.1455  0.4229
 1962SOL    HW117519   0.846   2.320   8.292 -1.5579  1.7914 -1.5450
 1962SOL    HW217520   0.767   2.208   8.241  0.3604 -0.3331  0.4303
 1963SOL     OW17521   1.895   4.386  11.712  0.1276 -0.0303  0.2122
 1963SOL    HW117522   1.973   4.425  11.671 -1.2413  0.0436 -2.3047
 1963SOL    HW217523   1.848   4.467  11.733 -1.8005 -0.6318 -1.8513
 1964SOL     OW17524   1.805   2.453   2.809  0.2483 -0.0831 -0.2595
 1964SOL    HW117525   1.880   2.455   2.750  0.9237  1.9194  0.6635
 1964SOL    HW217526   1.792   2.547   2.827 -0.6154 -0.0967 -0.8406
 1965SOL     OW17527   1.001   1.385   4.928  0.0224  0.3398  0.0907
 1965SOL    HW117528   1.077   1.332   4.952 -1.1700 -1.2923  0.3481
 1965SOL    HW217529   1.039   1.438   4.858 -0.3538 -0.1523 -0.4817
 1966SOL     OW17530   2.453   1.783   6.083 -0.3049  0.0567  0.2566
 1966SOL    HW117531   2.369   1.824   6.100 -1.5465 -2.5939  0.4556
 1966SOL    HW217532   2.511   1.829   6.145  3.4372 -1.9644 -1.7095
 1967SOL     OW17533   3.901   1.420   3.675  0.5302 -0.3094 -0.1929
 1967SOL    HW117534   3.875   1.498   3.626 -1.2215 -0.8725 -0.1433
 1967SOL    HW217535   3.918   1.360   3.602 -1.5180 -1.4142  0.2583
 1968SOL     OW17536   2.958   2.740   2.932  0.7294  0.4219  0.1484
 1968SOL    HW117537   2.925   2.698   2.852  0.0289 -1.1738  1.2753
 1968SOL    HW217538   2.968   2.830   2.903  0.5125  0.9313  1.6711
 1969SOL     OW17539   2.394   2.051  13.292 -0.0794  0.1945  0.2246
 1969SOL    HW117540   2.402   2.146  13.285  1.5426  0.0793  0.3719
 1969SOL    HW217541   2.303   2.041  13.321  0.3560  0.9871  1.8806
 1970SOL     OW17542   2.021   3.458  16.256 -0.4955  0.4430 -0.2198
 1970SOL    HW117543   2.084   3.419  16.316  1.0900  1.8873 -0.9432
 1970SOL    HW217544   2.043   3.551  16.264 -1.0028  0.3281  2.6245
 1971SOL     OW17545   0.483   1.592   3.826 -0.0620 -0.0575  0.2265
 1971SOL    HW117546   0.446   1.623   3.909 -0.6824  0.3766 -0.2122
 1971SOL    HW217547   0.417   1.631   3.769 -0.0403  0.5275  0.5995
 1972SOL     OW17548   3.341   3.245   1.757 -0.1798  0.0810 -0.5135
 1972SOL    HW117549   3.300   3.223   1.841  2.7661  0.4255  1.0273
 1972SOL    HW217550   3.429   3.212   1.775 -1.5301 -3.2928 -0.1089
 1973SOL     OW17551   4.693   3.489   4.130  0.0125 -0.0333  0.0484
 1973SOL    HW117552   4.638   3.518   4.202  0.6673  1.1743  0.0632
 1973SOL    HW217553   4.635   3.445   4.068  0.3356  3.1361 -2.4712
 1974SOL     OW17554   0.921   0.406  11.725  0.1519  0.0571 -0.5540
 1974SOL    HW117555   0.831   0.436  11.712 -0.0259  1.1245  3.0209
 1974SOL    HW217556   0.982   0.474  11.695  0.4633 -0.3469 -0.8208
 1975SOL     OW17557   2.911   4.695  16.171  0.4047 -0.2358  0.6467
 1975SOL    HW117558   2.845   4.737  16.226  1.7877  1.5169  0.9309
 1975SOL    HW217559   2.862   4.631  16.118 -1.7382  2.1851 -0.3393
 1976SOL     OW17560   1.877   3.556   3.991  0.3338  0.5567  0.4253
 1976SOL    HW117561   1.784   3.576   3.996 -0.0255 -1.5203  2.0419
 1976SOL    HW217562   1.908   3.605   4.067  0.5201  1.0802  0.0135
 1977SOL     OW17563   3.190   1.805  13.383 -0.6687  0.1027 -0.4170
 1977SOL    HW117564   3.216   1.887  13.342  1.8731 -1.3954 -1.8193
 1977SOL    HW217565   3.247   1.790  13.458 -2.8210 -0.0771  1.2030
 1978SOL     OW17566   2.193   4.469  11.949  0.2998 -0.4383 -0.3033
 1978SOL    HW117567   2.268   4.524  11.971  1.8992 -1.6865 -2.6659
 1978SOL    HW217568   2.149   4.533  11.894 -0.9381 -1.4011 -0.4402
 1979SOL     OW17569   3.506   4.355  12.624 -0.3375 -0.9490 -0.7110
 1979SOL    HW117570   3.423   4.385  12.662 -0.4649 -0.5241 -1.3233
 1979SOL    HW217571   3.515   4.260  12.631  1.9555 -0.5492  1.7606
 1980SOL     OW17572   2.104   0.784  17.464  0.4850 -0.1991 -0.1487
 1980SOL    HW117573   2.019   0.751  17.433 -0.0198  0.2365  0.7551
 1980SOL    HW217574   2.145   0.820  17.386  1.7492  0.9690  1.0608
 1981SOL     OW17575   2.343   3.199   5.975 -0.0799  0.2206  0.5236
 1981SOL    HW117576   2.259   3.228   5.938  0.3262  1.2554  0.3933
 1981SOL    HW217577   2.411   3.240   5.921  0.4714 -0.3898  0.7594
 1982SOL     OW17578   2.905   2.454   7.216  0.7924 -0.0856 -0.1654
 1982SOL    HW117579   2.951   2.479   7.296  0.2031  3.5156 -0.9487
 1982SOL    HW217580   2.935   2.366   7.191  1.2593 -0.2931  1.1377
 1983SOL     OW17581   2.587   1.718  15.588  0.3712 -0.0567 -0.4737
 1983SOL    HW117582   2.577   1.633  15.544  1.6354  0.0095 -0.8839
 1983SOL    HW217583   2.613   1.694  15.677  0.0303 -0.5564 -0.5076
 1984SOL     OW17584   0.231   0.858   1.915 -0.5827 -0.4843  0.4040
 1984SOL    HW117585   0.231   0.884   1.823  0.6704  1.8899  1.0689
 1984SOL    HW217586   0.187   0.931   1.958 -0.6449  0.3428 -1.1008
 1985SOL     OW17587   3.977   4.413  11.623 -0.1716  0.6286  0.2861
 1985SOL    HW117588   3.886   4.431  11.646  0.0021 -0.0596  1.5038
 1985SOL    HW217589   3.978   4.378  11.534 -0.7943 -0.7078  0.7972
 1986SOL     OW17590   4.043   2.554   5.064 -0.1399 -0.3580 -0.2768
 1986SOL    HW117591   4.036   2.550   5.160  0.5573  1.5194 -0.1480
 1986SOL    HW217592   3.971   2.612   5.041  1.0919  1.7736  1.1368
 1987SOL     OW17593   2.863   2.596  10.749 -0.1576  0.4237  0.1876
 1987SOL    HW117594   2.775   2.560  10.758  0.7607 -1.1639  2.7711
 1987SOL    HW217595   2.849   2.685  10.717  0.7459  0.0750 -1.1654
 1988SOL     OW17596   0.106   0.102  12.325  0.1104 -0.6397  0.1386
 1988SOL    HW117597   0.147   0.039  12.266  1.1355  1.0358 -0.9564
 1988SOL    HW217598   0.153   0.185  12.317 -0.4217 -0.4314 -0.8354
 1989SOL     OW17599   4.382   2.980   3.821  0.4939 -0.4530 -0.2658
 1989SOL    HW117600   4.304   3.009   3.868  0.8190 -2.4989  1.5543
 1989SOL    HW217601   4.364   2.886   3.828  2.5511 -0.5595  3.3810
 1990SOL     OW17602   0.148   1.386   4.857 -0.2088  0.1432 -0.3336
 1990SOL    HW117603   0.137   1.312   4.798 -0.5138  0.9344 -1.2681
 1990SOL    HW217604   0.235   1.365   4.890 -0.4250  0.7771  0.6502
 1991SOL     OW17605   2.158   1.744  16.807 -0.1547 -0.1356 -0.6604
 1991SOL    HW117606   2.092   1.675  16.809 -1.7128  1.3494 -0.2084
 1991SOL    HW217607   2.145   1.783  16.721 -2.1717  1.8102  0.5086
 1992SOL     OW17608   2.337   3.757  17.551  0.1787 -0.1791 -0.1024
 1992SOL    HW117609   2.419   3.712  17.570  0.7025  1.3013  1.1498
 1992SOL    HW217610   2.349   3.835  17.605 -2.1769  0.2324 -0.1634
 1993SOL     OW17611   4.566   2.190   6.281 -1.0531 -0.0481  0.4597
 1993SOL    HW117612   4.585   2.281   6.303 -1.4230 -0.0592  0.8186
 1993SOL    HW217613   4.651   2.152   6.304 -0.7310  0.1366 -0.4518
 1994SOL     OW17614   4.346   0.345  14.874  0.2435  0.5832 -0.6494
 1994SOL    HW117615   4.427   0.324  14.921 -2.1608  0.3066  3.3170
 1994SOL    HW217616   4.360   0.438  14.857  1.4893  0.4008 -0.6145
 1995SOL     OW17617   3.659   3.877   6.946  0.1143  0.1125  0.0596
 1995SOL    HW117618   3.721   3.930   6.896  0.6938 -1.0479 -0.4462
 1995SOL    HW217619   3.582   3.934   6.956  0.3660  0.3389  0.7610
 1996SOL     OW17620   4.699   3.816   4.478 -0.5693 -0.2392  0.4236
 1996SOL    HW117621   4.631   3.820   4.545 -1.4809  2.5086 -0.6321
 1996SOL    HW217622   4.665   3.749   4.420 -3.0311  0.5369  0.9672
 1997SOL     OW17623   1.739   2.465   9.270  0.1627  0.3239 -0.7031
 1997SOL    HW117624   1.799   2.390   9.274  1.5241  1.5182  1.1869
 1997SOL    HW217625   1.713   2.448   9.180  1.1552 -0.8340 -0.7759
 1998SOL     OW17626   1.122   1.170   0.425  0.1781 -0.1507  0.0938
 1998SOL    HW117627   1.199   1.134   0.468  0.0587  2.5910  2.5871
 1998SOL    HW217628   1.107   1.102   0.359 -0.3111  0.1594 -0.1213
 1999SOL     OW17629   1.505   0.800   6.719 -0.4370  0.5358 -0.4631
 1999SOL    HW117630   1.446   0.776   6.791 -0.7728  1.7475 -0.3317
 1999SOL    HW217631   1.555   0.719   6.706 -0.2137  1.1167 -3.1338
 2000SOL     OW17632   2.730   2.773   5.816  0.2021  0.7014  0.2364
 2000SOL    HW117633   2.795   2.733   5.873  0.2119 -3.0028 -2.3542
 2000SOL    HW217634   2.681   2.822   5.882 -0.1272 -1.4340  1.6123
 2001SOL     OW17635   2.860   4.626   4.129 -0.5548 -0.3813 -0.4853
 2001SOL    HW117636   2.936   4.613   4.186 -0.6116 -0.6531 -0.4692
 2001SOL    HW217637   2.816   4.544   4.154 -2.9366  1.1022  0.1409
 2002SOL     OW17638   1.968   2.676  14.236  0.1590 -0.3229  0.2081
 2002SOL    HW117639   2.007   2.742  14.178  0.5747 -1.2213 -0.5292
 2002SOL    HW217640   1.876   2.674  14.210  0.5595  2.3763 -1.3759
 2003SOL     OW17641   3.558   3.625  11.482  0.1222 -0.3018  0.0417
 2003SOL    HW117642   3.629   3.686  11.501 -0.1699 -0.2293  0.8893
 2003SOL    HW217643   3.594   3.543  11.516 -2.1667 -1.4243 -0.2600
 2004SOL     OW17644   1.468   3.155  10.096  0.9214 -0.2401 -0.8599
 2004SOL    HW117645   1.461   3.060  10.107  0.2870 -0.1182 -0.2215
 2004SOL    HW217646   1.534   3.180  10.161 -2.1667  2.4914  1.2364
 2005SOL     OW17647   1.138   4.423  16.279 -0.1653 -0.6463  0.1550
 2005SOL    HW117648   1.115   4.512  16.254  3.1613 -0.2892 -1.6901
 2005SOL    HW217649   1.228   4.439  16.306 -0.2373 -0.4902  0.3004
 2006SOL     OW17650   3.722   1.187  16.865 -0.2025 -1.0138  0.4035
 2006SOL    HW117651   3.798   1.140  16.831  0.5210  0.1921  0.3714
 2006SOL    HW217652   3.737   1.144  16.949  0.9128 -1.4805 -0.0382
 2007SOL     OW17653   4.068   1.415   5.726  0.1672 -0.8126 -0.1643
 2007SOL    HW117654   4.089   1.342   5.785 -1.1291 -1.4568 -0.4985
 2007SOL    HW217655   4.028   1.486   5.776  0.7536  0.0539 -0.9163
 2008SOL     OW17656   4.541   1.752  10.197  0.2090  0.4048 -0.6613
 2008SOL    HW117657   4.458   1.764  10.243 -0.1594 -0.5809 -1.1009
 2008SOL    HW217658   4.551   1.661  10.222  1.7200  0.4158 -1.2044
 2009SOL     OW17659   0.583   4.076   6.513  0.2407 -0.1480  0.1461
 2009SOL    HW117660   0.501   4.124   6.519  1.0211  1.1160  0.6288
 2009SOL    HW217661   0.645   4.144   6.487  0.0368 -0.7207 -1.8430
 2010SOL     OW17662   3.308   3.176   5.172 -0.1629 -0.1673 -0.2463
 2010SOL    HW117663   3.215   3.198   5.166  0.1659  1.6696  1.2933
 2010SOL    HW217664   3.305   3.091   5.128  1.3082  1.0706 -2.7407
 2011SOL     OW17665   1.581   4.449   1.794 -0.2453 -0.2586  0.4946
 2011SOL    HW117666   1.566   4.543   1.811 -0.2578  0.1873 -2.0455
 2011SOL    HW217667   1.572   4.411   1.881 -0.7625 -0.1030  0.5117
 2012SOL     OW17668   3.942   0.936   9.690 -0.3033  0.3651  0.0717
 2012SOL    HW117669   3.848   0.938   9.711 -0.5585  0.3928 -1.0565
 2012SOL    HW217670   3.945   0.975   9.602 -0.9207 -1.3901 -0.7231
 2013SOL     OW17671   2.809   1.874   6.297 -0.7366  0.0552 -0.0807
 2013SOL    HW117672   2.846   1.958   6.324  0.9903 -0.2345 -1.5934
 2013SOL    HW217673   2.845   1.869   6.209  0.9957  0.3430  0.6067
 2014SOL     OW17674   1.041   2.859   4.363  0.2653  0.0196 -0.2806
 2014SOL    HW117675   1.027   2.815   4.280 -1.6744  0.8608 -0.4147
 2014SOL    HW217676   1.013   2.785   4.417 -0.5346  1.3583  1.1652
 2015SOL     OW17677   3.056   0.824   2.315 -0.1648 -0.0224  1.1041
 2015SOL    HW117678   2.979   0.839   2.370  0.5108  0.4250  1.9188
 2015SOL    HW217679   3.054   0.728   2.317 -2.1995  0.0431  2.8724
 2016SOL     OW17680   2.161   2.100   4.054  0.2269 -0.0154 -0.0943
 2016SOL    HW117681   2.199   2.185   4.075  2.4587 -0.8554 -0.8155
 2016SOL    HW217682   2.192   2.049   4.129 -1.3461 -1.4607 -0.4043
 2017SOL     OW17683   2.515   4.123  15.329  0.2618  0.2644  0.3736
 2017SOL    HW117684   2.482   4.094  15.244  1.1498 -1.3148  0.5744
 2017SOL    HW217685   2.549   4.211  15.312  1.0316  0.1088  1.1429
 2018SOL     OW17686   4.692   2.329   3.639  0.1948  0.3273  0.1955
 2018SOL    HW117687   4.716   2.252   3.589 -2.2357 -0.2041 -0.1626
 2018SOL    HW217688   4.634   2.369   3.574  0.7618  0.1422 -0.4189
 2019SOL     OW17689   4.163   3.053   5.180  0.2026  0.2153  0.3854
 2019SOL    HW117690   4.140   3.084   5.267 -1.8397 -1.4505  0.4447
 2019SOL    HW217691   4.217   2.976   5.199 -2.1640 -1.3001  0.9282
 2020SOL     OW17692   3.637   3.100   7.142 -0.7543 -0.6219 -0.1614
 2020SOL    HW117693   3.709   3.127   7.199 -0.2173 -3.1437  0.3549
 2020SOL    HW217694   3.656   3.151   7.064  0.7256  1.5098  1.5793
 2021SOL     OW17695   2.164   0.450   7.636 -0.2641 -0.3395  0.0271
 2021SOL    HW117696   2.174   0.478   7.727  0.5459 -1.2911  0.2320
 2021SOL    HW217697   2.094   0.384   7.639 -1.3916  0.8709  0.4171
 2022SOL     OW17698   2.220   3.252   7.157  0.1854 -0.6104  0.3074
 2022SOL    HW117699   2.200   3.226   7.067  2.0036 -0.4068 -0.1374
 2022SOL    HW217700   2.132   3.277   7.186 -0.5451 -0.6843 -1.8884
 2023SOL     OW17701   0.313   1.099   4.997 -0.2000  0.3437 -0.5421
 2023SOL    HW117702   0.235   1.135   5.039 -0.5408  0.2146 -1.0722
 2023SOL    HW217703   0.351   1.174   4.951 -2.9078  1.0570 -1.5753
 2024SOL     OW17704   1.576   3.869  11.579 -0.3053 -0.1599  0.4229
 2024SOL    HW117705   1.637   3.797  11.596 -1.0525 -0.2653  2.6229
 2024SOL    HW217706   1.641   3.916  11.526 -0.2810 -1.1474 -0.4203
 2025SOL     OW17707   2.670   3.282  17.026 -0.0373 -0.3486  0.1446
 2025SOL    HW117708   2.612   3.315  17.095  3.5739  1.4073  2.3414
 2025SOL    HW217709   2.637   3.323  16.946  0.0471 -1.2827 -0.3729
 2026SOL     OW17710   2.779   1.703  11.431  0.0240  1.1632  0.1662
 2026SOL    HW117711   2.749   1.760  11.361 -3.3744 -0.3165  0.3973
 2026SOL    HW217712   2.700   1.694  11.484  0.3287  0.8470  0.5716
 2027SOL     OW17713   0.236   0.893   7.478 -0.4216  0.0179 -0.7910
 2027SOL    HW117714   0.225   0.850   7.393  0.3752 -0.0549 -0.8536
 2027SOL    HW217715   0.247   0.984   7.449  4.3022  0.1420  1.4131
 2028SOL     OW17716   1.309   2.480   3.839 -0.1278  0.2242  0.1275
 2028SOL    HW117717   1.347   2.506   3.755  1.0005 -1.0825  0.2362
 2028SOL    HW217718   1.266   2.557   3.878 -2.2333 -1.2943  0.8190
 2029SOL     OW17719   2.272   3.178  16.784  0.0564 -0.4189  0.3796
 2029SOL    HW117720   2.259   3.084  16.797 -2.0588 -0.0578  0.8748
 2029SOL    HW217721   2.206   3.211  16.846  2.2987 -1.1662  3.1694
 2030SOL     OW17722   3.941   4.080   9.980  0.2845  0.3339 -0.1938
 2030SOL    HW117723   3.954   3.986   9.993  3.1753  0.4419 -2.2431
 2030SOL    HW217724   3.967   4.088   9.888  4.4482  0.0587  0.9288
 2031SOL     OW17725   3.556   1.919   9.597 -0.3152 -0.1031 -0.0313
 2031SOL    HW117726   3.622   1.898   9.663 -0.1838 -0.7446 -0.3666
 2031SOL    HW217727   3.601   1.902   9.514  1.2885 -2.1542  1.2594
 2032SOL     OW17728   4.527   2.842  15.103 -0.4213 -1.0268  0.2002
 2032SOL    HW117729   4.491   2.909  15.160  2.2399  0.7466 -0.2420
 2032SOL    HW217730   4.520   2.886  15.018  0.5860  0.7601  1.0666
 2033SOL     OW17731   3.218   2.494   0.106  0.1627 -0.1721 -0.1694
 2033SOL    HW117732   3.187   2.544   0.030  0.7442 -0.9392 -0.9166
 2033SOL    HW217733   3.155   2.422   0.105  0.2577 -0.2617  0.7677
 2034SOL     OW17734   2.164   0.655  15.002 -0.2625 -0.1659 -0.2348
 2034SOL    HW117735   2.188   0.662  15.094 -1.3937  0.5717  0.0094
 2034SOL    HW217736   2.236   0.606  14.962  0.8270  0.9659  0.3170
 2035SOL     OW17737   1.337   1.333   6.636  0.5773  0.0273 -0.2881
 2035SOL    HW117738   1.283   1.361   6.562  1.5361  2.6431 -0.0004
 2035SOL    HW217739   1.337   1.239   6.622  2.2456 -0.1510  0.9874
 2036SOL     OW17740   3.924   4.026   7.535  0.3069  0.6235 -0.5469
 2036SOL    HW117741   3.856   3.996   7.595  2.6075  0.9026  2.1851
 2036SOL    HW217742   3.922   3.970   7.457 -1.5171 -1.9686  1.3751
 2037SOL     OW17743   1.111   1.885   8.152 -0.8267 -0.2284  0.4612
 2037SOL    HW117744   1.167   1.856   8.224  0.2753 -0.3015 -0.4300
 2037SOL    HW217745   1.172   1.875   8.080  1.1337  0.4241  2.0321
 2038SOL     OW17746   0.697   0.662   9.877  0.1588  0.4515 -0.3231
 2038SOL    HW117747   0.676   0.587   9.822 -2.6315 -0.9149  2.6171
 2038SOL    HW217748   0.726   0.723   9.809  1.6961  0.0496 -0.0323
 2039SOL     OW17749   1.171   1.347   3.053  0.1126  0.0244 -0.2459
 2039SOL    HW117750   1.191   1.254   3.065  0.9206  0.3059  0.5808
 2039SOL    HW217751   1.178   1.377   3.144  1.0891  1.2406 -0.7280
 2040SOL     OW17752   4.596   4.349   3.842  0.4769 -0.5719  0.2804
 2040SOL    HW117753   4.529   4.398   3.794  1.3544  0.9753  0.6098
 2040SOL    HW217754   4.554   4.263   3.848 -1.5833  0.3323 -0.9270
 2041SOL     OW17755   1.489   1.135  15.907  0.2342 -0.6920  0.1409
 2041SOL    HW117756   1.511   1.125  15.814  0.2524  0.5647  0.0153
 2041SOL    HW217757   1.453   1.223  15.906  1.2756 -0.2727 -0.7750
 2042SOL     OW17758   1.641   4.429   6.026 -0.5808 -0.4261  0.5456
 2042SOL    HW117759   1.693   4.349   6.011  0.2594  0.0450  0.9553
 2042SOL    HW217760   1.713   4.484   6.057  0.1618 -1.3637  0.5293
 2043SOL     OW17761   1.479   0.590  10.460  0.2873 -0.1660  0.3196
 2043SOL    HW117762   1.546   0.639  10.508  0.8021 -1.8085  1.2463
 2043SOL    HW217763   1.435   0.657  10.408  3.1422 -0.2051 -2.1524
 2044SOL     OW17764   1.904   2.971   3.833  0.6659 -0.0747  0.2723
 2044SOL    HW117765   1.833   2.927   3.880  1.0725 -1.6069 -0.5601
 2044SOL    HW217766   1.880   3.062   3.853 -0.1731  0.2187 -2.0832
 2045SOL     OW17767   3.560   0.047  15.096 -0.1453  0.3238 -0.1270
 2045SOL    HW117768   3.510   4.720  15.143  3.1983 -2.0728 -0.0122
 2045SOL    HW217769   3.519   0.041  15.010 -2.1828 -0.0090  0.8483
 2046SOL     OW17770   3.102   3.600   5.911  0.8334  0.6288 -0.2438
 2046SOL    HW117771   3.143   3.573   5.829  0.2398 -3.1308  0.6986
 2046SOL    HW217772   3.152   3.674   5.943  2.7004 -0.3397 -0.9608
 2047SOL     OW17773   2.808   4.079   3.584 -0.5678 -0.1787  0.1229
 2047SOL    HW117774   2.750   4.018   3.539 -1.1527  0.3954  0.1000
 2047SOL    HW217775   2.836   4.025   3.658 -0.9640  0.8479  1.0270
 2048SOL     OW17776   4.314   0.040   2.596 -0.0847  0.1198 -0.4526
 2048SOL    HW117777   4.363   0.110   2.639  0.1925 -0.3619  0.0174
 2048SOL    HW217778   4.253   0.005   2.660  1.6803  0.3374  1.3453
 2049SOL     OW17779   0.887   3.633   3.529  0.2511 -0.4470 -0.2353
 2049SOL    HW117780   0.933   3.585   3.459  1.0696  0.4709 -0.3215
 2049SOL    HW217781   0.801   3.593   3.516  0.7851 -1.7893  0.2965
 2050SOL     OW17782   3.026   2.939   7.015 -0.2473  0.5321  0.6700
 2050SOL    HW117783   2.936   2.934   6.985  0.6819 -0.6353 -1.8831
 2050SOL    HW217784   3.037   3.034   7.016 -0.1521  0.5203  0.7794
 2051SOL     OW17785   3.664   2.186   6.202  0.1527 -0.5386 -0.0683
 2051SOL    HW117786   3.611   2.185   6.282  0.6695 -1.2713  0.2583
 2051SOL    HW217787   3.750   2.157   6.232 -0.0948 -0.8547  0.3284
 2052SOL     OW17788   0.156   3.250   6.818  0.5789 -0.3666 -0.0639
 2052SOL    HW117789   0.112   3.321   6.865  1.2273 -1.6387  2.4685
 2052SOL    HW217790   0.152   3.292   6.732  2.4313  0.0766  0.0532
 2053SOL     OW17791   0.924   1.970  10.068 -0.3053  0.0986  0.3763
 2053SOL    HW117792   0.839   1.980  10.112 -0.0445 -0.2588  0.9710
 2053SOL    HW217793   0.909   2.012   9.983 -4.1087  3.0158  2.4940
 2054SOL     OW17794   0.661   2.339   6.790  0.0494 -0.3072 -0.0991
 2054SOL    HW117795   0.683   2.315   6.880 -0.4230 -0.8101 -0.1159
 2054SOL    HW217796   0.744   2.327   6.743  0.9017 -0.2789  1.4270
 2055SOL     OW17797   2.312   4.145   7.884  0.3282  0.4152  1.1457
 2055SOL    HW117798   2.323   4.091   7.806  0.2527  0.5968  1.0087
 2055SOL    HW217799   2.322   4.232   7.845 -1.0565  0.1988  0.2856
 2056SOL     OW17800   4.578   4.301   6.831  0.4640 -0.1887 -0.5292
 2056SOL    HW117801   4.600   4.364   6.899 -0.8713  0.9273 -1.1354
 2056SOL    HW217802   4.487   4.289   6.857  1.3739 -1.0940  2.2466
 2057SOL     OW17803   0.587   1.416   7.841  0.0055  0.0119  0.1995
 2057SOL    HW117804   0.605   1.433   7.749  1.2740  0.3533  0.5118
 2057SOL    HW217805   0.643   1.340   7.852  2.7239  1.7251 -1.9267
 2058SOL     OW17806   0.011   2.918  15.968 -0.4077  0.3529  0.2523
 2058SOL    HW117807   0.041   2.881  16.051 -2.4208  0.3727  1.0031
 2058SOL    HW217808   4.689   2.852  15.936 -0.4527  0.1281  0.8047
 2059SOL     OW17809   4.348   0.869   2.776 -0.1541  0.6866  0.0258
 2059SOL    HW117810   4.258   0.842   2.760  0.9004 -0.7898 -3.3282
 2059SOL    HW217811   4.381   0.797   2.829 -1.4318 -0.4162 -0.7013
 2060SOL     OW17812   2.203   1.581   3.823  0.2329  0.1736  0.4912
 2060SOL    HW117813   2.175   1.516   3.758 -1.8810 -2.0590  3.6047
 2060SOL    HW217814   2.136   1.648   3.838  0.0245 -0.0490  0.5711
 2061SOL     OW17815   1.261   1.782   1.535 -0.0310  0.1544  0.0104
 2061SOL    HW117816   1.313   1.862   1.544  0.4548 -0.2788  1.1180
 2061SOL    HW217817   1.274   1.756   1.444 -0.9864  4.3617 -1.3381
 2062SOL     OW17818   3.404   1.094   7.715  0.3162 -0.3950  0.1702
 2062SOL    HW117819   3.402   1.023   7.779  0.8261 -1.3498 -0.8923
 2062SOL    HW217820   3.483   1.135   7.751 -0.5923 -0.0605  1.8130
 2063SOL     OW17821   4.309   4.296   3.088 -0.2038 -0.7452 -0.3347
 2063SOL    HW117822   4.249   4.237   3.043 -0.8345 -0.3456 -0.0220
 2063SOL    HW217823   4.334   4.245   3.165 -0.7530  0.0131  0.3486
 2064SOL     OW17824   4.079   0.306   6.464  0.1468  0.2320 -0.2656
 2064SOL    HW117825   4.144   0.312   6.534 -0.9159  1.4112  0.6213
 2064SOL    HW217826   4.009   0.255   6.506  0.3191  0.0969 -0.1434
 2065SOL     OW17827   1.972   1.030   4.435  0.3002 -0.3153  0.0126
 2065SOL    HW117828   2.030   1.005   4.507  0.4243 -1.1934 -0.3910
 2065SOL    HW217829   1.884   1.010   4.469  0.0587  1.6355  0.5301
 2066SOL     OW17830   3.540   3.522   4.245 -0.2330  0.0521  0.4732
 2066SOL    HW117831   3.532   3.434   4.282  2.3279 -1.4592 -2.4936
 2066SOL    HW217832   3.457   3.528   4.197  0.1586 -0.8162 -0.3221
 2067SOL     OW17833   1.246   1.572   5.078  0.2733  0.0807  0.0912
 2067SOL    HW117834   1.247   1.654   5.027 -0.6772 -0.2823 -0.5146
 2067SOL    HW217835   1.154   1.578   5.106 -0.1158  0.3746 -1.2598
 2068SOL     OW17836   2.577   4.506   9.035 -0.4903 -0.2346 -0.5559
 2068SOL    HW117837   2.575   4.471   8.946  1.5316 -0.6897 -0.4252
 2068SOL    HW217838   2.657   4.463   9.065 -0.4975 -0.5052 -0.9263
 2069SOL     OW17839   1.731   2.240   5.842  0.1718  0.0360  0.0178
 2069SOL    HW117840   1.703   2.261   5.752  0.1644  1.4987  0.3602
 2069SOL    HW217841   1.661   2.180   5.869  0.1401 -0.2514 -0.7039
 2070SOL     OW17842   0.151   1.067  11.808 -0.4671 -0.2564 -0.1813
 2070SOL    HW117843   0.238   1.071  11.846 -0.8485 -1.6419  0.8358
 2070SOL    HW217844   0.131   0.974  11.813  1.9849 -0.6947  1.3220
 2071SOL     OW17845   4.448   0.310   2.656  0.4769 -1.0939 -1.0479
 2071SOL    HW117846   4.467   0.356   2.574  2.0117 -0.4603 -0.3568
 2071SOL    HW217847   4.519   0.247   2.668  1.0669 -0.3321 -0.5286
 2072SOL     OW17848   4.676   0.667  15.330  0.0333  0.5752 -0.2822
 2072SOL    HW117849   4.612   0.716  15.382 -0.2247 -1.0999  0.9827
 2072SOL    HW217850   4.671   0.713  15.246  0.9115  1.2358  0.0241
 2073SOL     OW17851   4.330   2.684  12.988 -0.2491  0.2277  0.1166
 2073SOL    HW117852   4.412   2.681  12.939 -2.2852  1.6768 -3.3163
 2073SOL    HW217853   4.358   2.625  13.059  0.3124  1.4419  0.8989
 2074SOL     OW17854   2.822   1.689   9.310 -1.0320 -0.0004 -0.0385
 2074SOL    HW117855   2.765   1.618   9.337 -0.6676 -0.5235 -0.6546
 2074SOL    HW217856   2.908   1.648   9.322 -0.5269  1.1354  0.2970
 2075SOL     OW17857   2.284   0.269   6.194 -0.4051 -0.5676  0.0483
 2075SOL    HW117858   2.232   0.318   6.130  0.4447  0.7922  0.3817
 2075SOL    HW217859   2.263   0.328   6.266 -0.4927  2.4358 -2.4352
 2076SOL     OW17860   2.300   2.060   9.571  0.4926  0.2045  0.4431
 2076SOL    HW117861   2.374   2.015   9.529 -0.3796 -1.2257  0.4520
 2076SOL    HW217862   2.325   2.151   9.554 -1.3369  0.7688  0.8149
 2077SOL     OW17863   2.586   1.639  12.694 -0.3632 -0.1386 -0.1890
 2077SOL    HW117864   2.602   1.728  12.727  1.7686 -0.4460 -0.3790
 2077SOL    HW217865   2.518   1.656  12.628 -1.6217 -0.2009  1.1018
 2078SOL     OW17866   3.030   1.519   9.272 -0.7147  0.3723 -0.4259
 2078SOL    HW117867   3.061   1.456   9.207 -0.4254 -1.1814  1.2239
 2078SOL    HW217868   3.090   1.496   9.343 -0.0518 -0.2099 -1.1757
 2079SOL     OW17869   2.482   3.258  15.786  0.0131 -0.9543  0.2755
 2079SOL    HW117870   2.492   3.247  15.692  0.3463  0.9558  0.0788
 2079SOL    HW217871   2.530   3.181  15.815  0.9167  0.5635  2.8733
 2080SOL     OW17872   2.102   2.845   5.007 -0.3091  0.3295  0.2790
 2080SOL    HW117873   2.136   2.926   4.968  0.7067 -0.1528  0.1435
 2080SOL    HW217874   2.173   2.787   4.981  1.5278  2.4328  0.5536
 2081SOL     OW17875   1.093   0.952  15.418 -0.1189 -0.1215 -0.4033
 2081SOL    HW117876   1.179   0.911  15.420  1.0909  2.4936  1.3020
 2081SOL    HW217877   1.036   0.875  15.410  0.3729 -0.4865 -0.4110
 2082SOL     OW17878   2.180   4.529   4.966  0.2656 -0.7032 -0.5399
 2082SOL    HW117879   2.133   4.612   4.973 -0.6552 -1.2005 -0.8392
 2082SOL    HW217880   2.107   4.467   4.963 -1.1136  0.9231 -1.0792
 2083SOL     OW17881   3.450   3.643   8.534 -0.0142  0.3075  0.2568
 2083SOL    HW117882   3.406   3.565   8.499 -0.5884  0.5518  0.4318
 2083SOL    HW217883   3.414   3.649   8.623 -1.1921  1.0877 -0.2706
 2084SOL     OW17884   1.968   2.411   6.421  0.2011 -0.4390 -0.5445
 2084SOL    HW117885   1.905   2.415   6.349  1.7473  1.3751 -1.8214
 2084SOL    HW217886   1.916   2.385   6.496  0.5934  1.3299  0.3265
 2085SOL     OW17887   3.581   1.830   3.933 -0.6126  0.4395  0.8091
 2085SOL    HW117888   3.524   1.892   3.979 -0.6859  0.1089  1.1632
 2085SOL    HW217889   3.608   1.779   4.009 -1.6228 -0.0017  0.8703
 2086SOL     OW17890   2.683   2.406  11.640  0.0181 -0.1771 -0.0871
 2086SOL    HW117891   2.691   2.496  11.608  1.0163 -0.4814 -0.6753
 2086SOL    HW217892   2.684   2.419  11.735 -0.8770 -2.2404  0.1947
 2087SOL     OW17893   1.252   3.522   8.173  0.1215 -0.1192  0.1602
 2087SOL    HW117894   1.295   3.605   8.153  1.5173 -0.4534  1.7042
 2087SOL    HW217895   1.312   3.493   8.242  1.2590 -0.8902 -1.1572
 2088SOL     OW17896   0.797   4.412   1.599 -0.0461  0.2316 -0.0639
 2088SOL    HW117897   0.862   4.410   1.669  0.8887 -0.4641 -0.9367
 2088SOL    HW217898   0.858   4.429   1.527  0.3900 -0.1142  0.2263
 2089SOL     OW17899   0.499   0.224  14.570  0.7073 -0.2191 -0.3283
 2089SOL    HW117900   0.486   0.138  14.531 -1.0290  0.1616 -0.5850
 2089SOL    HW217901   0.473   0.288  14.504 -1.2433 -0.1845  0.4792
 2090SOL     OW17902   3.421   1.515  11.232  0.2139  0.4884  0.2029
 2090SOL    HW117903   3.434   1.427  11.198 -0.3082  0.3778  0.2893
 2090SOL    HW217904   3.334   1.522  11.191 -0.2241  0.2884  1.1103
 2091SOL     OW17905   0.383   0.286   5.621 -0.1299 -0.4750  0.5846
 2091SOL    HW117906   0.389   0.354   5.555 -0.2895 -2.2859 -1.3077
 2091SOL    HW217907   0.477   0.270   5.616  0.0157  0.6879 -0.2942
 2092SOL     OW17908   4.454   3.604   4.758  0.7371  0.0633  0.0668
 2092SOL    HW117909   4.368   3.579   4.725  0.5126 -1.8128  2.0845
 2092SOL    HW217910   4.466   3.690   4.719 -0.2302  0.8265  1.4480
 2093SOL     OW17911   0.321   3.122  12.899 -0.1339 -0.2146 -0.0989
 2093SOL    HW117912   0.401   3.172  12.913 -0.4791  0.3286 -0.0702
 2093SOL    HW217913   0.334   3.046  12.957  2.1522 -0.9377 -1.5932
 2094SOL     OW17914   0.353   0.389   6.135  0.6166 -0.1418  0.5296
 2094SOL    HW117915   0.383   0.394   6.044  0.1650  1.4463  0.4641
 2094SOL    HW217916   0.435   0.353   6.171  1.0966  0.9874  0.5683
 2095SOL     OW17917   4.498   3.928   7.173 -0.6384 -0.4303  0.4290
 2095SOL    HW117918   4.528   3.888   7.091  3.1498 -0.9850  2.0876
 2095SOL    HW217919   4.403   3.926   7.162 -0.5518 -1.5588 -0.2080
 2096SOL     OW17920   1.103   1.961   6.388 -0.6972  0.1241 -0.1851
 2096SOL    HW117921   1.072   1.969   6.297 -0.6929  0.8059 -0.1286
 2096SOL    HW217922   1.187   1.919   6.371 -0.9499 -0.8186  0.9585
 2097SOL     OW17923   3.443   1.530   5.227  0.7312  0.2951 -0.1493
 2097SOL    HW117924   3.352   1.558   5.235  1.0886  1.0976  1.0785
 2097SOL    HW217925   3.475   1.599   5.169  0.5761  0.8002  0.3659
 2098SOL     OW17926   1.388   0.399   5.795  0.3175 -0.0028  0.4155
 2098SOL    HW117927   1.480   0.395   5.767  0.0932 -0.3630 -0.2742
 2098SOL    HW217928   1.381   0.476   5.851  1.2359 -0.1068  0.6780
 2099SOL     OW17929   0.365   4.343  12.628  0.0865 -0.2487  0.2870
 2099SOL    HW117930   0.393   4.254  12.649  0.2247 -0.5572 -1.2284
 2099SOL    HW217931   0.397   4.392  12.704 -0.4078 -2.0153  1.6384
 2100SOL     OW17932   2.216   0.254   8.709  0.1349  0.1368  0.2379
 2100SOL    HW117933   2.246   0.178   8.659  0.3090 -0.3722  1.1038
 2100SOL    HW217934   2.265   0.328   8.674  0.8752 -0.1536  0.6525
 2101SOL     OW17935   3.778   1.458  10.621 -0.2155  0.6993  0.6462
 2101SOL    HW117936   3.784   1.471  10.716  0.1708 -0.9912  0.8619
 2101SOL    HW217937   3.731   1.375  10.614  0.6530  0.1825  0.9127
 2102SOL     OW17938   4.541   0.671   3.201 -0.3857  0.0572 -0.5815
 2102SOL    HW117939   4.544   0.652   3.294  1.8782 -0.9900 -0.8715
 2102SOL    HW217940   4.632   0.652   3.182 -0.3845  0.5566 -1.0927
 2103SOL     OW17941   0.342   2.203   0.661  0.5263  0.0932  0.4895
 2103SOL    HW117942   0.414   2.258   0.692 -0.3237  1.2617  0.3879
 2103SOL    HW217943   0.340   2.142   0.734 -0.1016 -0.8316 -0.2980
 2104SOL     OW17944   1.247   4.328   2.837 -0.1759 -0.0620 -0.4558
 2104SOL    HW117945   1.153   4.321   2.820 -0.0253 -1.4388 -0.6697
 2104SOL    HW217946   1.257   4.376   2.919  0.0686 -0.1014 -0.4618
 2105SOL     OW17947   3.994   0.977   3.968  0.2241 -0.4937 -0.7480
 2105SOL    HW117948   3.902   0.954   3.983  0.4682 -3.0198 -3.2185
 2105SOL    HW217949   4.038   0.901   4.004  1.4788 -0.6479 -2.6073
 2106SOL     OW17950   2.642   1.208   8.878  0.1143 -0.2013 -0.2102
 2106SOL    HW117951   2.650   1.119   8.912 -0.5956 -0.3775 -0.5101
 2106SOL    HW217952   2.734   1.234   8.873 -0.1899  0.9864  0.1812
 2107SOL     OW17953   1.192   4.067  11.219  0.5023  0.3663  0.0622
 2107SOL    HW117954   1.274   4.019  11.229  0.3089 -0.6480 -3.2587
 2107SOL    HW217955   1.134   4.016  11.276  0.2929  2.6475  1.9392
 2108SOL     OW17956   4.427   3.700   9.055  0.1951  0.1359  0.0987
 2108SOL    HW117957   4.372   3.778   9.047  0.2568  0.0052 -1.6896
 2108SOL    HW217958   4.425   3.686   9.150 -1.9786 -0.0210  0.0337
 2109SOL     OW17959   2.469   4.171   9.068  0.1183 -0.0056 -0.8964
 2109SOL    HW117960   2.486   4.126   8.985  0.9830 -0.7814 -0.2947
 2109SOL    HW217961   2.381   4.200   9.043 -0.7711 -2.2215 -0.2855
 2110SOL     OW17962   3.552   3.887   9.421  0.0789  0.0523 -0.4095
 2110SOL    HW117963   3.635   3.934   9.431  0.0173  0.2679 -0.8985
 2110SOL    HW217964   3.527   3.900   9.330 -0.5009  2.4350  0.0855
 2111SOL     OW17965   2.376   0.886   6.512  0.4804  0.0265 -0.0149
 2111SOL    HW117966   2.355   0.973   6.477  2.3147  0.1285 -0.8236
 2111SOL    HW217967   2.471   0.885   6.518  0.3790  0.1553  1.6483
 2112SOL     OW17968   2.682   2.973   9.705 -0.2581 -0.3809 -0.5363
 2112SOL    HW117969   2.755   3.001   9.761 -0.9274 -1.4596  0.8650
 2112SOL    HW217970   2.608   3.009   9.753  0.4286 -0.6928  0.7611
 2113SOL     OW17971   3.185   3.272  14.610 -0.5958 -0.3946  0.4878
 2113SOL    HW117972   3.102   3.293  14.567 -1.5254 -0.8786  2.0485
 2113SOL    HW217973   3.185   3.346  14.671  2.6489  0.6316 -0.7443
 2114SOL     OW17974   0.731   2.553   1.209 -1.0036 -0.8563  0.5709
 2114SOL    HW117975   0.732   2.583   1.118 -1.1105 -0.6390  0.6407
 2114SOL    HW217976   0.821   2.564   1.240 -0.4855  1.9239 -1.9592
 2115SOL     OW17977   1.645   2.153   8.129 -0.5716 -0.0956  0.4642
 2115SOL    HW117978   1.696   2.200   8.063 -2.0542  0.5874 -0.1997
 2115SOL    HW217979   1.705   2.079   8.123  0.2774  0.6395 -0.0341
 2116SOL     OW17980   3.946   0.510  17.494 -0.4845 -0.2452 -0.6683
 2116SOL    HW117981   3.871   0.547  17.541  1.3392  1.2530  1.0796
 2116SOL    HW217982   3.956   0.589  17.442  0.9527 -1.8650 -2.8266
 2117SOL     OW17983   2.924   3.985   7.021  0.5074  0.5900 -0.2284
 2117SOL    HW117984   2.929   4.065   6.969  2.3647  0.9519  0.4946
 2117SOL    HW217985   3.009   3.994   7.065  0.3699  2.0376 -0.2773
 2118SOL     OW17986   3.134   4.457   4.760 -0.7275  0.2825 -0.0048
 2118SOL    HW117987   3.098   4.544   4.776  0.5763  0.6421  0.9784
 2118SOL    HW217988   3.207   4.460   4.698  0.0800 -1.7615  0.8176
 2119SOL     OW17989   3.827   1.728   4.579 -0.0761  0.5376  0.1928
 2119SOL    HW117990   3.870   1.813   4.570 -1.5292  1.4210  1.7081
 2119SOL    HW217991   3.882   1.677   4.520  0.1041 -0.3745  1.1724
 2120SOL     OW17992   3.862   3.326   1.777 -0.5870  0.1247  0.3403
 2120SOL    HW117993   3.858   3.322   1.873 -0.6787 -0.6727  0.3014
 2120SOL    HW217994   3.795   3.392   1.758 -0.5493 -0.1423 -0.6810
 2121SOL     OW17995   2.602   1.439  15.517 -0.0294  0.8612  0.0687
 2121SOL    HW117996   2.581   1.395  15.435 -0.5490  0.8719  0.1959
 2121SOL    HW217997   2.526   1.404  15.564 -0.1564 -0.5010 -1.1311
 2122SOL     OW17998   0.517   1.170   2.549 -0.2910  0.8617  0.2487
 2122SOL    HW117999   0.543   1.079   2.551  0.9710  1.1990 -0.6306
 2122SOL    HW218000   0.423   1.169   2.531 -0.2868  0.9653  0.2185
 2123SOL     OW18001   3.270   1.948   6.947  0.0119 -0.3471 -0.9953
 2123SOL    HW118002   3.198   1.887   6.931  0.0064 -1.2194  2.4762
 2123SOL    HW218003   3.350   1.903   6.923  1.0681  0.4862  1.0426
 2124SOL     OW18004   1.149   3.936   1.737 -0.3351 -0.0773 -1.1238
 2124SOL    HW118005   1.148   3.842   1.715 -1.1149 -1.2961  4.1200
 2124SOL    HW218006   1.082   3.938   1.805  0.8988 -0.2720  0.0813
 2125SOL     OW18007   0.236   4.250   3.594  0.0387  0.0317 -0.0595
 2125SOL    HW118008   0.178   4.200   3.650  0.8767 -0.8244  0.0406
 2125SOL    HW218009   0.247   4.199   3.513  0.3567  0.1039 -0.0652
 2126SOL     OW18010   1.442   2.683  13.307 -0.0297 -0.3511  0.0925
 2126SOL    HW118011   1.509   2.730  13.257 -0.3568  0.9270  0.8644
 2126SOL    HW218012   1.472   2.700  13.396  0.0330  1.0570 -0.1934
 2127SOL     OW18013   2.157   0.179  11.737 -0.3546  0.1536 -0.0616
 2127SOL    HW118014   2.221   0.238  11.696 -0.8039  1.0769  0.5629
 2127SOL    HW218015   2.199   0.175  11.823  0.7113 -0.9377 -0.6463
 2128SOL     OW18016   0.814   0.766   4.087 -0.0155 -0.6684 -0.4177
 2128SOL    HW118017   0.729   0.761   4.043 -1.5589 -3.4160  2.9141
 2128SOL    HW218018   0.798   0.816   4.167 -1.2239 -2.3881  0.4432
 2129SOL     OW18019   2.213   2.720   7.378 -0.1748 -0.0168 -0.1603
 2129SOL    HW118020   2.216   2.815   7.373 -0.2968  0.0201  0.3951
 2129SOL    HW218021   2.298   2.713   7.335 -0.6469 -1.3279 -0.8889
 2130SOL     OW18022   4.294   3.697  15.221 -0.3803 -0.0459  0.3024
 2130SOL    HW118023   4.346   3.630  15.266  0.4650 -0.1765 -0.8567
 2130SOL    HW218024   4.325   3.693  15.130  0.7832  1.8455  0.6224
 2131SOL     OW18025   3.251   3.885   6.396  0.2590  0.3651 -0.0347
 2131SOL    HW118026   3.250   3.952   6.465 -1.2378 -0.2776  0.5910
 2131SOL    HW218027   3.185   3.925   6.339 -2.0287 -1.0342  1.5826
 2132SOL     OW18028   0.819   2.285   1.146 -0.1638  0.1652  0.3634
 2132SOL    HW118029   0.782   2.367   1.179  3.1679  3.3889 -3.8657
 2132SOL    HW218030   0.733   2.251   1.125 -0.5253  0.3703  1.5082
 2133SOL     OW18031   2.255   3.350   9.197 -0.3944  0.2265 -0.2802
 2133SOL    HW118032   2.245   3.341   9.102 -0.1632  2.4571 -0.5330
 2133SOL    HW218033   2.275   3.443   9.206 -0.4915  0.0533  1.7135
 2134SOL     OW18034   4.511   2.583   4.445 -0.0183  0.0260 -0.3104
 2134SOL    HW118035   4.487   2.606   4.535 -1.2309  1.1776 -0.9194
 2134SOL    HW218036   4.478   2.655   4.390 -2.0472 -1.0368 -0.4778
 2135SOL     OW18037   1.049   0.604  17.302 -0.1657  0.2550 -0.4499
 2135SOL    HW118038   0.994   0.570  17.232 -0.2646 -0.3178 -0.0943
 2135SOL    HW218039   1.085   0.685  17.265 -0.0916  0.6961  0.5762
 2136SOL     OW18040   2.886   1.547   7.997  0.1596 -0.2163 -0.4187
 2136SOL    HW118041   2.832   1.617   7.961  0.0051 -0.1161  0.0136
 2136SOL    HW218042   2.907   1.494   7.920 -1.6869 -1.0190 -0.3621
 2137SOL     OW18043   2.138   1.933   9.356  0.0384  0.1938  0.2250
 2137SOL    HW118044   2.150   1.995   9.428 -0.8323  1.5384 -0.7897
 2137SOL    HW218045   2.054   1.890   9.366  0.5138 -0.0433  3.1083
 2138SOL     OW18046   4.157   0.804  17.200 -0.1584  0.0739 -0.1253
 2138SOL    HW118047   4.232   0.803  17.260 -1.5712  0.0793  1.6235
 2138SOL    HW218048   4.142   0.898  17.193 -0.3172  0.0891  0.4859
 2139SOL     OW18049   0.832   0.231  16.342 -0.2288  0.2181 -0.0554
 2139SOL    HW118050   0.805   0.185  16.422  0.6254 -0.5183 -0.1968
 2139SOL    HW218051   0.762   0.294  16.328 -0.4236 -0.4227 -1.9059
 2140SOL     OW18052   0.051   0.321   5.062  0.3210  0.3259  0.2711
 2140SOL    HW118053   4.704   0.284   5.048  1.7397 -3.2508  0.9915
 2140SOL    HW218054   0.069   0.270   5.141 -1.2013 -0.0034  0.4092
 2141SOL     OW18055   2.422   0.943  15.575 -0.3517 -0.4276  0.2632
 2141SOL    HW118056   2.348   0.909  15.524 -0.2657 -4.4410  2.8383
 2141SOL    HW218057   2.409   1.038  15.579 -1.3247 -0.5522  0.0314
 2142SOL     OW18058   3.947   3.089   8.782  0.3185 -0.2687  0.1184
 2142SOL    HW118059   3.889   3.014   8.776  0.5169 -0.2932 -1.4267
 2142SOL    HW218060   4.033   3.049   8.796  0.6660 -0.0523 -1.4249
 2143SOL     OW18061   3.555   1.955   5.154  0.0783  0.1629 -0.3631
 2143SOL    HW118062   3.540   2.021   5.087  0.3068  0.2641 -0.3118
 2143SOL    HW218063   3.496   1.979   5.226  0.7124 -1.1129  0.5873
 2144SOL     OW18064   3.808   1.399   7.139 -0.3931  0.1056 -0.1498
 2144SOL    HW118065   3.857   1.337   7.086 -0.9943 -0.8600  0.4168
 2144SOL    HW218066   3.735   1.340   7.161  1.1010 -1.2795  1.1031
 2145SOL     OW18067   0.547   0.510  10.101  0.3064 -0.3115 -0.0376
 2145SOL    HW118068   0.637   0.478  10.102 -0.0879 -1.3897  0.6081
 2145SOL    HW218069   0.558   0.590  10.050  0.4974 -1.1229 -1.2629
 2146SOL     OW18070   0.050   0.105   7.422 -0.2868 -0.5441  0.2130
 2146SOL    HW118071   0.118   0.140   7.479 -0.9110 -2.8157  2.3934
 2146SOL    HW218072   0.101   0.032   7.387 -0.1899  0.5137 -1.8107
 2147SOL     OW18073   0.154   2.755   3.629  0.2048  0.1805  0.5938
 2147SOL    HW118074   0.190   2.777   3.543  0.9560  2.0943  1.3917
 2147SOL    HW218075   0.065   2.724   3.610 -0.2984 -0.5647  4.1951
 2148SOL     OW18076   4.350   0.932   7.164 -0.3678 -0.0267  0.3345
 2148SOL    HW118077   4.398   0.932   7.246  0.2431  2.2679 -0.0154
 2148SOL    HW218078   4.377   0.849   7.123 -1.4004 -1.2478  2.1569
 2149SOL     OW18079   4.207   1.243   6.719  0.0831 -0.3231 -0.5195
 2149SOL    HW118080   4.276   1.259   6.654  1.6948  0.4246  1.3678
 2149SOL    HW218081   4.213   1.149   6.739  0.2432 -0.7721 -2.7170
 2150SOL     OW18082   3.519   4.228   3.140  0.0887 -0.1664 -0.4500
 2150SOL    HW118083   3.540   4.308   3.091  1.5816 -1.1167 -1.3572
 2150SOL    HW218084   3.532   4.246   3.233  1.4143  1.3612 -0.9463
 2151SOL     OW18085   1.562   2.493   8.104  0.0926 -0.2064  0.6827
 2151SOL    HW118086   1.553   2.570   8.047  1.2057  0.0062  0.7880
 2151SOL    HW218087   1.562   2.535   8.190 -1.5891 -0.6658  0.9141
 2152SOL     OW18088   3.534   3.694   2.292  0.9519 -0.1040  0.5002
 2152SOL    HW118089   3.480   3.628   2.336  0.5759 -0.5575 -0.6149
 2152SOL    HW218090   3.572   3.643   2.220 -0.8806  1.4152 -1.5589
 2153SOL     OW18091   1.722   4.583   6.948 -0.2466  0.6455  0.0285
 2153SOL    HW118092   1.696   4.499   6.985 -0.9878 -0.4558 -2.9941
 2153SOL    HW218093   1.655   4.640   6.985 -0.6320 -0.1203  0.5024
 2154SOL     OW18094   3.367   0.054   5.841  0.1542 -0.6903 -0.1284
 2154SOL    HW118095   3.304   4.721   5.834  0.8546 -1.2892 -0.1456
 2154SOL    HW218096   3.435   0.020   5.899 -1.2524  0.5548  2.2614
 2155SOL     OW18097   1.566   4.121   2.199 -0.6738  0.0397  0.0836
 2155SOL    HW118098   1.578   4.027   2.211  1.2641  0.1753 -0.7584
 2155SOL    HW218099   1.473   4.130   2.220 -1.0418 -1.7831 -0.7684
 2156SOL     OW18100   0.345   4.603   7.624 -0.5351 -0.1919 -0.1507
 2156SOL    HW118101   0.324   4.666   7.554 -1.5445  0.4351  0.7116
 2156SOL    HW218102   0.439   4.611   7.608 -0.4928 -0.0319  0.1760
 2157SOL     OW18103   1.872   1.532  15.686  0.5928  0.2356  0.1952
 2157SOL    HW118104   1.863   1.590  15.611 -1.1226  0.3052  0.4444
 2157SOL    HW218105   1.874   1.609  15.744  0.5546  0.2986  0.1136
 2158SOL     OW18106   3.102   1.357  11.531 -0.2219  0.0861  0.3696
 2158SOL    HW118107   3.182   1.376  11.581  0.0451  0.2656 -0.1209
 2158SOL    HW218108   3.128   1.301  11.457 -1.2100 -1.6945  1.3728
 2159SOL     OW18109   0.806   4.213   0.649 -0.4235  0.2395 -0.3037
 2159SOL    HW118110   0.771   4.145   0.592 -0.3423 -2.0944  2.4346
 2159SOL    HW218111   0.850   4.269   0.585  1.5793  0.4437  1.2363
 2160SOL     OW18112   3.229   2.826   1.998  0.3104  0.0405 -0.3681
 2160SOL    HW118113   3.195   2.788   1.917  0.7132 -2.0703  0.4424
 2160SOL    HW218114   3.217   2.755   2.062  1.3370 -0.8852 -1.2004
 2161SOL     OW18115   2.993   0.485   4.173  0.3994  0.0335  0.6891
 2161SOL    HW118116   2.992   0.411   4.113  0.1412 -0.7480  1.6673
 2161SOL    HW218117   2.955   0.558   4.125 -0.8537 -0.6646  0.6395
 2162SOL     OW18118   2.232   0.468   8.359 -0.5279  0.6716 -0.1671
 2162SOL    HW118119   2.246   0.481   8.453  3.1435  1.6436 -0.8274
 2162SOL    HW218120   2.308   0.412   8.347 -0.5943  0.7011 -0.7261
 2163SOL     OW18121   2.130   1.015   4.934  0.3080  0.1463 -0.1516
 2163SOL    HW118122   2.130   0.988   4.842  1.6590  1.6892 -0.6140
 2163SOL    HW218123   2.212   1.065   4.941  0.6522 -0.1166 -2.1196
 2164SOL     OW18124   1.276   4.648  10.592  0.2840 -0.4527  0.6565
 2164SOL    HW118125   1.308   4.734  10.617 -2.5750  1.0548 -0.8522
 2164SOL    HW218126   1.308   4.647  10.502 -0.4568 -0.5847  0.3945
 2165SOL     OW18127   0.900   3.552   2.188  0.1705 -0.0947  0.3905
 2165SOL    HW118128   0.965   3.549   2.118 -1.2580 -0.2947 -0.9190
 2165SOL    HW218129   0.919   3.641   2.217 -0.0268 -0.5000  1.7914
 2166SOL     OW18130   0.642   2.765   6.949  0.4811 -0.0785 -0.0512
 2166SOL    HW118131   0.659   2.820   6.873  1.7148 -1.1018 -0.5195
 2166SOL    HW218132   0.702   2.793   7.018  1.0182  0.5338 -0.7704
 2167SOL     OW18133   3.083   4.277   3.967 -0.0150  0.4352 -0.4427
 2167SOL    HW118134   3.119   4.190   3.949 -0.6145  0.0290  0.3079
 2167SOL    HW218135   3.011   4.280   3.905 -1.1420 -0.8411  0.7977
 2168SOL     OW18136   2.227   0.404  12.048  0.3237  0.1598 -0.2450
 2168SOL    HW118137   2.187   0.320  12.026  0.5958  0.3432 -1.4409
 2168SOL    HW218138   2.209   0.417  12.141  3.0122  0.3934  0.2287
 2169SOL     OW18139   3.232   2.470  17.447  0.2821 -0.6146 -0.2634
 2169SOL    HW118140   3.255   2.393  17.396 -1.1158 -0.8398 -0.5598
 2169SOL    HW218141   3.313   2.470  17.497  0.4061  0.1896 -0.4652
 2170SOL     OW18142   2.570   0.006   6.010 -0.3394 -0.3595  0.0540
 2170SOL    HW118143   2.564   0.032   5.918  0.5493 -0.5092 -0.0377
 2170SOL    HW218144   2.478   0.017   6.035 -0.3196 -0.0232 -0.0158
 2171SOL     OW18145   0.665   2.783   4.215 -0.9329  0.1379 -0.4048
 2171SOL    HW118146   0.615   2.766   4.296  0.8789 -0.0256  0.6756
 2171SOL    HW218147   0.627   2.863   4.177  0.9974  0.3639 -1.8474
 2172SOL     OW18148   1.615   2.699   4.306  0.6230 -0.2136 -0.0202
 2172SOL    HW118149   1.526   2.712   4.340  0.4292 -0.1782 -0.5511
 2172SOL    HW218150   1.630   2.774   4.248  0.4029 -1.3548 -1.5489
 2173SOL     OW18151   1.646   3.511   1.942 -0.6139 -0.2246  0.2135
 2173SOL    HW118152   1.701   3.441   1.906 -0.4669  0.5847 -1.1248
 2173SOL    HW218153   1.679   3.528   2.031 -3.0351  2.0401  0.6593
 2174SOL     OW18154   0.449   2.340   5.886 -0.2632 -0.3713 -0.0278
 2174SOL    HW118155   0.494   2.423   5.873 -0.8350 -0.2211 -1.0434
 2174SOL    HW218156   0.388   2.352   5.814 -0.7737 -1.7868  0.1528
 2175SOL     OW18157   3.233   3.261   3.797  0.3862 -0.1993 -0.0257
 2175SOL    HW118158   3.193   3.226   3.877 -1.1344  1.5753 -0.0085
 2175SOL    HW218159   3.224   3.181   3.746 -3.0151 -0.4205  0.9159
 2176SOL     OW18160   3.184   4.391   0.965  0.4356 -0.3782  0.3263
 2176SOL    HW118161   3.174   4.473   1.013  1.5243  0.9570 -1.7283
 2176SOL    HW218162   3.258   4.352   1.011  0.2747 -0.6303  0.3744
 2177SOL     OW18163   2.992   4.051   5.787 -0.0009  0.2841 -0.0529
 2177SOL    HW118164   3.056   4.041   5.858  0.2111  0.3947 -0.2268
 2177SOL    HW218165   3.030   3.994   5.720 -0.2437  0.0531  0.0047
 2178SOL     OW18166   1.901   2.548   9.531  0.4343 -0.0749  0.2031
 2178SOL    HW118167   1.920   2.469   9.479  1.0269  1.2468 -1.5960
 2178SOL    HW218168   1.979   2.565   9.584  0.9934  3.3141 -1.7244
 2179SOL     OW18169   4.724   2.033   3.510  0.0790  0.1235  0.0492
 2179SOL    HW118170   0.080   2.029   3.506  0.0141 -1.6179  0.2833
 2179SOL    HW218171   4.714   1.960   3.571 -3.3654  1.4506  1.1015
 2180SOL     OW18172   0.969   2.507   3.312  0.4148  0.1324 -0.0028
 2180SOL    HW118173   1.021   2.438   3.269  1.2033 -0.0970  1.3174
 2180SOL    HW218174   0.903   2.454   3.357  0.8448 -1.6306 -1.4465
 2181SOL     OW18175   4.171   3.020   6.158  0.0871 -0.4179 -0.0068
 2181SOL    HW118176   4.217   2.963   6.096  1.9943 -0.2972  1.3190
 2181SOL    HW218177   4.191   3.110   6.132  1.4491 -0.5619  0.5320
 2182SOL     OW18178   3.097   0.301   7.767 -0.1452  0.1168  0.3945
 2182SOL    HW118179   3.039   0.237   7.809 -2.8831  2.5044  0.2760
 2182SOL    HW218180   3.071   0.370   7.827  0.9160  1.0620 -0.2332
 2183SOL     OW18181   2.375   1.658  16.410  0.3217  0.6837  0.0327
 2183SOL    HW118182   2.314   1.629  16.478 -0.6624  1.2463 -0.6080
 2183SOL    HW218183   2.413   1.731  16.459 -0.0095  0.0541  1.2213
 2184SOL     OW18184   2.247   1.286   4.712 -0.2025 -0.7108 -0.3928
 2184SOL    HW118185   2.321   1.229   4.690 -0.4282 -1.2839  0.3450
 2184SOL    HW218186   2.273   1.366   4.666 -0.3535 -0.6988 -0.4558
 2185SOL     OW18187   1.293   4.398   6.914 -0.2082  0.2709 -0.1187
 2185SOL    HW118188   1.210   4.407   6.962  0.3493 -0.1954  0.9259
 2185SOL    HW218189   1.254   4.397   6.827 -0.6360  2.2271  0.0617
 2186SOL     OW18190   0.842   4.696  12.037 -0.3699 -0.2632  0.1122
 2186SOL    HW118191   0.904   4.639  12.083  0.0779 -0.6112 -0.9134
 2186SOL    HW218192   0.778   4.626  12.046  0.0363 -0.8236 -1.4338
 2187SOL     OW18193   2.578   1.477   2.832  0.0111 -0.0302 -0.4742
 2187SOL    HW118194   2.542   1.421   2.764 -2.3052 -1.6439  2.0448
 2187SOL    HW218195   2.672   1.466   2.817 -0.1109  0.1618 -1.3353
 2188SOL     OW18196   1.017   1.222   8.737  0.0622  0.2948 -0.1448
 2188SOL    HW118197   0.933   1.220   8.782  0.9391  0.7884  1.5252
 2188SOL    HW218198   1.069   1.152   8.777  0.4893 -0.5385 -2.1190
 2189SOL     OW18199   2.756   1.705  11.776  0.4593  0.1309 -0.4963
 2189SOL    HW118200   2.851   1.708  11.780  0.4284 -0.4993  0.6781
 2189SOL    HW218201   2.759   1.662  11.690 -2.8122  0.1271 -0.6190
 2190SOL     OW18202   2.339   2.732  10.931 -0.4097  0.4493 -0.3767
 2190SOL    HW118203   2.313   2.688  10.850  0.3184 -0.2730 -0.2211
 2190SOL    HW218204   2.431   2.704  10.932 -1.2089 -2.0464  1.7573
 2191SOL     OW18205   0.988   0.448   4.171 -0.2727 -0.1758  0.0527
 2191SOL    HW118206   0.914   0.387   4.167 -0.3692  0.0786 -2.0231
 2191SOL    HW218207   0.968   0.511   4.240  0.1667  0.3835 -0.3326
 2192SOL     OW18208   3.531   1.273   1.077 -0.0169  0.1377 -0.6884
 2192SOL    HW118209   3.459   1.215   1.054 -0.8767  0.6446  0.7899
 2192SOL    HW218210   3.491   1.304   1.158 -1.1886  2.2723 -2.1127
 2193SOL     OW18211   1.887   3.626   8.511 -0.7869  0.0504 -0.4251
 2193SOL    HW118212   1.806   3.677   8.511  0.6576  2.2851  0.2751
 2193SOL    HW218213   1.944   3.679   8.566 -0.1774 -1.5864  0.5239
 2194SOL     OW18214   3.626   0.685   2.969  0.2851  0.2969 -0.4437
 2194SOL    HW118215   3.584   0.616   3.020 -1.0936  0.3933 -1.4544
 2194SOL    HW218216   3.642   0.641   2.886  2.0413 -1.5501  0.8776
 2195SOL     OW18217   1.447   2.100  13.635  0.0277  0.1845 -0.3621
 2195SOL    HW118218   1.532   2.144  13.639 -1.1280  2.3547  0.0250
 2195SOL    HW218219   1.389   2.158  13.586  1.2861  2.3080  0.6810
 2196SOL     OW18220   3.446   2.720   1.840 -0.1823 -0.6818 -0.6834
 2196SOL    HW118221   3.536   2.727   1.872  0.0380 -1.5828 -1.1045
 2196SOL    HW218222   3.404   2.759   1.916 -1.1273 -1.3672 -0.8605
 2197SOL     OW18223   0.855   3.118   4.369  0.7363 -0.0241 -0.0279
 2197SOL    HW118224   0.864   3.034   4.323 -0.2072 -1.4806  2.4554
 2197SOL    HW218225   0.929   3.172   4.342  0.3185  0.1100 -0.8861
 2198SOL     OW18226   1.241   2.573   1.045 -0.0744  0.3517 -0.2043
 2198SOL    HW118227   1.267   2.501   1.102 -1.8984 -0.5455 -0.5100
 2198SOL    HW218228   1.306   2.639   1.070 -1.8246  1.7497  0.7069
 2199SOL     OW18229   2.558   2.263   4.725  0.2399 -0.1430  0.2441
 2199SOL    HW118230   2.577   2.209   4.647  3.5769  2.4401 -0.7213
 2199SOL    HW218231   2.497   2.208   4.775  0.1880 -0.1650  0.1584
 2200SOL     OW18232   2.361   2.832   2.960  0.1952 -0.4037 -0.1936
 2200SOL    HW118233   2.353   2.848   2.866 -1.4712 -2.8042 -0.4561
 2200SOL    HW218234   2.271   2.801   2.964  0.6226 -1.6252 -0.0848
 2201SOL     OW18235   2.195   2.645   1.996 -0.0822 -0.4568 -0.0378
 2201SOL    HW118236   2.249   2.573   2.029  0.5987 -0.0577 -0.2917
 2201SOL    HW218237   2.198   2.718   2.057  2.0969  0.6808 -1.5120
 2202SOL     OW18238   1.305   2.366   6.819 -0.0765  0.2596 -0.4211
 2202SOL    HW118239   1.327   2.357   6.912  0.6362 -1.1582 -0.7238
 2202SOL    HW218240   1.258   2.283   6.815  0.9011 -0.4242  2.7492
 2203SOL     OW18241   0.648   1.081   8.383 -0.4415  0.4176 -0.5923
 2203SOL    HW118242   0.677   1.122   8.302  0.0911 -0.8424 -1.0273
 2203SOL    HW218243   0.726   1.094   8.438 -1.6260  0.0475  1.1711
 2204SOL     OW18244   0.403   4.300   2.712  0.2057  0.2932 -0.1900
 2204SOL    HW118245   0.489   4.335   2.739  0.8425 -1.2376 -0.2427
 2204SOL    HW218246   0.349   4.286   2.790 -1.2509  0.3897 -1.2035
 2205SOL     OW18247   2.977   0.215   7.430  0.4352  0.1143  0.2947
 2205SOL    HW118248   2.915   0.239   7.361  0.8767  0.1856 -0.0757
 2205SOL    HW218249   2.926   0.191   7.508 -1.1096 -0.2916 -0.8260
 2206SOL     OW18250   1.673   1.646   2.440 -0.3481  0.1176  0.0594
 2206SOL    HW118251   1.698   1.737   2.424 -1.1140  0.5985  1.5499
 2206SOL    HW218252   1.605   1.624   2.377  0.9303  0.6772 -1.5203
 2207SOL     OW18253   3.228   4.225   7.211  0.1645 -0.1455  0.2098
 2207SOL    HW118254   3.189   4.143   7.239 -1.4128  0.3082 -0.7053
 2207SOL    HW218255   3.157   4.287   7.225 -1.0128 -1.4126 -0.2421
 2208SOL     OW18256   0.471   4.579   4.847 -0.0758  0.0258  0.8087
 2208SOL    HW118257   0.433   4.646   4.790 -1.5623 -0.8052  0.8335
 2208SOL    HW218258   0.387   4.555   4.887 -0.5168  0.0009 -0.1425
 2209SOL     OW18259   1.560   2.900   8.760  0.3879 -0.0444 -0.1510
 2209SOL    HW118260   1.580   2.831   8.696  2.6080 -2.2753  2.9225
 2209SOL    HW218261   1.472   2.913   8.726 -0.3824 -1.4653  1.2983
 2210SOL     OW18262   2.439   0.037  14.803 -0.7781 -0.9489 -0.0153
 2210SOL    HW118263   2.515   0.034  14.861  0.4159 -2.4580 -1.6706
 2210SOL    HW218264   2.458   0.107  14.741  2.0137 -0.8812  0.9131
 2211SOL     OW18265   0.645   4.601  10.257  0.3239 -0.0793  0.8508
 2211SOL    HW118266   0.669   4.693  10.248  0.9433 -0.3268 -0.1304
 2211SOL    HW218267   0.726   4.550  10.266  1.1305  1.4074  1.9499
 2212SOL     OW18268   4.251   0.884   8.186 -0.1125  0.0380 -0.7630
 2212SOL    HW118269   4.311   0.814   8.158 -1.1923 -0.8693 -0.7889
 2212SOL    HW218270   4.290   0.961   8.144  0.4680 -0.2701 -0.7980
 2213SOL     OW18271   2.410   1.252   2.753 -0.1463  0.3384  0.0685
 2213SOL    HW118272   2.442   1.167   2.723  1.1198  0.5201  0.9013
 2213SOL    HW218273   2.359   1.276   2.675 -0.8308 -0.1068  0.3776
 2214SOL     OW18274   3.374   1.875   1.471 -0.5665  0.6313  0.8931
 2214SOL    HW118275   3.320   1.919   1.405 -1.3877 -1.3816  0.2333
 2214SOL    HW218276   3.428   1.806   1.432 -0.8759  1.3641 -0.8311
 2215SOL     OW18277   4.413   2.757  12.408 -0.7680 -0.3991 -0.1982
 2215SOL    HW118278   4.320   2.764  12.430 -1.1429  1.0642 -2.2806
 2215SOL    HW218279   4.407   2.797  12.321 -1.7421 -2.3946 -1.0516
 2216SOL     OW18280   1.846   4.543  14.593 -0.0642  0.6632  0.3839
 2216SOL    HW118281   1.849   4.629  14.633 -0.2381 -0.4351  2.7348
 2216SOL    HW218282   1.754   4.520  14.602  0.3202 -1.4212 -0.8671
 2217SOL     OW18283   0.612   3.313   2.809  0.5140  0.0305 -0.1681
 2217SOL    HW118284   0.542   3.362   2.852 -1.0657 -0.8903 -1.7273
 2217SOL    HW218285   0.554   3.279   2.742  1.0296  1.0041 -1.1109
 2218SOL     OW18286   2.295   3.311   9.466 -0.0226 -0.4101  0.6128
 2218SOL    HW118287   2.387   3.320   9.444  0.5427 -0.5034  2.9978
 2218SOL    HW218288   2.265   3.310   9.375 -1.2185 -1.1315  1.0027
 2219SOL     OW18289   3.554   1.581   6.483  0.1355 -0.2034 -0.2058
 2219SOL    HW118290   3.606   1.613   6.556 -2.4807 -0.1071  1.6276
 2219SOL    HW218291   3.556   1.667   6.441  3.1747 -0.3464 -0.3163
 2220SOL     OW18292   0.776   4.410   0.436  0.1489  0.3564  0.2050
 2220SOL    HW118293   0.759   4.500   0.408  0.5795  0.5701  0.6460
 2220SOL    HW218294   0.690   4.386   0.472  0.6591 -1.4658  0.2479
 2221SOL     OW18295   1.719   3.280  16.445  0.4952  0.2894 -0.0390
 2221SOL    HW118296   1.733   3.319  16.359  0.6934 -0.5268 -0.3786
 2221SOL    HW218297   1.762   3.344  16.501  0.2180  1.6300 -1.3901
 2222SOL     OW18298   2.899   1.490  16.786 -0.0480 -0.2804 -0.2991
 2222SOL    HW118299   2.837   1.549  16.742 -0.8268 -0.4099  0.6277
 2222SOL    HW218300   2.932   1.446  16.708  0.2329  1.1050 -0.9647
 2223SOL     OW18301   0.920   1.889   4.205 -0.4765  0.4976  0.1962
 2223SOL    HW118302   0.960   1.974   4.186 -0.5780  0.5222  0.0889
 2223SOL    HW218303   0.940   1.832   4.131 -0.8313 -1.3257  1.5069
 2224SOL     OW18304   1.497   1.910   1.183  0.4879  0.0917  0.1210
 2224SOL    HW118305   1.531   1.980   1.127  0.2866 -2.0121 -2.6785
 2224SOL    HW218306   1.513   1.832   1.130 -2.8237 -1.1919  1.0336
 2225SOL     OW18307   3.620   2.811   0.335 -0.1972  0.4296 -0.1099
 2225SOL    HW118308   3.647   2.753   0.263 -2.6512 -0.4847 -0.2923
 2225SOL    HW218309   3.528   2.790   0.349 -0.4907  1.4911 -0.4429
 2226SOL     OW18310   4.444   0.195   3.678 -0.2102  0.3527 -0.2717
 2226SOL    HW118311   4.467   0.182   3.586 -1.4276 -0.8425 -0.4070
 2226SOL    HW218312   4.486   0.280   3.690 -1.4956  0.6072  2.4043
 2227SOL     OW18313   3.507   3.278   1.403  0.1892 -0.4819 -0.2758
 2227SOL    HW118314   3.505   3.206   1.340 -0.6990  0.3091 -1.1587
 2227SOL    HW218315   3.595   3.310   1.384 -0.3942  1.0903 -0.3609
 2228SOL     OW18316   0.713   0.742   8.722 -0.9662  0.6398 -0.1158
 2228SOL    HW118317   0.678   0.790   8.798 -0.2160 -1.9467  1.8659
 2228SOL    HW218318   0.785   0.802   8.700 -0.0782 -0.7281 -0.9529
 2229SOL     OW18319   0.283   2.516   5.404 -0.0769  0.2495 -0.7927
 2229SOL    HW118320   0.359   2.573   5.396 -0.0416  0.1848 -0.9256
 2229SOL    HW218321   0.317   2.436   5.363  0.3128  0.4220 -0.7999
 2230SOL     OW18322   1.809   0.576  16.209 -0.1710 -0.5164  0.7910
 2230SOL    HW118323   1.777   0.535  16.129 -1.6227 -0.6404  1.4324
 2230SOL    HW218324   1.783   0.667  16.197 -2.0169 -1.0640  0.7301
 2231SOL     OW18325   1.871   2.511   1.470 -0.0014  0.1534  0.1041
 2231SOL    HW118326   1.942   2.575   1.473  0.2292 -0.1539  1.4063
 2231SOL    HW218327   1.825   2.512   1.554 -1.2222 -0.9954 -0.5502
 2232SOL     OW18328   0.809   2.426   4.259  0.0572  0.1556 -0.2075
 2232SOL    HW118329   0.882   2.472   4.216 -0.6543  0.8222 -0.7108
 2232SOL    HW218330   0.799   2.358   4.193 -2.8272  0.7156 -0.3742
 2233SOL     OW18331   0.661   3.613   5.747  0.3799 -0.0255 -0.4616
 2233SOL    HW118332   0.654   3.629   5.653  0.4627  0.7772 -0.3278
 2233SOL    HW218333   0.662   3.517   5.742 -0.4933 -0.1471  1.7877
 2234SOL     OW18334   1.060   0.695   3.969  0.1138 -0.2417 -0.2814
 2234SOL    HW118335   0.985   0.735   4.013  0.1560 -0.0641 -0.3700
 2234SOL    HW218336   1.064   0.620   4.027 -0.9946 -0.1580 -0.0908
 2235SOL     OW18337   4.248   1.820   8.380 -0.3080  0.2709 -0.0072
 2235SOL    HW118338   4.197   1.849   8.455  1.5075 -0.3869  1.4541
 2235SOL    HW218339   4.181   1.846   8.316 -1.1746  2.1059  1.6513
 2236SOL     OW18340   3.049   4.107  13.050  0.1334 -0.2091 -0.2289
 2236SOL    HW118341   3.104   4.038  13.087  0.7539 -0.1385 -1.0076
 2236SOL    HW218342   3.030   4.167  13.121 -2.1869 -0.3560 -0.7171
 2237SOL     OW18343   0.120   1.100   1.986 -0.1499  0.7516  0.0398
 2237SOL    HW118344   0.137   1.170   2.049 -1.5064 -0.4764  1.7868
 2237SOL    HW218345   0.028   1.109   1.960 -1.0342 -0.1912  2.8753
 2238SOL     OW18346   2.059   1.484   2.721 -0.3347 -0.6391  0.2774
 2238SOL    HW118347   2.056   1.429   2.799  3.6509  1.7476  2.1153
 2238SOL    HW218348   2.097   1.424   2.657 -1.0477 -1.4043  0.5793
 2239SOL     OW18349   4.374   0.333   4.431  0.3070  0.2266 -0.0807
 2239SOL    HW118350   4.421   0.266   4.381  2.8614  1.9119  0.0494
 2239SOL    HW218351   4.330   0.266   4.483  0.3626  0.4695  0.2780
 2240SOL     OW18352   3.888   3.000  12.130  0.0042 -0.0092 -0.0600
 2240SOL    HW118353   3.962   3.060  12.129 -0.9870  1.2189  0.0829
 2240SOL    HW218354   3.823   3.068  12.116  0.6033  0.3801 -0.9117
 2241SOL     OW18355   0.639   3.828  15.943  0.5033 -0.0342 -0.7688
 2241SOL    HW118356   0.587   3.887  15.888  0.8119  1.5226  0.6094
 2241SOL    HW218357   0.722   3.873  15.957  0.2658  0.0384  0.3845
 2242SOL     OW18358   3.079   2.280   9.061 -0.2948  0.3230 -0.6058
 2242SOL    HW118359   3.173   2.261   9.060 -0.3463  0.0734 -0.8626
 2242SOL    HW218360   3.075   2.337   9.137 -1.0433 -1.8359  0.9793
 2243SOL     OW18361   1.659   3.973   9.209 -0.0630 -0.1944  0.7061
 2243SOL    HW118362   1.692   3.991   9.121  0.3074 -3.7144  0.1461
 2243SOL    HW218363   1.733   3.966   9.269  0.9847 -4.2110 -1.0612
 2244SOL     OW18364   0.997   1.150   4.114 -0.2909 -0.2728  0.0447
 2244SOL    HW118365   1.088   1.164   4.089 -0.7072  1.2280 -0.6509
 2244SOL    HW218366   0.967   1.241   4.124  1.0912  0.1180  0.6321
 2245SOL     OW18367   3.674   1.021   7.884  0.3592 -0.0545  0.2254
 2245SOL    HW118368   3.705   0.933   7.904  0.0243  0.1490  1.6640
 2245SOL    HW218369   3.656   1.016   7.791  1.5342  2.3321 -0.1341
 2246SOL     OW18370   2.140   1.129   7.442 -0.7654  0.1342 -0.2749
 2246SOL    HW118371   2.146   1.073   7.520  0.8774  0.0657 -0.4481
 2246SOL    HW218372   2.079   1.198   7.465  1.0977  1.9793 -0.8688
 2247SOL     OW18373   0.175   4.029   8.617 -0.2584 -0.5460 -0.0795
 2247SOL    HW118374   0.236   4.016   8.544 -1.3143 -0.6335 -0.9542
 2247SOL    HW218375   0.102   4.062   8.564  0.1891  0.9999  0.2590
 2248SOL     OW18376   3.051   3.417   7.892  0.2903 -0.2675 -0.1264
 2248SOL    HW118377   3.080   3.379   7.809  0.4152  0.8680 -0.6019
 2248SOL    HW218378   3.043   3.344   7.953  1.4472  1.1559  1.7125
 2249SOL     OW18379   1.170   4.256   1.943 -0.3998 -0.5984 -0.8389
 2249SOL    HW118380   1.192   4.230   2.032  1.0178  1.1493 -0.6753
 2249SOL    HW218381   1.093   4.200   1.938 -2.4718  2.0155  1.5412
 2250SOL     OW18382   2.576   2.226   2.538 -0.2776 -0.1417 -0.1788
 2250SOL    HW118383   2.618   2.272   2.610 -0.1282  0.1196 -0.4327
 2250SOL    HW218384   2.488   2.262   2.554 -0.3898  0.2678 -1.7080
 2251SOL     OW18385   0.651   2.553   2.025  0.0548 -0.4404 -0.5867
 2251SOL    HW118386   0.720   2.614   2.001 -1.0768  1.9823  2.2975
 2251SOL    HW218387   0.626   2.508   1.944 -0.1800  1.9006 -1.8212
 2252SOL     OW18388   2.580   4.033   1.373 -0.1574  0.5708 -0.2364
 2252SOL    HW118389   2.566   4.101   1.307  1.0141  0.0890 -0.9863
 2252SOL    HW218390   2.614   3.968   1.311  1.3088  1.7248 -0.6584
 2253SOL     OW18391   0.101   0.690   8.464 -0.2285 -0.2843  0.2126
 2253SOL    HW118392   0.122   0.648   8.380  2.9968  0.1165  0.8256
 2253SOL    HW218393   0.185   0.735   8.473  0.7741 -2.4333  1.5960
 2254SOL     OW18394   0.579   1.840   5.677  0.0818 -0.2517  0.2257
 2254SOL    HW118395   0.572   1.865   5.770 -1.1235  0.4707 -0.0607
 2254SOL    HW218396   0.513   1.902   5.646  2.0956  2.6271  1.6941
 2255SOL     OW18397   4.716   1.058   2.885  0.1423  0.4569  0.0736
 2255SOL    HW118398   0.071   1.077   2.880  0.0993  0.7843  0.4582
 2255SOL    HW218399   4.683   1.130   2.832  0.8671 -0.8617 -2.1440
 2256SOL     OW18400   1.352   4.653   9.314  0.0440 -1.0095  0.0229
 2256SOL    HW118401   1.273   4.620   9.272 -0.1166 -0.0084 -0.4733
 2256SOL    HW218402   1.410   4.658   9.238 -0.4488 -1.1053 -0.3597
 2257SOL     OW18403   2.947   1.861   6.080 -0.3237 -0.5146 -0.2576
 2257SOL    HW118404   2.910   1.892   5.997  0.5954  4.0062  1.0499
 2257SOL    HW218405   3.036   1.836   6.054  0.3603 -1.0381  2.6016
 2258SOL     OW18406   4.369   1.195   4.950  0.1697  0.0109  0.6835
 2258SOL    HW118407   4.359   1.105   4.920 -0.3053  0.1648  0.3747
 2258SOL    HW218408   4.329   1.191   5.037  0.5156 -0.6693  0.8034
 2259SOL     OW18409   1.360   4.097   2.438  0.4011 -0.2090 -0.2338
 2259SOL    HW118410   1.293   4.156   2.474  1.1502 -0.2268  1.1530
 2259SOL    HW218411   1.330   4.022   2.488  1.2936  0.8264  1.8666
 2260SOL     OW18412   2.569   3.522   2.923  0.3607  0.4118  0.5412
 2260SOL    HW118413   2.576   3.476   3.007 -0.5244  0.5041  0.6659
 2260SOL    HW218414   2.500   3.465   2.891 -0.1895 -0.6194  3.5760
 2261SOL     OW18415   3.717   3.352   7.820 -0.0289  0.3289 -0.1932
 2261SOL    HW118416   3.782   3.416   7.793 -1.2039  0.6567 -2.2162
 2261SOL    HW218417   3.768   3.271   7.827  0.1538  0.2898 -2.0798
 2262SOL     OW18418   2.556   1.744  14.504  0.7702  0.6383  0.2156
 2262SOL    HW118419   2.586   1.673  14.447 -1.4906 -1.3383  1.5140
 2262SOL    HW218420   2.592   1.817  14.453  0.5261  0.7195  0.1594
 2263SOL     OW18421   4.455   0.914   3.634  0.7431 -0.2565  0.4319
 2263SOL    HW118422   4.416   0.874   3.712 -0.5692 -2.3799 -1.2947
 2263SOL    HW218423   4.534   0.957   3.667  1.3463 -0.9755 -0.0891
 2264SOL     OW18424   3.455   2.366   4.168  0.1496 -0.1960  0.0642
 2264SOL    HW118425   3.389   2.310   4.210 -0.5523 -0.0121 -0.7921
 2264SOL    HW218426   3.532   2.356   4.224 -0.4475 -1.1485  0.7090
 2265SOL     OW18427   2.715   3.385   2.320  0.1353 -0.4045  0.0018
 2265SOL    HW118428   2.654   3.396   2.393 -1.8202  0.3279 -1.7436
 2265SOL    HW218429   2.680   3.439   2.249  1.1890  0.0649 -0.1631
 2266SOL     OW18430   3.690   0.141   8.856 -0.1007  0.0683 -0.0217
 2266SOL    HW118431   3.705   0.066   8.914  3.4233  1.3509  0.7197
 2266SOL    HW218432   3.652   0.090   8.784  0.2934 -0.5968  0.2336
 2267SOL     OW18433   1.437   2.030   0.064  0.0054 -0.4636 -0.1549
 2267SOL    HW118434   1.359   2.045   0.117  3.0703 -0.1249  4.2261
 2267SOL    HW218435   1.502   2.093   0.096 -0.7921 -0.3287  1.1733
 2268SOL     OW18436   3.835   2.373   6.568  0.0610  0.2620  0.6915
 2268SOL    HW118437   3.891   2.301   6.597  1.2639  0.6824 -0.6046
 2268SOL    HW218438   3.883   2.449   6.601  1.1389 -0.1932  0.1841
 2269SOL     OW18439   3.917   3.681   1.626 -0.0223 -0.1586  0.1707
 2269SOL    HW118440   3.940   3.774   1.627 -2.2413  0.3605  1.9740
 2269SOL    HW218441   3.904   3.666   1.720  0.7142  2.5804  0.6871
 2270SOL     OW18442   3.623   2.946  12.926  0.4586  0.2474 -0.7560
 2270SOL    HW118443   3.701   2.906  12.965 -1.5744 -0.7848  2.2636
 2270SOL    HW218444   3.612   2.900  12.843 -0.1745 -0.9243 -0.0183
 2271SOL     OW18445   2.629   3.694  15.849 -0.0274 -0.0579  0.1444
 2271SOL    HW118446   2.635   3.665  15.758 -3.4155  1.9057 -0.7027
 2271SOL    HW218447   2.707   3.747  15.867 -0.0952 -0.6241  2.0741
 2272SOL     OW18448   0.084   0.755   3.217  0.2089 -0.4932 -0.7076
 2272SOL    HW118449   0.105   0.674   3.263 -0.6269 -1.1208 -1.4461
 2272SOL    HW218450   0.096   0.827   3.280 -0.8689 -1.5764  0.7439
 2273SOL     OW18451   1.340   0.948  12.927  0.1832 -0.2349  0.5930
 2273SOL    HW118452   1.401   0.875  12.912 -0.5440 -0.6863 -0.1914
 2273SOL    HW218453   1.284   0.927  13.002  0.4900 -0.1393  0.8462
 2274SOL     OW18454   4.306   0.918  14.427  0.1326 -0.2004 -0.4966
 2274SOL    HW118455   4.343   0.991  14.377 -0.2946  0.6403  0.4135
 2274SOL    HW218456   4.384   0.877  14.465 -0.8406 -1.0949  0.5154
 2275SOL     OW18457   4.025   2.101   7.180 -0.5720 -0.4583  0.7437
 2275SOL    HW118458   4.057   2.071   7.265 -0.9148  0.1267  1.0768
 2275SOL    HW218459   3.933   2.092   7.205 -0.3424 -0.3485  1.6096
 2276SOL     OW18460   1.143   3.685   9.080 -0.3124  0.0884 -0.2008
 2276SOL    HW118461   1.110   3.599   9.103  2.2152 -0.7946  0.0946
 2276SOL    HW218462   1.087   3.748   9.127  0.4674 -0.1663  1.0782
 2277SOL     OW18463   3.228   4.094  14.527 -0.5396 -0.1251 -0.0112
 2277SOL    HW118464   3.192   4.179  14.503 -0.4259 -0.0216  0.1931
 2277SOL    HW218465   3.307   4.085  14.474 -0.3188 -1.2982  0.5107
 2278SOL     OW18466   0.012   4.608   2.871 -0.6271  0.0732 -0.3802
 2278SOL    HW118467   0.025   4.668   2.944  0.3660  2.4370 -2.4682
 2278SOL    HW218468   4.723   4.530   2.917 -0.4814  0.5932  0.5784
 2279SOL     OW18469   3.792   3.237  12.060  0.1394 -0.0950 -0.2845
 2279SOL    HW118470   3.826   3.310  12.112  1.2720  0.6339 -2.0588
 2279SOL    HW218471   3.699   3.254  12.071 -0.2338  0.0300 -3.6732
 2280SOL     OW18472   1.321   0.947   1.561 -0.5901 -0.6067  0.3208
 2280SOL    HW118473   1.246   0.992   1.602  1.9819  3.1008  0.9451
 2280SOL    HW218474   1.346   1.020   1.505 -2.9002  1.1499  1.5486
 2281SOL     OW18475   2.610   0.342   5.676  0.0019 -0.2477 -0.3279
 2281SOL    HW118476   2.596   0.405   5.746 -1.8990  1.0052 -1.8258
 2281SOL    HW218477   2.696   0.371   5.644  1.2895 -3.0119  0.6492
 2282SOL     OW18478   0.909   0.464  10.636  0.0453  0.0784  0.0347
 2282SOL    HW118479   0.974   0.393  10.633 -0.4419 -0.4191  1.2346
 2282SOL    HW218480   0.894   0.470  10.542  1.4371 -1.4652 -0.2972
 2283SOL     OW18481   1.267   3.859   3.851 -0.5551 -0.0023  0.1882
 2283SOL    HW118482   1.306   3.786   3.899  3.0090  0.6732 -1.6554
 2283SOL    HW218483   1.187   3.818   3.819 -2.3262  2.4974  1.4347
 2284SOL     OW18484   1.786   1.242  10.728  0.1881  0.4039 -0.0560
 2284SOL    HW118485   1.694   1.217  10.736  0.4432 -0.4800  0.0913
 2284SOL    HW218486   1.780   1.264  10.635 -1.5246 -0.3900 -0.1388
 2285SOL     OW18487   3.234   2.036   1.289  0.1988  0.2611 -0.1228
 2285SOL    HW118488   3.212   2.126   1.311  1.8092  0.3208  1.2012
 2285SOL    HW218489   3.144   2.008   1.272  0.2549 -0.0721  0.1339
 2286SOL     OW18490   2.680   2.079  14.894 -0.2676 -0.1111 -0.3394
 2286SOL    HW118491   2.652   1.994  14.929  1.8663 -0.9501 -0.6091
 2286SOL    HW218492   2.668   2.066  14.800 -3.2092  2.3244 -0.3005
 2287SOL     OW18493   3.387   0.774   5.340 -0.5321 -0.0154 -0.1199
 2287SOL    HW118494   3.413   0.812   5.256 -0.0828  3.4823  1.5640
 2287SOL    HW218495   3.426   0.824   5.412  1.4853 -1.7151 -0.0184
 2288SOL     OW18496   1.941   1.835   0.254 -0.1525 -0.1314 -1.1853
 2288SOL    HW118497   1.929   1.760   0.197 -0.8362  0.6223 -2.0253
 2288SOL    HW218498   1.940   1.803   0.345 -1.8457  0.1131 -1.1209
 2289SOL     OW18499   1.136   1.936   7.364 -0.2672 -0.5008  0.4570
 2289SOL    HW118500   1.208   1.875   7.347  1.6567  1.4176  1.7872
 2289SOL    HW218501   1.164   1.991   7.437  1.1616 -1.1803  0.4220
 2290SOL     OW18502   4.738   2.761  13.279  0.1212  0.6995  0.3818
 2290SOL    HW118503   0.076   2.786  13.229  1.6229  0.6520  2.6895
 2290SOL    HW218504   0.003   2.665  13.275  1.3968  0.8005 -1.0188
 2291SOL     OW18505   3.233   0.745   4.088  0.1060  0.1379 -0.4278
 2291SOL    HW118506   3.269   0.705   4.167 -0.7192  1.3674  0.5679
 2291SOL    HW218507   3.140   0.729   4.100  0.0031  0.7672 -0.3373
 2292SOL     OW18508   4.093   1.431   4.666  0.5981  0.2235  0.1034
 2292SOL    HW118509   4.106   1.525   4.679 -1.1499  0.3668  0.8117
 2292SOL    HW218510   4.004   1.438   4.701  0.9998  1.3332  0.8979
 2293SOL     OW18511   2.852   0.961   5.620 -0.2926  0.0551  0.6739
 2293SOL    HW118512   2.893   1.043   5.645  0.1724  0.2024 -0.5927
 2293SOL    HW218513   2.904   0.931   5.546 -2.1499 -1.8669  0.1314
 2294SOL     OW18514   4.150   0.315   1.059 -0.3084 -0.1553 -0.1789
 2294SOL    HW118515   4.089   0.256   1.015 -1.4697  0.5280  0.4841
 2294SOL    HW218516   4.093   0.363   1.120  0.1238  0.6995 -0.4522
 2295SOL     OW18517   0.630   1.574  16.762 -0.1855  0.2975  0.3379
 2295SOL    HW118518   0.596   1.661  16.780 -2.3656 -0.0785 -2.0945
 2295SOL    HW218519   0.596   1.516  16.831 -0.1561  0.8270  0.7937
 2296SOL     OW18520   1.818   2.124   6.224  0.3936  0.1829 -0.0071
 2296SOL    HW118521   1.867   2.127   6.306  0.3115  0.1191  0.0441
 2296SOL    HW218522   1.815   2.215   6.195 -0.5334  0.2520  0.3118
 2297SOL     OW18523   3.600   2.003   8.463 -0.4465 -0.1377 -0.3287
 2297SOL    HW118524   3.592   2.082   8.517 -2.1873 -0.3429 -0.2862
 2297SOL    HW218525   3.615   1.939   8.533 -1.4384  0.9859  0.9179
 2298SOL     OW18526   4.410   4.246   0.933  0.1908  0.2429  0.3810
 2298SOL    HW118527   4.387   4.232   0.841 -0.8529  1.7529  0.3959
 2298SOL    HW218528   4.484   4.305   0.925 -0.2633  0.6554 -0.8131
 2299SOL     OW18529   4.731   4.422   8.178  0.4762  0.3082  0.4599
 2299SOL    HW118530   4.651   4.423   8.125  1.3098  2.8570 -0.7467
 2299SOL    HW218531   4.696   4.455   8.261 -2.6862  0.2161 -0.8220
 2300SOL     OW18532   3.614   1.225   4.691  0.4120 -0.4079 -0.3561
 2300SOL    HW118533   3.586   1.134   4.692 -1.4792  0.2073  0.4265
 2300SOL    HW218534   3.662   1.228   4.608  0.2499 -1.6700 -0.4902
 2301SOL     OW18535   1.537   1.489   5.727  0.3448  0.1875  0.3010
 2301SOL    HW118536   1.530   1.567   5.673  0.7522  0.3259  0.4446
 2301SOL    HW218537   1.617   1.446   5.696 -2.1954 -2.4323 -2.5605
 2302SOL     OW18538   1.363   4.465  16.431 -0.0665  0.2188 -0.2319
 2302SOL    HW118539   1.339   4.555  16.453  1.4580  1.3424 -3.0766
 2302SOL    HW218540   1.430   4.460  16.499  0.8497  0.2042 -1.1351
 2303SOL     OW18541   0.009   0.221  15.619 -0.0563 -0.1268 -0.3166
 2303SOL    HW118542   0.001   0.211  15.524  1.4975  0.7470 -0.5467
 2303SOL    HW218543   0.088   0.275  15.622  0.2705 -0.7590  2.1428
 2304SOL     OW18544   3.344   1.286   2.942  0.0476 -0.4056  0.1657
 2304SOL    HW118545   3.254   1.256   2.950 -0.0879  0.0948  0.5187
 2304SOL    HW218546   3.372   1.221   2.877  0.8237  1.1085 -1.0324
 2305SOL     OW18547   3.818   3.132   4.192  0.3814  0.0125 -0.1193
 2305SOL    HW118548   3.761   3.106   4.119  2.5243 -1.4941 -1.2548
 2305SOL    HW218549   3.881   3.191   4.151 -2.2391  1.8816 -1.5502
 2306SOL     OW18550   3.052   2.181   3.069 -0.2562 -0.0493  0.6538
 2306SOL    HW118551   3.078   2.099   3.110 -1.1237  0.2314  1.7768
 2306SOL    HW218552   3.043   2.245   3.140 -2.3773 -0.3585  0.6611
 2307SOL     OW18553   2.153   0.998   2.416  0.2100 -0.0792 -0.0270
 2307SOL    HW118554   2.122   0.981   2.327 -1.0089 -0.8264  0.5452
 2307SOL    HW218555   2.084   1.061   2.435  0.1809 -0.7354  2.0453
 2308SOL     OW18556   3.233   0.888   5.657 -0.1294  0.5529 -0.5808
 2308SOL    HW118557   3.326   0.879   5.636 -0.1492  1.9857 -1.2917
 2308SOL    HW218558   3.229   0.984   5.658 -0.7226  0.5336 -1.1755
 2309SOL     OW18559   1.397   1.054   8.708 -0.3932  0.0789  0.7044
 2309SOL    HW118560   1.320   1.058   8.765 -0.7432  1.9662  0.0885
 2309SOL    HW218561   1.470   1.088   8.760 -0.9222  1.8381  0.3131
 2310SOL     OW18562   2.377   2.575   6.166  0.0183 -0.2657 -0.0253
 2310SOL    HW118563   2.390   2.533   6.251 -1.9012 -0.3040  0.2455
 2310SOL    HW218564   2.430   2.653   6.183  0.6865 -0.4903 -1.0758
 2311SOL     OW18565   4.101   0.739   4.030  0.2645 -0.2630 -0.7090
 2311SOL    HW118566   4.060   0.658   3.998 -1.2614  0.6358 -1.0122
 2311SOL    HW218567   4.077   0.739   4.123  2.5986  1.3668 -0.1256
 2312SOL     OW18568   2.226   0.810  10.918  0.2948  0.1489  0.1109
 2312SOL    HW118569   2.188   0.761  10.991  0.7443 -0.1606  0.1397
 2312SOL    HW218570   2.294   0.858  10.965 -1.8576  1.7324  1.5871
 2313SOL     OW18571   1.737   1.135   4.033 -0.2130 -1.0245  0.1001
 2313SOL    HW118572   1.809   1.074   4.049  0.7080  0.1191  0.3142
 2313SOL    HW218573   1.692   1.130   4.117  0.6501  1.4851  0.7366
 2314SOL     OW18574   1.291   3.572   0.376  0.5215  0.2565  0.1017
 2314SOL    HW118575   1.297   3.642   0.311  4.0113 -1.3167 -1.3236
 2314SOL    HW218576   1.324   3.612   0.456  0.7446  0.3747 -0.0508
 2315SOL     OW18577   3.358   0.977  10.078 -0.1274  0.7215 -0.4721
 2315SOL    HW118578   3.366   1.044  10.147  0.1990  0.3938 -0.1880
 2315SOL    HW218579   3.319   1.027  10.007 -1.9581 -0.5646 -0.3603
 2316SOL     OW18580   4.700   1.800   6.216  0.4662  0.5241 -0.3401
 2316SOL    HW118581   0.006   1.884   6.227 -0.3126  1.1411 -1.9067
 2316SOL    HW218582   0.027   1.738   6.246  0.9102  0.8936 -0.5610
 2317SOL     OW18583   3.335   1.646   5.525  0.3109  0.2019 -0.3112
 2317SOL    HW118584   3.369   1.640   5.435  0.5539  1.1945 -0.2786
 2317SOL    HW218585   3.389   1.579   5.568  0.0902  0.1263 -0.1516
 2318SOL     OW18586   4.269   1.835   8.995  0.4636 -0.6108  0.6276
 2318SOL    HW118587   4.356   1.796   9.003  1.5739  2.1025  1.9113
 2318SOL    HW218588   4.276   1.865   8.904 -0.7251 -0.0918  0.7156
 2319SOL     OW18589   1.763   2.671  11.593  0.4197 -0.4358 -0.2947
 2319SOL    HW118590   1.729   2.736  11.655  1.1327  1.2381 -1.6613
 2319SOL    HW218591   1.829   2.623  11.643  0.5021 -1.5876 -1.5423
 2320SOL     OW18592   2.959   3.758  14.228 -0.6792  0.6958  0.2814
 2320SOL    HW118593   3.030   3.777  14.289  0.1954 -3.0049  0.4471
 2320SOL    HW218594   2.996   3.702  14.160  0.7908  1.1733  0.6884
 2321SOL     OW18595   3.156   3.276   3.430  0.2130  0.2225  0.2199
 2321SOL    HW118596   3.113   3.224   3.362 -1.2807  1.5419  0.1391
 2321SOL    HW218597   3.147   3.211   3.500 -1.9093  0.6137  0.3142
 2322SOL     OW18598   3.652   3.194   9.840 -0.3735 -0.5692 -0.2009
 2322SOL    HW118599   3.726   3.198   9.779 -0.5103  0.5416 -0.2983
 2322SOL    HW218600   3.613   3.117   9.799 -2.5407  1.1134 -1.3621
 2323SOL     OW18601   0.977   3.369   5.695  0.9664  0.3359  0.5245
 2323SOL    HW118602   0.963   3.423   5.773 -1.8196  2.2477 -1.2977
 2323SOL    HW218603   1.021   3.433   5.639  0.2661  1.6867  1.5281
 2324SOL     OW18604   2.822   3.879   7.933  0.4102 -0.4350 -0.7217
 2324SOL    HW118605   2.773   3.890   8.015 -0.3157  1.1805 -1.3938
 2324SOL    HW218606   2.758   3.888   7.863 -1.2689  0.8592  0.9907
 2325SOL     OW18607   4.049   3.019   6.795 -0.0661  0.7074  0.1161
 2325SOL    HW118608   4.142   2.998   6.791  0.1851  1.4216  2.4593
 2325SOL    HW218609   4.042   3.029   6.890 -0.7924 -1.6909  0.3262
 2326SOL     OW18610   4.583   1.173   1.952  0.4613 -0.0780 -0.3845
 2326SOL    HW118611   4.573   1.198   1.860  1.3043  1.6521 -0.0140
 2326SOL    HW218612   4.516   1.107   1.970 -0.6791  1.4665  1.1868
 2327SOL     OW18613   0.672   4.315   5.610 -0.2126  0.1727 -0.0019
 2327SOL    HW118614   0.627   4.241   5.569  1.1951 -1.0042  0.5548
 2327SOL    HW218615   0.670   4.296   5.704 -1.5347  3.1568  0.5541
 2328SOL     OW18616   3.059   2.678  17.290  0.7603  0.1679 -0.1103
 2328SOL    HW118617   3.080   2.719  17.374 -2.8670  1.3211  0.2474
 2328SOL    HW218618   3.093   2.590  17.304  1.8151  0.6715  0.5369
 2329SOL     OW18619   4.119   2.662  12.038  0.1357  0.1088 -0.0678
 2329SOL    HW118620   4.139   2.714  11.961 -0.9188  1.0624  0.2945
 2329SOL    HW218621   4.192   2.676  12.098  0.6759 -1.4506 -0.3461
 2330SOL     OW18622   1.353   4.111  17.557 -0.0856 -0.4099  0.3146
 2330SOL    HW118623   1.362   4.167  17.634 -0.5331 -1.3063  1.0128
 2330SOL    HW218624   1.312   4.031  17.591 -0.9960 -0.0493  0.0670
 2331SOL     OW18625   0.548   4.735   6.963 -0.3374  0.4232 -0.0390
 2331SOL    HW118626   0.512   4.699   6.881  1.9237 -0.0764 -0.8336
 2331SOL    HW218627   0.500   4.684   7.028 -1.6492 -0.1096 -1.4256
 2332SOL     OW18628   2.686   0.160   7.906  0.1639 -0.2436 -0.1745
 2332SOL    HW118629   2.654   0.081   7.862  4.1073 -1.8138 -0.2316
 2332SOL    HW218630   2.702   0.217   7.830  1.7173  0.0798  0.4005
 2333SOL     OW18631   0.806   4.714  11.363 -0.2999  0.1237 -0.2530
 2333SOL    HW118632   0.730   0.014  11.320 -1.8757  0.0388  2.3974
 2333SOL    HW218633   0.775   4.710  11.454  1.2387 -1.8593  0.2027
 2334SOL     OW18634   4.548   4.355   9.667 -0.3084  0.2477  0.3467
 2334SOL    HW118635   4.557   4.448   9.646 -1.7389  0.6342  1.5069
 2334SOL    HW218636   4.486   4.331   9.598  0.6558  1.4563 -0.9392
 2335SOL     OW18637   4.496   2.576   8.088 -0.2841  0.1473 -0.6932
 2335SOL    HW118638   4.503   2.549   8.179 -1.9480  3.8800  0.5478
 2335SOL    HW218639   4.515   2.493   8.044  0.8871  0.8254 -1.4744
 2336SOL     OW18640   0.591   3.791   2.902  1.1440  0.3950 -0.0479
 2336SOL    HW118641   0.597   3.729   2.975  3.1930  0.1624 -0.4175
 2336SOL    HW218642   0.655   3.857   2.928  1.0173 -0.9064  3.5930
 2337SOL     OW18643   1.548   3.752   6.450  0.3942  0.1275  0.3135
 2337SOL    HW118644   1.589   3.666   6.461  2.2563  1.1700  1.5610
 2337SOL    HW218645   1.539   3.769   6.544  0.2244  1.1966  0.1019
 2338SOL     OW18646   3.531   2.802   2.742 -0.0174 -0.7003  0.4598
 2338SOL    HW118647   3.535   2.898   2.744  0.0478 -0.7555  2.5120
 2338SOL    HW218648   3.485   2.801   2.658 -2.4145  1.6368  1.7172
 2339SOL     OW18649   2.227   4.456  13.731  0.0736 -0.3478  0.2128
 2339SOL    HW118650   2.230   4.545  13.695  1.6192 -1.2948 -2.0200
 2339SOL    HW218651   2.178   4.472  13.812  2.7086  2.0016  1.3484
 2340SOL     OW18652   3.954   0.981   5.949  0.0980  0.0304  0.6842
 2340SOL    HW118653   3.950   1.044   6.021 -0.0356  1.2663 -0.3852
 2340SOL    HW218654   3.986   0.901   5.989  0.5145 -0.0743  0.1402
 2341SOL     OW18655   3.282   0.802   4.697 -0.2041 -0.1991  0.2042
 2341SOL    HW118656   3.204   0.770   4.741 -1.0240 -2.0645 -2.5939
 2341SOL    HW218657   3.312   0.724   4.650  1.5376  0.8703 -0.4754
 2342SOL     OW18658   3.462   4.317   6.119  0.3200 -0.4819  0.4063
 2342SOL    HW118659   3.423   4.304   6.033  0.3940 -0.1661  0.3263
 2342SOL    HW218660   3.492   4.408   6.115  0.2248 -0.2977  3.5441
 2343SOL     OW18661   0.470   1.954   8.030  0.0902  0.5710  0.3100
 2343SOL    HW118662   0.460   2.024   8.094  0.0858  0.8542  0.0034
 2343SOL    HW218663   0.448   1.877   8.082 -0.2981  0.2555 -0.3231
 2344SOL     OW18664   2.498   3.759  10.071 -1.0261 -0.5068 -0.1995
 2344SOL    HW118665   2.454   3.831  10.027  1.1971 -0.0050 -1.5794
 2344SOL    HW218666   2.559   3.812  10.123  1.1037 -0.6265 -2.6050
 2345SOL     OW18667   2.204   1.891   6.167  0.6327  0.0721 -0.0591
 2345SOL    HW118668   2.243   1.916   6.250 -1.2021 -1.1888  1.1901
 2345SOL    HW218669   2.161   1.971   6.137  0.4974 -0.3032 -0.8869
 2346SOL     OW18670   0.392   0.272   9.159 -0.0619  0.3626  0.0945
 2346SOL    HW118671   0.475   0.231   9.183 -0.2940 -0.2860 -0.2052
 2346SOL    HW218672   0.401   0.302   9.068 -2.6769  1.0508  0.0656
 2347SOL     OW18673   4.447   2.958   7.341 -0.9177  0.7192  0.6796
 2347SOL    HW118674   4.499   2.915   7.409 -2.0135  0.4440  1.3455
 2347SOL    HW218675   4.492   2.938   7.259  1.8288 -1.8809  2.8404
 2348SOL     OW18676   3.192   0.281   5.007 -0.5964  0.4313  0.1025
 2348SOL    HW118677   3.098   0.292   4.995 -0.2361  0.6469 -2.5705
 2348SOL    HW218678   3.195   0.245   5.096 -0.1254  1.7601  0.6177
 2349SOL     OW18679   4.649   3.441  12.071  0.0930 -0.0140 -0.5462
 2349SOL    HW118680   4.714   3.511  12.067 -0.6189  0.7167  0.7411
 2349SOL    HW218681   4.622   3.440  11.979  2.4459 -0.3595 -1.2217
 2350SOL     OW18682   1.028   4.589   5.529  0.4265  0.2723 -0.1139
 2350SOL    HW118683   1.044   4.543   5.611  1.9941  1.3552  0.1787
 2350SOL    HW218684   1.040   4.520   5.464  1.0204 -0.4758  0.7910
 2351SOL     OW18685   2.691   0.287   1.850 -0.3241  0.2621 -0.1060
 2351SOL    HW118686   2.727   0.310   1.936  1.1693 -1.3900 -0.2824
 2351SOL    HW218687   2.680   0.192   1.862 -0.7453  0.0511 -2.1716
 2352SOL     OW18688   2.230   1.310   3.950 -0.6091 -0.0869  0.4910
 2352SOL    HW118689   2.266   1.387   3.907  0.4973 -0.3857  0.8688
 2352SOL    HW218690   2.296   1.241   3.956  1.5516  1.9631  0.2446
 2353SOL     OW18691   2.989   0.049   9.174  0.4482 -0.4186  0.4285
 2353SOL    HW118692   3.054   0.069   9.241  0.9248 -2.7651  0.6719
 2353SOL    HW218693   3.041   0.008   9.104 -2.8092 -3.3489 -0.2890
 2354SOL     OW18694   4.438   4.368   2.694  0.3970 -0.7156 -0.2426
 2354SOL    HW118695   4.488   4.289   2.716  1.4328  0.1770  0.5728
 2354SOL    HW218696   4.356   4.319   2.700  0.4865 -0.3852  3.5620
 2355SOL     OW18697   2.796   1.699   4.243  0.5343  0.7117 -0.5164
 2355SOL    HW118698   2.830   1.618   4.280  0.1497  1.9894  2.6052
 2355SOL    HW218699   2.701   1.705   4.249  0.3682  0.9841 -3.2268
 2356SOL     OW18700   4.212   0.844  16.503 -0.3788  0.1656 -0.1027
 2356SOL    HW118701   4.192   0.870  16.413 -1.0093  1.2429  0.3624
 2356SOL    HW218702   4.128   0.815  16.539  0.3510 -0.9783  0.7018
 2357SOL     OW18703   0.043   1.297   2.477 -0.1262  0.0799  0.4901
 2357SOL    HW118704   0.116   1.240   2.500 -1.4740 -1.8332 -0.0165
 2357SOL    HW218705   0.028   1.280   2.384  1.0895 -2.6731  0.8156
 2358SOL     OW18706   3.564   2.436   4.647 -0.1549 -0.2992 -0.3694
 2358SOL    HW118707   3.535   2.509   4.591  0.2592  0.9193  1.0020
 2358SOL    HW218708   3.643   2.475   4.685 -0.9237 -3.0960  4.0145
 2359SOL     OW18709   0.647   3.272   8.319 -0.9779 -0.0354 -0.3476
 2359SOL    HW118710   0.658   3.364   8.294  1.0344 -0.2976 -0.4450
 2359SOL    HW218711   0.606   3.286   8.404 -0.5313 -0.2874 -0.0918
 2360SOL     OW18712   4.530   2.762   6.448  0.7612  0.6637 -0.0980
 2360SOL    HW118713   4.522   2.857   6.436  0.2268  0.4948 -1.1343
 2360SOL    HW218714   4.439   2.734   6.459  0.8341  0.3725 -0.2624
 2361SOL     OW18715   2.768   4.582  15.155  0.0778  0.2501 -0.2704
 2361SOL    HW118716   2.779   4.650  15.222  0.7911 -0.5903  0.4656
 2361SOL    HW218717   2.859   4.557  15.138  0.6313  0.7922  1.8223
 2362SOL     OW18718   3.927   3.571  10.039  0.3110 -0.8845  0.4010
 2362SOL    HW118719   3.992   3.528   9.983  1.9488  0.5573  1.1951
 2362SOL    HW218720   3.868   3.496  10.050 -0.1321 -0.4714  0.8686
 2363SOL     OW18721   0.771   0.115  10.603 -0.0884  0.1315 -0.2091
 2363SOL    HW118722   0.794   0.022  10.605  4.0945  1.1792 -0.0533
 2363SOL    HW218723   0.850   0.169  10.594  1.6104 -2.3997 -0.7069
 2364SOL     OW18724   3.176   3.358   7.401 -0.4036  0.4161  0.2604
 2364SOL    HW118725   3.199   3.307   7.323  0.1093 -1.4098  1.6270
 2364SOL    HW218726   3.248   3.420   7.413  0.3759 -0.3813 -0.2193
 2365SOL     OW18727   3.453   4.579   6.421 -0.0671  0.1365  0.0485
 2365SOL    HW118728   3.393   4.504   6.418  0.9992 -0.6838 -1.0181
 2365SOL    HW218729   3.429   4.620   6.504 -2.4993  0.1199 -0.6519
 2366SOL     OW18730   2.076   1.404   8.430  0.0552 -0.3150  0.2232
 2366SOL    HW118731   2.005   1.463   8.456 -0.2164 -0.5860  0.1013
 2366SOL    HW218732   2.148   1.444   8.477 -1.7000  1.3035  1.5166
 2367SOL     OW18733   2.149   0.722  13.474 -0.0790 -1.1373 -0.0438
 2367SOL    HW118734   2.214   0.760  13.533  0.0020  1.6242 -1.9477
 2367SOL    HW218735   2.075   0.782  13.482  1.3984  0.4225  1.7142
 2368SOL     OW18736   0.275   1.129   9.146 -0.3666 -0.1801  0.1941
 2368SOL    HW118737   0.291   1.146   9.053  0.5776  0.6038  0.4971
 2368SOL    HW218738   0.184   1.100   9.145 -0.0331 -1.1370 -1.1292
 2369SOL     OW18739   0.257   2.920   4.389 -0.2029 -0.2629 -0.3171
 2369SOL    HW118740   0.251   2.971   4.470  2.2780  0.7073 -0.7574
 2369SOL    HW218741   0.304   2.980   4.331 -0.1702  0.5675  0.5508
 2370SOL     OW18742   2.071   3.839   7.985  0.5161 -0.1345  0.1361
 2370SOL    HW118743   2.052   3.747   7.970  1.3385 -0.3208  0.2631
 2370SOL    HW218744   2.150   3.839   8.038  1.1725 -0.5068 -0.8307
 2371SOL     OW18745   3.475   1.765   6.878  0.9182  0.3640  0.1539
 2371SOL    HW118746   3.518   1.719   6.806  2.4408  0.0564  1.2585
 2371SOL    HW218747   3.446   1.692   6.934  0.2084  2.1361  2.0878
 2372SOL     OW18748   4.322   1.919   4.680  0.2070  1.1470 -0.1605
 2372SOL    HW118749   4.410   1.947   4.707  0.4316  0.6747 -0.4013
 2372SOL    HW218750   4.287   2.002   4.712 -1.6422  0.5229 -0.5840
 2373SOL     OW18751   3.962   3.909   2.096  0.1208 -0.5534 -0.8632
 2373SOL    HW118752   3.952   3.974   2.166  2.5442  0.0582 -1.0788
 2373SOL    HW218753   3.998   3.959   2.023 -1.9155  1.7600 -0.2870
 2374SOL     OW18754   1.678   4.320  11.490  0.1878 -0.8870  0.1912
 2374SOL    HW118755   1.743   4.260  11.526 -0.4117 -2.3560 -1.1491
 2374SOL    HW218756   1.611   4.259  11.458 -0.5997  0.6252 -1.0169
 2375SOL     OW18757   0.540   3.363   3.995 -0.2600 -0.2127  0.0977
 2375SOL    HW118758   0.556   3.411   3.914  2.9978 -1.4457  0.0179
 2375SOL    HW218759   0.556   3.433   4.058 -0.4374  1.5188 -1.7762
 2376SOL     OW18760   0.171   2.835   1.509  0.4108  0.1853  0.1080
 2376SOL    HW118761   0.176   2.927   1.483 -1.7817  0.0130 -0.9495
 2376SOL    HW218762   0.227   2.792   1.444 -1.4343 -0.5480 -0.9847
 2377SOL     OW18763   1.681   1.721   4.748  0.0645 -0.1851  0.0801
 2377SOL    HW118764   1.690   1.649   4.686  2.1195 -0.8384  1.1176
 2377SOL    HW218765   1.758   1.773   4.725  1.1115 -2.3797 -1.3361
 2378SOL     OW18766   0.710   4.577   6.006  0.3660  0.0537 -0.4735
 2378SOL    HW118767   0.802   4.565   5.985  0.1674 -2.5337  0.1587
 2378SOL    HW218768   0.692   4.488   6.036  1.8317 -0.5414 -1.3891
 2379SOL     OW18769   1.057   2.873   5.706  0.1654  0.1806  0.3399
 2379SOL    HW118770   1.037   2.876   5.799 -0.4094 -0.5083  0.2386
 2379SOL    HW218771   1.059   2.966   5.687 -0.2987 -0.1943 -1.5505
 2380SOL     OW18772   2.852   2.622   2.687  0.7103  0.5104 -0.2583
 2380SOL    HW118773   2.833   2.530   2.704  0.2094  0.8629  1.0805
 2380SOL    HW218774   2.821   2.622   2.597  2.6313  1.5740 -0.9230
 2381SOL     OW18775   2.268   0.833   5.405  0.8650 -0.1634  0.0105
 2381SOL    HW118776   2.241   0.889   5.332  0.2642 -0.1274  0.2598
 2381SOL    HW218777   2.258   0.745   5.370  0.7269 -0.0884 -0.1388
 2382SOL     OW18778   2.882   1.123   7.347  0.0344 -0.0870  0.7779
 2382SOL    HW118779   2.931   1.041   7.349 -0.1133 -0.1647  1.1013
 2382SOL    HW218780   2.837   1.122   7.263 -2.9110  0.1540  2.3811
 2383SOL     OW18781   3.788   4.007   9.288  0.4847  0.0068 -0.5428
 2383SOL    HW118782   3.792   4.078   9.352 -0.9636  0.0936 -0.5641
 2383SOL    HW218783   3.758   4.046   9.207 -1.5930 -0.3929  0.0482
 2384SOL     OW18784   0.261   3.028   0.856 -0.7838 -0.4320  0.1693
 2384SOL    HW118785   0.283   3.119   0.874  0.4808 -0.8948  0.9340
 2384SOL    HW218786   0.315   3.015   0.778 -0.9250  1.4253 -0.2411
 2385SOL     OW18787   4.248   2.261   9.551 -0.4342  0.4859 -0.0520
 2385SOL    HW118788   4.242   2.356   9.550 -0.5092  0.4577 -2.4586
 2385SOL    HW218789   4.175   2.232   9.606 -2.2109  1.4615 -1.9095
 2386SOL     OW18790   3.356   3.190   7.279  0.2291 -0.4862  0.0094
 2386SOL    HW118791   3.406   3.119   7.319  0.0132 -0.6904 -0.0867
 2386SOL    HW218792   3.421   3.261   7.275  1.4003 -1.6962 -2.7445
 2387SOL     OW18793   4.047   2.428   4.538  0.1890  0.0634 -0.5407
 2387SOL    HW118794   4.013   2.356   4.591  0.8514  1.2212  1.4667
 2387SOL    HW218795   4.035   2.508   4.588 -0.4824  0.5468 -1.4799
 2388SOL     OW18796   1.465   4.311   2.600 -0.3671  0.0293 -0.3963
 2388SOL    HW118797   1.430   4.229   2.566 -1.0419 -0.4567  1.4380
 2388SOL    HW218798   1.399   4.346   2.660  0.7387 -1.1926  1.5364
 2389SOL     OW18799   2.824   1.860   3.329  0.4513  0.1006  0.8463
 2389SOL    HW118800   2.851   1.862   3.420 -1.1848  0.2981  1.3257
 2389SOL    HW218801   2.799   1.768   3.318  1.5929 -0.1870  0.6669
 2390SOL     OW18802   3.233   4.723   2.098  0.1906  0.6442  0.2821
 2390SOL    HW118803   3.151   0.027   2.073 -0.5074 -0.7855  0.0710
 2390SOL    HW218804   3.226   4.648   2.039 -3.6683  0.3564  1.0765
 2391SOL     OW18805   0.430   3.411   4.786 -0.3031  0.3462 -0.1478
 2391SOL    HW118806   0.347   3.384   4.824 -0.7937 -1.5128 -2.5685
 2391SOL    HW218807   0.458   3.442   4.872  3.1317 -2.6979 -0.1622
 2392SOL     OW18808   4.430   0.116  13.184  0.2742 -0.0871 -0.2283
 2392SOL    HW118809   4.462   0.166  13.109  2.0062  0.3348  0.8219
 2392SOL    HW218810   4.500   0.133  13.247 -0.7072  1.6833  0.3904
 2393SOL     OW18811   2.573   4.070   4.796 -0.3897 -0.4520  0.1358
 2393SOL    HW118812   2.636   4.085   4.725  0.2892  1.3749  1.1185
 2393SOL    HW218813   2.514   4.144   4.781 -1.1153 -1.4997 -2.2864
 2394SOL     OW18814   2.464   3.200   6.761 -0.4414  0.2185  0.1913
 2394SOL    HW118815   2.476   3.229   6.671 -2.0952 -1.3048 -0.5065
 2394SOL    HW218816   2.462   3.281   6.813 -1.8402  0.0418  0.4106
 2395SOL     OW18817   0.557   3.497   6.184 -0.4414 -0.2395 -0.0417
 2395SOL    HW118818   0.514   3.547   6.254  1.5485 -1.4151  2.0014
 2395SOL    HW218819   0.500   3.420   6.185  0.9657 -1.2851 -1.2735
 2396SOL     OW18820   3.478   0.551   3.883  0.1123 -0.1228 -0.0906
 2396SOL    HW118821   3.511   0.489   3.947  2.2590 -1.3462 -2.3423
 2396SOL    HW218822   3.470   0.490   3.809 -0.5528  0.2980 -0.3646
 2397SOL     OW18823   2.035   0.552   3.348 -0.3430  0.0670 -0.6221
 2397SOL    HW118824   2.071   0.500   3.275  3.3162  1.7340 -0.0198
 2397SOL    HW218825   1.982   0.483   3.387 -2.3562  1.7442 -0.4005
 2398SOL     OW18826   0.264   2.181  17.077  0.2045  0.4703 -0.3682
 2398SOL    HW118827   0.238   2.121  17.146  0.2765 -1.3269 -1.9094
 2398SOL    HW218828   0.268   2.260  17.131  0.6640  0.0946  0.1466
 2399SOL     OW18829   1.787   0.048   8.032  0.1330  0.0135  0.2510
 2399SOL    HW118830   1.738   0.130   8.032 -0.9907 -0.6548 -0.3650
 2399SOL    HW218831   1.716   4.730   8.004  0.0851  0.1225  0.1457
 2400SOL     OW18832   3.618   0.976   2.978 -0.0207  0.0718 -0.0039
 2400SOL    HW118833   3.571   1.004   2.899 -1.5993  2.6427  1.8655
 2400SOL    HW218834   3.655   0.894   2.946  2.0896  0.8537  0.4323
 2401SOL     OW18835   0.792   3.618   8.841  0.7000  0.1328 -0.0584
 2401SOL    HW118836   0.809   3.712   8.836  0.2360  0.2804  1.2015
 2401SOL    HW218837   0.697   3.618   8.834  0.9599 -3.7948 -3.2420
 2402SOL     OW18838   3.562   0.926  10.280 -0.0117 -0.1381 -0.4698
 2402SOL    HW118839   3.504   0.931  10.204 -0.8338  0.2641  0.1854
 2402SOL    HW218840   3.561   1.021  10.297  0.9499  0.1222 -1.8282
 2403SOL     OW18841   3.771   2.422   2.288  0.2349 -0.9143  0.1599
 2403SOL    HW118842   3.829   2.387   2.355  1.5589 -3.0811 -2.1204
 2403SOL    HW218843   3.821   2.394   2.211  1.8537  0.7944  0.5892
 2404SOL     OW18844   2.418   4.044  11.321 -0.2054 -0.7643  0.5463
 2404SOL    HW118845   2.439   3.982  11.390 -2.1540 -3.2843 -1.0780
 2404SOL    HW218846   2.487   4.024  11.258 -2.5175  0.4281 -2.4115
 2405SOL     OW18847   0.419   2.531   8.476  0.0926  0.5297 -0.0375
 2405SOL    HW118848   0.377   2.487   8.550  2.3889  0.4245  1.1964
 2405SOL    HW218849   0.454   2.609   8.520 -1.9477  1.2822  0.2644
 2406SOL     OW18850   1.857   1.247   4.354 -0.4219  0.4335 -0.3340
 2406SOL    HW118851   1.779   1.196   4.333  1.0588 -2.3257  0.8426
 2406SOL    HW218852   1.916   1.174   4.372 -2.7875 -1.8561 -1.8459
 2407SOL     OW18853   0.925   2.759   6.663 -0.3726 -0.1423 -0.0707
 2407SOL    HW118854   0.960   2.716   6.741  0.2015 -1.3285 -0.9893
 2407SOL    HW218855   0.977   2.715   6.596 -3.4091 -0.3101 -2.2953
 2408SOL     OW18856   0.321   0.559   3.949  0.2714 -0.1475  0.2429
 2408SOL    HW118857   0.275   0.617   3.889  0.0700 -0.6184 -0.0536
 2408SOL    HW218858   0.390   0.620   3.977  1.8189 -0.7327 -2.3078
 2409SOL     OW18859   2.747   4.195   2.091 -0.3716  0.1236 -0.3996
 2409SOL    HW118860   2.705   4.239   2.165  1.8775  0.7811  0.4780
 2409SOL    HW218861   2.727   4.105   2.117 -0.1974  0.5869  1.3333
 2410SOL     OW18862   1.191   4.496  11.166  0.3824 -0.0071 -0.2339
 2410SOL    HW118863   1.195   4.442  11.245  0.9959 -0.2805 -0.4498
 2410SOL    HW218864   1.140   4.575  11.182  2.0679  1.2188 -0.9580
 2411SOL     OW18865   0.353   0.224  15.904 -0.1597 -0.4421  0.0040
 2411SOL    HW118866   0.340   0.307  15.859 -0.4435 -0.8006 -0.5783
 2411SOL    HW218867   0.287   0.212  15.971  0.9998  0.9451  1.3893
 2412SOL     OW18868   3.362   2.932   2.329 -0.5954 -0.5110 -0.1435
 2412SOL    HW118869   3.399   2.909   2.244  1.6628  3.3834 -0.2140
 2412SOL    HW218870   3.415   2.876   2.386 -1.1072 -1.7079 -0.8234
 2413SOL     OW18871   4.068   0.533   8.168  0.5475 -0.5853 -0.1297
 2413SOL    HW118872   4.152   0.528   8.213  1.3225  0.9115 -1.3896
 2413SOL    HW218873   4.080   0.587   8.090  2.6604 -0.4434  0.2971
 2414SOL     OW18874   3.527   1.845   7.688 -0.1090  0.5458 -0.4760
 2414SOL    HW118875   3.436   1.841   7.717  0.1475 -0.7309  0.1246
 2414SOL    HW218876   3.526   1.820   7.596 -1.4983 -0.6591 -0.1305
 2415SOL     OW18877   2.224   0.010  14.486  0.2690 -0.3914  0.1789
 2415SOL    HW118878   2.235   4.674  14.545 -0.1790 -0.0269  0.7267
 2415SOL    HW218879   2.311   0.049  14.496  0.8012 -1.3338 -0.6852
 2416SOL     OW18880   1.895   3.625   7.752  0.2666 -0.5436  0.3390
 2416SOL    HW118881   1.903   3.598   7.844 -0.3935  0.2898  0.6418
 2416SOL    HW218882   1.983   3.598   7.725 -0.3170 -1.8580 -0.2555
 2417SOL     OW18883   0.479   3.146   6.590 -0.2636  0.4419 -0.0510
 2417SOL    HW118884   0.545   3.122   6.525  1.1998  0.8857  1.2778
 2417SOL    HW218885   0.524   3.215   6.638 -1.8883 -0.3236  2.5393
 2418SOL     OW18886   4.663   0.897   2.432  0.3932  0.0448  0.3944
 2418SOL    HW118887   4.669   0.951   2.353 -0.0907 -0.3992  0.0563
 2418SOL    HW218888   4.594   0.952   2.468 -0.2166 -0.8148  0.5583
 2419SOL     OW18889   0.094   0.526   3.340  0.0512  0.7051  0.1251
 2419SOL    HW118890   0.070   0.497   3.428  0.2835 -3.1425 -1.1210
 2419SOL    HW218891   0.028   0.477   3.291  2.9188 -2.0149 -0.9937
 2420SOL     OW18892   3.852   1.703  17.738  0.7044 -0.3269  0.2062
 2420SOL    HW118893   3.933   1.753  17.725 -1.2418  2.6105 -0.4885
 2420SOL    HW218894   3.792   1.770  17.706 -0.0678 -1.4425 -0.6975
 2421SOL     OW18895   1.671   1.957  12.149 -0.7338  0.0142 -0.2085
 2421SOL    HW118896   1.738   2.017  12.116 -1.3896 -0.0164 -1.6115
 2421SOL    HW218897   1.711   1.871  12.139  0.3946  0.7805 -2.2592
 2422SOL     OW18898   0.390   0.232   9.506 -0.9002 -0.5382 -0.1487
 2422SOL    HW118899   0.363   0.200   9.420 -1.0879  1.0958 -0.7060
 2422SOL    HW218900   0.435   0.313   9.482 -0.6152 -1.0143 -1.2130
 2423SOL     OW18901   0.466   3.257   8.673 -0.5483 -0.0248  0.3340
 2423SOL    HW118902   0.560   3.240   8.679 -0.7984 -1.2283  0.7578
 2423SOL    HW218903   0.445   3.220   8.588  0.1653  1.4141 -0.4633
 2424SOL     OW18904   1.794   0.428   7.778  0.1350 -0.0633 -0.3975
 2424SOL    HW118905   1.875   0.387   7.747  0.1062 -0.4332  0.0108
 2424SOL    HW218906   1.826   0.507   7.820 -0.8967 -1.5253  3.1155
 2425SOL     OW18907   0.232   4.482   5.912 -0.5701  0.3343  0.0711
 2425SOL    HW118908   0.262   4.506   6.000 -2.3850  0.4059  0.6708
 2425SOL    HW218909   0.140   4.469   5.938 -1.2038  2.7413 -0.9687
 2426SOL     OW18910   3.037   4.104   3.388 -0.0039  0.0533 -0.6874
 2426SOL    HW118911   2.946   4.097   3.418 -0.0942  1.9311 -0.5316
 2426SOL    HW218912   3.050   4.198   3.379  3.5456 -0.2907  0.5759
 2427SOL     OW18913   1.836   1.512   3.705  0.4982 -0.3073 -0.0359
 2427SOL    HW118914   1.837   1.426   3.747 -0.0144  0.8957  2.4562
 2427SOL    HW218915   1.885   1.575   3.758  1.6723 -0.8928 -0.4276
 2428SOL     OW18916   1.515   3.735   3.439 -0.1943 -0.1488 -0.0937
 2428SOL    HW118917   1.504   3.804   3.504 -0.0443  0.2555 -0.5023
 2428SOL    HW218918   1.428   3.703   3.416 -0.9088  0.8132  1.2988
 2429SOL     OW18919   3.761   0.945   4.353  0.4893  0.5976 -0.4597
 2429SOL    HW118920   3.677   0.990   4.355  0.0980 -0.1837  1.0390
 2429SOL    HW218921   3.734   0.857   4.379  0.7034 -0.2902 -3.2381
 2430SOL     OW18922   1.439   2.730   1.218 -0.3290 -0.3831  0.0777
 2430SOL    HW118923   1.491   2.662   1.260  0.4609  1.5340  2.2200
 2430SOL    HW218924   1.503   2.783   1.170 -0.5219 -0.5289 -0.3453
 2431SOL     OW18925   2.627   4.515   6.718  0.4317 -0.5656 -0.1722
 2431SOL    HW118926   2.670   4.520   6.632  0.3731  0.7288 -0.1286
 2431SOL    HW218927   2.703   4.503   6.774 -0.0848  0.8204  0.8514
 2432SOL     OW18928   1.885   1.069   5.785  0.6358  0.0357  0.2157
 2432SOL    HW118929   1.917   1.135   5.847 -0.9014 -0.7425  1.8191
 2432SOL    HW218930   1.964   1.043   5.738  0.0434  0.3305 -0.9519
 2433SOL     OW18931   0.032   0.844   8.021 -0.3161  0.2057 -0.1661
 2433SOL    HW118932   4.706   0.859   7.952 -1.8119 -0.7694  1.0430
 2433SOL    HW218933   0.061   0.754   8.008 -0.6556  0.0022  0.4902
 2434SOL     OW18934   1.403   3.513   2.774  0.8434 -0.0049  0.0057
 2434SOL    HW118935   1.309   3.501   2.785  0.8975  0.4809  1.0387
 2434SOL    HW218936   1.421   3.488   2.683 -1.5017 -1.5109 -0.0221
 2435SOL     OW18937   0.897   0.138  15.537  0.1997  0.6081  0.3751
 2435SOL    HW118938   0.877   0.093  15.455 -0.4812 -0.7368  1.2693
 2435SOL    HW218939   0.814   0.123  15.583  1.1215 -1.1374  1.4718
 2436SOL     OW18940   3.017   0.867  13.817  0.8575  0.3242  0.0724
 2436SOL    HW118941   2.933   0.905  13.842 -0.2923 -2.5972  0.6220
 2436SOL    HW218942   3.067   0.945  13.793  1.0328  0.7024  1.6751
 2437SOL     OW18943   1.400   0.323  14.392 -0.7857  0.2846  0.1838
 2437SOL    HW118944   1.471   0.361  14.442 -0.9809 -2.3279  2.4402
 2437SOL    HW218945   1.416   0.369  14.309  0.5951  3.1467  2.0558
 2438SOL     OW18946   1.832   1.109   3.085  0.0168  0.4097 -0.4635
 2438SOL    HW118947   1.794   1.024   3.060 -2.3245  0.6870  2.1586
 2438SOL    HW218948   1.833   1.083   3.177  0.8372 -0.0481 -0.6049
 2439SOL     OW18949   1.445   4.497   8.428 -0.4422  0.5038 -0.3649
 2439SOL    HW118950   1.505   4.542   8.369  0.3198 -0.1491 -0.0807
 2439SOL    HW218951   1.493   4.481   8.509 -0.7035 -0.5591 -0.4187
 2440SOL     OW18952   1.165   2.808  13.941 -0.3051  0.3674 -0.5781
 2440SOL    HW118953   1.167   2.714  13.923 -0.5083  0.4249 -0.8945
 2440SOL    HW218954   1.157   2.815  14.036 -1.6507  1.4086 -0.7731
 2441SOL     OW18955   0.279   0.946  13.221  0.4010 -0.2572  0.4736
 2441SOL    HW118956   0.219   1.021  13.221  2.3517  1.2966 -0.8077
 2441SOL    HW218957   0.341   0.968  13.151 -2.4929  0.7014 -1.7791
 2442SOL     OW18958   0.950   1.391   3.720  0.1397  0.5281 -0.5135
 2442SOL    HW118959   1.020   1.373   3.783 -0.9994 -1.7923  0.0631
 2442SOL    HW218960   0.882   1.414   3.783 -1.0785 -1.6922 -1.0512
 2443SOL     OW18961   0.852   3.021   3.493  0.2728 -0.0410  0.0479
 2443SOL    HW118962   0.827   3.051   3.405  1.3616 -1.6179 -0.7956
 2443SOL    HW218963   0.798   2.945   3.517  0.7839 -0.2954  0.3954
 2444SOL     OW18964   2.260   2.879   2.145  0.1594  0.3778 -0.3784
 2444SOL    HW118965   2.271   2.958   2.093  0.2106  1.0262  0.6214
 2444SOL    HW218966   2.351   2.853   2.161  0.1612  0.1345 -0.7651
 2445SOL     OW18967   3.967   1.351   8.939 -0.4433  0.1968  0.9315
 2445SOL    HW118968   4.059   1.367   8.960 -0.4511  2.0598 -0.4676
 2445SOL    HW218969   3.949   1.259   8.957  0.8122  0.2452  2.4418
 2446SOL     OW18970   0.694   0.065   4.734 -0.2669  0.1706 -0.2287
 2446SOL    HW118971   0.711   0.125   4.661 -1.2725 -0.5078 -1.0093
 2446SOL    HW218972   0.622   0.006   4.714  0.8664 -0.8446 -1.3263
 2447SOL     OW18973   0.441   1.727   7.198  0.0277 -0.3309 -0.2855
 2447SOL    HW118974   0.455   1.741   7.291 -2.8113  0.1914  0.0503
 2447SOL    HW218975   0.375   1.659   7.189  0.7379 -0.9346 -0.9968
 2448SOL     OW18976   4.148   1.459  13.897  0.0443 -0.0511  0.3524
 2448SOL    HW118977   4.100   1.520  13.842  0.7910  0.4728  0.2796
 2448SOL    HW218978   4.102   1.448  13.980 -2.0740 -0.3210 -0.8768
 2449SOL     OW18979   4.687   4.330   4.483 -0.1038 -0.5709 -0.2482
 2449SOL    HW118980   4.593   4.344   4.490 -0.1954 -0.6455 -1.2729
 2449SOL    HW218981   4.688   4.236   4.465  0.9261 -0.4445 -0.8893
 2450SOL     OW18982   1.798   3.860  12.200 -0.2926 -0.4714  0.1341
 2450SOL    HW118983   1.815   3.868  12.294  0.9479 -1.2641 -0.0304
 2450SOL    HW218984   1.824   3.944  12.162  0.6682 -1.3076 -1.0204
 2451SOL     OW18985   4.060   4.285  12.429  0.4210  0.0463  0.1969
 2451SOL    HW118986   4.014   4.210  12.392  1.7174 -1.1695  1.0432
 2451SOL    HW218987   4.030   4.287  12.520  0.4086  0.2983  0.1880
 2452SOL     OW18988   3.525   3.275  12.110  0.6648 -0.0764 -0.8255
 2452SOL    HW118989   3.470   3.349  12.134  1.9961  0.7454 -0.3205
 2452SOL    HW218990   3.500   3.213  12.179 -1.2426  1.4630 -0.1441
 2453SOL     OW18991   1.378   4.477   3.018 -0.3554 -0.0283 -0.2750
 2453SOL    HW118992   1.308   4.524   2.972  0.7810  0.9199 -1.0554
 2453SOL    HW218993   1.354   4.514   3.103 -0.3132  0.6268 -0.5436
 2454SOL     OW18994   1.293   3.101  16.736 -0.1508  0.1935  0.1788
 2454SOL    HW118995   1.340   3.151  16.669 -1.0779  0.8647  0.0412
 2454SOL    HW218996   1.210   3.149  16.740  0.4927  1.2492  1.0438
 2455SOL     OW18997   3.140   4.571   6.361  0.7058 -0.1168  0.2395
 2455SOL    HW118998   3.196   4.554   6.285 -1.9224 -2.3581 -1.2041
 2455SOL    HW218999   3.086   4.493   6.371  2.2522 -1.0777  0.9940
 2456SOL     OW19000   0.164   1.621   6.287 -0.5935 -0.1020 -0.1880
 2456SOL    HW119001   0.234   1.644   6.226  0.2075  0.8425  1.0785
 2456SOL    HW219002   0.178   1.527   6.294  0.7468  0.0727 -0.6085
 2457SOL     OW19003   0.626   1.829   9.230  0.3021  0.0533 -0.2789
 2457SOL    HW119004   0.717   1.846   9.255  0.6266 -2.1350  0.0573
 2457SOL    HW219005   0.636   1.817   9.136 -1.2045 -0.0630 -0.4260
 2458SOL     OW19006   2.267   4.098   1.003  0.1639 -0.5592 -0.7571
 2458SOL    HW119007   2.183   4.117   1.046  0.9107  1.4590 -0.1759
 2458SOL    HW219008   2.317   4.179   1.010 -0.0943 -0.7447  3.3832
 2459SOL     OW19009   2.526   2.514   9.631 -0.1382  0.0918  0.8289
 2459SOL    HW119010   2.537   2.530   9.724 -1.5482  2.7040  0.5571
 2459SOL    HW219011   2.618   2.496   9.610 -0.3040  1.4888 -1.1669
 2460SOL     OW19012   4.427   3.578   5.788  0.4461  0.3194  0.1517
 2460SOL    HW119013   4.455   3.656   5.837 -0.2039  1.9241 -2.0456
 2460SOL    HW219014   4.366   3.541   5.851 -3.1105  3.1390 -1.6364
 2461SOL     OW19015   3.555   2.941   8.467 -0.2106  0.4834  0.3918
 2461SOL    HW119016   3.534   3.019   8.416 -0.7770  0.8911  1.2473
 2461SOL    HW219017   3.644   2.971   8.490  0.6761  0.2584 -2.8177
 2462SOL     OW19018   2.909   3.140   7.719  0.2061 -0.3254  0.2051
 2462SOL    HW119019   2.986   3.183   7.682  0.2767 -0.2065  0.4850
 2462SOL    HW219020   2.903   3.062   7.664  0.8226  0.5235 -1.0832
 2463SOL     OW19021   3.908   3.677   2.185 -0.2304 -0.3929 -0.1183
 2463SOL    HW119022   3.900   3.703   2.277 -2.3041 -0.6094 -0.2266
 2463SOL    HW219023   3.942   3.756   2.144 -1.3551  0.8500  1.3234
 2464SOL     OW19024   4.654   0.374   6.153 -0.0156 -0.1510 -0.3710
 2464SOL    HW119025   4.631   0.314   6.082 -2.7615 -0.2525  0.6100
 2464SOL    HW219026   4.734   0.336   6.190  0.0898  0.4591  0.0248
 2465SOL     OW19027   3.872   2.417   8.332  0.2388  0.3832  0.0440
 2465SOL    HW119028   3.887   2.481   8.263  0.5061  2.4469  1.9959
 2465SOL    HW219029   3.783   2.382   8.327  0.6601 -0.6009 -0.5717
 2466SOL     OW19030   1.912   3.555   8.257 -0.5480 -0.2005  0.1422
 2466SOL    HW119031   1.915   3.460   8.262  4.3895 -0.0900 -0.5180
 2466SOL    HW219032   1.911   3.578   8.350 -1.7331 -1.5136  0.4466
 2467SOL     OW19033   1.124   3.167   0.102  0.2196 -0.1205 -0.6340
 2467SOL    HW119034   1.128   3.254   0.061 -0.2116  0.0329 -0.3482
 2467SOL    HW219035   1.206   3.127   0.071  0.2588  0.8228 -1.7567
 2468SOL     OW19036   0.052   1.762   3.101  0.8109  0.0087 -0.1443
 2468SOL    HW119037   0.111   1.766   3.176 -0.1963  1.3410  0.5763
 2468SOL    HW219038   0.023   1.671   3.108  1.7333 -0.1335  1.8752
 2469SOL     OW19039   0.972   0.816   8.625 -0.0218  0.5556  0.6824
 2469SOL    HW119040   0.991   0.791   8.534 -0.2343 -0.9651  1.0525
 2469SOL    HW219041   1.013   0.751   8.683  1.2802  0.1443 -0.6875
 2470SOL     OW19042   1.713   2.386  14.318 -0.0527  0.5747  0.5347
 2470SOL    HW119043   1.709   2.458  14.254 -4.5050 -0.4842 -0.4045
 2470SOL    HW219044   1.622   2.355  14.317 -0.7911  2.7844 -2.8684
 2471SOL     OW19045   3.690   4.325   1.677 -0.0259  0.4705  0.3588
 2471SOL    HW119046   3.612   4.309   1.729  0.7771 -0.9868  1.1273
 2471SOL    HW219047   3.655   4.372   1.601  0.5813 -2.7929 -1.9095
 2472SOL     OW19048   2.849   0.337  13.144  0.3262 -0.5912  0.2310
 2472SOL    HW119049   2.808   0.261  13.104  1.2206 -1.1105  0.3027
 2472SOL    HW219050   2.937   0.302  13.159  0.8344  0.0686 -1.1655
 2473SOL     OW19051   0.884   3.581   1.865 -0.5582  0.7028 -0.5236
 2473SOL    HW119052   0.949   3.520   1.831 -0.2495  0.3019  0.7493
 2473SOL    HW219053   0.805   3.529   1.850 -0.7958  0.2845  2.0360
 2474SOL     OW19054   2.675   1.282   5.970 -0.1332 -0.2032  0.0425
 2474SOL    HW119055   2.612   1.274   6.042  0.1540 -1.4802  0.1546
 2474SOL    HW219056   2.694   1.376   5.972 -3.3324  0.4785 -0.8710
 2475SOL     OW19057   1.135   1.368  14.131  0.1140 -0.4352 -0.6956
 2475SOL    HW119058   1.119   1.275  14.115  0.2063 -0.6166  0.3062
 2475SOL    HW219059   1.110   1.377  14.223  1.2968  0.5087 -0.4719
 2476SOL     OW19060   0.046   3.617   9.208  0.3167 -0.5774 -0.4728
 2476SOL    HW119061   0.076   3.615   9.298  0.2203  1.8694 -0.3921
 2476SOL    HW219062   0.106   3.687   9.181  2.3495 -2.9328 -2.1311
 2477SOL     OW19063   2.018   3.853   4.867 -0.4401  0.7690  0.4363
 2477SOL    HW119064   2.044   3.894   4.784 -0.1073  2.5082  1.4103
 2477SOL    HW219065   1.950   3.910   4.902 -1.4891 -0.5116  0.4889
 2478SOL     OW19066   3.278   0.772   6.560 -0.4777 -0.2313 -0.0579
 2478SOL    HW119067   3.268   0.688   6.515  0.3105  0.2930 -1.2024
 2478SOL    HW219068   3.275   0.832   6.485  2.4754 -0.4655 -0.3690
 2479SOL     OW19069   3.099   2.479   7.436  0.0271  0.0984  0.1049
 2479SOL    HW119070   3.177   2.440   7.398 -0.5993 -0.5784 -0.4749
 2479SOL    HW219071   3.120   2.572   7.425 -0.2377  0.0441 -0.8897
 2480SOL     OW19072   1.126   1.797  15.585  0.2971  0.2362  0.6395
 2480SOL    HW119073   1.198   1.735  15.595  1.5825  1.8011  0.9075
 2480SOL    HW219074   1.139   1.855  15.660 -1.2347  0.7992  0.4798
 2481SOL     OW19075   3.076   1.536   2.430  1.0384  0.0503  0.1349
 2481SOL    HW119076   3.169   1.520   2.446  0.9691 -0.6236 -0.1516
 2481SOL    HW219077   3.071   1.492   2.345 -0.0042  1.0115 -0.3023
 2482SOL     OW19078   3.635   1.225  13.723  0.3015  0.2007  0.0486
 2482SOL    HW119079   3.622   1.160  13.792  2.3145 -1.1189 -0.8406
 2482SOL    HW219080   3.695   1.287  13.763  1.1192 -0.7990  0.3712
 2483SOL     OW19081   2.257   3.324   9.729  0.5403 -0.1833  0.9338
 2483SOL    HW119082   2.266   3.314   9.635 -1.4826 -0.2359  0.7484
 2483SOL    HW219083   2.221   3.238   9.754 -0.9323 -0.1582 -1.0945
 2484SOL     OW19084   0.418   2.980   9.380 -0.0671  0.0550 -0.0227
 2484SOL    HW119085   0.443   3.042   9.312 -1.9030  0.3953 -0.3995
 2484SOL    HW219086   0.498   2.932   9.399 -1.8392 -3.1947 -0.7468
 2485SOL     OW19087   2.553   0.123   0.708 -0.1600 -0.7980 -0.4547
 2485SOL    HW119088   2.488   0.075   0.759  0.3446  0.7324  1.6170
 2485SOL    HW219089   2.499   0.136   0.630 -0.2570  2.2884  0.1325
 2486SOL     OW19090   4.698   1.294   3.502  0.6490  0.2276  0.2991
 2486SOL    HW119091   4.639   1.307   3.428  2.1774 -1.6599 -1.2612
 2486SOL    HW219092   0.030   1.346   3.465  0.3615  0.0644 -0.5022
 2487SOL     OW19093   2.143   2.678   3.058 -0.0707  0.1913  0.0614
 2487SOL    HW119094   2.157   2.584   3.069  0.4069  0.5575  2.6084
 2487SOL    HW219095   2.126   2.709   3.147  0.4451  0.3011  0.1219
 2488SOL     OW19096   1.907   2.409  15.159 -1.0713  0.3585  0.0667
 2488SOL    HW119097   1.851   2.336  15.133  0.3808 -1.5824  2.4949
 2488SOL    HW219098   1.937   2.430  15.070 -1.2601  1.4657  0.2651
 2489SOL     OW19099   3.934   2.198   1.409 -0.7442  0.3595  0.1697
 2489SOL    HW119100   3.999   2.168   1.346 -3.5539 -0.1322 -2.4878
 2489SOL    HW219101   3.852   2.153   1.388 -1.4269  1.9866 -0.6705
 2490SOL     OW19102   0.467   0.663   1.998  0.0742 -0.3990  0.0001
 2490SOL    HW119103   0.441   0.666   2.090  0.4483 -2.1141  0.1669
 2490SOL    HW219104   0.391   0.715   1.973  0.2640 -0.9147 -1.6568
 2491SOL     OW19105   3.229   1.022   2.361 -0.0760 -0.2787  0.2533
 2491SOL    HW119106   3.304   0.968   2.337  0.8211  0.5390  1.2403
 2491SOL    HW219107   3.158   0.964   2.332  1.4677 -2.0655  0.0160
 2492SOL     OW19108   1.540   0.940   1.941  0.3385 -0.0394  0.7886
 2492SOL    HW119109   1.453   0.955   1.980  0.3384  1.1607  0.3232
 2492SOL    HW219110   1.524   0.923   1.848 -1.2450  0.6750  0.9263
 2493SOL     OW19111   0.993   0.956   9.911  0.2708 -0.0384 -0.5481
 2493SOL    HW119112   1.083   0.941   9.882  0.5061  3.0404 -1.3896
 2493SOL    HW219113   0.974   0.862   9.912 -0.2403  0.1201  2.2321
 2494SOL     OW19114   2.669   4.022   2.303  0.4024  0.3037 -0.1900
 2494SOL    HW119115   2.586   4.068   2.301 -0.1375 -0.7860 -2.5748
 2494SOL    HW219116   2.652   3.929   2.288 -1.3885  0.3389  1.6681
 2495SOL     OW19117   1.165   2.656   2.407  0.0543 -0.1917  0.9676
 2495SOL    HW119118   1.162   2.750   2.420  1.6672 -0.0190  0.0776
 2495SOL    HW219119   1.113   2.648   2.327 -0.7280 -0.2702  1.4865
 2496SOL     OW19120   1.319   3.865   2.577 -0.0182  0.7294 -0.2901
 2496SOL    HW119121   1.385   3.838   2.641 -0.0547  0.5623 -0.3225
 2496SOL    HW219122   1.233   3.832   2.605 -0.3313  1.4998 -0.3528
 2497SOL     OW19123   2.429   4.139   3.887 -0.1649 -0.5342  0.3671
 2497SOL    HW119124   2.447   4.124   3.794 -2.9484  0.5660 -0.3381
 2497SOL    HW219125   2.497   4.204   3.906  1.0254 -1.5785 -0.2755
 2498SOL     OW19126   3.917   2.300   0.580  1.0488  0.1613 -0.1232
 2498SOL    HW119127   3.938   2.389   0.553  1.0418  0.9137  2.3497
 2498SOL    HW219128   3.824   2.292   0.558  0.9603  0.2676  0.2028
 2499SOL     OW19129   0.304   1.293   8.430  0.9051 -0.6412 -0.8768
 2499SOL    HW119130   0.249   1.216   8.445 -1.5642  1.3359  0.1083
 2499SOL    HW219131   0.344   1.283   8.344 -0.7820 -0.8306 -1.6274
 2500SOL     OW19132   2.310   2.939   7.985  0.2089  0.2760  0.4981
 2500SOL    HW119133   2.315   2.949   7.890  0.1611 -0.6375  0.3989
 2500SOL    HW219134   2.369   2.866   8.004 -0.0762 -0.1721 -0.3479
 2501SOL     OW19135   3.752   4.160  12.415  0.6528 -0.1179 -0.3689
 2501SOL    HW119136   3.690   4.090  12.395 -0.9076  1.2887 -0.4030
 2501SOL    HW219137   3.719   4.239  12.373  1.8181  0.4357 -0.2322
 2502SOL     OW19138   0.239   3.106   1.453  0.2711 -0.0832  0.1404
 2502SOL    HW119139   0.175   3.137   1.389  1.0337  1.7030  0.2502
 2502SOL    HW219140   0.239   3.173   1.522  0.7362 -0.9956  1.0408
 2503SOL     OW19141   0.877   0.026   7.492 -0.1622 -0.1210  0.4599
 2503SOL    HW119142   0.860   0.120   7.490  1.1674  0.0536 -2.8019
 2503SOL    HW219143   0.852   0.011   7.583  0.2855 -1.0027  0.4318
 2504SOL     OW19144   0.985   1.195   8.281 -0.1572 -0.4793 -0.3290
 2504SOL    HW119145   0.970   1.116   8.334 -2.4309 -0.5830 -1.1393
 2504SOL    HW219146   1.023   1.258   8.343 -1.2791  1.6716 -1.8553
 2505SOL     OW19147   2.733   1.269  10.276  0.0251  0.0977 -0.5669
 2505SOL    HW119148   2.764   1.318  10.199 -1.4562  0.6280 -0.8315
 2505SOL    HW219149   2.649   1.311  10.296  0.2007  0.0585  0.2219
 2506SOL     OW19150   2.290   3.178  11.092 -0.3000 -0.0808  0.1982
 2506SOL    HW119151   2.267   3.086  11.081  1.2003 -0.5317  0.7023
 2506SOL    HW219152   2.287   3.205  11.000 -0.8214 -1.1519 -0.0875
 2507SOL     OW19153   1.770   4.011  11.446  0.3847  0.0732  0.5194
 2507SOL    HW119154   1.815   3.930  11.422 -1.2873  0.2848 -3.2625
 2507SOL    HW219155   1.839   4.074  11.427  0.0495  0.4299  0.4868
 2508SOL     OW19156   3.787   2.685   7.845 -0.1196  0.0915  0.0685
 2508SOL    HW119157   3.736   2.641   7.776 -1.6806  0.1971  1.1597
 2508SOL    HW219158   3.873   2.697   7.805 -1.6575  1.4512 -2.8198
 2509SOL     OW19159   3.552   3.547  11.115 -0.4259 -0.4494  0.2209
 2509SOL    HW119160   3.530   3.637  11.137  0.6245 -0.0994 -0.1811
 2509SOL    HW219161   3.485   3.515  11.055 -0.2849  0.7050 -0.5407
 2510SOL     OW19162   3.937   3.570  10.641  0.4587 -0.0587 -0.2206
 2510SOL    HW119163   3.987   3.565  10.722  0.7214  1.1111 -0.3064
 2510SOL    HW219164   3.893   3.486  10.631  0.4961 -0.3680  2.1612
 2511SOL     OW19165   4.214   3.074   1.485 -0.0292  0.1940 -0.2616
 2511SOL    HW119166   4.152   3.085   1.556  0.2955 -0.4213  0.1125
 2511SOL    HW219167   4.251   2.988   1.503 -1.2623  0.1075  1.7982
 2512SOL     OW19168   0.513   0.747   3.981  0.0783  0.4323  0.0787
 2512SOL    HW119169   0.506   0.750   4.077 -0.1549  1.7163  0.0247
 2512SOL    HW219170   0.515   0.842   3.968 -1.6180  0.5056  0.3790
 2513SOL     OW19171   3.549   0.205   3.149 -0.3125 -0.5862  0.2535
 2513SOL    HW119172   3.583   0.294   3.144 -1.6094 -0.1951 -1.5886
 2513SOL    HW219173   3.492   0.215   3.225  1.4179 -1.1593  1.6233
 2514SOL     OW19174   0.159   1.120   3.168  0.0067 -0.0929 -0.0979
 2514SOL    HW119175   0.235   1.170   3.199 -1.2443  0.9535  1.2766
 2514SOL    HW219176   0.157   1.144   3.075 -0.2863  0.0221 -0.0641
 2515SOL     OW19177   3.860   0.811   2.144  0.0505  0.5548 -0.4932
 2515SOL    HW119178   3.889   0.901   2.158 -1.9168  0.6930  2.5803
 2515SOL    HW219179   3.941   0.759   2.141 -0.5797 -0.4730  0.2463
 2516SOL     OW19180   4.234   3.907   3.674 -0.1718  0.0738  0.2572
 2516SOL    HW119181   4.175   3.926   3.602 -0.0068 -0.4595 -0.0146
 2516SOL    HW219182   4.320   3.936   3.643 -0.7574 -0.8615 -2.2537
 2517SOL     OW19183   0.477   3.088   8.203 -0.9031  0.0814  0.2168
 2517SOL    HW119184   0.528   3.158   8.243  0.4274 -1.4079  1.0979
 2517SOL    HW219185   0.500   3.102   8.111  0.0415  0.8655  0.5779
 2518SOL     OW19186   3.926   2.690   2.081  0.3940 -0.6309 -0.2654
 2518SOL    HW119187   3.888   2.664   2.165  0.7119  0.5401  0.2403
 2518SOL    HW219188   4.016   2.659   2.081  0.7916  0.5360  1.1255
 2519SOL     OW19189   1.402   1.001   9.079  0.5907  0.1255 -0.1336
 2519SOL    HW119190   1.331   0.982   9.018  0.7936 -0.2349 -0.2616
 2519SOL    HW219191   1.400   1.096   9.067  1.3399  0.2387  0.6087
 2520SOL     OW19192   3.570   1.719   1.045 -0.0879  0.0135 -0.1268
 2520SOL    HW119193   3.546   1.650   0.983 -2.2900  1.8243 -1.3241
 2520SOL    HW219194   3.595   1.800   1.001  3.3273 -0.6196  0.6980
 2521SOL     OW19195   3.428   2.999   3.859  0.5075 -0.0770 -0.0845
 2521SOL    HW119196   3.388   2.952   3.786 -2.8887  0.9093  1.1248
 2521SOL    HW219197   3.459   3.076   3.812 -0.5331  0.5648  0.2711
 2522SOL     OW19198   1.959   1.759   0.514  0.1183  0.0378  0.5772
 2522SOL    HW119199   2.052   1.750   0.531  0.1274  0.6856  0.8732
 2522SOL    HW219200   1.921   1.720   0.592  2.3148 -2.8939  0.1977
 2523SOL     OW19201   4.502   3.577   8.628 -0.3602  0.5447 -0.1795
 2523SOL    HW119202   4.417   3.594   8.668 -0.6126 -1.1024  0.0018
 2523SOL    HW219203   4.565   3.597   8.698 -1.2911  0.0706  0.7916
 2524SOL     OW19204   4.683   1.740   7.994 -0.2847  0.0073  0.2298
 2524SOL    HW119205   4.729   1.821   8.016 -0.2329  0.0108  0.1080
 2524SOL    HW219206   0.019   1.694   7.958 -1.6122 -2.7299  0.9417
 2525SOL     OW19207   4.655   3.329   6.692  0.2214  0.2059  0.3157
 2525SOL    HW119208   4.703   3.247   6.706  2.0119  0.9636 -1.4361
 2525SOL    HW219209   4.666   3.341   6.598  0.5438 -1.8214  0.0966
 2526SOL     OW19210   3.327   4.318   5.877 -0.1406  0.1822  0.1124
 2526SOL    HW119211   3.297   4.253   5.813  1.3585  0.2859 -0.6994
 2526SOL    HW219212   3.353   4.390   5.820  3.5660  1.0788  2.9790
 2527SOL     OW19213   3.425   1.980   4.087  0.3119  0.6697  0.8126
 2527SOL    HW119214   3.403   2.070   4.112  1.2839  1.0178  0.4272
 2527SOL    HW219215   3.337   1.942   4.090  1.9890 -3.1806  0.8675
 2528SOL     OW19216   4.218   1.942   1.559  0.6552  0.3426  0.0725
 2528SOL    HW119217   4.188   1.884   1.489 -0.3279  1.0900 -0.1276
 2528SOL    HW219218   4.295   1.968   1.509 -0.8411  2.8557 -0.9158
 2529SOL     OW19219   4.224   4.211   5.958 -0.0423  0.0117  0.0859
 2529SOL    HW119220   4.203   4.163   5.877  0.8820  0.1862 -0.2602
 2529SOL    HW219221   4.256   4.293   5.920 -1.5838 -0.1590 -1.6317
 2530SOL     OW19222   1.070   1.117  14.056  0.2847  0.2471 -0.2848
 2530SOL    HW119223   1.072   1.035  14.105  1.1979 -0.6536 -1.8148
 2530SOL    HW219224   1.052   1.098  13.963  0.9842  3.1647 -1.0076
 2531SOL     OW19225   4.199   0.994   8.983 -0.3975 -0.6832  0.7235
 2531SOL    HW119226   4.245   0.955   9.058  0.2801 -1.1890  0.0488
 2531SOL    HW219227   4.274   1.006   8.925 -0.7122 -2.3403 -0.0000
 2532SOL     OW19228   2.830   1.125   5.318 -0.0630 -0.1530 -0.3536
 2532SOL    HW119229   2.903   1.097   5.262  0.1086  0.0166 -0.2138
 2532SOL    HW219230   2.836   1.220   5.316  1.2255 -0.1963  0.8839
 2533SOL     OW19231   4.047   1.324   2.989 -0.5094  0.5973  0.1252
 2533SOL    HW119232   3.980   1.270   3.031  0.5462 -1.3246 -0.6525
 2533SOL    HW219233   4.074   1.275   2.911 -0.0544  1.1407 -0.0625
 2534SOL     OW19234   1.162   0.223  13.862  0.2353 -0.3566  0.4228
 2534SOL    HW119235   1.146   0.189  13.774  1.0063  2.5835 -0.8541
 2534SOL    HW219236   1.101   0.164  13.907  0.4824  0.8433  2.3010
 2535SOL     OW19237   0.980   3.451  13.538  0.4395 -0.7957 -0.1893
 2535SOL    HW119238   0.952   3.524  13.482 -1.3867  0.7347  2.6978
 2535SOL    HW219239   1.061   3.496  13.560 -0.6592  1.2655 -0.3625
 2536SOL     OW19240   3.299   0.165   8.587  0.2743 -0.2326 -0.2647
 2536SOL    HW119241   3.256   0.213   8.516 -1.3954  0.3438  1.1374
 2536SOL    HW219242   3.361   0.236   8.601 -1.5851  0.9721  1.8180
 2537SOL     OW19243   1.055   2.695   7.292 -0.0005 -0.2703  0.1302
 2537SOL    HW119244   1.101   2.765   7.337  1.3652 -1.3242  0.3630
 2537SOL    HW219245   1.011   2.747   7.224  0.8913  0.7913  0.3654
 2538SOL     OW19246   1.543   4.297   3.908 -0.1545  0.0067  0.1335
 2538SOL    HW119247   1.595   4.299   3.988  0.3087  2.7201 -0.2164
 2538SOL    HW219248   1.470   4.245   3.940 -1.2956  0.1104 -2.3023
 2539SOL     OW19249   1.492   0.425  14.147  0.7070 -0.5874 -0.5106
 2539SOL    HW119250   1.587   0.417  14.147  0.7220 -0.4098 -1.2579
 2539SOL    HW219251   1.467   0.487  14.079  1.1307  0.9116  0.7093
 2540SOL     OW19252   2.168   2.937  10.982 -0.1738 -0.5567 -0.2751
 2540SOL    HW119253   2.231   2.871  10.954  1.3134  0.2631  1.1892
 2540SOL    HW219254   2.097   2.933  10.918 -0.5367  2.1148 -0.0697
 2541SOL     OW19255   0.558   3.310  11.840 -0.1890 -0.0819  0.1537
 2541SOL    HW119256   0.475   3.356  11.825 -0.6107 -0.4504  1.4024
 2541SOL    HW219257   0.524   3.239  11.894  0.1828 -1.1161 -0.9726
 2542SOL     OW19258   1.722   4.400  14.855  0.1345 -0.1265 -0.5530
 2542SOL    HW119259   1.654   4.416  14.789  0.4135 -3.1576 -1.5741
 2542SOL    HW219260   1.753   4.491  14.848 -4.0285  1.4233  1.1567
 2543SOL     OW19261   1.599   0.137   6.506  0.5908 -0.0891  0.1853
 2543SOL    HW119262   1.656   0.187   6.447 -0.1744  0.1686 -0.3448
 2543SOL    HW219263   1.647   0.175   6.579  1.0621 -0.1022 -0.1184
 2544SOL     OW19264   2.342   4.497   3.530 -0.5618  0.4312 -0.2353
 2544SOL    HW119265   2.324   4.408   3.498  2.1097  0.3899 -1.6051
 2544SOL    HW219266   2.435   4.501   3.509 -0.5882  1.9079 -0.0548
 2545SOL     OW19267   3.432   4.292   8.633  0.0560 -0.1769 -0.5087
 2545SOL    HW119268   3.492   4.279   8.559  1.6071  1.3294  0.5155
 2545SOL    HW219269   3.448   4.217   8.690 -0.1699 -0.9351 -1.4250
 2546SOL     OW19270   2.085   2.783   9.103 -0.1862 -0.0337 -0.1210
 2546SOL    HW119271   2.129   2.857   9.144 -1.1304  0.4412  0.0462
 2546SOL    HW219272   2.014   2.768   9.166  0.0230  2.2255  0.6408
 2547SOL     OW19273   4.698   2.398   4.781 -0.5393  0.2322 -0.1168
 2547SOL    HW119274   4.690   2.491   4.761  0.4529  0.7886  2.0556
 2547SOL    HW219275   4.684   2.409   4.875  0.8698  0.6569  0.0366
 2548SOL     OW19276   2.185   3.997   3.622 -0.6150  0.2358 -0.3919
 2548SOL    HW119277   2.270   4.026   3.655 -0.6276  0.7004 -0.7550
 2548SOL    HW219278   2.196   3.979   3.528 -0.4470  1.9946 -0.7110
 2549SOL     OW19279   1.024   4.342   8.233 -0.1809 -0.0856 -0.1027
 2549SOL    HW119280   1.093   4.291   8.277 -0.7466  0.4239  1.3722
 2549SOL    HW219281   0.943   4.292   8.245 -0.9172  1.4669  1.2827
 2550SOL     OW19282   3.595   4.380   3.962 -0.0797 -0.2765 -0.2658
 2550SOL    HW119283   3.547   4.445   3.911  0.4486  1.1902  1.0916
 2550SOL    HW219284   3.683   4.397   3.929  0.7199 -1.3435  1.3273
 2551SOL     OW19285   0.129   0.075   6.037  0.2955 -0.3190 -0.4361
 2551SOL    HW119286   0.148   0.079   5.943 -1.2380  0.2323 -0.7201
 2551SOL    HW219287   0.205   0.114   6.081 -0.4188 -0.1859  0.6857
 2552SOL     OW19288   3.312   2.599   4.232 -0.2154  0.2675  0.2991
 2552SOL    HW119289   3.270   2.530   4.181 -0.2565  0.3640  0.2038
 2552SOL    HW219290   3.384   2.544   4.264  0.0832 -0.2521 -1.2767
 2553SOL     OW19291   0.241   0.539  11.571 -0.0427 -0.0509 -0.0691
 2553SOL    HW119292   0.248   0.511  11.480 -1.6876 -1.1896  0.1534
 2553SOL    HW219293   0.282   0.625  11.558 -0.4612 -0.2021 -2.4147
 2554SOL     OW19294   4.467   1.195   1.470 -0.7718 -0.3921 -0.4324
 2554SOL    HW119295   4.408   1.120   1.479 -3.3659  1.7015  0.1110
 2554SOL    HW219296   4.492   1.212   1.561  2.1751  0.7253 -1.4807
 2555SOL     OW19297   4.308   3.575  10.602  0.2158 -0.1561  0.6560
 2555SOL    HW119298   4.295   3.663  10.565 -1.8531 -1.2908 -1.3856
 2555SOL    HW219299   4.398   3.577  10.633 -0.4000 -0.9661  2.4876
 2556SOL     OW19300   2.343   4.448  11.219 -0.5331  0.1682  0.3343
 2556SOL    HW119301   2.298   4.492  11.291  1.8704  0.2289  1.7646
 2556SOL    HW219302   2.278   4.381  11.198  2.3903 -1.7099 -2.6517
 2557SOL     OW19303   2.302   2.295   2.515  0.0474  0.5571 -0.3067
 2557SOL    HW119304   2.284   2.258   2.428 -1.3721  1.2042 -0.2915
 2557SOL    HW219305   2.272   2.386   2.520 -0.6647  0.3687 -0.9900
 2558SOL     OW19306   3.694   0.759   8.619 -0.5670  0.0328 -0.0577
 2558SOL    HW119307   3.689   0.692   8.551 -1.6420  0.0319  0.0190
 2558SOL    HW219308   3.783   0.747   8.652 -0.9430 -0.0715  0.9258
 2559SOL     OW19309   1.920   1.894   7.325  0.0108  0.7065  0.2188
 2559SOL    HW119310   1.871   1.814   7.344 -0.1131  0.4400 -1.2273
 2559SOL    HW219311   1.866   1.966   7.356 -0.9177  1.9002 -4.1434
 2560SOL     OW19312   2.871   3.651  15.312 -0.4569 -0.1694  0.3657
 2560SOL    HW119313   2.871   3.589  15.238  0.5160 -2.0290  1.9209
 2560SOL    HW219314   2.863   3.736  15.270 -0.4727  0.5152  1.7647
 2561SOL     OW19315   3.806   1.610   5.355  0.3697  0.4013 -0.4061
 2561SOL    HW119316   3.810   1.700   5.323  1.3581  0.2706 -0.6581
 2561SOL    HW219317   3.860   1.623   5.433  1.6486 -1.6538 -0.9628
 2562SOL     OW19318   2.625   1.952  14.339  0.5624 -0.0860  0.1006
 2562SOL    HW119319   2.594   2.023  14.395  1.3674  0.4293 -0.1135
 2562SOL    HW219320   2.671   2.005  14.274  1.3329 -1.4289 -0.4538
 2563SOL     OW19321   4.402   4.589  14.173 -0.0248  0.4940  0.1893
 2563SOL    HW119322   4.471   4.655  14.181  0.0720  0.7422 -2.9186
 2563SOL    HW219323   4.339   4.638  14.227  0.1737  0.7574  0.1806
 2564SOL     OW19324   3.221   2.618   9.192 -0.2604  0.3463  0.3947
 2564SOL    HW119325   3.187   2.687   9.249  1.5720  1.1388  0.5441
 2564SOL    HW219326   3.135   2.586   9.164  0.2449 -0.9814  0.4013
 2565SOL     OW19327   3.114   2.545   3.061 -0.0315  0.2884 -0.3058
 2565SOL    HW119328   3.080   2.481   3.123 -0.7965  0.1715 -0.8500
 2565SOL    HW219329   3.042   2.604   3.042  0.5795  1.3434  0.6561
 2566SOL     OW19330   2.085   4.028   2.673  0.2869  0.1109  0.3601
 2566SOL    HW119331   2.167   3.990   2.705  0.5323  0.7277  0.4512
 2566SOL    HW219332   2.041   4.024   2.758 -0.0610  1.3039  0.2370
 2567SOL     OW19333   1.639   1.337   9.720  0.1450  0.0446  0.0811
 2567SOL    HW119334   1.728   1.371   9.709 -0.0827  0.8373  0.7284
 2567SOL    HW219335   1.592   1.386   9.652 -2.2199 -1.6989  0.4664
 2568SOL     OW19336   3.718   2.798  14.810 -0.4300  0.1813  0.6117
 2568SOL    HW119337   3.751   2.740  14.741  0.0588  0.7471  0.3689
 2568SOL    HW219338   3.685   2.879  14.771  1.8293 -0.2125 -2.0865
 2569SOL     OW19339   3.530   0.101  13.138 -0.1654 -0.0366 -0.0371
 2569SOL    HW119340   3.522   0.026  13.079 -1.0338 -0.3278  0.4700
 2569SOL    HW219341   3.536   0.058  13.223 -1.9719 -0.1244  0.0276
 2570SOL     OW19342   2.224   0.589   0.974  0.0935  0.3075  0.1910
 2570SOL    HW119343   2.280   0.594   0.897 -2.9866 -0.5097 -2.0903
 2570SOL    HW219344   2.196   0.497   0.974  0.2686  0.2607 -2.3117
 2571SOL     OW19345   1.993   3.551   7.305  0.3362 -0.3481 -0.9832
 2571SOL    HW119346   2.060   3.543   7.372 -1.3208 -1.7248  0.5248
 2571SOL    HW219347   1.953   3.635   7.327 -0.7363 -1.1411  0.0762
 2572SOL     OW19348   4.728   3.773  14.476 -0.0664  0.4464 -0.6572
 2572SOL    HW119349   4.716   3.682  14.449  0.3592  0.4029 -0.7075
 2572SOL    HW219350   0.075   3.765  14.517  0.1509  2.7300 -0.6676
 2573SOL     OW19351   0.032   2.035   6.007 -0.2936 -0.4090 -0.0453
 2573SOL    HW119352   0.070   2.046   6.094  0.9731  0.4046 -0.6999
 2573SOL    HW219353   0.047   1.941   5.993 -2.0383 -0.7645  0.5055
 2574SOL     OW19354   1.877   1.426   8.661 -0.1046 -1.4775 -0.2345
 2574SOL    HW119355   1.913   1.514   8.648  1.6709 -1.8873  1.7693
 2574SOL    HW219356   1.794   1.448   8.703 -0.1601 -3.8925  0.9233
 2575SOL     OW19357   2.639   3.757   8.517  0.0956 -0.0466  0.1662
 2575SOL    HW119358   2.723   3.711   8.509 -0.1435 -0.1275 -1.9821
 2575SOL    HW219359   2.594   3.694   8.573  0.5470 -1.7160 -1.3326
 2576SOL     OW19360   4.642   2.683   3.805  0.1771  0.4126 -0.6239
 2576SOL    HW119361   4.624   2.648   3.892  1.3820 -2.1640 -1.3870
 2576SOL    HW219362   4.736   2.663   3.812  0.0458 -0.2031 -0.6245
 2577SOL     OW19363   1.576   1.662   4.481  0.1672 -0.1617 -0.1793
 2577SOL    HW119364   1.503   1.723   4.488  1.5171  1.4949 -0.6637
 2577SOL    HW219365   1.646   1.710   4.436 -1.2066  0.1089 -2.0259
 2578SOL     OW19366   2.788   1.597   5.197 -0.9693  0.0934 -0.2891
 2578SOL    HW119367   2.811   1.609   5.105  2.5601 -2.6364  0.2500
 2578SOL    HW219368   2.777   1.688   5.227  2.0289  0.0399  0.9542
 2579SOL     OW19369   0.276   3.627   0.509 -0.1081  0.4852  0.5105
 2579SOL    HW119370   0.196   3.603   0.556  0.8106 -2.6668  0.4551
 2579SOL    HW219371   0.244   3.612   0.420 -1.1749 -0.6669  1.0858
 2580SOL     OW19372   1.755   1.310   6.795 -0.4109 -0.6184  0.3933
 2580SOL    HW119373   1.717   1.246   6.735 -1.7636 -1.4034  2.0997
 2580SOL    HW219374   1.837   1.267   6.818 -0.6624  0.1065  2.6191
 2581SOL     OW19375   4.563   0.425   5.247  0.2647  0.1615  0.0366
 2581SOL    HW119376   4.623   0.405   5.176 -0.2640  0.3531 -0.4582
 2581SOL    HW219377   4.624   0.469   5.307  1.4979 -0.5893 -0.6545
 2582SOL     OW19378   4.255   2.796   9.540  0.0955  0.0385  0.1345
 2582SOL    HW119379   4.269   2.880   9.585  1.0398 -0.4083  0.6717
 2582SOL    HW219380   4.176   2.823   9.495 -1.8275 -2.2352  2.1586
 2583SOL     OW19381   1.753   3.050   2.308 -1.1308  0.1067  0.1329
 2583SOL    HW119382   1.717   3.009   2.229  1.4126  0.0969 -1.0455
 2583SOL    HW219383   1.844   3.021   2.308 -1.2688 -0.4313 -3.6770
 2584SOL     OW19384   2.102   1.233   5.222 -0.0046  0.0668  0.5692
 2584SOL    HW119385   2.091   1.143   5.190 -0.8916 -0.1190  1.4000
 2584SOL    HW219386   2.051   1.282   5.157 -0.5543  0.5470  1.3696
 2585SOL     OW19387   2.038   0.547   3.676 -0.2538 -0.1279  0.1271
 2585SOL    HW119388   2.028   0.567   3.583 -3.3140 -2.0399  0.0396
 2585SOL    HW219389   1.950   0.533   3.711 -1.3239  2.4176 -1.5071
 2586SOL     OW19390   4.251   3.764   7.596  0.6759  0.1899 -0.1897
 2586SOL    HW119391   4.176   3.717   7.633  1.3557 -0.3402  0.5122
 2586SOL    HW219392   4.313   3.757   7.669  1.0931 -0.9744 -0.6636
 2587SOL     OW19393   1.829   2.016   2.052 -0.0937  0.2099 -0.2459
 2587SOL    HW119394   1.794   2.002   1.964  1.0160 -1.0410 -0.4771
 2587SOL    HW219395   1.813   1.929   2.088  0.8101 -0.6502 -1.9113
 2588SOL     OW19396   3.562   1.739  11.285 -0.2546  0.6326  0.3147
 2588SOL    HW119397   3.487   1.786  11.247 -0.6326  0.6408  1.0803
 2588SOL    HW219398   3.520   1.655  11.265 -1.3603  1.1552  0.4290
 2589SOL     OW19399   1.790   2.477   9.860  0.3080 -0.1272 -0.7294
 2589SOL    HW119400   1.718   2.536   9.879  0.0811 -0.2864 -1.0919
 2589SOL    HW219401   1.767   2.430   9.780  1.5135  0.0589 -1.1901
 2590SOL     OW19402   2.417   1.360  11.026 -0.0820 -0.0350  0.4988
 2590SOL    HW119403   2.333   1.343  10.983  0.2328 -2.0804  0.7053
 2590SOL    HW219404   2.445   1.276  11.063 -1.8720 -0.9664 -0.2636
 2591SOL     OW19405   0.738   3.064   2.567  0.1957  0.1135  0.1370
 2591SOL    HW119406   0.666   3.082   2.628 -0.0030 -0.5765  0.1067
 2591SOL    HW219407   0.694   3.002   2.510 -0.3641  0.7107 -0.0813
 2592SOL     OW19408   1.258   2.593   9.588  0.3640  0.2295  0.6404
 2592SOL    HW119409   1.319   2.575   9.517 -0.6922  0.9768 -0.4652
 2592SOL    HW219410   1.279   2.530   9.656 -2.1090 -0.9251  0.3494
 2593SOL     OW19411   2.629   1.030   8.397 -0.3890  0.6444  0.2493
 2593SOL    HW119412   2.595   0.962   8.455 -0.0128 -1.6863 -2.2321
 2593SOL    HW219413   2.563   1.025   8.327 -0.2822 -1.2250  0.2806
 2594SOL     OW19414   1.950   3.623   6.173 -0.2543 -0.2030 -0.2973
 2594SOL    HW119415   1.983   3.567   6.103  0.3741 -0.0526 -0.1194
 2594SOL    HW219416   1.884   3.559   6.199 -1.1864  1.1730  0.7336
 2595SOL     OW19417   0.613   4.654   3.765 -0.6969 -0.3314 -0.2335
 2595SOL    HW119418   0.549   4.589   3.737 -0.7283 -0.4998  0.2417
 2595SOL    HW219419   0.572   4.684   3.846  0.6803 -0.0827  0.3611
 2596SOL     OW19420   3.758   4.597  14.693 -0.0121 -0.0287  0.4260
 2596SOL    HW119421   3.840   4.572  14.736  0.6081  0.4071 -0.5194
 2596SOL    HW219422   3.696   4.544  14.743  2.6093 -0.8717  2.8043
 2597SOL     OW19423   4.594   0.080  14.256  0.8524  0.5482  0.1910
 2597SOL    HW119424   4.688   0.095  14.249  0.8170  0.1201 -1.2843
 2597SOL    HW219425   4.559   0.162  14.290 -0.8053 -0.8276  1.8312
 2598SOL     OW19426   3.237   3.520   8.428 -0.0449 -0.1608  0.0090
 2598SOL    HW119427   3.188   3.535   8.347 -1.8672  0.9405  1.2829
 2598SOL    HW219428   3.184   3.446   8.457 -1.0510  0.4159 -0.3290
 2599SOL     OW19429   2.719   0.870   5.950  0.2404 -0.4896 -0.2221
 2599SOL    HW119430   2.787   0.937   5.945 -0.9728  0.6617 -1.5782
 2599SOL    HW219431   2.684   0.902   6.033  0.2308 -0.8589 -0.0866
 2600SOL     OW19432   2.919   1.352   5.247  0.0459  0.0361  0.9002
 2600SOL    HW119433   2.869   1.428   5.276 -1.3647 -1.9581  3.6188
 2600SOL    HW219434   2.976   1.391   5.180 -0.7722  0.0001  0.1732
 2601SOL     OW19435   4.730   4.545   1.787 -0.3902 -0.0826 -0.2722
 2601SOL    HW119436   4.651   4.596   1.799 -0.1480  0.3676 -0.5782
 2601SOL    HW219437   4.709   4.462   1.829 -1.1641  0.0408 -0.4216
 2602SOL     OW19438   2.285   3.636   3.642  0.0165 -0.0383  0.3169
 2602SOL    HW119439   2.216   3.644   3.576  1.6648 -1.2935 -1.5320
 2602SOL    HW219440   2.227   3.600   3.709 -1.3568  0.4949 -0.5753
 2603SOL     OW19441   0.258   3.959   2.602 -0.7652  0.6060  0.2087
 2603SOL    HW119442   0.212   4.011   2.535  0.5712  0.1893 -1.0498
 2603SOL    HW219443   0.336   3.929   2.556  0.4560  0.4131  2.4333
 2604SOL     OW19444   0.784   1.815   2.412  0.0260  0.1182  0.0385
 2604SOL    HW119445   0.835   1.878   2.362  1.3221 -1.4393 -0.6202
 2604SOL    HW219446   0.801   1.727   2.377 -0.0613 -0.3581  1.1768
 2605SOL     OW19447   2.541   2.791   2.104  0.2752 -0.1136  0.2170
 2605SOL    HW119448   2.636   2.780   2.097  0.4076  1.9840 -1.4299
 2605SOL    HW219449   2.524   2.718   2.164  0.5866  0.2546  0.7554
 2606SOL     OW19450   1.425   1.623   8.585  0.0694  0.2674  0.1140
 2606SOL    HW119451   1.444   1.709   8.548  2.0548 -0.0881  0.3495
 2606SOL    HW219452   1.342   1.651   8.625  1.1108  1.0241  1.7346
 2607SOL     OW19453   0.527   4.400   3.737 -0.4928  0.2225  0.2724
 2607SOL    HW119454   0.544   4.414   3.830  0.3196  0.9975  0.0176
 2607SOL    HW219455   0.502   4.308   3.743  1.0735 -0.1348  1.4395
 2608SOL     OW19456   4.726   1.596   5.949 -0.0686  0.2779 -0.1839
 2608SOL    HW119457   0.011   1.545   5.872 -2.3983 -0.8808 -0.1590
 2608SOL    HW219458   4.703   1.522   6.006  1.7507  1.1898  1.7260
 2609SOL     OW19459   0.099   4.385   9.732 -0.0202 -0.3311 -0.2222
 2609SOL    HW119460   0.096   4.295   9.701  0.9096  0.1231 -1.6444
 2609SOL    HW219461   0.023   4.384   9.789 -0.0176  0.3514 -0.2039
 2610SOL     OW19462   2.062   4.144  15.209  0.6597 -0.3335  0.5189
 2610SOL    HW119463   2.030   4.211  15.148  0.2847  0.4747  1.5970
 2610SOL    HW219464   2.014   4.176  15.286 -0.1891 -0.5071  0.0575
 2611SOL     OW19465   2.260   4.732  10.789  0.3160 -0.2991  0.2997
 2611SOL    HW119466   2.177   4.710  10.832  1.1937 -1.1650  1.5609
 2611SOL    HW219467   2.312   4.715  10.868 -1.0028  2.2822  1.7296
 2612SOL     OW19468   3.416   0.015  14.344  0.2312  0.4446 -0.0083
 2612SOL    HW119469   3.380   4.709  14.419 -0.4130  1.7774  0.4831
 2612SOL    HW219470   3.437   4.679  14.288  1.1092  1.1711 -0.6537
 2613SOL     OW19471   3.109   4.436   8.200 -0.1705 -0.0041 -0.4817
 2613SOL    HW119472   3.089   4.525   8.229  0.8592 -0.2712  1.0541
 2613SOL    HW219473   3.204   4.448   8.201 -0.1818  0.1109 -0.8721
 2614SOL     OW19474   1.467   1.114   8.435 -0.3844  0.5039 -0.2508
 2614SOL    HW119475   1.436   1.205   8.428  0.9977  1.0557  0.8590
 2614SOL    HW219476   1.441   1.093   8.525 -1.8137 -0.8746 -0.9777
 2615SOL     OW19477   4.162   1.113   1.987  0.3553  0.4417  0.2375
 2615SOL    HW119478   4.195   1.152   2.068 -0.7526  2.0130 -0.0466
 2615SOL    HW219479   4.084   1.169   1.986  0.1764  0.1918 -0.0846
 2616SOL     OW19480   4.595   0.643   6.480  0.5188 -0.5650 -0.8857
 2616SOL    HW119481   4.652   0.568   6.498  2.0508  0.7429 -0.3134
 2616SOL    HW219482   4.639   0.677   6.401 -1.2219  0.0390 -1.5936
 2617SOL     OW19483   3.011   0.999   4.246 -0.4823 -0.3957  0.7878
 2617SOL    HW119484   3.020   0.907   4.268 -0.7768 -0.7634 -0.6039
 2617SOL    HW219485   3.079   1.004   4.179 -2.1211  1.6922 -0.7272
 2618SOL     OW19486   1.812   2.753   7.213  0.5367 -0.3596 -0.5264
 2618SOL    HW119487   1.807   2.722   7.122 -0.4571 -1.0123 -0.2547
 2618SOL    HW219488   1.757   2.689   7.259 -1.3982  0.6381 -1.4509
 2619SOL     OW19489   4.118   3.006   9.848 -0.2521  0.5935 -0.2201
 2619SOL    HW119490   4.145   3.081   9.796 -0.3988  0.1382 -0.9620
 2619SOL    HW219491   4.075   3.053   9.919  0.5433  0.6545  0.2208
 2620SOL     OW19492   0.880   3.775  12.544 -0.2950  0.0093 -0.0953
 2620SOL    HW119493   0.886   3.694  12.594  1.0731  0.3352  0.2963
 2620SOL    HW219494   0.933   3.760  12.466  1.3271  1.7378  0.6561
 2621SOL     OW19495   2.153   4.458   6.610  0.2170 -0.3504 -0.4380
 2621SOL    HW119496   2.090   4.445   6.681  0.4426 -2.1195 -0.5827
 2621SOL    HW219497   2.190   4.546   6.624 -0.0720 -0.3252  0.1380
 2622SOL     OW19498   3.386   0.219   3.896 -0.1238 -0.2904 -0.0893
 2622SOL    HW119499   3.447   0.271   3.948 -0.7524 -0.4000  0.7713
 2622SOL    HW219500   3.407   0.130   3.924  0.0524 -0.3940 -0.5512
 2623SOL     OW19501   3.514   3.743   9.685  0.0854 -0.1270 -0.0357
 2623SOL    HW119502   3.525   3.790   9.603 -0.6582 -1.8202 -1.0931
 2623SOL    HW219503   3.451   3.674   9.664 -0.5184  0.9399 -1.6560
 2624SOL     OW19504   3.602   1.566   4.822  0.0281  0.3351  0.2253
 2624SOL    HW119505   3.534   1.611   4.872 -0.2170 -0.6467  0.7971
 2624SOL    HW219506   3.581   1.606   4.738  1.1510 -0.1021 -0.2707
 2625SOL     OW19507   2.347   4.265   4.353 -0.6598  0.2814 -0.3240
 2625SOL    HW119508   2.300   4.243   4.433  3.1676 -0.0888  1.8499
 2625SOL    HW219509   2.349   4.185   4.301  0.4646  0.1117 -0.0284
 2626SOL     OW19510   3.707   4.124   4.658  0.4964  0.0090 -0.2791
 2626SOL    HW119511   3.717   4.039   4.700  2.8334  0.9535  1.0877
 2626SOL    HW219512   3.626   4.168   4.683 -0.5307 -1.8569 -0.3054
 2627SOL     OW19513   0.630   0.997  16.267  0.1145 -0.8850  0.6363
 2627SOL    HW119514   0.686   0.919  16.259  1.8556  0.4450 -0.1903
 2627SOL    HW219515   0.669   1.041  16.191  0.5456 -2.0720  0.1657
 2628SOL     OW19516   0.991   1.401   7.619  0.4584 -0.4840 -0.2660
 2628SOL    HW119517   1.057   1.443   7.674  0.8798  1.6787 -2.4471
 2628SOL    HW219518   1.013   1.308   7.608 -1.3175 -0.8702 -0.5893
 2629SOL     OW19519   2.201   0.522  13.297  0.2771  0.1730 -0.1916
 2629SOL    HW119520   2.182   0.592  13.360  0.6477  0.0728  0.0343
 2629SOL    HW219521   2.132   0.538  13.234 -0.6722 -0.2820  0.7371
 2630SOL     OW19522   1.636   3.116   4.273  0.3784 -0.1632  0.0819
 2630SOL    HW119523   1.705   3.049   4.267  0.1306 -0.3957 -0.1397
 2630SOL    HW219524   1.562   3.065   4.240  0.8470 -0.1485 -0.9939
 2631SOL     OW19525   1.910   2.673   8.518  0.2626  0.2990 -0.0710
 2631SOL    HW119526   1.972   2.677   8.445  1.9057 -0.4925  1.2797
 2631SOL    HW219527   1.963   2.608   8.564  0.2791  0.1703 -0.2718
 2632SOL     OW19528   1.932   4.205  14.386  0.2153 -0.6299  0.2516
 2632SOL    HW119529   1.871   4.229  14.316  0.9910 -0.9778 -0.5469
 2632SOL    HW219530   1.976   4.289  14.399  1.5425 -1.2802 -0.0940
 2633SOL     OW19531   3.132   1.274   9.951  0.4328  0.4232 -0.0931
 2633SOL    HW119532   3.098   1.199  10.000 -1.1478  0.5962 -0.9247
 2633SOL    HW219533   3.176   1.220   9.886 -0.4851  0.0881 -0.4336
 2634SOL     OW19534   3.966   2.751   4.584  0.0227  0.1970  0.2083
 2634SOL    HW119535   4.062   2.751   4.585  0.0707 -0.1808 -2.9873
 2634SOL    HW219536   3.946   2.768   4.492  1.7342 -2.1682 -0.5978
 2635SOL     OW19537   1.678   4.505   3.839 -0.0127 -0.3429  0.0162
 2635SOL    HW119538   1.630   4.423   3.851 -0.3936 -0.0917  0.2410
 2635SOL    HW219539   1.730   4.488   3.761  1.3030 -0.9722  1.0223
 2636SOL     OW19540   2.626   0.388   0.776  0.4044 -0.1873 -0.3984
 2636SOL    HW119541   2.614   0.300   0.739  0.9674  0.8824 -3.1038
 2636SOL    HW219542   2.636   0.365   0.868  0.2313  0.8425 -0.1243
 2637SOL     OW19543   1.191   2.851   2.899 -0.5671  0.7842 -0.4965
 2637SOL    HW119544   1.100   2.882   2.901 -1.3736 -1.6809  1.1294
 2637SOL    HW219545   1.196   2.766   2.855 -0.2155  1.0246 -0.9205
 2638SOL     OW19546   4.423   3.451   1.493  0.6836  0.1456 -0.2769
 2638SOL    HW119547   4.459   3.414   1.413  0.8029  0.9067 -0.5734
 2638SOL    HW219548   4.492   3.426   1.555 -1.3607  1.2945  2.4601
 2639SOL     OW19549   0.429   0.954  10.044 -0.6268  1.1932  0.0423
 2639SOL    HW119550   0.405   0.880   9.988 -0.0565  0.5524  0.6498
 2639SOL    HW219551   0.351   0.959  10.100 -0.4945  1.0822  0.2391
 2640SOL     OW19552   2.322   1.122   6.410 -0.1822  0.1825  0.1921
 2640SOL    HW119553   2.232   1.143   6.385  0.0278  0.8791  0.0238
 2640SOL    HW219554   2.354   1.210   6.429 -0.8633 -0.1430  2.7920
 2641SOL     OW19555   0.299   4.467  11.904 -0.3687  0.1387  0.1147
 2641SOL    HW119556   0.223   4.524  11.895 -0.1501  0.5822  1.0181
 2641SOL    HW219557   0.250   4.386  11.905  2.6078 -1.6692  1.7507
 2642SOL     OW19558   2.232   3.274   3.951  0.3244 -0.5102  0.2212
 2642SOL    HW119559   2.282   3.284   3.870 -1.5573  2.2377 -0.6263
 2642SOL    HW219560   2.142   3.279   3.918  0.1680 -0.9750  0.5747
 2643SOL     OW19561   3.784   3.939   0.738  0.2330  0.0431  0.3173
 2643SOL    HW119562   3.730   3.860   0.745 -0.5141  0.4903 -0.4029
 2643SOL    HW219563   3.735   4.011   0.775  0.1569  0.4400 -0.5503
 2644SOL     OW19564   0.093   4.163   2.450  0.4331  0.2161  0.8526
 2644SOL    HW119565   0.057   4.225   2.387  0.2297 -0.5264  0.2357
 2644SOL    HW219566   0.159   4.132   2.388  0.3947  0.1409  0.8493
 2645SOL     OW19567   1.518   0.583   3.432 -0.6062 -0.2349 -0.2234
 2645SOL    HW119568   1.471   0.666   3.419 -0.4445  0.2805  2.5488
 2645SOL    HW219569   1.609   0.613   3.426 -0.4472 -0.2677  2.0541
 2646SOL     OW19570   2.942   4.632   7.361 -0.4826  0.2152 -0.0215
 2646SOL    HW119571   2.964   4.694   7.291 -0.8065 -0.0205 -0.3326
 2646SOL    HW219572   2.935   4.691   7.436 -0.5236  1.4733 -1.0122
 2647SOL     OW19573   3.016   2.382   3.545  0.1212  0.6399  0.2700
 2647SOL    HW119574   3.041   2.317   3.611 -0.5747  1.0750  0.9770
 2647SOL    HW219575   2.931   2.416   3.575 -0.4040 -0.8751  0.4859
 2648SOL     OW19576   2.727   4.336   2.506 -0.2095  0.8882 -0.2323
 2648SOL    HW119577   2.715   4.375   2.419  0.7325  0.9970 -0.3206
 2648SOL    HW219578   2.795   4.272   2.485 -2.0172 -0.5680 -1.6525
 2649SOL     OW19579   1.219   0.477   3.124  0.0165  0.1606  0.7027
 2649SOL    HW119580   1.275   0.402   3.141  0.3814  0.0602 -0.9137
 2649SOL    HW219581   1.242   0.541   3.192 -0.8087 -0.3173  1.4320
 2650SOL     OW19582   1.251   1.066   7.455 -0.0964 -0.1679 -0.0839
 2650SOL    HW119583   1.178   1.126   7.438 -1.0179 -0.8706  1.4443
 2650SOL    HW219584   1.281   1.075   7.365  2.1562 -0.8683  0.6099
 2651SOL     OW19585   3.318   4.655  10.729  0.4002  0.2000 -0.2596
 2651SOL    HW119586   3.302   4.739  10.686  3.2502  0.4612 -0.8209
 2651SOL    HW219587   3.409   4.675  10.750  0.5398  0.0998 -0.7573
 2652SOL     OW19588   3.613   2.120   7.763 -0.0531 -0.1838  0.0451
 2652SOL    HW119589   3.580   2.040   7.720  0.2242 -0.7977  0.9680
 2652SOL    HW219590   3.599   2.110   7.857  2.6614  0.5346  0.5011
 2653SOL     OW19591   3.564   2.245   3.957  0.0694  0.1933  0.5629
 2653SOL    HW119592   3.524   2.278   4.038  1.2338  0.8455  0.8779
 2653SOL    HW219593   3.565   2.333   3.918  0.9938 -0.5595 -1.0814
 2654SOL     OW19594   0.550   2.992  16.457  0.6401 -0.1335  0.6880
 2654SOL    HW119595   0.595   3.031  16.532  1.8592  1.8801 -1.1019
 2654SOL    HW219596   0.566   3.054  16.386  0.1764 -0.3231  0.4172
 2655SOL     OW19597   2.381   3.791   4.861 -0.0931  0.0848 -0.4893
 2655SOL    HW119598   2.304   3.759   4.907 -0.1326 -1.0698 -1.3746
 2655SOL    HW219599   2.343   3.878   4.848  0.5530  0.2256 -1.4694
 2656SOL     OW19600   2.735   2.785   8.077  0.2406 -0.1347 -0.3525
 2656SOL    HW119601   2.811   2.733   8.053 -1.3807 -2.3033 -0.7209
 2656SOL    HW219602   2.711   2.749   8.163 -0.7335 -0.3242 -0.6994
 2657SOL     OW19603   3.346   3.383   9.720  0.4270 -0.1804  0.0214
 2657SOL    HW119604   3.296   3.448   9.768  0.4243  1.2191 -1.8914
 2657SOL    HW219605   3.298   3.301   9.735  0.5500 -0.5333 -1.4859
 2658SOL     OW19606   0.997   2.430  11.549 -0.3018  0.2674  1.0382
 2658SOL    HW119607   1.086   2.407  11.574 -0.5256 -1.9600 -0.1631
 2658SOL    HW219608   1.015   2.514  11.507  2.0598 -0.4201  0.6698
 2659SOL     OW19609   2.961   2.690   8.980 -0.3549 -0.8235 -0.2629
 2659SOL    HW119610   2.932   2.611   8.935 -0.2176 -0.5422 -0.8555
 2659SOL    HW219611   2.893   2.707   9.046  0.8340 -2.3413  1.3457
 2660SOL     OW19612   1.371   1.079   4.855  0.7292 -0.5614 -0.6406
 2660SOL    HW119613   1.376   1.172   4.878  1.4079 -0.9430  0.7189
 2660SOL    HW219614   1.277   1.081   4.838  0.7142 -0.0067 -0.5052
 2661SOL     OW19615   2.023   1.120   3.888  0.5864 -0.6518 -0.2232
 2661SOL    HW119616   1.954   1.143   3.827  0.5148  3.0727  1.2545
 2661SOL    HW219617   2.073   1.201   3.898 -0.9089  0.3327 -0.6915
 2662SOL     OW19618   0.158   0.379   6.669  0.2640  0.1127  0.4936
 2662SOL    HW119619   0.118   0.334   6.744 -2.0459  0.2585 -0.6429
 2662SOL    HW219620   0.208   0.308   6.629  1.0713  0.6212  0.6079
 2663SOL     OW19621   0.715   2.009   6.399 -0.2299  0.3156  0.1866
 2663SOL    HW119622   0.703   2.040   6.489  1.3304  0.8092  0.2327
 2663SOL    HW219623   0.771   2.076   6.359 -1.7842  0.5618 -1.6111
 2664SOL     OW19624   2.091   0.303   2.353 -0.0277 -0.0127 -0.1270
 2664SOL    HW119625   2.150   0.365   2.396 -0.7642 -0.6126  1.7860
 2664SOL    HW219626   2.162   0.246   2.325  0.3668 -1.1935  3.2689
 2665SOL     OW19627   3.777   0.757   8.985  0.5713  0.5259 -0.1429
 2665SOL    HW119628   3.846   0.774   8.921  1.2106  3.1038  1.2174
 2665SOL    HW219629   3.813   0.806   9.059  0.7260 -2.2595  1.6337
 2666SOL     OW19630   0.779   3.804   7.150  0.4417  0.3712  0.2871
 2666SOL    HW119631   0.743   3.812   7.062 -0.8387  2.6708  1.0193
 2666SOL    HW219632   0.696   3.814   7.197 -0.4279 -0.6245 -1.0286
 2667SOL     OW19633   3.755   4.693  15.391  0.9793 -0.9137  0.2763
 2667SOL    HW119634   3.834   4.706  15.442  0.1131  4.0339  0.3836
 2667SOL    HW219635   3.773   0.017  15.321 -0.5539  2.3285  2.8082
 2668SOL     OW19636   2.485   0.165   8.073  0.2322 -0.2501  0.5632
 2668SOL    HW119637   2.414   0.151   8.009 -1.7102  1.1121  2.4129
 2668SOL    HW219638   2.552   0.174   8.006 -0.3235 -0.6118 -0.0451
 2669SOL     OW19639   1.680   2.060   9.534  0.1351  0.5819 -0.1471
 2669SOL    HW119640   1.663   2.062   9.440  1.2163 -0.4639 -0.3566
 2669SOL    HW219641   1.703   1.967   9.543 -2.7583 -0.0517  0.8324
 2670SOL     OW19642   0.579   0.911   1.940 -0.3131 -0.2893  0.5286
 2670SOL    HW119643   0.644   0.853   1.978  1.2000 -0.0593 -1.6664
 2670SOL    HW219644   0.497   0.885   1.981 -1.4728  1.5860 -0.6064
 2671SOL     OW19645   0.980   4.295   6.694  0.0906 -0.3734  0.3057
 2671SOL    HW119646   1.042   4.306   6.622  2.0379  0.7357  2.1596
 2671SOL    HW219647   0.896   4.308   6.649  0.2879 -0.4283 -0.0815
 2672SOL     OW19648   0.625   3.907   5.249 -0.0223 -0.6498  0.0720
 2672SOL    HW119649   0.669   3.975   5.299 -0.3028 -1.1012  0.9420
 2672SOL    HW219650   0.539   3.948   5.244  0.4556  0.4409  0.7891
 2673SOL     OW19651   1.857   2.010   8.060  0.2256 -0.2409  0.0293
 2673SOL    HW119652   1.944   2.046   8.078  0.6086 -0.9774 -0.3410
 2673SOL    HW219653   1.852   1.945   8.129  0.7718 -2.0718 -1.6588
 2674SOL     OW19654   4.729   1.491   3.135 -0.3311 -0.2230 -0.1831
 2674SOL    HW119655   4.723   1.432   3.060  0.1001 -1.5269  0.8057
 2674SOL    HW219656   4.680   1.440   3.200 -0.9043 -1.1249 -1.3119
 2675SOL     OW19657   3.121   3.317   7.658 -0.3981 -0.2341 -0.1621
 2675SOL    HW119658   3.108   3.335   7.565  0.2723 -3.0385 -0.7958
 2675SOL    HW219659   3.215   3.298   7.660 -0.4629 -0.5865 -0.5460
 2676SOL     OW19660   4.305   0.882   6.809  0.2558  0.1334 -0.1913
 2676SOL    HW119661   4.352   0.929   6.740 -0.9177 -0.4840 -1.4276
 2676SOL    HW219662   4.347   0.799   6.787 -0.6063 -0.5582  0.7650
 2677SOL     OW19663   2.124   1.785  15.947  0.1523  0.6150  0.0946
 2677SOL    HW119664   2.094   1.697  15.969  0.4543  0.2674 -0.8992
 2677SOL    HW219665   2.214   1.780  15.979 -0.2159 -3.1470  0.4504
 2678SOL     OW19666   4.594   3.687   2.628  0.4084 -0.3857  0.0287
 2678SOL    HW119667   4.643   3.649   2.700  0.1804 -0.3285  0.2140
 2678SOL    HW219668   4.593   3.779   2.654  0.8293  0.2077 -2.0435
 2679SOL     OW19669   1.640   3.761  10.320 -0.3582  0.1740  0.4221
 2679SOL    HW119670   1.614   3.690  10.379 -2.6700  0.2881 -0.4852
 2679SOL    HW219671   1.731   3.739  10.298 -0.6638 -0.4650 -0.1714
 2680SOL     OW19672   3.719   2.682   3.843  0.5562 -0.1379  0.3538
 2680SOL    HW119673   3.781   2.654   3.910  0.2735 -0.0233  0.6573
 2680SOL    HW219674   3.758   2.764   3.812 -2.5752  1.6630  1.2221
 2681SOL     OW19675   3.537   0.274  14.831 -0.0194 -0.0010 -0.5185
 2681SOL    HW119676   3.491   0.190  14.838  1.5265 -0.4714  4.1184
 2681SOL    HW219677   3.623   0.241  14.805 -1.1145 -2.9799 -0.4716
 2682SOL     OW19678   1.974   1.238   2.882 -0.0888 -0.1043  0.1468
 2682SOL    HW119679   2.054   1.254   2.932 -1.7030  3.0081  1.7295
 2682SOL    HW219680   1.912   1.199   2.943  2.1420 -0.5650  2.1096
 2683SOL     OW19681   2.493   1.858  10.026 -0.3892  0.1278 -0.4499
 2683SOL    HW119682   2.434   1.782  10.024 -1.0282  0.5972  1.0537
 2683SOL    HW219683   2.467   1.908   9.948 -2.4527 -1.1244 -0.5811
 2684SOL     OW19684   3.640   1.040   1.650 -0.5049 -0.1234  0.5923
 2684SOL    HW119685   3.583   1.105   1.693 -1.0517 -1.3310  1.7069
 2684SOL    HW219686   3.676   1.102   1.587  1.4694 -0.9182  0.9242
 2685SOL     OW19687   1.591   4.103   6.492 -0.4728  0.6100 -0.2891
 2685SOL    HW119688   1.545   4.051   6.558 -2.8673  1.6848 -1.0939
 2685SOL    HW219689   1.553   4.190   6.501 -0.5595  0.6121 -0.6932
 2686SOL     OW19690   0.873   3.284  12.193  0.5236  0.5410  0.3471
 2686SOL    HW119691   0.800   3.222  12.191  0.2620  0.8246  1.3027
 2686SOL    HW219692   0.855   3.333  12.112 -0.5377 -1.8212 -0.8518
 2687SOL     OW19693   1.753   1.369   4.678 -0.5238  0.3478 -0.1840
 2687SOL    HW119694   1.753   1.401   4.768  1.3247  1.4449 -0.5600
 2687SOL    HW219695   1.827   1.307   4.670 -0.7936 -0.0257  0.2096
 2688SOL     OW19696   0.007   3.100   7.850 -0.0584 -0.1562 -0.1654
 2688SOL    HW119697   0.022   3.060   7.764  0.4323  0.2087 -0.2486
 2688SOL    HW219698   4.690   3.032   7.886  1.1935 -0.6179  0.9366
 2689SOL     OW19699   2.850   3.403  16.131  0.4859 -0.0009  0.0832
 2689SOL    HW119700   2.905   3.478  16.108  0.4795 -0.2028 -0.6124
 2689SOL    HW219701   2.816   3.397  16.041  1.1705  1.2652 -0.2638
 2690SOL     OW19702   2.552   2.677   7.732  0.0421 -0.7535  0.0118
 2690SOL    HW119703   2.591   2.683   7.645  1.1698 -2.1172  0.4212
 2690SOL    HW219704   2.463   2.650   7.713 -1.1467  0.8265  3.2618
 2691SOL     OW19705   3.836   2.601  13.852  0.3490  0.4229  0.7827
 2691SOL    HW119706   3.756   2.549  13.854  0.3680  0.3755 -0.0875
 2691SOL    HW219707   3.854   2.609  13.759  0.2298 -0.3866  0.6879
 2692SOL     OW19708   4.457   2.748   7.099  0.6123 -0.3731  0.3662
 2692SOL    HW119709   4.475   2.833   7.059 -0.3528 -0.9341 -1.2488
 2692SOL    HW219710   4.384   2.757   7.160  0.2699  0.6224 -0.1934
 2693SOL     OW19711   1.455   3.806  14.139 -0.1313  0.4789  0.3795
 2693SOL    HW119712   1.503   3.748  14.199  1.8718 -1.2499 -2.8927
 2693SOL    HW219713   1.451   3.879  14.200  0.5883  0.6817  0.1875
 2694SOL     OW19714   0.528   1.923   6.228  0.1963 -0.0062  0.3727
 2694SOL    HW119715   0.600   1.953   6.283  0.2007  0.7206 -0.0181
 2694SOL    HW219716   0.463   1.973   6.278 -1.0972 -0.6116 -0.7045
 2695SOL     OW19717   2.750   0.603   6.720 -0.2797 -0.4880 -0.3691
 2695SOL    HW119718   2.716   0.604   6.631  0.5623  0.6482 -0.6746
 2695SOL    HW219719   2.789   0.516   6.725  1.2502  0.3318  2.1181
 2696SOL     OW19720   3.670   1.421   8.523 -0.2311  0.0619 -0.0653
 2696SOL    HW119721   3.712   1.380   8.448  1.5911  0.0183  0.9796
 2696SOL    HW219722   3.587   1.447   8.483 -0.8801 -1.0258  0.5971
 2697SOL     OW19723   3.107   1.083   4.800  0.1116 -0.1101 -0.5353
 2697SOL    HW119724   3.166   1.070   4.726  2.8130  2.1965  1.1726
 2697SOL    HW219725   3.167   1.049   4.867 -0.5981 -2.6533 -1.2050
 2698SOL     OW19726   4.238   4.517   7.830  0.6669 -0.8456  0.4921
 2698SOL    HW119727   4.161   4.565   7.859  1.2103  2.6792 -3.8048
 2698SOL    HW219728   4.288   4.525   7.911  0.5237 -1.8623  0.6798
 2699SOL     OW19729   4.673   2.064   9.227 -0.0502  0.1330 -0.0813
 2699SOL    HW119730   4.612   2.073   9.301  1.2343 -3.4079  1.4049
 2699SOL    HW219731   4.737   2.129   9.258 -0.7703  1.2204 -0.8602
 2700SOL     OW19732   4.728   1.908   4.540 -0.3138  0.1757  0.1998
 2700SOL    HW119733   4.664   1.840   4.563 -1.8138  2.4344  2.7983
 2700SOL    HW219734   0.002   1.949   4.626  0.0606 -2.1072  1.2092
 2701SOL     OW19735   0.397   4.274   4.829  0.4571  1.1841 -0.2856
 2701SOL    HW119736   0.444   4.338   4.881 -0.5745  0.6917  1.2521
 2701SOL    HW219737   0.311   4.261   4.869  2.1812 -0.4753  2.9008
 2702SOL     OW19738   4.603   3.415  12.867 -0.3668  0.1976  0.3847
 2702SOL    HW119739   4.678   3.356  12.858 -1.5508 -1.7155  2.7969
 2702SOL    HW219740   4.555   3.387  12.946 -0.1236 -0.6805  0.2222
 2703SOL     OW19741   4.427   2.474   7.023 -0.3084  0.0793  0.0776
 2703SOL    HW119742   4.390   2.433   7.101  0.7742 -1.2803 -0.1365
 2703SOL    HW219743   4.433   2.564   7.055 -0.2123 -0.0803  0.5220
 2704SOL     OW19744   2.727   2.042   0.578  0.2963 -0.1700 -0.4658
 2704SOL    HW119745   2.745   2.085   0.662  1.4474  0.4582 -1.0343
 2704SOL    HW219746   2.634   2.026   0.595 -0.2178 -0.5542 -3.7616
 2705SOL     OW19747   1.135   3.170   7.991 -0.5031  0.9060 -0.1160
 2705SOL    HW119748   1.057   3.117   7.972 -0.2791  0.0738  1.3030
 2705SOL    HW219749   1.106   3.230   8.059 -0.2366 -0.9354  1.6280
 2706SOL     OW19750   3.345   1.508  10.188 -0.3290 -0.0001 -0.4480
 2706SOL    HW119751   3.393   1.586  10.159  1.3139 -1.1941 -0.9490
 2706SOL    HW219752   3.399   1.475  10.260 -1.5990 -0.5374  0.2505
 2707SOL     OW19753   3.458   1.834   2.642  0.7345 -0.4002 -0.0084
 2707SOL    HW119754   3.462   1.893   2.717 -1.0605  1.7617 -1.6062
 2707SOL    HW219755   3.528   1.864   2.584 -1.9378  2.5514 -1.6247
 2708SOL     OW19756   4.563   3.034  11.408 -0.4498  0.1905 -0.0034
 2708SOL    HW119757   4.620   3.030  11.331  2.7934 -1.7870  2.4622
 2708SOL    HW219758   4.492   2.975  11.383  1.3569 -0.9039 -2.6027
 2709SOL     OW19759   0.814   1.932  14.789 -0.1395  0.1997 -0.0366
 2709SOL    HW119760   0.838   1.843  14.814  2.4428  0.8448 -0.2442
 2709SOL    HW219761   0.815   1.979  14.873 -1.3924 -1.4876  0.9239
 2710SOL     OW19762   2.676   3.551   2.094 -0.3382  0.1769  0.1664
 2710SOL    HW119763   2.666   3.645   2.077  1.9779  0.5825  1.0542
 2710SOL    HW219764   2.770   3.540   2.080 -0.1975  1.2012  0.2621
 2711SOL     OW19765   4.081   3.465   3.478  0.0158 -0.1577 -0.2354
 2711SOL    HW119766   4.159   3.409   3.480  0.1731  0.1704  3.2572
 2711SOL    HW219767   4.017   3.397   3.458  1.3518 -1.0697 -1.4307
 2712SOL     OW19768   1.320   0.645   5.452  0.1757  0.2659  0.5230
 2712SOL    HW119769   1.413   0.621   5.457 -0.0865 -1.4628 -2.9314
 2712SOL    HW219770   1.304   0.670   5.361 -0.7874  0.8327  0.8544
 2713SOL     OW19771   1.418   2.992  15.626  0.1195 -0.4039 -0.4812
 2713SOL    HW119772   1.342   2.935  15.627 -0.1008 -0.0958  1.5645
 2713SOL    HW219773   1.423   2.997  15.722 -2.1682 -2.9712 -0.2397
 2714SOL     OW19774   0.201   1.344   6.216  0.2349 -0.3436  0.4497
 2714SOL    HW119775   0.165   1.298   6.292 -0.5995  2.1025  1.5285
 2714SOL    HW219776   0.149   1.305   6.146  1.5567 -1.1451 -0.0979
 2715SOL     OW19777   4.267   1.720  13.182 -0.4386  0.2706 -0.3324
 2715SOL    HW119778   4.331   1.712  13.111 -0.0767  0.2077  0.0000
 2715SOL    HW219779   4.195   1.663  13.155  0.8232 -1.3524 -0.2747
 2716SOL     OW19780   4.703   4.552  10.577  1.2246  0.4491 -0.1534
 2716SOL    HW119781   4.706   4.635  10.625 -1.1199  1.0073 -0.9717
 2716SOL    HW219782   4.645   4.571  10.504  2.7120  1.7710 -0.9973
 2717SOL     OW19783   4.656   0.766  10.086  0.4191 -0.7587  0.5938
 2717SOL    HW119784   4.597   0.838  10.066  1.5710  0.0959  0.2889
 2717SOL    HW219785   4.681   0.795  10.174 -0.4939 -1.0990  0.9719
 2718SOL     OW19786   2.056   4.541   4.586 -0.7019 -0.8344  0.5152
 2718SOL    HW119787   1.966   4.572   4.596 -0.8771 -1.8090  2.0329
 2718SOL    HW219788   2.062   4.576   4.497 -1.3156 -1.5769  0.1928
 2719SOL     OW19789   3.386   1.027   9.602  0.3194  0.0344 -0.0189
 2719SOL    HW119790   3.305   0.990   9.567  1.6844 -2.1474 -0.8050
 2719SOL    HW219791   3.399   1.091   9.532 -2.8946  1.2746  0.5016
 2720SOL     OW19792   0.009   2.864   6.921  0.5212 -0.2557 -0.1307
 2720SOL    HW119793   4.736   2.858   6.826 -2.1440 -1.5059  0.3072
 2720SOL    HW219794   0.098   2.830   6.928  0.4963 -0.3964 -0.5172
 2721SOL     OW19795   1.080   2.770  10.646 -0.1381  0.2842  1.0653
 2721SOL    HW119796   1.005   2.753  10.704  0.4062 -0.3776  1.5760
 2721SOL    HW219797   1.130   2.828  10.703  0.1052  0.5082  0.6167
 2722SOL     OW19798   4.574   2.326   4.531 -0.8256 -0.0119  0.3465
 2722SOL    HW119799   4.645   2.363   4.585  0.1297 -0.0028 -0.9114
 2722SOL    HW219800   4.516   2.399   4.510 -0.5861  0.2659  0.6509
 2723SOL     OW19801   2.466   2.916   4.752  0.4457  0.1736 -0.0858
 2723SOL    HW119802   2.378   2.896   4.721  0.5069 -0.6980  0.3098
 2723SOL    HW219803   2.450   2.979   4.822  1.2724  0.6607 -0.3367
 2724SOL     OW19804   1.264   4.158   6.331  0.3714  0.4117  0.1988
 2724SOL    HW119805   1.243   4.096   6.261  1.7015 -1.1196  1.1524
 2724SOL    HW219806   1.353   4.189   6.313 -0.7397  3.4430  0.0108
 2725SOL     OW19807   1.736   0.862   8.171 -0.0918 -0.8230  0.0946
 2725SOL    HW119808   1.784   0.936   8.133  1.7156 -1.8853  0.3299
 2725SOL    HW219809   1.708   0.915   8.246  0.1786  0.1109 -0.4634
 2726SOL     OW19810   4.663   2.755   9.328  0.2368  0.1002 -0.5080
 2726SOL    HW119811   4.657   2.665   9.296  3.6898 -0.1567 -0.4345
 2726SOL    HW219812   4.708   2.734   9.409 -4.0000 -2.2346  1.1884
 2727SOL     OW19813   0.355   3.941   3.941  0.2261 -0.3024 -0.2313
 2727SOL    HW119814   0.315   3.901   4.018 -2.1591  1.8201 -0.3638
 2727SOL    HW219815   0.436   3.890   3.945 -0.0175 -0.7346 -0.8325
 2728SOL     OW19816   4.158   3.202   8.195 -0.2674 -0.5766  0.4856
 2728SOL    HW119817   4.083   3.189   8.137 -2.6344 -0.6144  3.5972
 2728SOL    HW219818   4.213   3.266   8.148 -0.3653  0.1442  1.3595
 2729SOL     OW19819   4.361   3.192   5.043 -0.3412  0.2620 -0.1857
 2729SOL    HW119820   4.373   3.132   4.970  2.6776  0.4249  0.2015
 2729SOL    HW219821   4.290   3.147   5.088 -1.5037  3.4027  1.1215
 2730SOL     OW19822   1.651   0.162   0.325  0.2052 -0.2376 -0.1980
 2730SOL    HW119823   1.598   0.152   0.246 -1.1975  3.1555  0.3239
 2730SOL    HW219824   1.691   0.247   0.312  0.1550 -0.2779 -0.6130
 2731SOL     OW19825   0.656   0.951   8.912 -0.2741 -0.1614 -0.6943
 2731SOL    HW119826   0.692   1.028   8.868  0.8312 -1.3252 -1.8075
 2731SOL    HW219827   0.677   0.971   9.004  1.0372 -0.5175 -0.9258
 2732SOL     OW19828   3.719   3.974   7.695 -0.1811  0.2773 -0.5280
 2732SOL    HW119829   3.728   3.880   7.708 -0.2196  0.3847  0.2465
 2732SOL    HW219830   3.626   3.989   7.712  0.1304 -0.2043  1.5521
 2733SOL     OW19831   3.771   3.064   6.798  0.0583 -0.1112 -0.1484
 2733SOL    HW119832   3.860   3.061   6.763 -0.4155 -0.9690 -1.3113
 2733SOL    HW219833   3.760   2.969   6.791  3.3478 -0.3344 -2.3879
 2734SOL     OW19834   3.228   3.949  15.093  0.4641  0.2453 -0.3603
 2734SOL    HW119835   3.273   3.996  15.023 -0.2925  0.1045 -0.9384
 2734SOL    HW219836   3.286   3.955  15.169  1.3368  1.9782 -1.1640
 2735SOL     OW19837   3.079   0.609   4.791  0.3255  0.2441  0.1403
 2735SOL    HW119838   3.022   0.537   4.762  0.4932  0.0285  0.3403
 2735SOL    HW219839   3.161   0.563   4.809  1.1448  2.6995  2.7390
 2736SOL     OW19840   2.050   1.598  10.378 -0.2956  0.6848 -0.3202
 2736SOL    HW119841   1.988   1.535  10.342  1.0175 -0.6371 -0.2871
 2736SOL    HW219842   1.992   1.672  10.395 -1.8102 -0.9765  1.7513
 2737SOL     OW19843   0.587   1.880   2.577  0.1816  0.4531  0.5865
 2737SOL    HW119844   0.660   1.864   2.518  0.6301 -1.5262  1.7068
 2737SOL    HW219845   0.541   1.939   2.517  0.1356 -0.8705 -0.6639
 2738SOL     OW19846   1.326   2.045   4.310 -0.0535  0.3765  0.3859
 2738SOL    HW119847   1.380   2.090   4.245 -1.1020  2.8571  1.2033
 2738SOL    HW219848   1.276   1.980   4.262 -0.4840  1.9907 -1.3426
 2739SOL     OW19849   3.611   1.183  10.099 -0.3756  0.3598  0.1342
 2739SOL    HW119850   3.649   1.229  10.024 -3.0879  2.6313  0.1682
 2739SOL    HW219851   3.684   1.200  10.158 -0.9904  0.7113  0.8005
 2740SOL     OW19852   1.977   4.093  12.126 -0.3836 -0.5212  0.5563
 2740SOL    HW119853   2.065   4.127  12.139 -0.0014 -1.5082  0.5990
 2740SOL    HW219854   1.989   4.059  12.037 -1.2447 -1.2891  0.7304
 2741SOL     OW19855   4.447   3.717  12.770  0.3577  0.4032  0.2443
 2741SOL    HW119856   4.503   3.677  12.838 -1.3118 -2.7267 -0.2327
 2741SOL    HW219857   4.504   3.715  12.693 -0.1766  1.7123 -0.1877
 2742SOL     OW19858   0.275   3.953   7.009 -0.0791  0.1943  0.1917
 2742SOL    HW119859   0.301   3.861   7.010 -0.7677 -0.0192 -0.9665
 2742SOL    HW219860   0.187   3.953   6.971 -0.1530  0.6766  0.3635
 2743SOL     OW19861   3.402   1.722   8.617  0.4510 -0.0081  0.5622
 2743SOL    HW119862   3.382   1.815   8.627 -1.8296 -0.4143 -0.2752
 2743SOL    HW219863   3.484   1.722   8.566 -1.7775  1.8321 -2.9971
 2744SOL     OW19864   0.506   2.996   1.420 -0.4621  0.1385 -0.1084
 2744SOL    HW119865   0.436   3.059   1.436  0.4745  1.5038 -1.4435
 2744SOL    HW219866   0.461   2.916   1.392 -0.7482 -0.6029  2.4152
 2745SOL     OW19867   2.877   3.558   2.846 -0.1244 -0.1204  0.6446
 2745SOL    HW119868   2.839   3.618   2.782  1.4547 -0.2695 -0.4400
 2745SOL    HW219869   2.798   3.505   2.853 -0.3628  0.2693  0.9251
 2746SOL     OW19870   4.519   2.083   2.200  0.0192 -0.2517 -0.3476
 2746SOL    HW119871   4.570   2.164   2.200 -1.3425  0.5926 -1.6161
 2746SOL    HW219872   4.517   2.065   2.294  0.3648  2.0921  0.0951
 2747SOL     OW19873   1.228   2.177   4.521 -0.0373 -0.0357 -0.5602
 2747SOL    HW119874   1.273   2.129   4.452 -0.0986 -0.6578 -0.1716
 2747SOL    HW219875   1.136   2.169   4.495  0.2166 -0.0667 -1.4285
 2748SOL     OW19876   2.001   1.377   3.405  0.9640  0.0866 -0.3667
 2748SOL    HW119877   2.063   1.430   3.356  1.5229 -1.1958 -1.0548
 2748SOL    HW219878   1.940   1.357   3.333  1.0783 -3.0593  0.3905
 2749SOL     OW19879   0.300   2.309   2.736  0.4428 -0.0482 -0.2964
 2749SOL    HW119880   0.212   2.271   2.730  0.0630  0.7458  0.1604
 2749SOL    HW219881   0.310   2.334   2.828 -2.5530 -0.6319  0.2032
 2750SOL     OW19882   2.814   3.577  15.562  0.2883 -0.7360  0.1858
 2750SOL    HW119883   2.899   3.601  15.597  1.2104 -1.1718 -1.7286
 2750SOL    HW219884   2.829   3.597  15.469 -2.1099 -1.5473 -0.3865
 2751SOL     OW19885   1.790   2.696  16.790  0.3167  0.0389  0.1314
 2751SOL    HW119886   1.775   2.790  16.779 -4.3437 -0.9129 -1.7267
 2751SOL    HW219887   1.727   2.661  16.727  0.3970 -0.0384  0.0944
 2752SOL     OW19888   1.791   2.217   4.438 -0.2211  0.0019 -0.0454
 2752SOL    HW119889   1.737   2.297   4.437 -0.7862 -0.3944 -0.9760
 2752SOL    HW219890   1.874   2.263   4.448  0.4795 -1.4993  0.9421
 2753SOL     OW19891   4.368   1.341   8.205  0.0807  0.0074  0.6836
 2753SOL    HW119892   4.352   1.409   8.270  1.0703 -0.7106  1.6822
 2753SOL    HW219893   4.437   1.293   8.252  0.6381 -0.6691 -0.8240
 2754SOL     OW19894   2.014   3.682   9.308  0.4619  0.0800 -0.5803
 2754SOL    HW119895   1.970   3.597   9.304  0.6456 -0.0395 -0.0481
 2754SOL    HW219896   1.937   3.734   9.331  0.6382  0.1676 -0.1840
 2755SOL     OW19897   1.768   4.252  16.751  0.3824  0.3178  0.0995
 2755SOL    HW119898   1.776   4.158  16.766 -0.0092  0.5242  1.6460
 2755SOL    HW219899   1.846   4.248  16.696  0.6512  0.5948  0.4557
 2756SOL     OW19900   2.919   1.210  15.868 -0.0645  0.2139  0.1147
 2756SOL    HW119901   2.925   1.287  15.924 -2.0486  1.3884 -1.2642
 2756SOL    HW219902   2.985   1.218  15.800 -1.0035  0.6736 -0.7546
 2757SOL     OW19903   1.652   1.805   9.656  0.5591  0.3521  0.6181
 2757SOL    HW119904   1.742   1.779   9.675  0.3631 -1.5236 -1.0421
 2757SOL    HW219905   1.616   1.726   9.616  2.2863 -2.3011  4.3204
 2758SOL     OW19906   3.258   3.739   7.268  0.6204  0.0271 -0.1916
 2758SOL    HW119907   3.273   3.715   7.177 -0.7587  0.5741 -0.5688
 2758SOL    HW219908   3.311   3.670   7.308 -1.1059 -1.4607 -0.4731
 2759SOL     OW19909   4.424   3.067   4.539 -0.4472  0.2573 -0.4413
 2759SOL    HW119910   4.461   3.113   4.615 -0.6957  2.4071 -1.6037
 2759SOL    HW219911   4.473   3.112   4.470  1.8944 -1.6701 -0.0221
 2760SOL     OW19912   4.210   4.085   1.573 -0.1934 -0.0054  0.3002
 2760SOL    HW119913   4.306   4.081   1.574 -0.1826  0.1275 -0.0527
 2760SOL    HW219914   4.192   4.169   1.615  0.8390  1.1830 -1.5881
 2761SOL     OW19915   1.633   3.185  17.572  0.1109 -0.3179 -0.5667
 2761SOL    HW119916   1.583   3.107  17.547 -0.9117  0.3026 -0.4852
 2761SOL    HW219917   1.616   3.240  17.496 -2.2423  1.4836  1.2657
 2762SOL     OW19918   4.222   1.880   8.726 -0.2612 -0.3355  0.1413
 2762SOL    HW119919   4.151   1.862   8.664 -0.5424  1.8949 -0.1903
 2762SOL    HW219920   4.235   1.971   8.699 -1.8512 -0.3609 -0.7215
 2763SOL     OW19921   2.216   0.218   2.671 -0.2342  0.9636  0.2930
 2763SOL    HW119922   2.281   0.151   2.648 -3.7220 -2.0516 -0.6968
 2763SOL    HW219923   2.137   0.172   2.698  0.6301 -0.8082 -0.2337
 2764SOL     OW19924   4.291   4.148   4.511  0.1194  0.0686  0.4402
 2764SOL    HW119925   4.200   4.177   4.524 -0.0797 -0.6071  0.5271
 2764SOL    HW219926   4.304   4.105   4.595 -0.4152 -1.0690 -0.0632
 2765SOL     OW19927   3.773   3.272   6.985 -0.4993  0.4001 -0.3047
 2765SOL    HW119928   3.796   3.193   6.936 -0.8941  1.7128 -2.6121
 2765SOL    HW219929   3.746   3.332   6.916 -1.2922 -0.8873 -1.1335
 2766SOL     OW19930   3.339   1.936  13.087 -0.4834  0.1886 -0.4399
 2766SOL    HW119931   3.392   1.864  13.120 -1.6932 -1.3507 -1.8834
 2766SOL    HW219932   3.302   1.976  13.166  1.1139 -0.6340  0.7195
 2767SOL     OW19933   0.015   4.161  17.283  0.0835 -0.0266  0.2629
 2767SOL    HW119934   0.024   4.240  17.337 -1.6280  1.0159 -0.9775
 2767SOL    HW219935   4.663   4.159  17.258 -0.7128 -2.6445  3.2874
 2768SOL     OW19936   2.535   0.077   8.535 -0.5739  0.6356  0.4943
 2768SOL    HW119937   2.484   0.048   8.459 -0.1723  3.6937 -0.9415
 2768SOL    HW219938   2.554   0.168   8.513 -2.0203  0.2064 -2.5040
 2769SOL     OW19939   2.566   3.271   7.514  0.1886 -0.0385 -0.3260
 2769SOL    HW119940   2.508   3.262   7.438 -0.8770 -1.0051  0.6070
 2769SOL    HW219941   2.510   3.258   7.590  2.0527 -3.1825  0.5024
 2770SOL     OW19942   1.683   3.650   5.644 -0.0254 -0.0092 -0.4262
 2770SOL    HW119943   1.697   3.710   5.717  1.7316  0.1300 -0.8788
 2770SOL    HW219944   1.764   3.599   5.640  1.1147  1.7702  0.0570
 2771SOL     OW19945   2.805   3.528   4.429 -0.2943 -0.4619  0.5466
 2771SOL    HW119946   2.774   3.609   4.468  1.7193 -0.2000  1.5837
 2771SOL    HW219947   2.717   3.492   4.418 -0.9017  1.1593  0.1145
 2772SOL     OW19948   4.181   2.141   9.286 -0.5424  0.4825  0.1637
 2772SOL    HW119949   4.090   2.159   9.265 -0.5967  2.3470  1.9663
 2772SOL    HW219950   4.193   2.181   9.373  0.0975 -0.2517  0.4152
 2773SOL     OW19951   0.019   1.238  10.321  0.6447 -0.2988  0.0524
 2773SOL    HW119952   4.721   1.151  10.314  0.8086 -0.3903  0.3168
 2773SOL    HW219953   0.113   1.223  10.330  0.5527 -0.8895  0.0517
 2774SOL     OW19954   1.817   4.683  16.793 -0.1843 -0.1188 -0.1572
 2774SOL    HW119955   1.784   4.687  16.703  2.1122  0.3829 -0.9788
 2774SOL    HW219956   1.754   4.732  16.845 -3.2394 -1.8371 -2.2172
 2775SOL     OW19957   2.849   2.895   1.937 -0.3651 -0.7289 -0.1971
 2775SOL    HW119958   2.853   2.809   1.894  1.4974 -1.0751  0.6451
 2775SOL    HW219959   2.837   2.853   2.023 -1.9806  0.9627  0.4098
 2776SOL     OW19960   0.715   3.241   8.617  0.3787 -0.0528  0.2111
 2776SOL    HW119961   0.753   3.281   8.694  3.8355 -1.4854 -0.7727
 2776SOL    HW219962   0.795   3.196   8.591  1.2184  0.8343  1.3027
 2777SOL     OW19963   0.179   3.434   5.107 -0.0698 -0.3878 -0.1575
 2777SOL    HW119964   0.228   3.516   5.105  1.7596 -1.4968 -2.0076
 2777SOL    HW219965   0.113   3.436   5.038  1.6732  2.4955 -1.7102
 2778SOL     OW19966   4.014   2.630  11.665  0.2642 -0.3619 -0.0063
 2778SOL    HW119967   3.953   2.667  11.729  0.4306  1.6169 -0.9846
 2778SOL    HW219968   4.026   2.546  11.710 -0.8997 -0.3374  0.3332
 2779SOL     OW19969   4.541   0.251   7.002 -0.2489 -0.4057 -0.6781
 2779SOL    HW119970   4.536   0.242   7.097  0.6963 -0.9217 -0.6723
 2779SOL    HW219971   4.517   0.160   6.985  0.0516 -0.8553  1.2710
 2780SOL     OW19972   1.433   2.701  17.413 -0.6971 -0.3243 -0.2849
 2780SOL    HW119973   1.485   2.631  17.374 -0.1070 -0.5204  0.8922
 2780SOL    HW219974   1.371   2.638  17.450 -2.0933  1.0055 -0.3502
 2781SOL     OW19975   0.389   1.974  11.643  0.0798  0.4686  0.3691
 2781SOL    HW119976   0.297   1.956  11.665 -0.3861  1.2971 -0.9316
 2781SOL    HW219977   0.417   1.888  11.610 -0.5468  1.0162 -1.5905
 2782SOL     OW19978   3.193   0.381  10.378 -0.2469  0.1971  0.6326
 2782SOL    HW119979   3.217   0.404  10.468 -0.1870  3.0035 -0.0824
 2782SOL    HW219980   3.149   0.297  10.389  1.5128 -0.8733 -0.5321
 2783SOL     OW19981   1.584   1.563   6.416  0.2233 -0.0249 -0.2819
 2783SOL    HW119982   1.619   1.483   6.375  0.7508  1.1608 -2.1349
 2783SOL    HW219983   1.502   1.568   6.367 -0.6815 -2.7823  0.9605
 2784SOL     OW19984   4.713   4.028   3.942 -0.3107 -0.1326 -0.4035
 2784SOL    HW119985   4.626   4.032   3.903  0.5553  0.4598 -2.3261
 2784SOL    HW219986   4.711   3.950   3.997 -1.9006 -0.2359 -0.6192
 2785SOL     OW19987   0.126   0.831  11.268  0.1558  0.5585 -0.0917
 2785SOL    HW119988   0.179   0.879  11.205 -0.2972 -0.7301 -1.4580
 2785SOL    HW219989   0.186   0.790  11.330 -2.8243  3.0357  4.4727
 2786SOL     OW19990   3.844   2.493   7.033 -0.5154 -0.3597 -0.2228
 2786SOL    HW119991   3.885   2.412   7.003 -0.1617 -0.8237  1.5166
 2786SOL    HW219992   3.917   2.530   7.083  0.0474 -1.5249 -0.1843
 2787SOL     OW19993   2.744   2.156   5.136  0.1780  0.2798 -0.0660
 2787SOL    HW119994   2.689   2.228   5.106  0.0330  0.1059 -0.2187
 2787SOL    HW219995   2.711   2.153   5.226 -1.8250  0.0739 -0.8175
 2788SOL     OW19996   4.601   3.514   5.258 -0.1601 -0.3636  0.1345
 2788SOL    HW119997   4.670   3.526   5.193  1.2488  1.0837  1.8807
 2788SOL    HW219998   4.532   3.496   5.195  1.2612 -1.9039 -0.9794
 2789SOL     OW19999   4.124   4.012  12.726  0.0076  0.4989  0.2574
 2789SOL    HW120000   4.171   3.971  12.653  1.2765  1.8610  0.3156
 2789SOL    HW220001   4.034   4.002  12.695  0.1455  1.5915 -0.4891
 2790SOL     OW20002   1.466   1.092  12.252  0.0637  0.5170 -0.0538
 2790SOL    HW120003   1.415   1.171  12.232  0.7037  1.6889  2.8904
 2790SOL    HW220004   1.555   1.128  12.252  0.0452  0.5617 -0.5494
 2791SOL     OW20005   1.129   1.141  15.023  0.3855 -0.2346 -0.0709
 2791SOL    HW120006   1.080   1.150  14.942  1.6481  1.0042 -0.6924
 2791SOL    HW220007   1.067   1.091  15.076  0.5536 -0.0081  0.3435
 2792SOL     OW20008   2.999   3.308   4.739  0.0544 -0.0716 -0.1658
 2792SOL    HW120009   3.067   3.256   4.781 -0.9233 -0.8527  0.4643
 2792SOL    HW220010   2.951   3.347   4.812  0.3899  0.7645 -0.4042
 2793SOL     OW20011   2.866   3.360   6.184 -0.6237  0.4864 -0.2490
 2793SOL    HW120012   2.799   3.400   6.130 -2.0440 -1.4664  0.0822
 2793SOL    HW220013   2.809   3.297   6.228 -0.0716  1.3498  1.7009
 2794SOL     OW20014   2.446   1.955  15.114  1.0749 -0.0016 -0.2499
 2794SOL    HW120015   2.471   1.923  15.200 -0.4232 -0.2381  0.0983
 2794SOL    HW220016   2.499   1.904  15.054  0.9864  0.1916 -0.4951
 2795SOL     OW20017   2.213   2.807   4.665  0.1002 -0.1384 -0.0151
 2795SOL    HW120018   2.195   2.814   4.571 -0.6978 -0.4786  0.1050
 2795SOL    HW220019   2.203   2.713   4.683 -0.9436 -0.3774 -1.7203
 2796SOL     OW20020   4.728   3.660   5.070  0.3096  0.0271 -0.5945
 2796SOL    HW120021   4.714   3.745   5.113  2.0515 -0.6299  1.2811
 2796SOL    HW220022   4.703   3.677   4.979 -2.4040 -0.1889  0.1007
 2797SOL     OW20023   0.139   2.216   5.044  0.2844  0.0118 -0.5367
 2797SOL    HW120024   0.152   2.263   4.962  1.9916  3.0189  1.4309
 2797SOL    HW220025   0.217   2.240   5.095  0.6545 -0.7587 -0.7290
 2798SOL     OW20026   2.045   0.771   1.035 -0.4498 -0.6490 -0.1390
 2798SOL    HW120027   2.112   0.705   1.016  1.1602  1.3836 -1.4015
 2798SOL    HW220028   1.993   0.772   0.954 -1.9509  0.1003  0.8368
 2799SOL     OW20029   4.689   0.180   2.221 -0.5885 -0.0895 -0.4989
 2799SOL    HW120030   0.019   0.190   2.285 -0.3831  1.2035 -0.9210
 2799SOL    HW220031   4.730   0.226   2.147 -1.0314  0.6875 -0.2569
 2800SOL     OW20032   2.969   3.973   2.861 -0.3624  0.1401  0.4079
 2800SOL    HW120033   2.972   3.946   2.769  0.7403  0.2221  0.4146
 2800SOL    HW220034   3.050   3.928   2.887 -0.8953 -0.4586  1.0273
 2801SOL     OW20035   0.591   0.372   6.252 -0.3030 -0.5494 -0.0265
 2801SOL    HW120036   0.632   0.459   6.243  1.7096 -1.5334 -0.3599
 2801SOL    HW220037   0.661   0.309   6.236  1.3271  0.9806  0.9160
 2802SOL     OW20038   1.878   4.393   7.113  0.2057  0.6949  0.1570
 2802SOL    HW120039   1.963   4.392   7.157 -0.8698  2.7913  2.2522
 2802SOL    HW220040   1.848   4.482   7.129 -0.3135  0.1922  1.9696
 2803SOL     OW20041   3.162   1.949   8.270  0.0733 -0.5404  0.1152
 2803SOL    HW120042   3.095   2.016   8.263  0.0260 -0.5908  0.0771
 2803SOL    HW220043   3.110   1.879   8.310 -0.1516  0.1008  0.9316
 2804SOL     OW20044   4.549   2.440   9.545  0.0015 -0.6946  0.0439
 2804SOL    HW120045   4.530   2.434   9.639 -0.8676 -0.8660 -0.1439
 2804SOL    HW220046   4.642   2.465   9.543 -0.4617  0.8802 -1.8083
 2805SOL     OW20047   3.179   3.415   2.277  0.3936  0.6667  0.9690
 2805SOL    HW120048   3.272   3.438   2.272  1.1792 -2.0747  2.9609
 2805SOL    HW220049   3.196   3.321   2.282  0.1751  0.5001 -1.8107
 2806SOL     OW20050   2.129   3.041   4.203 -0.3440  0.6082  0.2778
 2806SOL    HW120051   2.201   3.104   4.208 -0.4516  0.8213 -0.8059
 2806SOL    HW220052   2.133   3.011   4.112 -0.2676  1.4705  0.0011
 2807SOL     OW20053   4.558   1.875   3.014 -0.7493  0.6379  0.2389
 2807SOL    HW120054   4.644   1.852   3.049 -0.8944  1.6629  1.2608
 2807SOL    HW220055   4.507   1.801   3.048  0.2858  0.2485  0.9181
 2808SOL     OW20056   0.051   1.750   9.804  0.2586  0.3698  0.1580
 2808SOL    HW120057   0.119   1.692   9.838  1.0718  1.0222 -0.3240
 2808SOL    HW220058   0.035   1.722   9.713 -0.8259 -1.2733  0.8622
 2809SOL     OW20059   3.661   1.581   9.969  0.3388 -0.5492  0.0110
 2809SOL    HW120060   3.704   1.562  10.052  1.9010  0.4901 -0.5567
 2809SOL    HW220061   3.587   1.637   9.993  0.0193 -0.9397 -0.0531
 2810SOL     OW20062   1.466   4.203   7.245  0.0384  0.3171 -0.0718
 2810SOL    HW120063   1.413   4.125   7.263 -0.7129  0.6279 -0.8996
 2810SOL    HW220064   1.396   4.269   7.246 -1.3543 -1.1674 -0.3734
 2811SOL     OW20065   3.183   2.829   1.546 -0.1132 -0.1096 -0.0921
 2811SOL    HW120066   3.160   2.922   1.551  1.1960  0.1574  0.9012
 2811SOL    HW220067   3.276   2.836   1.523  0.0129  1.9542  1.0546
 2812SOL     OW20068   0.160   2.802   3.916 -0.1502 -0.1416 -0.8298
 2812SOL    HW120069   0.244   2.758   3.928 -0.7429 -1.0240  0.1017
 2812SOL    HW220070   0.158   2.815   3.821  3.1617 -0.0743 -0.9050
 2813SOL     OW20071   4.377   4.381   9.424 -0.1143 -0.1906 -0.2866
 2813SOL    HW120072   4.443   4.363   9.357 -1.1157 -2.8508 -0.5629
 2813SOL    HW220073   4.318   4.308   9.406 -2.4790  1.8755 -0.9465
 2814SOL     OW20074   0.642   0.188  13.653  0.3025  0.1233 -0.3472
 2814SOL    HW120075   0.645   0.192  13.557 -1.4875  0.0394 -0.4171
 2814SOL    HW220076   0.735   0.188  13.675  0.3804 -2.1878 -0.7236
 2815SOL     OW20077   1.181   3.475   3.113  0.1994 -0.2297  0.6236
 2815SOL    HW120078   1.232   3.408   3.068 -0.2162  0.4416 -0.8396
 2815SOL    HW220079   1.142   3.508   3.032 -1.3593 -1.1518  1.0068
 2816SOL     OW20080   4.606   0.684   2.285 -0.0120 -0.6551 -0.1346
 2816SOL    HW120081   4.666   0.705   2.213  0.3592  2.7426  1.1657
 2816SOL    HW220082   4.622   0.762   2.338 -0.9097  0.1698 -1.0940
 2817SOL     OW20083   0.605   1.916   3.652  0.1964 -0.3210  0.2353
 2817SOL    HW120084   0.616   1.985   3.586  0.4077 -1.9204 -1.4101
 2817SOL    HW220085   0.513   1.891   3.653  0.1196 -0.1730 -1.9464
 2818SOL     OW20086   4.188   2.124  17.527  0.4775  0.0331 -0.2269
 2818SOL    HW120087   4.218   2.212  17.506 -0.2185 -0.0288 -1.4853
 2818SOL    HW220088   4.110   2.132  17.583  0.0710 -0.1284 -0.7669
 2819SOL     OW20089   1.503   4.199   7.667  0.2531 -0.5427 -0.1021
 2819SOL    HW120090   1.511   4.104   7.664  2.5495 -0.4177  2.2679
 2819SOL    HW220091   1.414   4.212   7.699  1.0208 -1.8730  2.5997
 2820SOL     OW20092   1.999   0.265   7.915 -0.2399 -0.0305 -0.1168
 2820SOL    HW120093   2.036   0.286   8.001 -1.2955 -2.0561  0.8391
 2820SOL    HW220094   1.908   0.281   7.936 -0.6605  1.3113 -2.8920
 2821SOL     OW20095   2.491   2.214  15.137  0.3147  0.6889  0.3251
 2821SOL    HW120096   2.499   2.119  15.134  2.8553  0.9037  0.6153
 2821SOL    HW220097   2.466   2.230  15.228 -0.9533 -0.9835  0.2740
 2822SOL     OW20098   0.508   3.993   4.287  0.0696 -0.1297  0.8412
 2822SOL    HW120099   0.573   3.960   4.225 -1.8167 -0.4990 -0.9485
 2822SOL    HW220100   0.520   3.930   4.358  1.2070 -0.2148  0.5705
 2823SOL     OW20101   2.895   1.840   2.168 -0.7479  0.2541 -0.2058
 2823SOL    HW120102   2.851   1.800   2.092 -0.9026  0.7801 -0.3946
 2823SOL    HW220103   2.816   1.862   2.218 -0.6895  0.2988 -0.1342
 2824SOL     OW20104   2.229   0.789   8.790  0.0016  0.2680 -0.4189
 2824SOL    HW120105   2.167   0.861   8.804  1.3789  1.2959  0.4000
 2824SOL    HW220106   2.202   0.739   8.867  0.3109  0.9216  0.1142
 2825SOL     OW20107   0.468   2.184   3.901 -0.1216 -0.3129 -0.1832
 2825SOL    HW120108   0.424   2.104   3.929 -0.2977 -0.5059 -1.0361
 2825SOL    HW220109   0.402   2.250   3.924 -1.8580 -1.5889 -1.4903
 2826SOL     OW20110   0.125   3.260   1.179  0.4597  0.6137  0.1933
 2826SOL    HW120111   0.114   3.317   1.103  2.1597  0.1355 -0.4252
 2826SOL    HW220112   0.106   3.318   1.252 -1.6272  0.6220 -0.3596
 2827SOL     OW20113   3.482   3.293  14.597  0.1170 -0.5304  0.1454
 2827SOL    HW120114   3.391   3.264  14.597  0.1941 -0.7673  0.0364
 2827SOL    HW220115   3.511   3.256  14.680  1.0081  2.9357  1.4171
 2828SOL     OW20116   4.159   1.305  15.840  0.2079 -0.8818  0.3970
 2828SOL    HW120117   4.199   1.346  15.763 -0.6412  0.1391  0.4906
 2828SOL    HW220118   4.083   1.265  15.798 -0.7839  2.3881 -0.9059
 2829SOL     OW20119   3.994   1.950   5.770  0.4749 -0.1262 -0.1112
 2829SOL    HW120120   4.016   1.989   5.855  1.0514  1.3642 -0.9561
 2829SOL    HW220121   4.058   1.881   5.756 -0.3759 -0.6933 -1.2022
 2830SOL     OW20122   2.645   4.069  17.046 -0.1796  0.0444  0.1235
 2830SOL    HW120123   2.631   4.153  17.091 -0.7350  0.1226 -0.1985
 2830SOL    HW220124   2.556   4.035  17.056  0.3361 -1.1206  0.7824
 2831SOL     OW20125   2.859   2.678  11.210 -0.2039  0.5377 -0.5965
 2831SOL    HW120126   2.937   2.637  11.248 -1.0919  0.2578  0.9413
 2831SOL    HW220127   2.880   2.770  11.227  0.6819  0.8020 -3.2342
 2832SOL     OW20128   2.292   1.228   6.099 -0.2230  0.3894  0.1615
 2832SOL    HW120129   2.276   1.188   6.014  2.5904  0.1418 -0.2569
 2832SOL    HW220130   2.208   1.271   6.115 -1.0079 -0.8614 -0.5265
 2833SOL     OW20131   2.203   3.746   5.714  0.7185 -0.1789 -0.3320
 2833SOL    HW120132   2.186   3.746   5.620 -0.7973  0.2248 -0.0600
 2833SOL    HW220133   2.297   3.760   5.711  0.7563 -0.1329  0.8658
 2834SOL     OW20134   1.178   0.950   0.788  0.0259  0.2709  0.0901
 2834SOL    HW120135   1.175   0.859   0.760  0.7765  0.2202  0.1643
 2834SOL    HW220136   1.092   0.970   0.825  0.0553 -0.2147  0.4305
 2835SOL     OW20137   1.876   0.610   6.767 -0.0055 -0.1271  0.5581
 2835SOL    HW120138   1.844   0.607   6.857 -1.4161  1.7499  0.1367
 2835SOL    HW220139   1.968   0.590   6.783 -0.0888  0.6412  2.0077
 2836SOL     OW20140   0.022   0.600   5.298  0.0195  0.1094  0.1581
 2836SOL    HW120141   0.016   0.610   5.203 -0.8298 -0.3863  0.1692
 2836SOL    HW220142   0.014   0.689   5.333 -1.0230 -0.2687  0.8840
 2837SOL     OW20143   3.142   4.518   7.600 -0.0080  0.0604  0.0095
 2837SOL    HW120144   3.127   4.607   7.568 -3.4625 -1.0530 -1.5036
 2837SOL    HW220145   3.227   4.527   7.643  0.0147  1.5620 -0.3273
 2838SOL     OW20146   2.091   2.167   7.878  0.8504 -0.2340 -0.2666
 2838SOL    HW120147   2.026   2.171   7.808  1.2067 -0.0198 -0.5868
 2838SOL    HW220148   2.113   2.073   7.881 -0.8416 -0.6882 -2.2214
 2839SOL     OW20149   4.267   4.549   4.697  0.0866  0.5836  0.2119
 2839SOL    HW120150   4.197   4.529   4.635  0.6072  2.9865 -1.1371
 2839SOL    HW220151   4.254   4.483   4.765 -0.3569 -1.7539 -2.1295
 2840SOL     OW20152   1.009   3.788   4.271  0.1840 -0.2216  0.1459
 2840SOL    HW120153   0.963   3.863   4.235  0.7581 -0.3028 -0.7789
 2840SOL    HW220154   0.942   3.750   4.328  2.9757  0.5681  3.9187
 2841SOL     OW20155   2.263   3.458  10.974 -0.4863  0.4335  0.3129
 2841SOL    HW120156   2.289   3.507  10.896  1.0699 -1.5176 -0.4004
 2841SOL    HW220157   2.293   3.514  11.045  1.3219  1.2307 -1.0762
 2842SOL     OW20158   1.197   1.435   3.345  0.1944  0.1828 -0.1607
 2842SOL    HW120159   1.290   1.447   3.326 -0.0171  1.5927 -0.3156
 2842SOL    HW220160   1.192   1.359   3.403  2.0754 -0.8718 -1.4075
 2843SOL     OW20161   4.444   4.105   8.212  0.2128 -0.2854  0.1791
 2843SOL    HW120162   4.393   4.087   8.133 -1.1296 -0.9963  1.2208
 2843SOL    HW220163   4.384   4.131   8.282  0.9492  0.1257  0.6594
 2844SOL     OW20164   4.045   2.240   6.404  0.0931 -0.3578  0.8462
 2844SOL    HW120165   4.134   2.271   6.416  0.0448 -0.0973  0.5223
 2844SOL    HW220166   3.998   2.321   6.424  1.9319  0.9413 -0.1351
 2845SOL     OW20167   2.488   4.086  15.964 -0.3176  0.2320  0.0479
 2845SOL    HW120168   2.473   4.040  16.046 -0.0710  0.1174  0.0289
 2845SOL    HW220169   2.577   4.061  15.940 -0.6408 -0.8100 -0.0345
 2846SOL     OW20170   4.204   3.158   2.483 -0.1689 -0.2471 -0.4361
 2846SOL    HW120171   4.185   3.065   2.496 -0.6925 -0.2271 -1.0625
 2846SOL    HW220172   4.122   3.185   2.442  0.8373  0.0891 -2.2509
 2847SOL     OW20173   2.463   0.519  14.656  0.4602 -0.2565 -0.0127
 2847SOL    HW120174   2.384   0.490  14.701  0.7498  0.8413  1.2371
 2847SOL    HW220175   2.444   0.485  14.569 -0.9447  1.1080 -0.2332
 2848SOL     OW20176   1.363   3.095   4.702 -0.4632  0.5079  0.4773
 2848SOL    HW120177   1.307   3.062   4.632  1.4995 -0.6675 -0.5538
 2848SOL    HW220178   1.452   3.068   4.677 -0.1846  0.2391  1.7613
 2849SOL     OW20179   3.978   3.443   3.070 -0.2375 -0.3565 -0.6863
 2849SOL    HW120180   3.950   3.480   3.154  2.2510 -0.0378  0.0102
 2849SOL    HW220181   3.961   3.351   3.090 -2.5390 -0.2830 -2.3241
 2850SOL     OW20182   4.189   3.506  10.214  0.0774  0.0420 -0.2708
 2850SOL    HW120183   4.184   3.468  10.126 -1.1236  1.4834 -0.8122
 2850SOL    HW220184   4.203   3.430  10.271 -1.8480 -0.2134 -0.1422
 2851SOL     OW20185   4.457   3.507   3.190  0.5036  0.0831  0.1599
 2851SOL    HW120186   4.392   3.562   3.234  0.0775 -0.9405  0.8308
 2851SOL    HW220187   4.410   3.487   3.109 -1.3912  0.8211  1.0688
 2852SOL     OW20188   1.609   1.471   8.751  0.5826  0.1480  0.4100
 2852SOL    HW120189   1.565   1.508   8.675  0.4311  1.9068  1.3529
 2852SOL    HW220190   1.538   1.413   8.781  1.3528 -2.0539 -2.0792
 2853SOL     OW20191   3.072   4.226   4.618  0.5005  0.2750 -0.5762
 2853SOL    HW120192   3.072   4.269   4.533 -0.9490  1.9161  0.2655
 2853SOL    HW220193   3.105   4.300   4.669  0.5019  1.2729 -2.0195
 2854SOL     OW20194   1.418   4.134  11.569 -0.1893  0.0562 -0.4535
 2854SOL    HW120195   1.487   4.069  11.584 -0.9145 -0.7387 -0.6235
 2854SOL    HW220196   1.426   4.195  11.643  1.2116 -0.1141 -0.4541
 2855SOL     OW20197   0.042   2.550   5.767  0.5198 -0.3370  0.0047
 2855SOL    HW120198   4.726   2.490   5.717 -0.3729 -0.5088  1.2053
 2855SOL    HW220199   4.721   2.589   5.830  0.4032 -0.1850 -0.2013
 2856SOL     OW20200   4.271   0.904   7.888 -0.5088  0.1271  0.4781
 2856SOL    HW120201   4.293   0.933   7.800  2.3464  0.9007  1.4547
 2856SOL    HW220202   4.305   0.971   7.947 -0.0499  0.0147  0.3363
 2857SOL     OW20203   3.306   3.917  11.685 -0.7275  0.5590 -0.2866
 2857SOL    HW120204   3.314   3.824  11.666 -0.4234  0.5032  0.1197
 2857SOL    HW220205   3.293   3.954  11.597  0.3125  0.1306 -0.6200
 2858SOL     OW20206   4.613   3.396   3.529  0.0216 -0.2919  0.2547
 2858SOL    HW120207   4.586   3.318   3.481  0.8599  0.2483 -1.0899
 2858SOL    HW220208   4.649   3.447   3.456 -0.9398  0.2510  0.1649
 2859SOL     OW20209   4.402   0.845   6.123 -0.0530 -0.4186 -0.2652
 2859SOL    HW120210   4.306   0.841   6.115  0.1780 -3.7174 -1.1227
 2859SOL    HW220211   4.408   0.755   6.154 -0.7686 -0.9353 -1.6274
 2860SOL     OW20212   0.002   0.403   9.254 -0.2686 -0.1398  0.3199
 2860SOL    HW120213   4.679   0.473   9.275  0.1694  1.1320 -2.6698
 2860SOL    HW220214   4.684   0.364   9.188  0.5405  0.3860 -0.6792
 2861SOL     OW20215   2.013   1.393  10.600 -0.3953 -0.7707  0.4173
 2861SOL    HW120216   1.953   1.360  10.666 -1.9456 -0.9984 -1.1032
 2861SOL    HW220217   1.956   1.387  10.523 -0.3337  2.2982  0.1221
 2862SOL     OW20218   4.055   1.218   7.659  0.0147  0.4317 -0.1862
 2862SOL    HW120219   4.070   1.289   7.598  2.7140  0.7467  0.8749
 2862SOL    HW220220   3.993   1.267   7.714  0.6471 -2.1526  2.7960
 2863SOL     OW20221   2.574   1.984  17.577  0.1485 -0.3687  0.0953
 2863SOL    HW120222   2.626   1.970  17.656  1.0077  1.9710 -0.0483
 2863SOL    HW220223   2.598   1.918  17.512 -1.1136 -0.3054 -0.4324
 2864SOL     OW20224   4.048   3.804  14.876  0.3093  0.4041 -0.4955
 2864SOL    HW120225   4.130   3.807  14.826  0.6193 -2.0011 -0.1295
 2864SOL    HW220226   3.988   3.758  14.818 -1.5296  1.5094  0.5427
 2865SOL     OW20227   1.361   0.257   0.705 -0.1815 -0.4196 -0.3994
 2865SOL    HW120228   1.387   0.255   0.797 -0.8338  1.7755 -0.1519
 2865SOL    HW220229   1.436   0.219   0.659  0.3067 -2.4362  2.0966
 2866SOL     OW20230   4.712   4.308   5.254 -0.6082 -0.3235 -0.8097
 2866SOL    HW120231   4.723   4.402   5.265  1.0477 -0.6008 -0.0377
 2866SOL    HW220232   4.663   4.295   5.173 -1.5517 -1.4073 -0.0671
 2867SOL     OW20233   1.359   3.726   7.813 -0.3359 -0.3358  0.0146
 2867SOL    HW120234   1.284   3.780   7.835  0.1783 -0.2990  1.6786
 2867SOL    HW220235   1.330   3.683   7.733  1.3560 -0.8905 -0.3087
 2868SOL     OW20236   0.148   1.237   1.153 -0.5514  0.1872 -0.2517
 2868SOL    HW120237   0.135   1.300   1.224  0.8424 -1.1484  1.2087
 2868SOL    HW220238   0.071   1.184   1.175  0.5994 -0.9374  1.1162
 2869SOL     OW20239   0.817   0.199   2.223  0.3936 -0.3036 -0.4003
 2869SOL    HW120240   0.898   0.250   2.231  0.5097 -0.3798 -1.0856
 2869SOL    HW220241   0.774   0.232   2.143  1.0341 -1.1383 -1.0807
 2870SOL     OW20242   4.174   1.075   7.000 -0.1164  0.0337 -0.4760
 2870SOL    HW120243   4.149   1.004   6.942 -1.0480 -1.9562  2.3445
 2870SOL    HW220244   4.242   1.023   7.045  1.4918  2.7377  0.2277
 2871SOL     OW20245   0.050   0.915   5.978 -0.2751 -0.1763  0.0780
 2871SOL    HW120246   0.068   0.899   6.071 -1.6898 -0.6225  0.2637
 2871SOL    HW220247   4.737   0.838   5.956  0.6186 -0.4591 -1.0980
 2872SOL     OW20248   3.840   0.888   6.993 -0.9241  0.5356  0.2436
 2872SOL    HW120249   3.803   0.802   6.975 -1.9505  0.8906  0.6408
 2872SOL    HW220250   3.876   0.899   6.905  1.0375  4.3698  1.5274
 2873SOL     OW20251   4.653   0.353   4.577  0.7497 -0.3640 -0.1411
 2873SOL    HW120252   4.586   0.306   4.527  0.7340  0.2574 -0.7141
 2873SOL    HW220253   4.670   0.428   4.520 -1.8492 -1.1722 -1.9804
 2874SOL     OW20254   4.223   4.470   7.359 -0.3002 -0.3665  0.0882
 2874SOL    HW120255   4.289   4.514   7.412 -1.5101 -0.4509  1.6452
 2874SOL    HW220256   4.184   4.406   7.419  0.9871  0.7400  2.1020
 2875SOL     OW20257   3.268   4.322  11.683  0.6694  0.7444 -0.4229
 2875SOL    HW120258   3.219   4.242  11.662 -0.7556  1.4741  0.0870
 2875SOL    HW220259   3.267   4.316  11.779  0.1587  0.1660 -0.4633
 2876SOL     OW20260   0.515   2.515  10.003 -0.8243  0.4235 -0.2408
 2876SOL    HW120261   0.549   2.447  10.061  1.4659 -0.0060 -2.0643
 2876SOL    HW220262   0.421   2.499  10.002 -0.7497  0.1437 -2.7393
 2877SOL     OW20263   0.224   4.410   2.522  0.5519 -0.1946 -0.4096
 2877SOL    HW120264   0.184   4.323   2.512 -1.7531  0.4370  3.2954
 2877SOL    HW220265   0.289   4.397   2.590 -0.3751  2.4081  0.9589
 2878SOL     OW20266   0.913   0.960  10.238 -0.0811 -0.0992 -0.5747
 2878SOL    HW120267   0.830   1.007  10.239 -0.1651 -0.2497 -0.4866
 2878SOL    HW220268   0.924   0.952  10.143  1.5634  1.9399 -0.5483
 2879SOL     OW20269   0.764   3.351   2.071  0.8868 -0.4703  0.0525
 2879SOL    HW120270   0.691   3.395   2.028  0.5871  1.2301  2.3185
 2879SOL    HW220271   0.804   3.419   2.124  0.2371 -1.5079  1.8653
 2880SOL     OW20272   1.151   0.976   2.256  0.4108 -0.2246 -0.9562
 2880SOL    HW120273   1.122   0.894   2.216  1.9321  0.1639 -2.8537
 2880SOL    HW220274   1.132   1.041   2.189  0.2829  0.0903 -0.6148
 2881SOL     OW20275   3.875   0.468   7.080  0.0937 -0.4717 -0.1145
 2881SOL    HW120276   3.841   0.379   7.091 -1.5792  0.0442 -1.0695
 2881SOL    HW220277   3.807   0.507   7.025  1.8318  0.8813 -1.3241
 2882SOL     OW20278   1.896   4.486   4.118  0.0351  0.1206 -0.4900
 2882SOL    HW120279   1.814   4.514   4.159  1.1245  2.4104  0.1298
 2882SOL    HW220280   1.870   4.396   4.096  2.4536 -0.6310 -0.3255
 2883SOL     OW20281   1.923   0.116   4.153  0.2409  0.5554  0.6592
 2883SOL    HW120282   1.878   0.106   4.069  0.5893 -1.6174  0.7366
 2883SOL    HW220283   1.940   0.210   4.162  0.3177  0.6487 -0.5058
 2884SOL     OW20284   3.864   0.035   3.445 -0.4968 -0.0861 -0.1992
 2884SOL    HW120285   3.796   0.084   3.491  0.2343  1.4770 -0.7741
 2884SOL    HW220286   3.826   4.696   3.406 -2.3462  1.3705 -1.3135
 2885SOL     OW20287   1.634   2.412   9.017 -0.4711  0.5128  0.0089
 2885SOL    HW120288   1.551   2.417   9.064 -1.2707  0.1687 -1.3825
 2885SOL    HW220289   1.601   2.342   8.961 -1.4017  1.5356 -0.7188
 2886SOL     OW20290   2.715   3.022   1.521 -0.1162  0.4288 -0.2766
 2886SOL    HW120291   2.770   3.024   1.598 -0.7109 -2.0456  0.2393
 2886SOL    HW220292   2.711   3.114   1.495 -1.0414  0.3238 -0.5012
 2887SOL     OW20293   4.299   0.487   7.117  0.0085 -0.1839  0.1151
 2887SOL    HW120294   4.344   0.565   7.086  0.3398  0.0391  1.1462
 2887SOL    HW220295   4.376   0.429   7.117 -0.7361 -1.1730  0.0744
 2888SOL     OW20296   3.384   4.268   1.093 -0.2114  0.3682 -0.2682
 2888SOL    HW120297   3.337   4.191   1.125 -1.3128  1.5908  1.0769
 2888SOL    HW220298   3.466   4.267   1.141 -0.4846  2.3960  0.2388
 2889SOL     OW20299   0.171   0.712   8.924 -0.1384  0.3035 -0.1940
 2889SOL    HW120300   0.133   0.791   8.886 -0.5113 -1.0385 -2.6470
 2889SOL    HW220301   0.097   0.652   8.931  0.2735 -0.1772  0.1128
 2890SOL     OW20302   0.609   3.304   9.499  0.1559 -0.0071 -0.0832
 2890SOL    HW120303   0.550   3.323   9.426  0.7894 -0.5699 -0.7362
 2890SOL    HW220304   0.624   3.394   9.528  0.3376 -0.8296  2.4060
 2891SOL     OW20305   2.349   3.319   2.276  0.2281  0.2241 -0.5128
 2891SOL    HW120306   2.373   3.412   2.283  1.0543  0.0959 -1.8151
 2891SOL    HW220307   2.299   3.327   2.195  0.8730 -1.2560 -1.0403
 2892SOL     OW20308   1.000   0.661   5.282 -0.5340 -0.0835  0.0701
 2892SOL    HW120309   1.074   0.679   5.224  0.3366  2.5967  2.0421
 2892SOL    HW220310   0.951   0.600   5.227  0.6560  0.1641 -1.2671
 2893SOL     OW20311   3.400   0.590   5.850 -0.4832 -0.5660  0.3563
 2893SOL    HW120312   3.348   0.512   5.829 -2.3998  0.9368 -0.5056
 2893SOL    HW220313   3.491   0.559   5.847 -0.5409 -0.9178  2.2440
 2894SOL     OW20314   2.855   0.337   8.748 -0.6225 -0.1777 -0.1143
 2894SOL    HW120315   2.776   0.285   8.764  0.1175 -0.9791  0.9266
 2894SOL    HW220316   2.926   0.273   8.754 -1.2961 -0.8267  1.0524
 2895SOL     OW20317   4.400   2.718  17.573  0.2715 -0.0250 -0.4415
 2895SOL    HW120318   4.313   2.734  17.535 -0.6427 -0.2120  1.5609
 2895SOL    HW220319   4.423   2.807  17.599  1.6635 -0.0743 -1.5306
 2896SOL     OW20320   3.699   1.711  15.819 -0.2613  0.1645 -0.2922
 2896SOL    HW120321   3.730   1.799  15.798  2.0103 -0.2417  1.2787
 2896SOL    HW220322   3.771   1.677  15.872  1.1327  2.1164 -0.9306
 2897SOL     OW20323   0.157   0.914   6.259  0.3291 -0.3189  0.1600
 2897SOL    HW120324   0.104   0.949   6.330  1.3483 -2.4149  1.9683
 2897SOL    HW220325   0.240   0.949   6.291 -1.3834  2.7578  1.1885
 2898SOL     OW20326   0.729   2.841   1.472  0.5321  1.0748 -0.2390
 2898SOL    HW120327   0.753   2.852   1.380  3.0926  0.9857  0.3993
 2898SOL    HW220328   0.655   2.901   1.472 -0.9830 -0.8331 -2.8736
 2899SOL     OW20329   3.130   0.795   9.906 -0.0642 -0.2483 -0.2715
 2899SOL    HW120330   3.188   0.869   9.885 -1.5418  0.8498 -0.4533
 2899SOL    HW220331   3.055   0.826   9.956  0.0188  0.6628 -0.7195
 2900SOL     OW20332   3.996   2.529   5.347 -0.3064  0.1367  0.8627
 2900SOL    HW120333   3.902   2.515   5.344 -0.1448 -0.6239 -0.6991
 2900SOL    HW220334   4.004   2.599   5.413 -1.7966 -0.0934  1.2758
 2901SOL     OW20335   3.903   0.467  10.187  0.3356  0.4665 -0.0841
 2901SOL    HW120336   3.992   0.456  10.220  0.5775 -0.7000 -1.1108
 2901SOL    HW220337   3.858   0.410  10.249  1.9411  1.9914  2.4763
 2902SOL     OW20338   1.498   3.998   1.351  0.2050 -0.0361 -0.0906
 2902SOL    HW120339   1.569   4.030   1.295 -0.7095 -0.4188 -1.4602
 2902SOL    HW220340   1.415   4.032   1.320 -0.6813 -1.8474  0.2759
 2903SOL     OW20341   1.042   4.529  12.154  0.4656  0.0389  0.2851
 2903SOL    HW120342   1.090   4.466  12.208  0.6006  0.1599  0.3083
 2903SOL    HW220343   1.021   4.473  12.080  1.0997  0.9226 -0.5639
 2904SOL     OW20344   4.395   2.851  16.661 -0.5820 -0.1009  0.3405
 2904SOL    HW120345   4.342   2.847  16.741 -1.1771  2.1509  0.0644
 2904SOL    HW220346   4.347   2.791  16.604  2.2771 -2.0256 -0.0317
 2905SOL     OW20347   2.772   3.547   3.305 -0.1604  0.6433 -0.0274
 2905SOL    HW120348   2.707   3.574   3.370  0.2541 -0.7388  0.9356
 2905SOL    HW220349   2.743   3.457   3.292  0.2652  0.3028  1.4974
 2906SOL     OW20350   2.825   3.164   8.459 -0.1769 -0.0313 -0.0136
 2906SOL    HW120351   2.731   3.149   8.468 -0.4006  2.0912  1.1785
 2906SOL    HW220352   2.822   3.220   8.382  1.8675 -0.1592 -0.1781
 2907SOL     OW20353   4.150   0.898   4.484  0.4352  0.2901  0.3064
 2907SOL    HW120354   4.190   0.921   4.568  3.4492 -1.8899 -0.5745
 2907SOL    HW220355   4.216   0.930   4.423 -0.3727  0.5466 -0.4312
 2908SOL     OW20356   0.260   2.444  10.090 -0.2643 -0.0537  0.0923
 2908SOL    HW120357   0.204   2.387  10.142  0.0135  1.5445  2.1649
 2908SOL    HW220358   0.206   2.522  10.077 -3.6138 -2.2390  0.9387
 2909SOL     OW20359   0.132   1.614   9.144  0.8835 -0.1155 -0.3672
 2909SOL    HW120360   0.060   1.672   9.167  0.8336 -0.3336  0.0179
 2909SOL    HW220361   0.088   1.549   9.090  1.7025 -1.5303  0.6631
 2910SOL     OW20362   0.091   4.381   9.358 -0.2208 -0.0736 -0.1139
 2910SOL    HW120363   0.013   4.437   9.362  0.3769  0.8553 -1.2838
 2910SOL    HW220364   0.051   4.296   9.339 -2.3522  0.3523  2.3947
 2911SOL     OW20365   1.099   0.946  10.445  0.0288  0.0781 -0.5038
 2911SOL    HW120366   1.032   0.932  10.379 -0.2586  0.0171 -0.1997
 2911SOL    HW220367   1.149   1.009  10.395 -0.4641  1.3831  0.6532
 2912SOL     OW20368   2.677   3.874   1.165  0.2976  0.9688 -0.1310
 2912SOL    HW120369   2.739   3.893   1.095 -0.9919  1.6555 -1.0945
 2912SOL    HW220370   2.630   3.799   1.129  1.3370 -1.3025  3.2564
 2913SOL     OW20371   2.565   0.255  11.806 -0.0057  0.4984 -0.6775
 2913SOL    HW120372   2.650   0.222  11.834 -1.4711 -2.2447  0.5846
 2913SOL    HW220373   2.547   0.304  11.886 -4.6899 -0.7388 -0.9372
 2914SOL     OW20374   0.097   2.366   6.262  0.1598 -0.6016 -0.4988
 2914SOL    HW120375   0.084   2.416   6.182 -3.1553 -0.7528 -0.0746
 2914SOL    HW220376   0.158   2.425   6.306 -0.7045  1.9160 -2.6938
 2915SOL     OW20377   3.016   1.658   2.720 -0.3030  0.1340 -0.0778
 2915SOL    HW120378   3.043   1.629   2.633  1.3864  1.7154 -0.0816
 2915SOL    HW220379   3.012   1.753   2.717  3.4991  0.3485  1.2980
 2916SOL     OW20380   2.282   2.852   6.652 -0.7278  0.4863 -0.7472
 2916SOL    HW120381   2.234   2.776   6.619 -1.0199  0.3998 -0.1043
 2916SOL    HW220382   2.231   2.922   6.612 -2.0546 -1.0248 -1.6742
 2917SOL     OW20383   2.022   1.308   7.986  0.1342 -0.0516  0.1779
 2917SOL    HW120384   2.008   1.314   7.892  0.5321 -0.4167  0.0950
 2917SOL    HW220385   1.969   1.378   8.025 -0.9329 -1.3950  1.1681
 2918SOL     OW20386   1.282   4.642   7.169  0.4923 -0.0072 -0.1843
 2918SOL    HW120387   1.204   4.657   7.223 -1.4236 -3.2620 -2.0804
 2918SOL    HW220388   1.325   4.569   7.213 -0.4360 -0.1421  0.4875
 2919SOL     OW20389   4.499   0.679   5.586  0.3344  0.6616  0.6840
 2919SOL    HW120390   4.524   0.752   5.642  0.7267  0.0173  1.3536
 2919SOL    HW220391   4.489   0.723   5.501  0.4163 -0.3064  0.1614
 2920SOL     OW20392   0.395   1.707   6.108 -0.4103 -0.0873 -0.2726
 2920SOL    HW120393   0.446   1.778   6.147  2.0251 -1.1954 -1.4252
 2920SOL    HW220394   0.425   1.707   6.017  0.0148 -0.1720 -0.1349
 2921SOL     OW20395   3.350   2.304   9.057 -0.2498 -0.1433  0.1372
 2921SOL    HW120396   3.401   2.228   9.028  2.3045  1.7992 -0.4783
 2921SOL    HW220397   3.381   2.317   9.146 -4.7086  0.0665  1.6679
 2922SOL     OW20398   3.074   1.609  17.046 -0.0667 -0.1099  0.1160
 2922SOL    HW120399   3.023   1.659  17.110 -2.2277 -2.2293  0.0129
 2922SOL    HW220400   3.007   1.557  17.003 -2.0809  1.1453  1.7562
 2923SOL     OW20401   4.561   0.785   5.092  0.0216  0.2878  0.5641
 2923SOL    HW120402   4.603   0.704   5.063  2.6239  1.8008  0.0646
 2923SOL    HW220403   4.515   0.761   5.173 -1.2595 -0.2505 -0.3249
 2924SOL     OW20404   0.601   2.734   4.520  0.3918 -0.6052  0.1397
 2924SOL    HW120405   0.598   2.643   4.492  1.7509 -0.5754 -0.1076
 2924SOL    HW220406   0.587   2.714   4.612  1.8247 -1.7004  0.1138
 2925SOL     OW20407   2.280   4.507   1.743  0.6015  0.0941 -0.6901
 2925SOL    HW120408   2.371   4.537   1.747  1.3562 -2.4058  0.6746
 2925SOL    HW220409   2.251   4.514   1.834 -0.6100  1.7451 -1.2018
 2926SOL     OW20410   1.831   1.744  12.089 -0.1497  0.1138 -0.0710
 2926SOL    HW120411   1.883   1.678  12.044  0.9696 -0.0649  1.4704
 2926SOL    HW220412   1.842   1.816  12.027 -0.2913 -0.7012 -1.0425
 2927SOL     OW20413   1.851   2.886   0.079 -0.1218  0.3758  0.1162
 2927SOL    HW120414   1.840   2.919  17.745  2.5956 -1.9594 -1.0593
 2927SOL    HW220415   1.764   2.847   0.090  0.0775 -0.2722 -0.6085
 2928SOL     OW20416   2.980   1.011  10.030 -0.0849  0.4858 -0.0278
 2928SOL    HW120417   2.997   0.996  10.123 -1.5433 -0.5633  0.0723
 2928SOL    HW220418   2.896   0.970  10.010  0.0144 -0.3070  1.1883
 2929SOL     OW20419   3.411   4.723   6.640  0.0775 -0.1673 -0.6058
 2929SOL    HW120420   3.452   0.068   6.656  2.2849 -1.0088 -1.8423
 2929SOL    HW220421   3.322   0.018   6.625 -0.2825 -0.2526  1.3433
 2930SOL     OW20422   2.430   1.250   9.225  0.0493  0.9846 -0.2341
 2930SOL    HW120423   2.360   1.263   9.290  0.4275 -0.4929  0.4504
 2930SOL    HW220424   2.386   1.195   9.161  2.3062 -1.0544 -0.0065
 2931SOL     OW20425   3.120   0.263   9.656 -0.3073 -0.1290  0.7857
 2931SOL    HW120426   3.139   0.356   9.650 -1.0323  0.1935  3.1821
 2931SOL    HW220427   3.046   0.270   9.717 -0.7805  0.1629  0.1702
 2932SOL     OW20428   1.813   0.314   6.435 -0.0019 -0.6783 -0.3454
 2932SOL    HW120429   1.806   0.392   6.380 -0.7479  0.3623  1.2109
 2932SOL    HW220430   1.875   0.346   6.500 -0.4752 -1.3060  0.4128
 2933SOL     OW20431   1.193   3.099  12.284 -0.6017  0.1939 -0.1813
 2933SOL    HW120432   1.152   3.167  12.231 -1.6039  0.3497  0.7867
 2933SOL    HW220433   1.283   3.104  12.251 -0.5519 -0.4421 -0.1472
 2934SOL     OW20434   1.619   0.075  17.388 -0.1968  0.3770 -0.2109
 2934SOL    HW120435   1.614   0.138  17.315  0.2640  0.3516 -0.2606
 2934SOL    HW220436   1.703   0.033  17.368 -0.9755 -0.9920 -0.6005
 2935SOL     OW20437   0.260   0.334  12.288 -0.0759  0.0559  0.5130
 2935SOL    HW120438   0.328   0.270  12.266  0.6814  0.6562  1.0874
 2935SOL    HW220439   0.233   0.360  12.200  0.7649  1.9238  0.8060
 2936SOL     OW20440   4.465   4.036  11.340  0.1119 -0.1776 -0.3252
 2936SOL    HW120441   4.513   3.968  11.387  0.4427  0.8828  0.8668
 2936SOL    HW220442   4.513   4.117  11.360  0.1108 -0.0336 -0.9114
 2937SOL     OW20443   0.184   1.736   4.264  0.0274 -0.4385 -0.5342
 2937SOL    HW120444   0.091   1.751   4.246 -0.6047 -1.1798  2.1023
 2937SOL    HW220445   0.222   1.824   4.263  0.4257 -0.6136 -0.7323
 2938SOL     OW20446   1.363   0.210   1.924 -0.1618 -0.0413 -0.3682
 2938SOL    HW120447   1.403   0.271   1.986  0.7361 -1.7426  0.7015
 2938SOL    HW220448   1.270   0.231   1.931 -0.3238 -1.1023  0.6031
 2939SOL     OW20449   2.015   3.860   6.302 -1.0195  0.4101 -0.3839
 2939SOL    HW120450   1.922   3.866   6.321 -1.0236 -0.3140 -0.1774
 2939SOL    HW220451   2.014   3.773   6.262 -1.2195 -0.5655  1.7591
 2940SOL     OW20452   4.582   2.508   7.297  0.1165 -0.0078  0.2947
 2940SOL    HW120453   4.493   2.527   7.328  0.2798 -0.4160  1.0203
 2940SOL    HW220454   4.587   2.413   7.293 -0.5273  0.0169 -1.2605
 2941SOL     OW20455   2.900   3.070   1.733 -0.2086  0.2143  0.3782
 2941SOL    HW120456   2.990   3.103   1.723  0.5893 -1.5334  1.7265
 2941SOL    HW220457   2.897   3.009   1.807 -0.0279  2.5814  2.3490
 2942SOL     OW20458   1.521   3.154   2.494  0.1209 -0.4029 -0.1215
 2942SOL    HW120459   1.599   3.140   2.441  0.3483  0.5787 -0.0425
 2942SOL    HW220460   1.456   3.136   2.427 -0.0306 -0.4163  0.0278
 2943SOL     OW20461   1.089   2.094   4.135  0.1076 -0.0064  0.2714
 2943SOL    HW120462   1.124   2.012   4.101  2.3801  1.9660 -2.2663
 2943SOL    HW220463   1.150   2.164   4.107 -0.6390  0.4559 -0.2076
 2944SOL     OW20464   1.849   0.754   3.913 -0.3164  0.6832  0.4125
 2944SOL    HW120465   1.767   0.798   3.888 -2.5875 -1.8606  3.3795
 2944SOL    HW220466   1.840   0.670   3.869  1.7136 -1.0140  3.2042
 2945SOL     OW20467   4.165   3.844   4.318  0.1118 -0.0575 -0.7392
 2945SOL    HW120468   4.087   3.860   4.265  1.1675  1.7759 -1.7211
 2945SOL    HW220469   4.181   3.937   4.336  3.9271 -1.0470  0.9632
 2946SOL     OW20470   2.442   2.350  17.378  0.0274 -0.2952  0.3417
 2946SOL    HW120471   2.431   2.261  17.413  1.9383  0.2312  2.3553
 2946SOL    HW220472   2.449   2.398  17.461  0.6930  0.5502 -0.2183
 2947SOL     OW20473   1.358   2.090   5.221 -0.1134 -0.4448  0.1116
 2947SOL    HW120474   1.332   2.012   5.271 -0.2721  0.8549  2.0492
 2947SOL    HW220475   1.270   2.100   5.185 -0.3178 -0.6924  0.5333
 2948SOL     OW20476   1.650   3.999  11.840 -0.2908 -0.1275  0.9295
 2948SOL    HW120477   1.646   3.938  11.767 -0.2640 -2.5731  2.9563
 2948SOL    HW220478   1.654   3.936  11.912  2.9211 -0.9560  0.0597
 2949SOL     OW20479   4.510   0.786   9.430  0.3941  0.4921 -0.1084
 2949SOL    HW120480   4.590   0.833   9.454 -0.2899  1.0299  1.1240
 2949SOL    HW220481   4.441   0.850   9.449 -1.6120 -1.8759  0.6898
 2950SOL     OW20482   1.585   4.014   6.778 -0.1289 -0.2244  0.2530
 2950SOL    HW120483   1.614   4.025   6.868 -1.8600  0.9017  0.6805
 2950SOL    HW220484   1.596   3.922   6.756  0.4527 -0.0499 -0.2109
 2951SOL     OW20485   2.485   2.110   2.949  0.1524 -0.1821  0.1891
 2951SOL    HW120486   2.545   2.051   2.903  1.4680  0.8010  0.6366
 2951SOL    HW220487   2.552   2.146   3.007  1.4524 -3.7860  0.9096
 2952SOL     OW20488   0.435   0.642  12.445 -0.1568 -0.4485  0.5698
 2952SOL    HW120489   0.413   0.727  12.483 -1.2612  0.0340 -1.1704
 2952SOL    HW220490   0.417   0.664  12.353 -0.0884  1.4298  1.0109
 2953SOL     OW20491   2.440   1.059   3.655  0.7034 -1.1044 -0.2028
 2953SOL    HW120492   2.447   0.986   3.593  1.8995  0.7281 -2.2066
 2953SOL    HW220493   2.344   1.062   3.651  0.6351 -3.2105 -0.1289
 2954SOL     OW20494   2.540   2.496  15.691 -0.5592 -0.4127 -0.0295
 2954SOL    HW120495   2.599   2.528  15.760  0.7382  1.4644 -2.0272
 2954SOL    HW220496   2.575   2.408  15.691 -0.6488 -0.4489  0.0649
 2955SOL     OW20497   1.926   4.147   3.850  0.0325 -0.1190 -0.1181
 2955SOL    HW120498   2.003   4.136   3.905 -0.7858  0.3333  1.1079
 2955SOL    HW220499   1.964   4.196   3.777  0.3631 -2.8811 -1.8242
 2956SOL     OW20500   0.194   2.560   6.017 -0.0647 -0.0451 -1.1023
 2956SOL    HW120501   0.183   2.646   6.056  0.1004 -0.5754  0.1138
 2956SOL    HW220502   0.147   2.571   5.934  0.1452 -0.8246 -1.3311
 2957SOL     OW20503   4.590   2.983  14.869  0.4566 -0.0540 -0.2556
 2957SOL    HW120504   4.636   3.051  14.819  0.1448  0.1802 -0.2238
 2957SOL    HW220505   4.516   2.967  14.811  0.6913  0.5903 -0.7407
 2958SOL     OW20506   1.066   4.003   8.952 -0.3658  0.3072  0.7258
 2958SOL    HW120507   1.155   4.011   8.987 -0.2617  3.4544 -0.3222
 2958SOL    HW220508   1.101   3.959   8.875 -2.0000  1.4994 -0.6803
 2959SOL     OW20509   1.107   2.325   8.994  0.6138 -0.0673 -0.0785
 2959SOL    HW120510   1.153   2.283   9.067  1.1922 -0.7710 -0.8572
 2959SOL    HW220511   1.093   2.414   9.027 -1.6389 -0.0185 -1.1611
 2960SOL     OW20512   0.086   2.491   0.108 -0.2465  0.1189  0.3264
 2960SOL    HW120513   0.164   2.444   0.081 -1.2993 -1.6952  0.4884
 2960SOL    HW220514   0.106   2.513   0.200  1.9739  0.8714 -0.3343
 2961SOL     OW20515   4.337   3.668   1.174 -0.0954 -0.0748 -0.7059
 2961SOL    HW120516   4.297   3.586   1.147  0.2108 -0.5564  0.3174
 2961SOL    HW220517   4.276   3.701   1.240  1.3399 -0.9114  1.0413
 2962SOL     OW20518   3.439   0.580   5.055 -0.0606  0.2211 -0.3620
 2962SOL    HW120519   3.447   0.676   5.056  1.9549  0.0507  0.4282
 2962SOL    HW220520   3.422   0.559   5.147 -0.1546  1.5932 -0.0616
 2963SOL     OW20521   1.853   0.851  17.736  0.5002 -0.3917  0.9808
 2963SOL    HW120522   1.847   0.925   0.042 -1.5230  0.3396 -0.1074
 2963SOL    HW220523   1.888   0.898  17.661  0.7220 -0.3088  1.1384
 2964SOL     OW20524   4.656   3.377   1.653  0.3600  0.0292 -0.7393
 2964SOL    HW120525   4.671   3.471   1.651  2.8918 -0.3294  1.8392
 2964SOL    HW220526   4.722   3.346   1.590 -0.4981 -0.1536 -1.5442
 2965SOL     OW20527   0.118   0.027   3.893  0.2223  0.3940  0.0999
 2965SOL    HW120528   0.029   0.058   3.905 -0.0388 -0.7451  1.1520
 2965SOL    HW220529   0.101   4.672   3.900 -0.5382  0.4608 -0.8930
 2966SOL     OW20530   0.577   4.539   1.738 -0.4148  0.6575  0.4238
 2966SOL    HW120531   0.648   4.497   1.690 -0.7315 -0.6659  1.1101
 2966SOL    HW220532   0.569   4.626   1.699  0.6019  0.7829  0.5086
 2967SOL     OW20533   3.762   1.052  17.129 -0.0870  0.0178  0.3581
 2967SOL    HW120534   3.816   1.096  17.194  0.5192  1.5297 -1.1656
 2967SOL    HW220535   3.720   0.982  17.178 -2.3251  1.5714  0.6384
 2968SOL     OW20536   1.924   1.018   8.041 -0.2819 -0.1062 -0.0003
 2968SOL    HW120537   2.009   0.973   8.045 -0.6728 -0.8870 -0.6446
 2968SOL    HW220538   1.941   1.109   8.017  2.0154 -1.1173 -2.2005
 2969SOL     OW20539   0.663   1.551   2.926 -0.0054  0.0306  0.7059
 2969SOL    HW120540   0.621   1.629   2.890  0.2245 -0.2133 -0.0881
 2969SOL    HW220541   0.750   1.590   2.937 -1.0729  2.1761  1.3946
 2970SOL     OW20542   0.385   0.485   7.405 -0.7383  0.5729 -0.5159
 2970SOL    HW120543   0.391   0.453   7.495  0.5346  0.9735 -0.4564
 2970SOL    HW220544   0.475   0.505   7.380  0.2882  0.3264  2.9193
 2971SOL     OW20545   1.394   2.263   2.762  0.2024 -0.3429  0.0144
 2971SOL    HW120546   1.308   2.232   2.734  0.4787 -1.1597  0.0694
 2971SOL    HW220547   1.387   2.249   2.856  0.0020  0.1489  0.0743
 2972SOL     OW20548   1.186   2.784   1.286 -0.6457 -0.2106  0.2967
 2972SOL    HW120549   1.177   2.757   1.195 -1.4154 -0.8764  0.5603
 2972SOL    HW220550   1.281   2.790   1.292 -0.7776  0.1281  2.1611
 2973SOL     OW20551   1.779   1.206  11.017  0.5356  0.0818  0.1099
 2973SOL    HW120552   1.802   1.241  10.931 -1.3813  2.9974  0.7733
 2973SOL    HW220553   1.845   1.138  11.025  0.3628 -0.0675  0.2672
 2974SOL     OW20554   1.526   4.340   2.036  0.2215 -0.2887 -0.0677
 2974SOL    HW120555   1.438   4.345   2.073  1.3169  0.4351  2.4314
 2974SOL    HW220556   1.560   4.269   2.090  1.0752 -0.1512 -0.4223
 2975SOL     OW20557   2.232   4.419   6.228 -0.6711  0.2031  0.4940
 2975SOL    HW120558   2.161   4.389   6.285 -1.6896 -0.2209 -0.9999
 2975SOL    HW220559   2.214   4.512   6.213 -0.5955  0.1714  0.2002
 2976SOL     OW20560   2.438   2.595   4.469  0.0448  0.2545  0.2927
 2976SOL    HW120561   2.473   2.538   4.537  2.8741 -0.1389 -1.4963
 2976SOL    HW220562   2.484   2.677   4.487 -1.9009  1.2126  0.8869
 2977SOL     OW20563   4.441   2.696  13.491 -0.0106  0.0361  0.0582
 2977SOL    HW120564   4.350   2.688  13.519  0.5179 -0.7510  1.5600
 2977SOL    HW220565   4.475   2.631  13.552  0.1607  0.3048  0.2486
 2978SOL     OW20566   3.790   2.298   9.530  0.1557  0.2254  0.2469
 2978SOL    HW120567   3.847   2.221   9.528  0.2073  0.3575 -2.6446
 2978SOL    HW220568   3.704   2.258   9.529  0.8542 -1.2272 -1.4738
 2979SOL     OW20569   1.231   1.491   4.723  0.8571  0.4276 -0.1180
 2979SOL    HW120570   1.288   1.566   4.737  1.8304 -0.3112 -0.1558
 2979SOL    HW220571   1.173   1.531   4.658  0.4272  0.4599  0.2855
 2980SOL     OW20572   4.404   1.618   8.740  0.0849  0.4482  0.1770
 2980SOL    HW120573   4.346   1.692   8.724 -0.8429 -0.6898 -1.8057
 2980SOL    HW220574   4.485   1.664   8.759  0.5952 -0.8525  1.1446
 2981SOL     OW20575   4.090   2.017   8.004  1.3383  0.4285 -0.3509
 2981SOL    HW120576   4.098   1.997   7.911 -0.8505  0.5883 -0.5603
 2981SOL    HW220577   4.032   2.093   7.997 -0.8124 -1.4162 -2.3687
 2982SOL     OW20578   3.235   4.104   2.596 -0.1521 -0.5037 -0.0030
 2982SOL    HW120579   3.291   4.076   2.668 -2.0576 -1.4919  1.1127
 2982SOL    HW220580   3.208   4.023   2.553  0.4817 -0.8918  0.3387
 2983SOL     OW20581   1.445   4.485   3.502 -0.1184  0.1354  0.1918
 2983SOL    HW120582   1.497   4.405   3.493  1.3612  1.0065  0.8875
 2983SOL    HW220583   1.382   4.442   3.559  0.3367  0.0350  0.6204
 2984SOL     OW20584   4.648   0.415   7.674  0.0251 -0.2225 -0.1015
 2984SOL    HW120585   4.587   0.458   7.615 -0.4224 -0.6084  0.0859
 2984SOL    HW220586   4.713   0.386   7.610 -0.1058  0.3456 -0.4858
 2985SOL     OW20587   1.655   3.480   4.490  0.1369  0.0830  0.0067
 2985SOL    HW120588   1.571   3.434   4.484  1.2781 -1.9672 -0.1514
 2985SOL    HW220589   1.718   3.409   4.475  1.1207  0.7513  1.0062
 2986SOL     OW20590   3.546   0.804   8.232 -0.0652 -0.1802 -0.5857
 2986SOL    HW120591   3.538   0.899   8.239  0.4134 -0.1405 -0.5464
 2986SOL    HW220592   3.640   0.787   8.219 -0.3548 -1.8772 -0.3874
 2987SOL     OW20593   1.385   1.360   2.326  0.5798 -0.2324  0.3746
 2987SOL    HW120594   1.306   1.333   2.371  1.2383  0.8176  2.1964
 2987SOL    HW220595   1.376   1.309   2.245  0.6608 -0.7524  0.6965
 2988SOL     OW20596   2.042   2.453   3.317  0.3709 -0.0942 -0.1188
 2988SOL    HW120597   1.997   2.388   3.371 -2.2681  2.0874  0.3540
 2988SOL    HW220598   2.008   2.439   3.228 -0.2448 -1.1647  0.2929
 2989SOL     OW20599   1.875   2.704   6.020  0.4598  0.0384 -0.4082
 2989SOL    HW120600   1.917   2.777   5.975 -0.4788 -0.0496 -1.4291
 2989SOL    HW220601   1.945   2.639   6.007 -0.8292 -1.1208 -1.6211
 2990SOL     OW20602   0.872   3.361   7.369 -0.5597  0.0610  0.1755
 2990SOL    HW120603   0.940   3.296   7.351 -0.5839  0.8172 -2.6240
 2990SOL    HW220604   0.873   3.414   7.289 -2.2998  1.7043  1.2483
 2991SOL     OW20605   2.565   3.304   9.741 -0.1348  0.1129 -0.2151
 2991SOL    HW120606   2.580   3.318   9.648 -1.6911  0.2486 -0.4576
 2991SOL    HW220607   2.472   3.323   9.752 -0.2806 -0.1715 -0.9507
 2992SOL     OW20608   1.084   3.267   2.186  0.0135 -0.0695  0.1579
 2992SOL    HW120609   1.044   3.303   2.266  2.2228 -0.0996  1.2877
 2992SOL    HW220610   1.045   3.182   2.171 -2.0206  0.8201  0.4473
 2993SOL     OW20611   0.914   3.002   8.835 -0.4746 -0.6078  0.5652
 2993SOL    HW120612   0.911   3.052   8.754 -1.8991 -4.3182 -1.7107
 2993SOL    HW220613   0.820   2.998   8.851 -0.1059 -1.9877  2.3368
 2994SOL     OW20614   3.044   3.218   5.156 -0.6603 -0.2180  0.3772
 2994SOL    HW120615   2.999   3.300   5.177  0.4170  0.6133 -0.5574
 2994SOL    HW220616   3.030   3.163   5.233  0.6146 -1.5637 -0.3392
 2995SOL     OW20617   4.189   2.875   5.467  0.0525  0.4441 -0.2720
 2995SOL    HW120618   4.243   2.953   5.478  1.0090 -0.2595 -0.0382
 2995SOL    HW220619   4.234   2.813   5.523  2.7639  2.4819 -0.1990
 2996SOL     OW20620   3.573   1.800   6.249 -0.2308 -0.7534  0.2548
 2996SOL    HW120621   3.573   1.854   6.328  2.1459  0.0712 -0.2799
 2996SOL    HW220622   3.486   1.818   6.214  0.8667  1.3854 -1.4539
 2997SOL     OW20623   4.377   2.076   1.389  0.0239  0.2536 -0.4063
 2997SOL    HW120624   4.438   2.149   1.382 -1.1616  0.9641 -3.2263
 2997SOL    HW220625   4.404   2.035   1.307  1.2593 -0.3295  0.2981
 2998SOL     OW20626   0.688   4.645   3.460  0.1247  0.3376  0.6614
 2998SOL    HW120627   0.629   4.624   3.532  0.1811  1.7521  1.1222
 2998SOL    HW220628   0.710   4.734   3.488 -1.4597  1.0366 -0.3277
 2999SOL     OW20629   1.595   1.018   3.282 -0.4083 -0.4105  0.2586
 2999SOL    HW120630   1.653   0.948   3.255  0.2067  0.4159 -0.5598
 2999SOL    HW220631   1.580   1.059   3.197 -0.9230  0.7127  0.8787
 3000SOL     OW20632   1.195   1.606   9.390 -0.2426  0.7757  0.0519
 3000SOL    HW120633   1.233   1.593   9.477  1.4216  0.2007 -0.7657
 3000SOL    HW220634   1.261   1.581   9.326 -2.2632 -0.3481 -1.6010
 3001SOL     OW20635   0.522   3.846   4.898 -0.2615  0.6409 -0.4129
 3001SOL    HW120636   0.571   3.764   4.893 -2.5550 -0.8288  1.5188
 3001SOL    HW220637   0.509   3.846   4.992 -0.2814 -1.2546 -0.4203
 3002SOL     OW20638   2.050   3.640   2.153 -0.2341  0.1641 -0.0733
 3002SOL    HW120639   2.099   3.631   2.235 -0.3808 -2.6687 -0.3175
 3002SOL    HW220640   2.089   3.717   2.110  1.6039 -0.9601 -0.4191
 3003SOL     OW20641   3.945   4.189  15.713 -0.1544  0.4583  0.2243
 3003SOL    HW120642   3.988   4.192  15.799 -0.4134  0.1230  0.3632
 3003SOL    HW220643   4.024   4.162  15.666 -0.1562 -0.7511  0.9126
 3004SOL     OW20644   0.011   3.192   2.124 -0.2581 -0.2393  0.8948
 3004SOL    HW120645   4.667   3.145   2.131  0.2537 -0.9637  2.1757
 3004SOL    HW220646   4.720   3.281   2.142 -1.1286 -0.3864  0.1217
 3005SOL     OW20647   2.301   2.361   7.882  0.6141  0.0696 -0.8632
 3005SOL    HW120648   2.274   2.269   7.878  0.2703 -0.0135  3.5078
 3005SOL    HW220649   2.328   2.365   7.974 -0.9089  0.4132 -0.4434
 3006SOL     OW20650   0.990   0.743   7.622 -0.6154 -0.4011  0.2782
 3006SOL    HW120651   0.939   0.794   7.559  1.0393  1.3009  0.3074
 3006SOL    HW220652   0.987   0.651   7.593 -0.8414 -0.6587  1.1415
 3007SOL     OW20653   2.977   3.334  10.408 -0.2828  0.2393  0.3112
 3007SOL    HW120654   2.992   3.425  10.434  2.0174 -0.1326  0.2989
 3007SOL    HW220655   2.923   3.339  10.330  1.1869  1.1642 -0.6640
 3008SOL     OW20656   0.099   1.186   8.652 -0.2126  0.1438 -0.0379
 3008SOL    HW120657   0.040   1.261   8.643  0.5183  0.4207 -2.5871
 3008SOL    HW220658   0.074   1.133   8.577 -1.1644  1.5625 -0.7221
 3009SOL     OW20659   1.509   3.902  16.624  0.5259  0.5815 -0.0280
 3009SOL    HW120660   1.481   3.819  16.583 -1.7977  0.9744  0.7606
 3009SOL    HW220661   1.559   3.942  16.553  2.4252 -0.7284  0.5852
 3010SOL     OW20662   0.488   3.660   3.991  0.2300 -0.3328 -0.0899
 3010SOL    HW120663   0.413   3.616   3.951 -0.7908  3.0637 -1.8840
 3010SOL    HW220664   0.479   3.638   4.084  0.3181 -0.9234 -0.2189
 3011SOL     OW20665   3.739   0.119  14.713  0.0660  0.2576  0.4473
 3011SOL    HW120666   3.735   0.024  14.701  0.7034  0.0640  1.7790
 3011SOL    HW220667   3.683   0.139  14.638 -0.2363  1.8179  1.0886
 3012SOL     OW20668   1.356   0.914   5.523 -0.0550 -0.3923  0.1290
 3012SOL    HW120669   1.346   0.839   5.464 -1.5607  1.0690 -1.4948
 3012SOL    HW220670   1.294   0.975   5.483 -0.7191 -0.3870  1.1886
 3013SOL     OW20671   4.511   4.660   4.727 -0.1993 -0.7576 -0.0898
 3013SOL    HW120672   4.510   4.631   4.818  0.4452 -1.6974 -0.3844
 3013SOL    HW220673   4.425   4.623   4.705 -0.9353  2.6326 -2.7716
 3014SOL     OW20674   4.507   1.682   4.884  1.2656  0.1201 -0.5580
 3014SOL    HW120675   4.460   1.602   4.859 -0.5542  0.5559  1.4325
 3014SOL    HW220676   4.592   1.649   4.911  0.0090 -3.2054 -0.6673
 3015SOL     OW20677   4.600   0.034   6.040 -0.6770 -0.0347  0.5761
 3015SOL    HW120678   4.696   0.037   6.038 -0.8106  2.1354 -1.5966
 3015SOL    HW220679   4.573   0.109   5.988  1.2872 -0.5696 -1.2364
 3016SOL     OW20680   4.667   0.166  13.326  0.1442  0.3691 -0.0373
 3016SOL    HW120681   4.702   0.082  13.298  2.7104  1.6484 -0.6140
 3016SOL    HW220682   4.730   0.190  13.394 -0.4464  0.2291  0.5674
 3017SOL     OW20683   1.854   3.968   1.827 -0.1893 -0.3558  0.0293
 3017SOL    HW120684   1.826   3.915   1.752 -1.4012  1.5799 -0.8866
 3017SOL    HW220685   1.885   4.047   1.782  1.6111 -0.5457  0.9694
 3018SOL     OW20686   3.346   1.190   5.362 -0.1523 -0.3316  0.3142
 3018SOL    HW120687   3.417   1.125   5.359 -0.6117 -0.9386  2.5340
 3018SOL    HW220688   3.381   1.252   5.298 -2.1169  0.5718  0.1381
 3019SOL     OW20689   1.487   3.753   5.952  0.7206  0.0215 -0.5121
 3019SOL    HW120690   1.468   3.837   5.910 -0.2069 -0.9334 -2.0200
 3019SOL    HW220691   1.576   3.742   5.920  0.1180 -1.1421 -1.7681
 3020SOL     OW20692   3.391   4.606   7.188 -0.0810  0.2092  0.0104
 3020SOL    HW120693   3.466   4.595   7.246 -0.6162 -0.7507  0.5386
 3020SOL    HW220694   3.377   4.514   7.164  0.6285  0.4445 -1.2750
 3021SOL     OW20695   1.891   0.561  14.340  0.6141 -0.8275  0.8537
 3021SOL    HW120696   1.941   0.479  14.345 -0.8211 -1.8719 -1.8800
 3021SOL    HW220697   1.860   0.551  14.250  0.1586  0.7700  0.8314
 3022SOL     OW20698   1.805   4.651   7.229  0.6880  0.4577 -0.2173
 3022SOL    HW120699   1.725   4.628   7.274  1.9144 -0.1875  1.6240
 3022SOL    HW220700   1.818   4.737   7.269  0.3997  0.5710 -0.3705
 3023SOL     OW20701   1.738   1.103  16.053  1.0158 -0.7203  0.4653
 3023SOL    HW120702   1.702   1.178  16.100 -0.2066 -1.5288  0.8188
 3023SOL    HW220703   1.683   1.107  15.974 -1.4459 -0.0975  2.2270
 3024SOL     OW20704   3.494   1.955   2.202  0.4797 -0.3292 -0.1210
 3024SOL    HW120705   3.569   1.896   2.207 -1.0192 -2.0365  2.2545
 3024SOL    HW220706   3.536   2.041   2.205 -0.6515  0.1898  1.0373
 3025SOL     OW20707   2.477   1.894   4.526 -0.4868 -0.4902 -0.1860
 3025SOL    HW120708   2.392   1.931   4.550  0.2705  0.3777  1.1763
 3025SOL    HW220709   2.506   1.850   4.606 -2.2460 -1.6962 -0.2133
 3026SOL     OW20710   1.740   3.236  11.494  0.5771  0.0535 -0.3392
 3026SOL    HW120711   1.726   3.257  11.402  0.1602  1.6263  0.0722
 3026SOL    HW220712   1.710   3.318  11.534  0.0095 -0.1626 -0.3140
 3027SOL     OW20713   1.253   2.027  12.279 -0.1662  0.1621 -0.0988
 3027SOL    HW120714   1.341   1.990  12.289 -0.8531 -1.1517  0.9361
 3027SOL    HW220715   1.253   2.082  12.357  3.4155 -0.8838  0.6555
 3028SOL     OW20716   3.090   0.338   6.481 -0.3950 -0.1278 -0.0457
 3028SOL    HW120717   3.057   0.364   6.394 -0.4983 -0.9503 -0.2462
 3028SOL    HW220718   3.168   0.287   6.458 -0.4903 -0.8401  1.2187
 3029SOL     OW20719   3.527   3.798  15.436  0.5263 -0.2428  0.4809
 3029SOL    HW120720   3.601   3.856  15.456 -0.8305  2.1889 -1.5657
 3029SOL    HW220721   3.502   3.826  15.348 -0.3929  2.1148  1.4878
 3030SOL     OW20722   3.318   4.198   6.865 -0.4082 -0.3543  0.2500
 3030SOL    HW120723   3.311   4.287   6.900  3.0679 -0.3878  0.9483
 3030SOL    HW220724   3.246   4.164   6.918 -0.2346  1.8153  1.9025
 3031SOL     OW20725   1.077   0.025   7.304 -0.0286 -0.2918  0.2459
 3031SOL    HW120726   1.015   0.022   7.377 -1.8210  1.6789 -1.1766
 3031SOL    HW220727   1.014   0.048   7.236  1.5157 -0.4075 -1.2147
 3032SOL     OW20728   0.634   1.447   8.542 -0.2471  0.3154 -0.2381
 3032SOL    HW120729   0.575   1.512   8.503 -0.3900  0.5395  0.3503
 3032SOL    HW220730   0.661   1.500   8.617 -0.8244 -0.1824  0.3055
 3033SOL     OW20731   3.422   3.012   9.973 -0.2071  0.4409  0.7481
 3033SOL    HW120732   3.408   3.105   9.953 -0.2037  0.6149  1.5612
 3033SOL    HW220733   3.418   3.017  10.068 -1.3096  4.8560  0.5182
 3034SOL     OW20734   0.986   1.696   4.690 -0.2534  0.4010 -0.0983
 3034SOL    HW120735   0.985   1.765   4.756  2.0465  1.7859 -1.5452
 3034SOL    HW220736   1.052   1.727   4.629 -2.5517  3.3239 -1.1142
 3035SOL     OW20737   0.087   1.177   4.670  0.1885  0.1255  0.3131
 3035SOL    HW120738   0.082   1.111   4.601 -2.6416  1.6721 -0.9285
 3035SOL    HW220739   4.737   1.185   4.702 -0.3098  1.3572 -1.3986
 3036SOL     OW20740   3.084   2.514   4.416 -0.0951  0.7506 -0.2258
 3036SOL    HW120741   3.004   2.568   4.422 -0.3947  0.3793 -0.8992
 3036SOL    HW220742   3.065   2.468   4.334 -1.7927  1.9293 -0.5020
 3037SOL     OW20743   0.888   0.207   8.997  0.6415 -0.1481 -0.1681
 3037SOL    HW120744   0.898   0.297   9.026 -0.1682 -0.0852 -0.0732
 3037SOL    HW220745   0.978   0.180   8.981  1.0102  1.3281 -0.5286
 3038SOL     OW20746   0.831   3.458   6.385  0.3944  0.1352  0.0033
 3038SOL    HW120747   0.831   3.412   6.301 -0.0786  1.5986 -0.7987
 3038SOL    HW220748   0.895   3.408   6.435 -0.7646 -0.7410  0.5998
 3039SOL     OW20749   0.219   0.222   3.241 -0.5501 -0.7876  0.1721
 3039SOL    HW120750   0.201   0.199   3.332  0.9756  0.8853  0.9184
 3039SOL    HW220751   0.300   0.173   3.224  0.9415  1.7986 -0.2512
 3040SOL     OW20752   4.478   2.180   9.419 -0.5897 -0.3298 -0.1032
 3040SOL    HW120753   4.523   2.239   9.480  0.4828 -0.4361 -0.8011
 3040SOL    HW220754   4.394   2.171   9.465  0.1580 -1.1646  1.0990
 3041SOL     OW20755   4.722   3.224  10.868 -0.9365  0.3191  0.2496
 3041SOL    HW120756   4.691   3.312  10.888 -1.2241  0.1564  0.5226
 3041SOL    HW220757   4.667   3.205  10.792 -1.0535 -0.5812  0.5559
 3042SOL     OW20758   0.182   1.524   9.932  0.2997  0.1171 -0.5699
 3042SOL    HW120759   0.185   1.432   9.958 -3.0288  0.1454 -0.0967
 3042SOL    HW220760   0.175   1.560  10.020 -2.0050  2.9176 -1.8983
 3043SOL     OW20761   2.795   3.579  17.200 -0.2794  0.1011 -0.1578
 3043SOL    HW120762   2.750   3.499  17.227 -2.1218  0.4742 -2.1266
 3043SOL    HW220763   2.870   3.577  17.259 -1.0516 -2.0933  0.7653
 3044SOL     OW20764   2.045   0.196   7.307 -0.2014  0.0568 -0.0360
 3044SOL    HW120765   2.115   0.133   7.289 -0.6329 -0.2461 -0.6182
 3044SOL    HW220766   1.967   0.143   7.321 -0.6018  0.5989 -0.1892
 3045SOL     OW20767   3.579   2.657   5.501 -0.4986 -0.3179  0.5153
 3045SOL    HW120768   3.620   2.686   5.582  2.2005  2.2611 -1.7956
 3045SOL    HW220769   3.589   2.742   5.460  1.6221 -0.9166 -0.1943
 3046SOL     OW20770   4.044   3.180   5.428 -0.4564  0.0912  0.2119
 3046SOL    HW120771   4.086   3.209   5.508  1.9848 -0.0397 -1.0158
 3046SOL    HW220772   4.015   3.260   5.386  0.4874 -0.2734 -1.1502
 3047SOL     OW20773   2.105   2.133   3.657  0.3932  0.4625  0.4155
 3047SOL    HW120774   2.027   2.148   3.603  1.4289 -0.8077 -1.4590
 3047SOL    HW220775   2.068   2.087   3.732  3.3671 -0.2474  1.4274
 3048SOL     OW20776   4.306   0.429   5.117 -0.0791 -0.7052 -0.6767
 3048SOL    HW120777   4.329   0.337   5.107  0.5179 -0.3472 -2.6047
 3048SOL    HW220778   4.383   0.464   5.161 -0.0982 -1.5433  0.0192
 3049SOL     OW20779   2.761   0.244   7.258  0.2433  0.0377  0.3637
 3049SOL    HW120780   2.703   0.236   7.183  0.5837 -0.4545  0.1527
 3049SOL    HW220781   2.771   0.339   7.267  0.3476  0.1316 -0.7797
 3050SOL     OW20782   0.922   1.578   7.428 -0.1566  1.0849  0.1618
 3050SOL    HW120783   0.910   1.652   7.488  0.8832  1.2791  0.1393
 3050SOL    HW220784   0.970   1.522   7.489  1.6737  1.4374 -0.9545
 3051SOL     OW20785   1.681   2.866   1.767 -0.3765  0.7413  0.1919
 3051SOL    HW120786   1.738   2.890   1.694 -0.1630 -0.1062  0.0825
 3051SOL    HW220787   1.722   2.788   1.805 -2.9145 -1.7171 -2.1898
 3052SOL     OW20788   3.264   4.021   6.634 -0.0437  0.0737 -0.7458
 3052SOL    HW120789   3.238   4.111   6.614 -0.8828 -0.2705 -1.2311
 3052SOL    HW220790   3.332   4.028   6.701  0.1864  0.1188 -0.9818
 3053SOL     OW20791   3.269   4.690  14.583  0.1685  0.0186  0.3469
 3053SOL    HW120792   3.209   4.715  14.654  0.6231 -0.4006  0.8841
 3053SOL    HW220793   3.214   4.631  14.533  0.6677 -1.1102  1.1368
 3054SOL     OW20794   2.709   2.521  11.900 -0.4675 -0.2295  0.3503
 3054SOL    HW120795   2.670   2.511  11.987  0.9230  1.1511  1.1199
 3054SOL    HW220796   2.641   2.578  11.863 -0.5070  0.8660  2.1405
 3055SOL     OW20797   1.948   4.172   1.654  0.1372 -0.4388  0.5030
 3055SOL    HW120798   2.002   4.169   1.575  0.4658 -0.4049  0.7272
 3055SOL    HW220799   1.895   4.251   1.639 -0.8742 -1.3219 -0.6725
 3056SOL     OW20800   0.398   0.684   2.512  0.4800  0.3788 -0.6106
 3056SOL    HW120801   0.352   0.718   2.589  2.1481 -2.7204  1.7698
 3056SOL    HW220802   0.369   0.593   2.517 -0.6546  0.6521 -2.2012
 3057SOL     OW20803   0.029   0.883   9.460 -0.3151 -0.5749 -0.2479
 3057SOL    HW120804   0.103   0.825   9.443  0.8726  1.3022 -1.5192
 3057SOL    HW220805   0.050   0.921   9.546 -0.1669  0.5749 -0.7894
 3058SOL     OW20806   2.903   4.090   2.421  0.0183  0.0260 -0.3563
 3058SOL    HW120807   2.888   4.022   2.487 -1.2188  2.1896  1.6242
 3058SOL    HW220808   2.850   4.076   2.343 -1.2396 -3.1781  1.0583
 3059SOL     OW20809   1.652   1.192   0.004  0.2527  0.2383  0.0015
 3059SOL    HW120810   1.702   1.121  17.719 -0.9261  0.0290 -1.0902
 3059SOL    HW220811   1.558   1.175   0.014 -0.0677  1.6381 -0.6327
 3060SOL     OW20812   4.409   0.920   3.206 -0.0276  0.1267  0.3486
 3060SOL    HW120813   4.475   0.981   3.239  0.1886 -0.0241  0.1937
 3060SOL    HW220814   4.452   0.836   3.218  0.1530  0.2768  0.7728
 3061SOL     OW20815   3.774   0.109   5.022 -0.0403  0.0801  0.0532
 3061SOL    HW120816   3.775   0.199   5.055  0.3237 -0.3165  1.1244
 3061SOL    HW220817   3.685   0.109   4.985  0.8024  0.9677 -1.9647
 3062SOL     OW20818   3.659   0.397   5.025 -0.0362  0.4672 -0.3846
 3062SOL    HW120819   3.619   0.310   5.014 -1.5288  0.9659  1.1215
 3062SOL    HW220820   3.582   0.451   5.043 -0.2989  0.2666 -0.9264
 3063SOL     OW20821   1.302   2.618   2.654  0.2295 -0.3960  0.4650
 3063SOL    HW120822   1.223   2.582   2.694  0.2050 -2.1811 -1.1818
 3063SOL    HW220823   1.268   2.628   2.565 -1.7270 -0.0472  1.2580
 3064SOL     OW20824   3.442   0.839   2.297 -0.2585 -0.3109 -0.0241
 3064SOL    HW120825   3.471   0.765   2.243 -0.3797 -0.5038  0.1728
 3064SOL    HW220826   3.442   0.785   2.376 -0.7185 -0.1461  0.0860
 3065SOL     OW20827   4.708   2.964   8.215  0.5909  0.8788 -0.3479
 3065SOL    HW120828   0.049   2.914   8.222 -0.2024 -0.7016 -2.5903
 3065SOL    HW220829   4.665   2.909   8.149  1.0358  1.3274 -1.0071
 3066SOL     OW20830   1.966   0.793   8.380  0.0009 -0.4339 -0.0111
 3066SOL    HW120831   1.901   0.762   8.443  0.4473 -1.4081 -0.0297
 3066SOL    HW220832   1.904   0.858   8.346  0.6327 -0.7441 -1.7633
 3067SOL     OW20833   1.978   2.895   8.040  0.0724  0.7050  0.2252
 3067SOL    HW120834   1.953   2.886   7.948 -0.2664  2.1512  0.1746
 3067SOL    HW220835   2.070   2.873   8.028 -0.7611 -0.7851 -3.4172
 3068SOL     OW20836   4.518   1.431   9.658 -0.2374  0.1322  0.0966
 3068SOL    HW120837   4.528   1.371   9.584  0.6084 -0.9394  1.0854
 3068SOL    HW220838   4.432   1.468   9.639 -1.0359 -0.8556  1.7475
 3069SOL     OW20839   3.638   0.560   6.971  0.3594  0.1253  0.0465
 3069SOL    HW120840   3.673   0.602   6.893 -1.2308 -0.4495 -0.9744
 3069SOL    HW220841   3.613   0.632   7.029  0.7023 -0.6392  1.1413
 3070SOL     OW20842   0.530   4.432   9.519 -0.6356  0.2715  0.1280
 3070SOL    HW120843   0.470   4.362   9.495 -0.3818 -0.1065  0.5972
 3070SOL    HW220844   0.494   4.506   9.470 -1.6810 -0.8038 -0.7145
 3071SOL     OW20845   2.703   0.785   1.908  0.1813  0.6308 -0.0955
 3071SOL    HW120846   2.771   0.837   1.952 -0.4873 -0.0209  1.6969
 3071SOL    HW220847   2.630   0.830   1.949 -0.7503 -1.7863  0.9054
 3072SOL     OW20848   3.904   0.545   8.631  0.1287  0.3484 -0.3850
 3072SOL    HW120849   3.900   0.474   8.694 -1.2784  0.5900 -0.1865
 3072SOL    HW220850   3.993   0.577   8.644  1.0605 -2.0535 -1.0032
 3073SOL     OW20851   3.359   1.332   7.266 -0.1515  0.3611  0.6875
 3073SOL    HW120852   3.344   1.384   7.187 -0.6919  0.0288  0.5708
 3073SOL    HW220853   3.450   1.303   7.259 -0.6904 -1.2602  0.5623
 3074SOL     OW20854   1.471   3.846   4.472 -0.0235  0.1698  0.2607
 3074SOL    HW120855   1.383   3.810   4.478  1.3371 -3.1837 -0.3395
 3074SOL    HW220856   1.517   3.799   4.542  0.8054 -1.4758 -1.4216
 3075SOL     OW20857   4.679   0.598  11.598 -0.0053  0.0183 -0.3229
 3075SOL    HW120858   4.719   0.523  11.554  1.0323  0.0284  0.6163
 3075SOL    HW220859   4.638   0.559  11.676  1.4470  1.8243  1.3345
 3076SOL     OW20860   3.716   0.038   4.213 -0.1041 -0.1662 -0.2239
 3076SOL    HW120861   3.624   0.020   4.230 -0.4162  2.3139  0.5819
 3076SOL    HW220862   3.729   0.044   4.118  0.8541  1.9264  0.0574
 3077SOL     OW20863   4.223   3.064   2.139  0.0223 -0.0167  0.1058
 3077SOL    HW120864   4.286   3.135   2.125  1.5626 -1.2669  0.5898
 3077SOL    HW220865   4.198   3.040   2.050  1.5293 -1.7631  0.1362
 3078SOL     OW20866   4.442   0.930   4.876 -0.4004 -0.0255 -0.1124
 3078SOL    HW120867   4.475   0.885   4.954  1.0412 -0.1090 -0.7751
 3078SOL    HW220868   4.458   0.859   4.814 -0.9546 -0.7134  0.5401
 3079SOL     OW20869   0.948   0.396   5.739 -0.5352 -0.2897  0.3792
 3079SOL    HW120870   0.936   0.301   5.741  0.1333 -0.3734  0.2087
 3079SOL    HW220871   1.006   0.408   5.664 -2.0374 -2.8879 -1.2125
 3080SOL     OW20872   0.570   1.530  10.035  0.3765  0.4512 -0.4308
 3080SOL    HW120873   0.489   1.538  10.086  0.0831 -1.2566 -0.6427
 3080SOL    HW220874   0.604   1.452  10.078 -1.2894 -2.3656 -4.2579
 3081SOL     OW20875   2.708   0.787   3.379  0.4486  0.1786 -0.1561
 3081SOL    HW120876   2.625   0.824   3.410  0.2991  3.1909 -4.2159
 3081SOL    HW220877   2.747   0.858   3.328  1.7577 -1.6080 -1.6241
 3082SOL     OW20878   3.277   4.034  12.309  0.3031  0.0817  0.0896
 3082SOL    HW120879   3.255   4.023  12.401 -1.8107  1.8072 -0.1881
 3082SOL    HW220880   3.188   4.030  12.274  0.6023  0.8611 -0.7653
 3083SOL     OW20881   0.675   4.188   4.513 -0.0487 -0.1416  0.1537
 3083SOL    HW120882   0.597   4.136   4.534  0.7299 -1.0306  0.8437
 3083SOL    HW220883   0.675   4.261   4.574 -0.2360  2.4103 -2.8692
 3084SOL     OW20884   4.272   2.183   6.637  0.1590 -0.1996 -0.2709
 3084SOL    HW120885   4.295   2.269   6.673  0.2090 -1.1132  1.8756
 3084SOL    HW220886   4.323   2.188   6.556  0.5284  1.9872  0.1096
 3085SOL     OW20887   2.426   0.659   2.593  0.8857  0.1149  0.7570
 3085SOL    HW120888   2.340   0.662   2.635 -0.0938 -2.2903 -1.0873
 3085SOL    HW220889   2.435   0.749   2.561  0.1746  0.2432  0.9107
 3086SOL     OW20890   2.273   3.823   4.016 -0.2727  0.1183  0.0383
 3086SOL    HW120891   2.326   3.815   3.937 -0.4887 -0.2216 -0.0764
 3086SOL    HW220892   2.186   3.849   3.986  0.4509  0.5531 -1.6889
 3087SOL     OW20893   1.913   4.246   7.418 -0.7547  0.2492 -0.1687
 3087SOL    HW120894   1.928   4.340   7.415 -0.1823  0.0895 -1.9236
 3087SOL    HW220895   1.819   4.245   7.400 -1.0541  0.5659  1.4135
 3088SOL     OW20896   2.312   4.131   9.590 -0.3258  0.0815 -0.2511
 3088SOL    HW120897   2.337   4.221   9.571 -2.7294  0.8328  0.0912
 3088SOL    HW220898   2.359   4.113   9.671 -1.3232 -1.7796 -0.0894
 3089SOL     OW20899   3.374   1.250  13.066  0.1898 -0.2278  0.8061
 3089SOL    HW120900   3.293   1.302  13.062 -0.7734 -1.9845 -1.8452
 3089SOL    HW220901   3.348   1.168  13.108 -3.1605 -0.2587 -1.3017
 3090SOL     OW20902   2.009   4.678  11.856  0.8547 -0.0015 -0.0257
 3090SOL    HW120903   1.920   4.655  11.881  0.5646 -0.7683 -1.7465
 3090SOL    HW220904   1.999   0.002  11.784 -1.0183  0.0450  0.2784
 3091SOL     OW20905   1.483   0.973   0.266  0.2463 -0.2596 -0.2332
 3091SOL    HW120906   1.479   1.069   0.271  2.0217 -0.0574 -2.3976
 3091SOL    HW220907   1.513   0.951   0.178 -2.4639  2.2398 -1.7503
 3092SOL     OW20908   4.616   3.374   7.400  0.0876  0.4897 -0.0679
 3092SOL    HW120909   4.679   3.424   7.349  0.6426 -0.5359 -0.3756
 3092SOL    HW220910   4.538   3.390   7.346  0.3054 -0.3432 -0.6350
 3093SOL     OW20911   1.816   2.504   2.473 -0.1541  0.1572 -0.2841
 3093SOL    HW120912   1.844   2.595   2.463  2.1964 -0.5853 -0.5253
 3093SOL    HW220913   1.763   2.497   2.552 -1.2591  0.0605 -1.0306
 3094SOL     OW20914   0.015   0.608   5.017 -0.3033  1.0514 -0.5131
 3094SOL    HW120915   0.046   0.518   5.004 -2.0603  0.2652  0.8314
 3094SOL    HW220916   0.017   0.640   4.926 -3.5475 -1.4886 -1.4632
 3095SOL     OW20917   0.401   3.648   4.641 -0.1263 -0.2475  0.3705
 3095SOL    HW120918   0.433   3.576   4.695  0.4345  0.3179  0.8010
 3095SOL    HW220919   0.372   3.598   4.564  2.1000  1.2322 -1.4400
 3096SOL     OW20920   4.212   3.048   4.052 -0.1625  0.4216  0.2738
 3096SOL    HW120921   4.280   3.102   4.093 -0.1394 -1.0181  2.0927
 3096SOL    HW220922   4.237   2.961   4.082 -1.3868 -0.1335 -0.3295
 3097SOL     OW20923   0.568   2.509   5.160  0.1273  0.1716 -0.6192
 3097SOL    HW120924   0.624   2.582   5.135 -0.8152  0.5699 -1.5753
 3097SOL    HW220925   0.586   2.494   5.252  1.4825  0.4079 -0.8359
 3098SOL     OW20926   2.278   4.284   3.399  0.8682  0.1953 -0.2339
 3098SOL    HW120927   2.207   4.228   3.369  0.3752 -0.3240  1.9204
 3098SOL    HW220928   2.327   4.291   3.317  0.4301 -1.6314 -0.6601
 3099SOL     OW20929   0.988   4.420   2.761 -0.1643 -0.2167  0.2722
 3099SOL    HW120930   0.992   4.508   2.723 -1.2797 -0.5545 -0.6272
 3099SOL    HW220931   0.928   4.434   2.834  1.7114 -0.8813  1.9345
 3100SOL     OW20932   3.232   1.270  13.430 -0.7452  0.3941  0.1778
 3100SOL    HW120933   3.212   1.364  13.430 -2.5139  0.0027 -1.9718
 3100SOL    HW220934   3.239   1.250  13.523 -0.1014  0.3607  0.1196
 3101SOL     OW20935   3.146   1.519  13.389  0.7565 -0.3254 -0.6544
 3101SOL    HW120936   3.081   1.551  13.452  1.0379 -0.0636 -0.4969
 3101SOL    HW220937   3.181   1.605  13.367  0.3586 -0.2283 -0.9092
 3102SOL     OW20938   2.432   3.332   6.526 -0.4434  0.1846 -0.4591
 3102SOL    HW120939   2.350   3.382   6.535 -0.9733 -0.2285 -3.0679
 3102SOL    HW220940   2.406   3.293   6.443 -0.2917  2.1993 -1.4594
 3103SOL     OW20941   4.610   4.117   2.115 -0.5577 -0.9659  0.1475
 3103SOL    HW120942   4.555   4.073   2.179 -1.9431 -0.8513 -0.9510
 3103SOL    HW220943   4.683   4.054   2.121  0.8995  0.8594  1.4115
 3104SOL     OW20944   0.018   2.478   1.564 -0.3287 -0.5491  0.3747
 3104SOL    HW120945   0.112   2.492   1.553 -0.8635  1.4770 -1.6885
 3104SOL    HW220946   0.023   2.421   1.641 -0.5724  0.9858  1.5262
 3105SOL     OW20947   1.714   2.836   4.537 -0.2147 -0.1250 -0.4839
 3105SOL    HW120948   1.791   2.781   4.550  0.9253  1.7655  0.6981
 3105SOL    HW220949   1.672   2.788   4.465 -1.2633 -0.0512  0.0686
 3106SOL     OW20950   1.606   0.672  15.016 -0.0400 -0.1571  0.3709
 3106SOL    HW120951   1.518   0.685  15.053  0.4777  1.3427  1.0723
 3106SOL    HW220952   1.598   0.579  14.998  0.4979 -0.1193 -0.0281
 3107SOL     OW20953   1.032   2.732   8.901 -0.5767 -0.4717  0.2467
 3107SOL    HW120954   1.018   2.818   8.863  0.3101 -0.7127 -0.6399
 3107SOL    HW220955   1.097   2.756   8.968 -0.3451  0.2892 -0.2598
 3108SOL     OW20956   3.543   4.527  12.077 -0.5874 -0.6608  0.3714
 3108SOL    HW120957   3.529   4.434  12.098  0.0676 -1.0677 -1.0073
 3108SOL    HW220958   3.636   4.546  12.081 -0.8586  0.7540  0.0162
 3109SOL     OW20959   1.625   4.045   4.367 -0.6668 -0.5984 -0.0114
 3109SOL    HW120960   1.580   3.972   4.409 -1.8166 -0.0246 -0.2687
 3109SOL    HW220961   1.615   4.115   4.431  2.1215 -1.2017  1.1173
 3110SOL     OW20962   0.120   0.712   2.524  0.4825  0.0344 -0.5075
 3110SOL    HW120963   0.100   0.669   2.607 -1.0669  1.4977 -0.1186
 3110SOL    HW220964   0.059   0.786   2.527  1.6396  0.9665  0.3588
 3111SOL     OW20965   3.099   3.150   4.013  0.4146  0.4084 -0.4896
 3111SOL    HW120966   3.120   3.057   4.013  0.3142  0.3862 -0.4232
 3111SOL    HW220967   3.004   3.144   4.021  0.5970 -1.2057  0.3997
 3112SOL     OW20968   2.064   0.636   8.173 -0.1248 -0.4637  0.0231
 3112SOL    HW120969   2.146   0.602   8.210  0.8919  1.0879 -0.8126
 3112SOL    HW220970   2.024   0.689   8.242 -0.0535 -0.0410 -0.2592
 3113SOL     OW20971   1.623   1.513   6.004 -0.2253  0.1495 -0.2667
 3113SOL    HW120972   1.689   1.578   5.980  0.1086 -1.0309 -2.6319
 3113SOL    HW220973   1.596   1.482   5.917 -1.5305 -1.2422  0.6407
 3114SOL     OW20974   3.664   0.832   4.792 -0.8773 -0.3061 -0.2417
 3114SOL    HW120975   3.689   0.751   4.838  2.4415  1.0194  0.3264
 3114SOL    HW220976   3.750   0.870   4.770 -0.2244 -1.5846  0.0841
 3115SOL     OW20977   0.488   0.118   9.764  0.5966  0.3980 -0.3325
 3115SOL    HW120978   0.453   0.158   9.685 -0.9672 -0.7308 -0.2130
 3115SOL    HW220979   0.412   0.122   9.823  0.4073  0.6309 -0.5946
 3116SOL     OW20980   3.656   0.658   3.600 -0.5538 -0.5898 -0.1112
 3116SOL    HW120981   3.641   0.667   3.694 -0.5067 -0.4561 -0.1167
 3116SOL    HW220982   3.739   0.704   3.584 -0.8829 -0.2319 -0.7890
 3117SOL     OW20983   0.025   2.880   4.926  0.6822  0.2655 -0.0959
 3117SOL    HW120984   0.090   2.844   4.987  0.3866 -2.2447 -1.2766
 3117SOL    HW220985   4.693   2.890   4.989  1.9321 -0.1329  1.3942
 3118SOL     OW20986   0.316   0.526   2.810  0.4387  0.0192 -0.1236
 3118SOL    HW120987   0.390   0.584   2.827  0.9463 -0.5821 -0.3148
 3118SOL    HW220988   0.287   0.503   2.898 -0.9041 -0.1672 -0.6156
 3119SOL     OW20989   2.322   1.617  15.526  0.1823  0.2486 -0.2804
 3119SOL    HW120990   2.358   1.695  15.569 -1.9566 -0.2977  2.4942
 3119SOL    HW220991   2.254   1.646  15.466 -0.2083  1.0068  0.5434
 3120SOL     OW20992   2.647   0.606   7.307  0.0167 -0.5416  0.1956
 3120SOL    HW120993   2.613   0.689   7.274 -1.4489 -0.9473  0.6538
 3120SOL    HW220994   2.701   0.574   7.235 -0.4197 -0.6152 -0.1014
 3121SOL     OW20995   4.640   0.343  12.000  0.1507  0.4098 -0.0936
 3121SOL    HW120996   4.736   0.336  11.994 -0.0261 -0.0757 -2.3838
 3121SOL    HW220997   4.618   0.317  11.910 -1.2112 -1.9225  0.9051
 3122SOL     OW20998   0.669   1.885  12.205  0.1139  0.5114 -0.0124
 3122SOL    HW120999   0.594   1.833  12.176  2.1173 -2.1352 -0.4175
 3122SOL    HW221000   0.708   1.914  12.122  2.1578 -2.1062  0.0524
 3123SOL     OW21001   2.019   2.148   5.815 -0.1960 -0.4935  0.8377
 3123SOL    HW121002   2.021   2.148   5.719 -0.9126  0.5541  0.8243
 3123SOL    HW221003   1.932   2.181   5.838 -1.1286 -1.6892 -0.9997
 3124SOL     OW21004   2.711   2.980  14.648 -0.2390 -0.0303  0.2321
 3124SOL    HW121005   2.651   2.923  14.696  0.4406  0.2337  1.4229
 3124SOL    HW221006   2.681   3.070  14.656  0.6618  0.3413 -0.5466
 3125SOL     OW21007   2.386   0.020   8.283 -0.0597 -0.4065  0.0200
 3125SOL    HW121008   2.414   0.076   8.211 -0.0644  1.4099  1.4241
 3125SOL    HW221009   2.295   0.003   8.259  0.0216  0.4859 -0.9545
 3126SOL     OW21010   2.647   0.579  16.875 -0.0483 -0.0537 -0.1026
 3126SOL    HW121011   2.604   0.638  16.812 -1.5430  0.0247  0.9730
 3126SOL    HW221012   2.713   0.541  16.818 -0.6773  0.7344 -1.3815
 3127SOL     OW21013   2.361   0.159   2.024  0.5452  0.5068 -0.2181
 3127SOL    HW121014   2.307   0.231   2.058 -0.9966 -0.4368 -0.6710
 3127SOL    HW221015   2.302   0.131   1.954 -0.3711  1.8326  0.0253
 3128SOL     OW21016   1.645   1.724   7.276 -0.4568 -0.6341 -0.0577
 3128SOL    HW121017   1.551   1.708   7.270 -0.0006 -3.6118  0.7521
 3128SOL    HW221018   1.648   1.786   7.203 -1.5175 -1.5600 -0.8769
 3129SOL     OW21019   4.483   1.733  16.360 -0.7849 -0.4211  0.0052
 3129SOL    HW121020   4.459   1.745  16.452 -0.7232  1.5938 -0.2269
 3129SOL    HW221021   4.449   1.816  16.326  0.3070  0.2586  0.5846
 3130SOL     OW21022   1.728   4.593   3.146  0.4876 -0.0212 -0.1009
 3130SOL    HW121023   1.768   4.576   3.231 -1.8354 -1.7960  0.6440
 3130SOL    HW221024   1.691   4.508   3.121  2.2836 -1.6945  2.9371
 3131SOL     OW21025   0.878   2.503   8.435  0.1658  0.2310  0.4143
 3131SOL    HW121026   0.946   2.520   8.501  1.1598 -1.7977 -0.0731
 3131SOL    HW221027   0.913   2.557   8.364 -0.1099  0.5178  0.4947
 3132SOL     OW21028   3.306   1.319   6.203  0.4787  0.0959  0.1590
 3132SOL    HW121029   3.345   1.349   6.121 -0.9858  0.7715 -0.2763
 3132SOL    HW221030   3.385   1.320   6.258  0.7353 -0.7101 -0.2027
 3133SOL     OW21031   4.240   0.486   4.843  0.3993 -0.3157  0.0051
 3133SOL    HW121032   4.321   0.438   4.863 -0.0898 -1.7052 -1.3181
 3133SOL    HW221033   4.231   0.533   4.926  2.3264  1.3212 -0.7146
 3134SOL     OW21034   2.953   1.017  14.294 -0.1506  0.0040  0.6609
 3134SOL    HW121035   2.940   0.996  14.201  1.1492 -0.2937  0.5396
 3134SOL    HW221036   2.979   0.934  14.335  3.3167  0.6220 -0.2983
 3135SOL     OW21037   4.596   2.416   3.206  0.0240 -0.3815 -0.7565
 3135SOL    HW121038   4.597   2.324   3.232 -1.2125  0.1685  1.3200
 3135SOL    HW221039   4.530   2.446   3.268 -1.4060 -2.9398 -1.0443
 3136SOL     OW21040   1.031   1.155   9.076 -0.3868 -0.3984 -0.0434
 3136SOL    HW121041   1.072   1.175   9.160  0.1187 -0.3292 -0.3054
 3136SOL    HW221042   0.950   1.120   9.112 -1.9813  1.2519 -2.0047
 3137SOL     OW21043   3.022   3.840   3.369 -0.2556 -0.1271 -0.2147
 3137SOL    HW121044   3.038   3.805   3.457 -1.3510  0.6432  0.2891
 3137SOL    HW221045   3.047   3.933   3.372  0.4321 -0.3426  0.7922
 3138SOL     OW21046   0.429   3.944  16.719 -0.0547 -0.2275  0.0823
 3138SOL    HW121047   0.381   3.959  16.638  1.6422 -0.7043 -1.0027
 3138SOL    HW221048   0.519   3.964  16.696  0.2597 -1.4531  0.2333
 3139SOL     OW21049   0.943   3.786   2.989  0.0131  0.6773 -0.0018
 3139SOL    HW121050   1.013   3.851   2.988  1.5461 -0.9495  1.3484
 3139SOL    HW221051   0.871   3.827   3.038 -1.1580 -1.3913  0.0247
 3140SOL     OW21052   4.076   4.413   7.136 -0.6461  0.8361 -0.6610
 3140SOL    HW121053   4.119   4.450   7.212 -1.3808  1.9936 -0.8072
 3140SOL    HW221054   3.989   4.452   7.128 -0.3422  0.8950 -3.8346
 3141SOL     OW21055   2.584   2.001   5.356  0.2519  0.8363 -0.3162
 3141SOL    HW121056   2.640   1.960   5.422  1.2459  1.0829 -1.0088
 3141SOL    HW221057   2.528   1.924   5.353 -0.9721  1.6870  0.8213
 3142SOL     OW21058   2.906   4.270  17.143  0.5586  0.2157  0.2750
 3142SOL    HW121059   2.998   4.247  17.129  0.4574  0.9402 -1.7052
 3142SOL    HW221060   2.876   4.191  17.187 -0.0429  1.2884  1.7919
 3143SOL     OW21061   3.069   2.576   5.353  0.0383 -0.0177 -0.0844
 3143SOL    HW121062   3.042   2.608   5.439  0.4235 -1.7375  0.6549
 3143SOL    HW221063   3.125   2.646   5.318 -0.0108  0.7303  1.2922
 3144SOL     OW21064   2.083   1.260  10.309  0.2258  0.3762 -0.1990
 3144SOL    HW121065   2.022   1.334  10.311 -1.2395 -0.8688  0.8207
 3144SOL    HW221066   2.021   1.189  10.325  2.3116 -1.8874 -2.2276
 3145SOL     OW21067   1.541   3.019   8.254 -0.4002 -0.2910  0.3052
 3145SOL    HW121068   1.622   3.056   8.290 -0.1994 -0.5429  0.1167
 3145SOL    HW221069   1.570   2.960   8.185 -2.4316 -0.6159 -0.2519
 3146SOL     OW21070   1.864   1.326  10.064  0.0731  0.0677  0.4833
 3146SOL    HW121071   1.856   1.353  10.156  3.3821  1.8890  0.2325
 3146SOL    HW221072   1.935   1.374  10.022  1.6686 -1.1771  1.7129
 3147SOL     OW21073   2.675   0.671  12.103  0.0626  0.0137 -0.1348
 3147SOL    HW121074   2.759   0.709  12.081 -0.0425  0.9946  1.1123
 3147SOL    HW221075   2.694   0.616  12.179 -0.6012 -0.8245 -0.5814
 3148SOL     OW21076   4.618   0.156   6.678 -0.0888  0.3113  0.7147
 3148SOL    HW121077   4.540   0.102   6.666 -0.2370  0.3849  1.3337
 3148SOL    HW221078   4.691   0.119   6.630 -1.6476 -0.3098 -1.1755
 3149SOL     OW21079   0.526   0.438   6.627  0.4788 -0.0010  0.3207
 3149SOL    HW121080   0.580   0.433   6.706 -1.9827 -1.7349  1.8866
 3149SOL    HW221081   0.450   0.475   6.671 -0.7589 -0.7917 -1.1516
 3150SOL     OW21082   2.642   4.094   8.166 -0.1173 -0.4362  0.6102
 3150SOL    HW121083   2.549   4.074   8.175 -0.4261  0.8569  0.2966
 3150SOL    HW221084   2.677   4.045   8.241  0.3144 -2.4704 -0.9156
 3151SOL     OW21085   1.719   1.675   1.141  0.1607  0.5212  0.0732
 3151SOL    HW121086   1.728   1.757   1.092 -0.0911 -0.6879 -2.0299
 3151SOL    HW221087   1.735   1.622   1.063  2.0738 -2.2663  2.3809
 3152SOL     OW21088   1.394   2.994  15.897  0.2051 -0.0443 -0.0787
 3152SOL    HW121089   1.428   3.046  15.970  0.4345 -1.5258  0.8655
 3152SOL    HW221090   1.338   2.927  15.935 -0.2825  0.9405  0.9358
 3153SOL     OW21091   1.856   0.082  14.682  0.2011 -0.0764 -0.5303
 3153SOL    HW121092   1.773   0.129  14.670 -1.3987 -2.9341 -0.6206
 3153SOL    HW221093   1.835   0.035  14.763  1.1549  0.1453 -0.1468
 3154SOL     OW21094   2.669   1.691   9.635  0.3025  0.3486  0.2500
 3154SOL    HW121095   2.762   1.667   9.624  0.6790  0.5904  2.9052
 3154SOL    HW221096   2.662   1.655   9.724  0.9596  0.7628  0.4789
 3155SOL     OW21097   4.621   3.230   4.383 -0.3125 -0.2871  0.4828
 3155SOL    HW121098   4.586   3.295   4.445  2.0487  0.9807  0.5201
 3155SOL    HW221099   4.709   3.222   4.421  0.1298  0.3155 -0.4086
 3156SOL     OW21100   1.786   1.063  14.944  0.1616 -0.7001  0.0510
 3156SOL    HW121101   1.878   1.037  14.940 -0.5626 -3.6145  2.4348
 3156SOL    HW221102   1.796   1.134  15.007 -1.8636  0.1504 -0.5881
 3157SOL     OW21103   0.589   0.880   4.629 -0.0890 -0.1628  0.4715
 3157SOL    HW121104   0.632   0.851   4.710  1.3329 -0.2462 -0.3089
 3157SOL    HW221105   0.618   0.970   4.617  0.5933 -0.5496 -0.8177
 3158SOL     OW21106   2.611   3.473  14.796  0.2663 -0.2115  0.3217
 3158SOL    HW121107   2.644   3.549  14.748  0.0006 -1.2050 -1.4126
 3158SOL    HW221108   2.688   3.419  14.814  0.3481 -0.3361 -0.4025
 3159SOL     OW21109   2.603   1.883  12.788  0.1246 -0.1193 -0.5604
 3159SOL    HW121110   2.680   1.914  12.835 -0.1901  0.2221 -0.2677
 3159SOL    HW221111   2.535   1.899  12.854 -1.0341  0.0583 -1.7922
 3160SOL     OW21112   1.501   0.296   2.824  0.3453  0.0779 -0.6020
 3160SOL    HW121113   1.454   0.267   2.902 -0.1339 -1.9443 -1.6305
 3160SOL    HW221114   1.558   0.225   2.794 -0.1994 -1.2819  1.5900
 3161SOL     OW21115   0.240   2.816   9.261  0.3393 -0.0299  0.2832
 3161SOL    HW121116   0.292   2.871   9.320 -0.7665  1.6629 -0.2891
 3161SOL    HW221117   0.176   2.785   9.325  2.7260 -0.8343  2.3108
 3162SOL     OW21118   3.450   4.499  17.583  0.1834 -0.1119  0.1226
 3162SOL    HW121119   3.512   4.452  17.640  1.0446  1.7178  0.6799
 3162SOL    HW221120   3.367   4.464  17.617 -0.1310  2.4134  1.9863
 3163SOL     OW21121   0.605   3.189  13.094 -0.3959  0.7084 -0.7716
 3163SOL    HW121122   0.554   3.260  13.133 -1.2035  0.0033 -0.5294
 3163SOL    HW221123   0.653   3.244  13.032 -0.0472 -0.0410 -1.1751
 3164SOL     OW21124   4.384   1.490   5.993  0.1523 -0.5084 -0.8408
 3164SOL    HW121125   4.397   1.562   5.932 -2.0849 -0.0224 -0.7550
 3164SOL    HW221126   4.471   1.479   6.030 -1.4802  1.3941  3.5160
 3165SOL     OW21127   3.206   0.970   6.350 -0.0027 -0.0480 -0.1460
 3165SOL    HW121128   3.177   1.053   6.388 -0.5325 -0.8118  1.1232
 3165SOL    HW221129   3.297   0.990   6.326 -0.2776  4.3245  2.3876
 3166SOL     OW21130   3.252   1.605   9.582 -0.0624 -0.4310  0.9191
 3166SOL    HW121131   3.255   1.569   9.670  0.4852 -0.6165  0.8267
 3166SOL    HW221132   3.318   1.553   9.536  0.7077  0.0472  1.4684
 3167SOL     OW21133   1.742   0.629   5.932  0.3991 -0.6918 -0.0280
 3167SOL    HW121134   1.677   0.585   5.877  0.4682  1.1788 -1.5983
 3167SOL    HW221135   1.683   0.669   5.996 -0.8733 -2.3246 -0.1615
 3168SOL     OW21136   2.970   3.792   8.285  0.1194  0.1547 -0.0224
 3168SOL    HW121137   2.935   3.720   8.232  0.2422  0.6775 -0.8152
 3168SOL    HW221138   2.996   3.858   8.221 -3.9270 -0.0915 -1.9416
 3169SOL     OW21139   0.829   4.284   2.571 -0.1768 -1.0767  0.2540
 3169SOL    HW121140   0.768   4.225   2.614 -0.5747 -0.3459  0.6952
 3169SOL    HW221141   0.883   4.319   2.641  0.8636 -2.1743  0.0109
 3170SOL     OW21142   1.998   2.094   6.431  0.9106  0.0742 -0.1217
 3170SOL    HW121143   1.981   2.083   6.525  0.8198  1.6725  0.0521
 3170SOL    HW221144   2.093   2.090   6.437  0.8536 -1.3482 -0.0531
 3171SOL     OW21145   0.207   3.571  13.384  0.2887  0.1271 -0.4571
 3171SOL    HW121146   0.219   3.640  13.449 -2.1545 -1.4729  1.6831
 3171SOL    HW221147   0.140   3.513  13.420 -0.1307 -0.6313 -2.4684
 3172SOL     OW21148   0.593   2.398   1.620 -0.4425 -0.0868 -0.0345
 3172SOL    HW121149   0.650   2.323   1.636  0.5865  1.1837  2.2438
 3172SOL    HW221150   0.549   2.395   1.705 -1.1722 -1.8841 -0.4899
 3173SOL     OW21151   1.447   4.374  11.711 -0.2122 -0.1992 -0.3045
 3173SOL    HW121152   1.433   4.456  11.759 -1.5405 -0.0823 -0.8948
 3173SOL    HW221153   1.516   4.396  11.649  0.5142 -0.2090  0.4975
 3174SOL     OW21154   0.271   2.189   1.675 -0.3379 -0.3517  0.0512
 3174SOL    HW121155   0.350   2.142   1.649 -0.3259  0.8398 -2.0822
 3174SOL    HW221156   0.292   2.219   1.763 -0.6240  0.5441 -0.1804
 3175SOL     OW21157   0.244   1.950   2.902 -0.1944 -0.3107  0.2196
 3175SOL    HW121158   0.162   1.978   2.862 -0.0332 -0.9576 -0.5637
 3175SOL    HW221159   0.224   1.860   2.929  0.6697 -0.3907  0.5857
 3176SOL     OW21160   1.434   0.112   5.556  0.1863 -0.6024 -0.1616
 3176SOL    HW121161   1.390   0.045   5.504  1.3663 -0.8654 -0.8328
 3176SOL    HW221162   1.362   0.140   5.612  0.8983 -0.4424  0.6739
 3177SOL     OW21163   2.807   2.553   6.166 -0.1695  0.2358 -1.0725
 3177SOL    HW121164   2.843   2.567   6.079  1.8909  1.7790  0.0525
 3177SOL    HW221165   2.755   2.633   6.177  0.4759  0.2326  1.8158
 3178SOL     OW21166   4.138   0.124  13.141  0.4255 -0.3926 -0.0512
 3178SOL    HW121167   4.228   0.118  13.175  0.8060 -0.0649 -1.0013
 3178SOL    HW221168   4.127   0.039  13.099  1.8197 -0.8480  0.5062
 3179SOL     OW21169   0.917   0.430  10.368 -0.6891  0.1844  0.5344
 3179SOL    HW121170   0.860   0.433  10.291  0.6682  0.5778 -0.4638
 3179SOL    HW221171   0.991   0.395  10.319 -0.4024 -0.8882  1.7399
 3180SOL     OW21172   4.397   2.559   5.126 -0.1938 -0.8556 -0.3465
 3180SOL    HW121173   4.342   2.486   5.156 -1.3181 -0.7931 -2.2324
 3180SOL    HW221174   4.486   2.531   5.149  0.2889  2.5480  1.9565
 3181SOL     OW21175   1.706   3.009  16.467 -0.3643  0.2670  0.0827
 3181SOL    HW121176   1.705   3.103  16.450  0.7072  0.3930  0.7174
 3181SOL    HW221177   1.739   2.974  16.384  1.4928  0.4832  0.7324
 3182SOL     OW21178   4.101   4.151   7.079  0.1754  0.1371 -0.5493
 3182SOL    HW121179   4.085   4.244   7.092  0.6414  0.1017  0.3066
 3182SOL    HW221180   4.136   4.132   7.166 -1.4577  0.1320  0.1000
 3183SOL     OW21181   1.281   2.246   1.997 -0.3663 -0.3881  0.5311
 3183SOL    HW121182   1.297   2.250   2.091 -2.1190 -1.3781  0.8554
 3183SOL    HW221183   1.199   2.295   2.008 -0.0204  0.2556  0.2716
 3184SOL     OW21184   1.160   2.184  14.399 -0.0480  0.1288 -0.4505
 3184SOL    HW121185   1.114   2.132  14.465 -1.0503  1.4500 -0.1129
 3184SOL    HW221186   1.239   2.131  14.387  0.2263  0.0202  1.8469
 3185SOL     OW21187   2.059   1.146   8.362 -0.0140 -0.1332 -0.0415
 3185SOL    HW121188   2.109   1.118   8.439 -0.9974  2.3005  1.4838
 3185SOL    HW221189   2.058   1.241   8.365 -0.4600 -0.0536 -3.0257
 3186SOL     OW21190   3.451   3.167   7.998  0.1801 -0.0348 -0.1895
 3186SOL    HW121191   3.477   3.259   7.989  0.8555 -0.2310 -0.2576
 3186SOL    HW221192   3.441   3.153   8.092  2.6219  0.3499  0.1345
 3187SOL     OW21193   2.450   2.011   9.810  0.4115  0.0613  0.2458
 3187SOL    HW121194   2.400   2.034   9.732  3.2976 -0.3313 -1.7209
 3187SOL    HW221195   2.540   2.032   9.785  0.3440  1.5082  1.2360
 3188SOL     OW21196   0.938   1.070   7.597 -0.6064  0.2403 -0.5415
 3188SOL    HW121197   0.969   1.033   7.515 -0.9945  0.8194 -0.9462
 3188SOL    HW221198   0.843   1.054   7.599 -0.8721  2.0586  1.1044
 3189SOL     OW21199   1.522   4.512   8.862  0.1539 -0.3221  0.2036
 3189SOL    HW121200   1.520   4.467   8.778  3.3602  0.5368 -0.3236
 3189SOL    HW221201   1.567   4.591   8.834  1.8315 -0.6470  1.9765
 3190SOL     OW21202   3.317   3.710  14.349  0.1121 -0.9772 -0.2380
 3190SOL    HW121203   3.334   3.707  14.255 -0.9348 -2.4515 -0.3688
 3190SOL    HW221204   3.318   3.617  14.370  1.1516 -1.4103 -2.2261
 3191SOL     OW21205   2.312   0.784  10.372  0.3439  0.7211  0.6203
 3191SOL    HW121206   2.310   0.776  10.467  2.1515 -0.3330  0.5807
 3191SOL    HW221207   2.223   0.815  10.358 -0.0756 -0.9814 -0.4495
 3192SOL     OW21208   4.067   0.970   9.371 -0.2817 -0.3221 -0.8000
 3192SOL    HW121209   4.031   1.043   9.321 -1.2907 -0.4555 -0.2720
 3192SOL    HW221210   4.159   0.993   9.384 -0.8752  2.0257 -0.7904
 3193SOL     OW21211   1.659   3.502  10.484 -0.1836  0.0188 -0.5038
 3193SOL    HW121212   1.737   3.549  10.513 -0.4603  0.2403 -0.1149
 3193SOL    HW221213   1.612   3.480  10.565  1.7079 -0.4357  0.4741
 3194SOL     OW21214   4.043   0.628   9.130  0.0863 -0.1018 -0.8157
 3194SOL    HW121215   4.131   0.661   9.148 -0.5355  1.6660 -0.9765
 3194SOL    HW221216   3.993   0.698   9.173  0.7057 -1.1817  1.6633
 3195SOL     OW21217   0.446   4.393   3.477 -0.3247 -0.0225  0.0332
 3195SOL    HW121218   0.385   4.326   3.507 -1.5484  0.0758 -2.2048
 3195SOL    HW221219   0.475   4.420   3.564  0.4154  0.2271 -0.2915
 3196SOL     OW21220   0.503   2.576   2.458 -0.0643  0.3813  0.0282
 3196SOL    HW121221   0.509   2.481   2.461  1.1100  0.5395  2.2144
 3196SOL    HW221222   0.574   2.578   2.522  2.1035 -0.8783 -2.3373
 3197SOL     OW21223   4.290   1.328   7.013 -0.2377  0.2332 -0.4972
 3197SOL    HW121224   4.237   1.250   7.029  0.5712  0.2612  2.1860
 3197SOL    HW221225   4.360   1.285   6.962 -1.5061 -3.1570  0.6086
 3198SOL     OW21226   1.015   3.790   7.477 -0.1700  0.2395  0.6819
 3198SOL    HW121227   1.061   3.831   7.550  1.0144  0.0311  0.0428
 3198SOL    HW221228   1.018   3.861   7.412 -0.0855 -0.5988 -0.2302
 3199SOL     OW21229   2.234   4.215  17.579 -0.0196 -0.3663  0.4555
 3199SOL    HW121230   2.179   4.168  17.642 -3.2558  0.6026 -1.6890
 3199SOL    HW221231   2.176   4.285  17.551 -1.6782 -1.1682  1.8845
 3200SOL     OW21232   2.831   3.509  15.086 -0.2883 -0.3447 -0.7425
 3200SOL    HW121233   2.842   3.548  15.000  1.4653  1.3732  0.2427
 3200SOL    HW221234   2.752   3.457  15.075 -0.6070  0.0440 -0.3296
 3201SOL     OW21235   0.656   4.486   8.020 -0.1171 -0.5956 -0.1449
 3201SOL    HW121236   0.579   4.539   8.043 -0.6101 -1.0670 -0.6889
 3201SOL    HW221237   0.641   4.409   8.075 -2.7880  0.1855  0.2243
 3202SOL     OW21238   4.155   1.169   8.307  0.4901 -0.3368 -0.0110
 3202SOL    HW121239   4.160   1.222   8.387 -0.9197  0.3079 -0.3546
 3202SOL    HW221240   4.250   1.157   8.298  0.7372  1.6807 -0.1603
 3203SOL     OW21241   3.086   0.989  10.881 -0.0227 -0.1610 -0.3929
 3203SOL    HW121242   2.994   0.987  10.907  0.5321 -2.4776  1.3105
 3203SOL    HW221243   3.079   1.058  10.815  2.0554  0.9563  0.5625
 3204SOL     OW21244   1.092   0.317   3.697 -0.1483 -0.1384  0.2721
 3204SOL    HW121245   1.164   0.255   3.692  1.5673  1.8848 -0.2502
 3204SOL    HW221246   1.037   0.281   3.767 -1.3564  0.7515 -0.2166
 3205SOL     OW21247   4.496   1.382   5.582 -0.3328  0.0211 -0.1330
 3205SOL    HW121248   4.556   1.456   5.575  0.9785 -1.1566 -1.5494
 3205SOL    HW221249   4.412   1.419   5.557  0.0132  0.6628 -0.3415
 3206SOL     OW21250   0.131   1.162  16.837 -0.6996 -0.0957 -0.3449
 3206SOL    HW121251   0.036   1.156  16.854 -1.3273  2.8644 -2.9774
 3206SOL    HW221252   0.135   1.255  16.815 -1.8547  0.1920  0.6630
 3207SOL     OW21253   1.754   4.227  11.101  0.8170 -0.1749  0.0915
 3207SOL    HW121254   1.821   4.159  11.106 -0.8537 -1.8160  0.0356
 3207SOL    HW221255   1.785   4.303  11.150 -1.9017  1.3829 -0.6103
 3208SOL     OW21256   1.260   2.238   3.963 -0.0051  0.0867  0.4971
 3208SOL    HW121257   1.253   2.330   3.937 -1.7032  0.0429  0.7626
 3208SOL    HW221258   1.258   2.202   3.875 -0.1689  0.2054  0.4522
 3209SOL     OW21259   2.861   4.176   1.216 -0.2391 -0.4691 -0.5022
 3209SOL    HW121260   2.891   4.254   1.262 -0.7887 -0.2907 -0.4471
 3209SOL    HW221261   2.766   4.191   1.214 -0.2468  0.1197  3.5648
 3210SOL     OW21262   4.176   4.630  16.428 -0.5908  0.2554 -0.1397
 3210SOL    HW121263   4.081   4.633  16.420 -0.3910  0.2015 -2.8238
 3210SOL    HW221264   4.197   4.672  16.344 -0.9097 -0.6648 -0.6873
 3211SOL     OW21265   0.142   3.551   1.908  0.1516  0.1644  0.5794
 3211SOL    HW121266   0.055   3.526   1.941  0.6110 -2.1584  0.0395
 3211SOL    HW221267   0.117   3.610   1.836 -1.4305 -1.6535 -0.3738
 3212SOL     OW21268   2.966   3.106  10.562  0.3385 -0.1871 -0.5255
 3212SOL    HW121269   2.925   3.189  10.537 -1.3138 -0.4442  1.3086
 3212SOL    HW221270   3.057   3.125  10.587 -0.0072  1.5854 -0.6452
 3213SOL     OW21271   4.087   1.420  16.387 -0.1777  0.0500  0.0021
 3213SOL    HW121272   4.064   1.390  16.298  0.5071 -0.0543 -0.1361
 3213SOL    HW221273   4.177   1.448  16.372 -0.3835  0.1896 -0.9913
 3214SOL     OW21274   0.188   3.774   9.871 -0.0508 -0.0592 -0.1593
 3214SOL    HW121275   0.235   3.857   9.879  0.4574 -0.2213 -1.5543
 3214SOL    HW221276   0.129   3.784   9.946  1.9141  1.2747  1.2046
 3215SOL     OW21277   3.110   4.338   9.501 -0.3164 -0.4991 -0.0412
 3215SOL    HW121278   3.148   4.332   9.588 -0.2877  2.3718  0.1381
 3215SOL    HW221279   3.109   4.433   9.495 -0.5746 -0.5292 -0.5388
 3216SOL     OW21280   2.697   0.860  13.800 -0.0404  0.3834 -0.5591
 3216SOL    HW121281   2.730   0.827  13.716 -1.7932  0.0622 -1.1094
 3216SOL    HW221282   2.636   0.926  13.768  2.4818  2.5834 -0.8298
 3217SOL     OW21283   4.405   0.845  15.906  0.0074  0.2510  0.7258
 3217SOL    HW121284   4.328   0.788  15.911  0.3157 -0.2115  0.1231
 3217SOL    HW221285   4.356   0.927  15.907  1.1290  0.9211 -2.8905
 3218SOL     OW21286   0.339   2.950   5.236 -0.2507 -0.3431  0.1327
 3218SOL    HW121287   0.246   2.930   5.225  0.0359 -1.7968  0.3332
 3218SOL    HW221288   0.347   3.038   5.199  0.0506  0.5494  2.3122
 3219SOL     OW21289   4.619   1.358   4.328  0.1684 -0.2305 -0.3858
 3219SOL    HW121290   4.649   1.361   4.237  3.5776 -1.7334  0.6796
 3219SOL    HW221291   4.606   1.449   4.355  1.0995  0.6480 -2.8587
 3220SOL     OW21292   4.385   4.314   8.559  0.5428 -0.2256  0.5005
 3220SOL    HW121293   4.352   4.366   8.632  0.4319  0.5376 -0.0829
 3220SOL    HW221294   4.471   4.348   8.533  0.7741  0.6052  2.3945
 3221SOL     OW21295   2.622   2.923  13.165  0.0442  0.0514 -0.2171
 3221SOL    HW121296   2.687   2.985  13.199  1.1197 -2.3129  2.0404
 3221SOL    HW221297   2.577   2.973  13.097 -0.2140 -1.3031 -1.0388
 3222SOL     OW21298   2.449   1.191   3.208 -0.1786 -0.2296  0.0149
 3222SOL    HW121299   2.485   1.277   3.183 -2.1760  0.5567 -0.1886
 3222SOL    HW221300   2.534   1.147   3.211  0.1931  0.6685  2.5454
 3223SOL     OW21301   3.369   0.092   5.558  0.1367 -0.2099 -0.2825
 3223SOL    HW121302   3.390   0.049   5.641 -2.5213  1.7496  1.4163
 3223SOL    HW221303   3.274   0.086   5.556  0.0975 -0.5547  2.2870
 3224SOL     OW21304   4.550   0.694   8.408  0.5945 -0.2949  0.6829
 3224SOL    HW121305   4.533   0.704   8.314 -0.4846  0.2080  0.9274
 3224SOL    HW221306   4.645   0.684   8.417  0.4470 -2.7298 -0.7085
 3225SOL     OW21307   0.845   0.318   8.601 -0.6864 -0.0174 -0.3104
 3225SOL    HW121308   0.894   0.332   8.520  0.7073  1.4329  0.8080
 3225SOL    HW221309   0.907   0.348   8.667 -1.9296  0.7819  0.4823
 3226SOL     OW21310   3.436   4.623   3.621  0.1455  0.4911  0.0332
 3226SOL    HW121311   3.373   4.587   3.558 -1.4366  0.8270  1.4148
 3226SOL    HW221312   3.457   4.541   3.667  1.4329  1.2564  0.7848
 3227SOL     OW21313   0.872   2.361   6.620  0.3462  0.0737 -0.1770
 3227SOL    HW121314   0.896   2.293   6.557 -0.4918 -1.0917  0.7627
 3227SOL    HW221315   0.960   2.395   6.637 -0.0480  1.8536 -1.7089
 3228SOL     OW21316   1.781   0.860   5.584 -0.0332 -0.1562 -0.2027
 3228SOL    HW121317   1.821   0.939   5.620 -0.4461  0.1228 -0.3493
 3228SOL    HW221318   1.701   0.863   5.637  1.2142 -0.8551  1.7112
 3229SOL     OW21319   3.855   3.512   2.825 -0.1276 -0.1636 -0.0531
 3229SOL    HW121320   3.889   3.495   2.913  0.8490 -0.5173 -0.4941
 3229SOL    HW221321   3.796   3.586   2.840 -2.0194 -2.0570  1.8782
 3230SOL     OW21322   4.073   1.223   2.721  0.5490  0.3364  0.2388
 3230SOL    HW121323   4.023   1.274   2.656  0.2832 -1.9726 -1.3897
 3230SOL    HW221324   4.077   1.132   2.691 -0.8312 -0.0877  1.3367
 3231SOL     OW21325   4.363   2.104  10.949  0.3977 -0.0970 -0.5430
 3231SOL    HW121326   4.278   2.115  10.905  0.4035  0.2397 -0.4712
 3231SOL    HW221327   4.329   2.074  11.033 -1.4179 -0.4039 -1.3754
 3232SOL     OW21328   2.226   1.568   5.904  0.6289  0.5415  0.1063
 3232SOL    HW121329   2.227   1.497   5.839 -1.3327  1.5473 -0.9993
 3232SOL    HW221330   2.233   1.647   5.852 -2.8940  0.6054 -0.2488
 3233SOL     OW21331   2.649   1.949   8.672  0.6329 -0.5261 -0.5624
 3233SOL    HW121332   2.580   1.946   8.739  0.2319 -0.8737 -0.9950
 3233SOL    HW221333   2.708   1.882   8.706 -1.2591 -1.4134  1.0194
 3234SOL     OW21334   3.405   0.435   0.068 -0.1377 -0.4807 -0.7979
 3234SOL    HW121335   3.310   0.439   0.056  0.1969 -1.3448 -3.6514
 3234SOL    HW221336   3.429   0.400  17.738  0.9792 -2.4871  0.3308
 3235SOL     OW21337   2.006   0.507   1.469  0.2113  0.3274 -0.3633
 3235SOL    HW121338   2.012   0.589   1.519 -0.3635  1.4746 -2.1617
 3235SOL    HW221339   2.072   0.522   1.401  0.1739  0.7748 -0.3026
 3236SOL     OW21340   2.555   0.996   6.176 -0.0535  0.6454 -0.0498
 3236SOL    HW121341   2.512   0.910   6.184  1.3765 -0.0622 -0.0568
 3236SOL    HW221342   2.480   1.055   6.169 -0.2732  0.4422  0.5474
 3237SOL     OW21343   2.121   1.939   2.142 -0.1224 -0.5106  0.0382
 3237SOL    HW121344   2.081   2.000   2.080  1.5618  0.4265 -0.1119
 3237SOL    HW221345   2.057   1.953   2.213 -1.1652 -0.4277 -0.9151
 3238SOL     OW21346   4.471   1.211   5.943 -0.0583  0.1239 -0.0791
 3238SOL    HW121347   4.530   1.211   5.867  1.5347  3.3766  1.1446
 3238SOL    HW221348   4.408   1.273   5.906 -1.2848 -1.4229 -0.5671
 3239SOL     OW21349   4.566   1.845   6.757 -0.0957  0.0068  0.8723
 3239SOL    HW121350   4.518   1.847   6.840 -0.9999  1.2505  0.3248
 3239SOL    HW221351   4.490   1.879   6.709 -0.2716  1.9486  2.5067
 3240SOL     OW21352   4.185   1.900   3.535  0.4212  0.0689 -0.8919
 3240SOL    HW121353   4.151   1.984   3.564  0.1675  0.1137 -1.3210
 3240SOL    HW221354   4.140   1.909   3.451 -1.3246  0.1393  0.0449
 3241SOL     OW21355   2.536   2.453  12.127 -0.0086 -0.2047 -0.0692
 3241SOL    HW121356   2.612   2.481  12.178 -0.6530 -0.0399  0.7960
 3241SOL    HW221357   2.469   2.469  12.193 -1.1747  0.0281 -1.3002
 3242SOL     OW21358   0.460   0.325   5.247 -0.4105  0.5573  0.1692
 3242SOL    HW121359   0.543   0.320   5.295  0.3498 -1.1759 -1.3285
 3242SOL    HW221360   0.414   0.247   5.280 -1.2000  0.7297 -0.5454
 3243SOL     OW21361   4.331   1.725   4.500 -0.1975 -0.3990 -0.1633
 3243SOL    HW121362   4.304   1.780   4.573 -1.5540  0.8736 -1.6061
 3243SOL    HW221363   4.281   1.649   4.528  1.5321 -1.3285  0.3979
 3244SOL     OW21364   1.590   3.706   8.777 -0.0166  0.1929 -0.6402
 3244SOL    HW121365   1.530   3.777   8.798 -0.6802 -0.7030  0.4956
 3244SOL    HW221366   1.534   3.634   8.750 -0.5107  0.6717 -0.8854
 3245SOL     OW21367   2.861   2.458   5.223  0.0398  0.1895  1.0570
 3245SOL    HW121368   2.879   2.491   5.135 -1.0891 -1.7224  0.1055
 3245SOL    HW221369   2.930   2.501   5.273  1.8232 -0.5721 -0.7745
 3246SOL     OW21370   2.808   3.539   3.627 -0.2309 -0.1001  0.4496
 3246SOL    HW121371   2.850   3.473   3.682  0.5313  0.8250  0.9725
 3246SOL    HW221372   2.764   3.484   3.562  0.8773 -1.7812  1.1054
 3247SOL     OW21373   2.991   1.902   9.228  0.6572  0.6117 -0.0495
 3247SOL    HW121374   3.035   1.877   9.309 -1.1770  1.1275  1.1140
 3247SOL    HW221375   2.930   1.828   9.230  1.7231 -0.2468  0.8451
 3248SOL     OW21376   1.076   1.943   7.783  0.0297  0.5755 -0.3043
 3248SOL    HW121377   1.131   1.954   7.705  0.0105  0.6379 -0.3091
 3248SOL    HW221378   1.050   2.031   7.811 -2.3798 -0.0350 -0.6452
 3249SOL     OW21379   1.177   1.615   8.721  0.9306  0.1753 -0.1281
 3249SOL    HW121380   1.144   1.691   8.672 -1.8213  1.0862  3.1657
 3249SOL    HW221381   1.105   1.622   8.784  1.1362  0.7622  0.0411
 3250SOL     OW21382   1.865   3.255   8.249 -0.1340 -0.1122 -0.3473
 3250SOL    HW121383   1.824   3.252   8.335  0.8738  2.2098  0.2120
 3250SOL    HW221384   1.955   3.233   8.272  0.5134  2.2491 -0.5537
 3251SOL     OW21385   0.604   3.886   7.381 -0.0359  0.4070 -0.4937
 3251SOL    HW121386   0.589   3.979   7.394 -1.0940 -0.2491  2.9883
 3251SOL    HW221387   0.657   3.857   7.456 -1.7041 -0.7866  0.2100
 3252SOL     OW21388   2.491   2.962  16.944 -0.5954 -0.4069 -0.0757
 3252SOL    HW121389   2.400   2.936  16.962 -1.6750  3.2258 -0.4053
 3252SOL    HW221390   2.490   3.054  16.970 -0.1037 -0.0381 -1.3814
 3253SOL     OW21391   1.816   3.304   5.561  0.0688  0.3469  0.1482
 3253SOL    HW121392   1.868   3.267   5.490  1.5358 -1.9333  2.4231
 3253SOL    HW221393   1.864   3.384   5.581  1.2884 -1.2022  3.4970
 3254SOL     OW21394   3.358   4.115  14.883 -0.2251  0.9950 -0.0667
 3254SOL    HW121395   3.432   4.106  14.943  0.1391 -0.1632 -0.6861
 3254SOL    HW221396   3.395   4.159  14.806  0.5182  1.2071  0.4051
 3255SOL     OW21397   2.849   4.212   2.955  0.1836 -0.2500  0.4583
 3255SOL    HW121398   2.904   4.145   2.913  1.2100  1.3624 -0.7577
 3255SOL    HW221399   2.919   4.275   2.971 -0.5984  0.5956  0.5351
 3256SOL     OW21400   2.436   3.199   4.892 -0.0205 -0.1638  0.2110
 3256SOL    HW121401   2.410   3.290   4.904  0.6118 -0.2564  2.1549
 3256SOL    HW221402   2.525   3.212   4.859  0.4598  0.2463  1.6809
 3257SOL     OW21403   3.736   1.773  15.439 -0.8307 -0.6041  0.3518
 3257SOL    HW121404   3.663   1.743  15.385  0.3902  0.9507 -2.1627
 3257SOL    HW221405   3.721   1.867  15.448  2.2332 -0.1975  1.2738
 3258SOL     OW21406   3.951   4.478  12.946  0.0614  0.1062 -0.2662
 3258SOL    HW121407   3.922   4.428  12.870  2.2323  0.0041 -1.0365
 3258SOL    HW221408   4.039   4.441  12.951  1.5425  3.6847  0.3458
 3259SOL     OW21409   1.329   1.829  16.748  0.0470  0.0815 -0.2965
 3259SOL    HW121410   1.310   1.809  16.657 -1.3686  2.6547 -0.5513
 3259SOL    HW221411   1.245   1.839  16.792  0.3413  0.0764  0.2687
 3260SOL     OW21412   4.323   1.553   1.908  0.0838  0.3657  0.3924
 3260SOL    HW121413   4.274   1.504   1.842  0.8605 -1.1894  0.9655
 3260SOL    HW221414   4.356   1.476   1.956  3.0102  0.5661 -1.2830
 3261SOL     OW21415   0.790   1.486   5.065 -0.5128 -0.3226 -0.5989
 3261SOL    HW121416   0.752   1.409   5.108 -1.1877 -0.6823 -1.8274
 3261SOL    HW221417   0.845   1.439   5.002  1.1891 -0.7691  1.2216
 3262SOL     OW21418   0.920   3.074   9.306 -0.5805 -0.2206 -0.2144
 3262SOL    HW121419   0.991   3.069   9.242 -0.1784 -0.9072  0.2885
 3262SOL    HW221420   0.887   3.161   9.285 -1.0329 -0.4458 -0.4342
 3263SOL     OW21421   4.582   1.296   9.413  0.5959 -0.2400 -0.7324
 3263SOL    HW121422   4.608   1.205   9.401 -1.4397 -1.1016  1.4996
 3263SOL    HW221423   4.665   1.335   9.383 -0.3945  1.5357 -1.1457
 3264SOL     OW21424   0.373   0.372   8.466 -0.4021 -0.0298 -0.1544
 3264SOL    HW121425   0.417   0.287   8.470 -0.9784 -0.4682 -2.9369
 3264SOL    HW221426   0.443   0.436   8.472  1.5077 -2.1817  0.3789
 3265SOL     OW21427   1.550   0.937   5.703  0.0274  0.9355  0.1767
 3265SOL    HW121428   1.493   0.930   5.627 -0.3703  2.1708  0.3698
 3265SOL    HW221429   1.509   1.013   5.744 -0.5237  0.7068  0.0469
 3266SOL     OW21430   1.708   0.390   5.504 -0.1664 -0.2236 -0.1102
 3266SOL    HW121431   1.689   0.298   5.488  0.0798 -0.0840 -1.2059
 3266SOL    HW221432   1.801   0.399   5.481  0.3117  1.5618  2.4473
 3267SOL     OW21433   3.627   4.533   7.335 -0.4385 -0.0379  0.1399
 3267SOL    HW121434   3.698   4.550   7.273  0.9604 -1.2371  1.3989
 3267SOL    HW221435   3.676   4.557   7.414 -0.1363  0.7125 -0.2728
 3268SOL     OW21436   4.010   3.917   1.693 -0.1864 -0.4531 -0.0723
 3268SOL    HW121437   4.054   3.975   1.630 -0.4341  0.2294  0.3882
 3268SOL    HW221438   3.988   3.965   1.772 -1.5837 -0.3491 -0.5297
 3269SOL     OW21439   4.325   3.985   6.704  0.0448 -0.4781  0.3295
 3269SOL    HW121440   4.279   4.069   6.709  0.4334 -0.3061  1.0405
 3269SOL    HW221441   4.266   3.915   6.733 -0.1756 -0.2198  0.5047
 3270SOL     OW21442   0.561   1.453   3.178 -0.2779  0.1449 -0.5154
 3270SOL    HW121443   0.627   1.390   3.150  0.4324  0.8693 -0.4761
 3270SOL    HW221444   0.560   1.505   3.098 -0.8925  2.1354  0.7936
 3271SOL     OW21445   2.018   1.405   6.186 -0.0573 -0.6031 -0.3434
 3271SOL    HW121446   1.991   1.402   6.279  3.1184 -2.1938  0.5086
 3271SOL    HW221447   2.022   1.500   6.173 -0.1735 -0.6133 -0.4538
 3272SOL     OW21448   2.956   3.389  16.775 -0.7388  0.0070  0.0753
 3272SOL    HW121449   2.936   3.302  16.809 -0.0651  0.4979  1.7386
 3272SOL    HW221450   2.885   3.447  16.803  0.6649  2.2357 -0.9653
 3273SOL     OW21451   2.181   4.738  13.624 -0.7408  0.0380  0.0873
 3273SOL    HW121452   2.119   0.052  13.674 -0.8056 -1.0637  1.1965
 3273SOL    HW221453   2.205   0.058  13.554  2.6293 -0.7392  0.5723
 3274SOL     OW21454   1.213   2.944  16.331  0.2054  0.2198 -0.4986
 3274SOL    HW121455   1.210   2.995  16.251  0.2619  1.4036  0.2513
 3274SOL    HW221456   1.122   2.914  16.345  1.1808 -2.3948  0.3713
 3275SOL     OW21457   0.359   1.447   8.859  0.0949 -0.0954  0.1701
 3275SOL    HW121458   0.442   1.485   8.888  0.0080 -0.1871  0.5436
 3275SOL    HW221459   0.348   1.470   8.767 -0.0509  2.6804  0.8875
 3276SOL     OW21460   4.346   2.185   6.103  0.2278 -0.6211  0.1464
 3276SOL    HW121461   4.422   2.224   6.147  0.1455  0.9273 -1.0873
 3276SOL    HW221462   4.332   2.101   6.146 -1.3663  0.9270  2.6728
 3277SOL     OW21463   1.040   3.412  11.728 -0.1473  0.5905 -0.8143
 3277SOL    HW121464   1.031   3.361  11.648  0.5367  1.0277 -1.1749
 3277SOL    HW221465   1.099   3.476  11.688 -1.4566  0.3209 -3.1543
 3278SOL     OW21466   2.819   4.310   9.524 -0.0187 -0.6830  0.6437
 3278SOL    HW121467   2.914   4.298   9.525  0.3213  1.7194 -0.5163
 3278SOL    HW221468   2.811   4.405   9.536 -0.7409 -0.6727  0.0424
 3279SOL     OW21469   2.082   3.763  17.484  0.4179 -0.1151 -0.3882
 3279SOL    HW121470   2.174   3.749  17.503  0.2318 -2.2243 -1.0057
 3279SOL    HW221471   2.080   3.777  17.389  2.1450 -0.7722 -0.5280
 3280SOL     OW21472   3.813   4.285   6.536 -0.1163  0.0887  0.1144
 3280SOL    HW121473   3.773   4.366   6.503  0.0355  0.0832 -0.0840
 3280SOL    HW221474   3.826   4.239   6.453 -1.4864  0.7142 -0.4472
 3281SOL     OW21475   0.975   2.279   0.911  0.3009 -0.2015  0.7944
 3281SOL    HW121476   0.934   2.298   0.995 -2.7523 -1.9701 -0.3213
 3281SOL    HW221477   0.914   2.222   0.865 -0.0598  1.4837 -0.8270
 3282SOL     OW21478   0.315   0.159   5.048 -0.0242 -0.2019 -0.2791
 3282SOL    HW121479   0.306   0.252   5.066  1.7203  0.1078 -0.9763
 3282SOL    HW221480   0.407   0.145   5.070 -0.1699 -0.7814 -0.0374
 3283SOL     OW21481   3.764   2.254  12.701  0.2569  0.1773 -0.1489
 3283SOL    HW121482   3.727   2.167  12.713  1.0186  0.0876  1.5582
 3283SOL    HW221483   3.836   2.241  12.763 -1.1252  0.3325  1.4891
 3284SOL     OW21484   0.967   2.564  14.131  0.1178 -0.4381  0.1637
 3284SOL    HW121485   1.004   2.495  14.187 -0.0656 -1.2070 -0.6649
 3284SOL    HW221486   1.035   2.563  14.064 -0.6352 -0.9523 -0.5767
 3285SOL     OW21487   1.116   3.940   5.335 -0.3411  0.0589  0.1982
 3285SOL    HW121488   1.170   4.018   5.326 -1.5293  0.7535 -0.8940
 3285SOL    HW221489   1.186   3.875   5.333 -0.8433 -0.5521  1.8111
 3286SOL     OW21490   0.409   2.344   9.457  0.0537 -0.4272  0.1298
 3286SOL    HW121491   0.481   2.406   9.467  0.9788 -1.0903 -2.5131
 3286SOL    HW221492   0.401   2.299   9.541 -1.1934  0.9153  0.7394
 3287SOL     OW21493   1.185   0.054   3.576 -0.0690  0.9072  0.1956
 3287SOL    HW121494   1.277   0.075   3.590  0.2601 -0.5698  0.2574
 3287SOL    HW221495   1.176   4.699   3.588  1.0288  0.6017 -1.3818
 3288SOL     OW21496   2.705   3.496   5.950  0.0597 -0.4395  0.3193
 3288SOL    HW121497   2.699   3.588   5.927 -3.5683 -1.2159 -1.8593
 3288SOL    HW221498   2.614   3.470   5.935 -0.4016  0.8188  0.9521
 3289SOL     OW21499   4.169   2.766  17.401  0.9025  0.4481  0.2931
 3289SOL    HW121500   4.180   2.772  17.306 -1.4482 -0.9978 -0.0859
 3289SOL    HW221501   4.115   2.688  17.415  0.9742  0.2754 -0.3796
 3290SOL     OW21502   2.834   1.980   4.344  0.3160  0.2328  0.1099
 3290SOL    HW121503   2.915   1.978   4.395  0.2364  0.7562  0.2597
 3290SOL    HW221504   2.837   1.899   4.293 -0.7451 -0.1114  0.6033
 3291SOL     OW21505   1.037   2.625   6.448  0.3845  0.9138 -0.1170
 3291SOL    HW121506   1.075   2.545   6.484 -1.6157  1.3199  2.8968
 3291SOL    HW221507   1.109   2.668   6.402  3.2198 -2.5252  1.1132
 3292SOL     OW21508   3.111   1.080   8.523  0.3825  0.4229 -0.5963
 3292SOL    HW121509   3.100   1.100   8.430  0.4999 -0.4226 -0.7962
 3292SOL    HW221510   3.124   1.169   8.555 -0.5281  0.4324 -0.2695
 3293SOL     OW21511   0.582   0.091   2.878 -0.4477 -0.0556  0.0457
 3293SOL    HW121512   0.531   0.074   2.798  1.1156  1.1774 -1.2038
 3293SOL    HW221513   0.524   0.055   2.946 -1.8053 -1.3283 -1.7912
 3294SOL     OW21514   3.742   3.357   6.569  0.4428 -0.3472  0.1229
 3294SOL    HW121515   3.704   3.350   6.481  0.6521 -0.7087  0.0591
 3294SOL    HW221516   3.795   3.277   6.567  1.4781  0.3781 -1.0538
 3295SOL     OW21517   0.449   3.457   1.436  0.1467  0.3230  0.1968
 3295SOL    HW121518   0.440   3.454   1.341 -0.1782  0.6571  0.2176
 3295SOL    HW221519   0.417   3.543   1.462  2.2535  0.8543  1.0909
 3296SOL     OW21520   1.335   2.352  15.846  0.9480  0.4697  0.0685
 3296SOL    HW121521   1.419   2.314  15.871 -0.0313 -2.8967 -1.7783
 3296SOL    HW221522   1.333   2.420  15.913 -0.8106  0.4152  0.0591
 3297SOL     OW21523   2.022   1.144  10.854 -0.6217  0.6105 -0.3297
 3297SOL    HW121524   1.943   1.155  10.801  0.1450  0.4692 -1.5217
 3297SOL    HW221525   2.032   1.049  10.851 -2.6540  0.4062 -0.6143
 3298SOL     OW21526   4.577   1.774   4.161 -0.4473 -0.1570  0.3245
 3298SOL    HW121527   4.640   1.846   4.166 -0.8765  0.3968 -1.9050
 3298SOL    HW221528   4.508   1.813   4.215 -1.6036 -1.0726 -0.4803
 3299SOL     OW21529   0.783   2.035  15.872  0.2984 -0.0653 -0.4681
 3299SOL    HW121530   0.751   2.007  15.786 -1.0733 -0.2443  0.0992
 3299SOL    HW221531   0.708   2.000  15.920  2.5046 -1.1834  2.1557
 3300SOL     OW21532   0.792   1.717   1.947  0.5690 -0.4026  0.1522
 3300SOL    HW121533   0.828   1.642   1.901  3.3148  0.4224  0.9867
 3300SOL    HW221534   0.698   1.700   1.948  0.5967 -0.5816 -0.3438
 3301SOL     OW21535   3.481   1.728  16.163  0.2809 -0.1873 -0.5008
 3301SOL    HW121536   3.525   1.807  16.133 -0.4126 -0.4199 -2.1630
 3301SOL    HW221537   3.394   1.754  16.193  0.1338 -2.6198  1.1882
 3302SOL     OW21538   3.435   2.485   7.157 -0.0535 -0.1489 -0.1165
 3302SOL    HW121539   3.478   2.569   7.139 -2.6921  1.1445 -0.3682
 3302SOL    HW221540   3.358   2.487   7.100 -0.2682 -0.8895  0.1438
 3303SOL     OW21541   1.083   3.270   8.253 -0.2331  0.0118  0.1762
 3303SOL    HW121542   1.169   3.261   8.295 -0.2922 -0.7939  0.1285
 3303SOL    HW221543   1.071   3.358   8.289 -1.3683 -0.9439  2.1053
 3304SOL     OW21544   0.295   1.828   5.200  0.3576  0.3882  0.1682
 3304SOL    HW121545   0.274   1.735   5.187  2.5701 -0.1959  0.7853
 3304SOL    HW221546   0.301   1.837   5.295  2.2290  0.1285  0.0688
 3305SOL     OW21547   4.585   2.732  15.866  0.0595 -0.2103  0.2409
 3305SOL    HW121548   4.591   2.659  15.804 -1.6927 -0.3632  0.2573
 3305SOL    HW221549   4.499   2.765  15.841  0.5475  0.6363 -0.3243
 3306SOL     OW21550   2.524   3.416   8.150  0.0604 -0.7326  0.4122
 3306SOL    HW121551   2.551   3.365   8.074 -1.2430 -1.0596  0.1711
 3306SOL    HW221552   2.483   3.485   8.099  0.8037  0.6475  1.6774
 3307SOL     OW21553   2.736   3.968  10.017 -0.2629 -0.0264 -0.2658
 3307SOL    HW121554   2.722   3.912   9.941 -0.1561  0.3677 -0.5795
 3307SOL    HW221555   2.747   4.055   9.977  2.1614  0.2844  1.0160
 3308SOL     OW21556   2.998   2.830   2.283 -0.0371 -0.5373 -0.7423
 3308SOL    HW121557   3.033   2.765   2.222  0.9525 -1.9622  1.3349
 3308SOL    HW221558   3.051   2.809   2.360 -2.1742  0.7737  1.0815
 3309SOL     OW21559   1.375   3.047   7.954  0.3582  0.3268 -0.2051
 3309SOL    HW121560   1.282   3.068   7.942  0.1653 -1.5903 -2.0113
 3309SOL    HW221561   1.415   3.107   8.018 -0.8519  1.6735 -0.7030
 3310SOL     OW21562   3.524   2.512   3.516 -0.2276 -0.1199 -0.6355
 3310SOL    HW121563   3.446   2.459   3.536  0.3171 -1.4719 -2.0715
 3310SOL    HW221564   3.543   2.482   3.427  2.3455  0.0593 -0.1372
 3311SOL     OW21565   4.579   0.094   5.634  0.0466  0.4137  0.3305
 3311SOL    HW121566   4.595   0.107   5.540  0.7180 -1.8533  0.1392
 3311SOL    HW221567   4.627   0.016   5.663 -2.1066 -0.5227  1.3604
 3312SOL     OW21568   2.371   3.396  11.241  0.2556  0.5155  0.4120
 3312SOL    HW121569   2.361   3.311  11.197  0.1059  0.1766  1.0925
 3312SOL    HW221570   2.306   3.452  11.199 -0.3999 -0.5937 -0.0766
 3313SOL     OW21571   2.916   2.057   1.969  0.2682 -0.4425 -0.8440
 3313SOL    HW121572   3.010   2.052   1.952  0.6296  1.5317  0.5812
 3313SOL    HW221573   2.912   2.027   2.060  1.0066  2.4590  0.1421
 3314SOL     OW21574   2.380   1.231   8.662  0.3326  0.6307 -0.0988
 3314SOL    HW121575   2.427   1.157   8.624  0.4935  0.5774  0.1992
 3314SOL    HW221576   2.416   1.294   8.600  1.0095  0.5985  0.2605
 3315SOL     OW21577   3.554   2.474   3.790 -0.1485 -0.2349 -0.4006
 3315SOL    HW121578   3.547   2.492   3.696 -1.5701 -2.8916 -0.8006
 3315SOL    HW221579   3.624   2.537   3.808 -0.4216 -0.2640  0.7729
 3316SOL     OW21580   3.391   2.564   8.977  0.4442  0.1777 -0.4442
 3316SOL    HW121581   3.375   2.471   8.994  1.1765  0.0040 -0.7110
 3316SOL    HW221582   3.346   2.608   9.049 -0.4920 -2.3741  0.5445
 3317SOL     OW21583   0.133   0.197   4.647 -0.0717  0.4284  1.0384
 3317SOL    HW121584   0.054   0.250   4.643  0.1595  0.7582  0.8254
 3317SOL    HW221585   0.169   0.221   4.562  0.0212  1.6640  1.4198
 3318SOL     OW21586   0.436   3.360  10.832 -0.5374 -0.3905 -0.7811
 3318SOL    HW121587   0.395   3.296  10.773 -0.5309  0.8478 -2.1293
 3318SOL    HW221588   0.354   3.397  10.865 -0.7084 -0.1647 -1.4617
 3319SOL     OW21589   0.686   1.462   7.585  0.3058 -0.8661 -0.0559
 3319SOL    HW121590   0.688   1.383   7.531 -0.2995 -0.9764  0.0876
 3319SOL    HW221591   0.766   1.511   7.567  0.2161 -1.0554 -0.9752
 3320SOL     OW21592   0.305   3.751   5.958 -0.0929 -0.2875 -0.0420
 3320SOL    HW121593   0.227   3.760   6.013  0.8686  2.5316  0.8544
 3320SOL    HW221594   0.329   3.659   5.971 -2.1498 -0.7087  0.8523
 3321SOL     OW21595   4.152   4.490   5.003 -0.3749  0.0320  0.6558
 3321SOL    HW121596   4.086   4.494   5.072 -2.0141  1.1123 -0.9690
 3321SOL    HW221597   4.128   4.573   4.964  2.8445  0.0812 -1.2156
 3322SOL     OW21598   2.283   4.354  15.554  0.9089  0.8948 -0.2386
 3322SOL    HW121599   2.228   4.278  15.536  0.6757  1.5819 -2.4572
 3322SOL    HW221600   2.228   4.406  15.613 -0.9188  0.4546 -1.5500
 3323SOL     OW21601   3.097   3.361   6.057  0.4655 -0.4183  0.1022
 3323SOL    HW121602   3.101   3.449   6.020  0.4722 -0.0460  1.0066
 3323SOL    HW221603   3.015   3.365   6.106 -0.4141 -0.8325 -1.3041
 3324SOL     OW21604   3.228   0.016   7.475 -0.4557 -0.3084 -0.3960
 3324SOL    HW121605   3.265   4.681   7.429  1.4520 -0.0206  0.6818
 3324SOL    HW221606   3.219   0.083   7.407 -1.0510 -0.6909 -0.6928
 3325SOL     OW21607   3.972   1.081  10.862 -0.1860 -0.8962  0.3884
 3325SOL    HW121608   3.975   1.026  10.783  0.6654 -0.6179  0.2251
 3325SOL    HW221609   3.906   1.036  10.915 -0.3408 -2.0110 -0.7514
 3326SOL     OW21610   2.994   2.140   4.946 -0.7439 -0.3186  0.0831
 3326SOL    HW121611   2.903   2.169   4.956  0.2387  1.7304  2.9911
 3326SOL    HW221612   3.025   2.167   5.032  0.5477 -0.1832 -0.4181
 3327SOL     OW21613   3.924   2.784  17.539 -0.2545  0.1061  0.2179
 3327SOL    HW121614   3.878   2.839  17.476  0.0361  0.5714  0.4108
 3327SOL    HW221615   4.016   2.812  17.531  0.6957 -3.2408 -0.3608
 3328SOL     OW21616   3.712   0.636  17.599  0.3422 -0.4728 -0.6673
 3328SOL    HW121617   3.702   0.727  17.626 -0.9610 -0.8216 -0.0040
 3328SOL    HW221618   3.691   0.591  17.681 -0.6947 -2.0954 -1.8108
 3329SOL     OW21619   4.240   1.618   7.107  0.4356  0.6905  0.3505
 3329SOL    HW121620   4.232   1.522   7.102  0.4732  0.7555 -1.0113
 3329SOL    HW221621   4.148   1.642   7.098  0.7674  1.5266 -0.8111
 3330SOL     OW21622   3.893   2.448   9.007 -0.0101  0.1163  0.5709
 3330SOL    HW121623   3.810   2.494   9.018 -2.0872 -3.4285 -0.3224
 3330SOL    HW221624   3.921   2.448   9.099 -0.1237 -0.9753  0.6019
 3331SOL     OW21625   0.131   2.029  17.309 -0.1812 -0.1064 -0.1869
 3331SOL    HW121626   0.116   2.085  17.385 -1.5594  1.6019 -1.7412
 3331SOL    HW221627   0.087   2.079  17.240  2.7869  3.2272  0.3571
 3332SOL     OW21628   1.081   1.652   1.929  0.0574 -0.0532  0.1873
 3332SOL    HW121629   1.099   1.561   1.955 -2.5100 -0.1106  1.8065
 3332SOL    HW221630   0.989   1.668   1.950 -0.7477 -0.9856 -2.5838
 3333SOL     OW21631   0.461   0.582   4.717 -0.1322 -0.1089 -0.0110
 3333SOL    HW121632   0.402   0.635   4.664 -0.9781  0.1948  1.2180
 3333SOL    HW221633   0.411   0.573   4.798  2.5444 -4.2150  1.2165
 3334SOL     OW21634   0.796   2.099   0.825  0.0185 -0.3383  0.2904
 3334SOL    HW121635   0.844   2.026   0.865 -0.1590  1.0827  3.0365
 3334SOL    HW221636   0.706   2.066   0.836  0.3082 -0.3102  2.6174
 3335SOL     OW21637   0.168   2.482   2.477  0.4762  0.6892 -0.0895
 3335SOL    HW121638   0.125   2.445   2.554 -1.7624 -1.4878 -2.4032
 3335SOL    HW221639   0.261   2.476   2.502  0.3085  1.7974  0.8194
 3336SOL     OW21640   1.638   1.546   2.151 -0.1662 -0.0160 -0.9304
 3336SOL    HW121641   1.679   1.467   2.115  1.2132  0.8713 -1.2912
 3336SOL    HW221642   1.544   1.531   2.137 -0.4574 -0.4410  1.5214
 3337SOL     OW21643   2.093   4.179   5.051  0.7586  0.2598  0.0128
 3337SOL    HW121644   2.049   4.242   4.994 -2.0765 -1.2923  0.5131
 3337SOL    HW221645   2.102   4.229   5.132 -0.9358 -0.2717  0.5217
 3338SOL     OW21646   2.518   3.479  15.067  0.0155 -0.1851  0.0051
 3338SOL    HW121647   2.455   3.479  14.996 -0.2827  1.3208  0.2760
 3338SOL    HW221648   2.575   3.553  15.044  0.1023 -0.3408 -0.2734
 3339SOL     OW21649   2.449   3.685   8.317 -0.1280  0.8305 -0.4040
 3339SOL    HW121650   2.513   3.718   8.380 -0.1029  2.7452 -1.4496
 3339SOL    HW221651   2.428   3.603   8.363  0.7383  0.9647  0.2375
 3340SOL     OW21652   1.440   2.777   8.491  0.0386  0.1465 -0.1600
 3340SOL    HW121653   1.443   2.705   8.427 -0.6080 -1.6905  1.8737
 3340SOL    HW221654   1.379   2.838   8.448  0.9261  1.4549  0.4336
 3341SOL     OW21655   3.792   3.039   8.486 -0.2567  0.2962  0.4998
 3341SOL    HW121656   3.835   3.116   8.523 -0.9406  0.8253  0.1874
 3341SOL    HW221657   3.862   3.015   8.426  1.3691  0.5256  2.3242
 3342SOL     OW21658   3.983   0.005   2.930  0.0209 -0.4132  0.3277
 3342SOL    HW121659   3.908   0.026   2.875  1.8762  0.6859 -1.8137
 3342SOL    HW221660   3.954   0.010   3.021 -0.8728  2.4018 -0.1071
 3343SOL     OW21661   3.742   1.175   3.142 -0.1413 -0.2638 -0.8947
 3343SOL    HW121662   3.830   1.150   3.171 -0.4651 -0.5877 -0.1775
 3343SOL    HW221663   3.739   1.120   3.064 -1.6666 -1.4949  0.0139
 3344SOL     OW21664   4.403   4.262   7.833 -0.0435 -0.0909  0.0628
 3344SOL    HW121665   4.421   4.256   7.739 -1.1414  0.4950 -0.1791
 3344SOL    HW221666   4.309   4.276   7.839  0.4529  3.1057  0.2100
 3345SOL     OW21667   0.479   3.395   5.301 -0.1412 -0.0788  0.3043
 3345SOL    HW121668   0.457   3.460   5.367  0.6301 -1.9300  2.3915
 3345SOL    HW221669   0.567   3.383   5.334  0.2764  0.2669 -0.6770
 3346SOL     OW21670   0.723   3.952   9.813 -0.2383  0.0007 -0.2826
 3346SOL    HW121671   0.808   3.932   9.854 -1.6822 -0.3314  2.5581
 3346SOL    HW221672   0.692   3.861   9.808 -1.4709  0.4284 -0.2453
 3347SOL     OW21673   3.127   0.500   6.704  0.3489 -0.0158 -0.7408
 3347SOL    HW121674   3.127   0.425   6.645  0.3514  0.2989 -1.1364
 3347SOL    HW221675   3.063   0.560   6.665  1.3128  1.1772 -0.5026
 3348SOL     OW21676   4.341   1.990   0.675 -0.0364 -0.7146  0.1398
 3348SOL    HW121677   4.371   2.078   0.652 -2.4681 -0.3537 -1.6574
 3348SOL    HW221678   4.267   1.993   0.615 -0.0649  1.1708  0.2665
 3349SOL     OW21679   3.413   3.293   7.644  0.6001  0.1874  0.3489
 3349SOL    HW121680   3.437   3.316   7.555  1.4683  2.2657  1.1251
 3349SOL    HW221681   3.500   3.294   7.684  0.7198 -0.0040  0.0861
 3350SOL     OW21682   0.871   3.503   3.884 -0.4077  0.5020 -0.1028
 3350SOL    HW121683   0.946   3.481   3.830 -1.7980 -0.7837 -1.4998
 3350SOL    HW221684   0.799   3.474   3.828  0.9125  1.1287 -2.1141
 3351SOL     OW21685   1.923   4.264  14.967  0.1905  0.1955  0.1939
 3351SOL    HW121686   1.874   4.197  14.920  0.9731  0.2626 -0.7340
 3351SOL    HW221687   1.853   4.329  14.969  1.0658  1.0560  2.1861
 3352SOL     OW21688   1.925   1.842   8.255 -0.0536 -0.5661  0.0124
 3352SOL    HW121689   1.905   1.874   8.343 -1.1203 -0.3521 -0.3115
 3352SOL    HW221690   2.019   1.826   8.247 -0.0059 -0.3788  0.1947
 3353SOL     OW21691   1.561   0.464   1.498 -0.0708 -0.1727  0.4258
 3353SOL    HW121692   1.634   0.475   1.437 -0.2239  0.1473  0.3043
 3353SOL    HW221693   1.517   0.548   1.492 -0.3446 -0.4286 -0.9780
 3354SOL     OW21694   1.999   0.619   5.982 -0.2392  0.1401  0.4325
 3354SOL    HW121695   2.046   0.686   5.932  0.6624  0.5519  1.8090
 3354SOL    HW221696   1.906   0.636   5.964 -0.3675 -1.2526 -0.2237
 3355SOL     OW21697   2.452   2.712  15.536 -0.4045 -0.4682  0.0391
 3355SOL    HW121698   2.390   2.664  15.482  0.9522 -2.1564 -0.0240
 3355SOL    HW221699   2.488   2.638  15.585  0.4771 -0.0828 -0.0267
 3356SOL     OW21700   1.832   1.356   2.106  0.4232  0.1465 -0.2089
 3356SOL    HW121701   1.860   1.394   2.023 -1.2782 -0.7709 -1.2059
 3356SOL    HW221702   1.902   1.300   2.140  0.4049 -0.1136 -0.5977
 3357SOL     OW21703   1.452   4.531   0.343  0.0918 -0.6387  0.0413
 3357SOL    HW121704   1.395   4.468   0.297 -0.9481  0.1446  0.2596
 3357SOL    HW221705   1.389   4.597   0.371  1.0968 -0.4996  1.9841
 3358SOL     OW21706   0.960   3.368  12.424 -0.1665 -0.1000 -0.5272
 3358SOL    HW121707   0.916   3.324  12.352 -2.0372 -0.8867  1.0880
 3358SOL    HW221708   0.988   3.451  12.385 -2.3320  1.4186  1.1483
 3359SOL     OW21709   0.326   2.871   1.974  0.2429  0.0425  0.3152
 3359SOL    HW121710   0.342   2.793   2.027  0.4464 -0.6792 -0.8128
 3359SOL    HW221711   0.369   2.849   1.892  0.7681  0.6400  0.4301
 3360SOL     OW21712   3.228   2.786   7.122  0.0410 -0.4168  0.7171
 3360SOL    HW121713   3.167   2.854   7.092 -1.5893 -1.2797  2.0496
 3360SOL    HW221714   3.300   2.817   7.068  0.3481 -0.4434  1.1084
 3361SOL     OW21715   2.303   4.695   4.491 -0.0683 -0.4031  0.0177
 3361SOL    HW121716   2.336   0.036   4.452  0.2188 -1.3877 -1.7769
 3361SOL    HW221717   2.242   4.656   4.428  0.9893  1.5996 -2.2406
 3362SOL     OW21718   2.928   0.047   7.157 -0.3226 -0.2556 -0.3016
 3362SOL    HW121719   2.988   0.113   7.122  0.0145 -0.2537  0.2716
 3362SOL    HW221720   2.855   0.102   7.185 -0.7949 -0.6069 -0.8426
 3363SOL     OW21721   2.638   1.145   6.413  0.0554 -0.4075 -0.1051
 3363SOL    HW121722   2.663   1.078   6.349 -0.4482 -0.3874 -0.3184
 3363SOL    HW221723   2.588   1.207   6.360  0.3732 -1.1117 -1.2304
 3364SOL     OW21724   4.276   3.112   0.372  0.2780 -0.2435 -0.0355
 3364SOL    HW121725   4.222   3.053   0.319 -1.0745  0.8676  0.1069
 3364SOL    HW221726   4.354   3.112   0.316  0.5752  1.0722  0.3872
 3365SOL     OW21727   3.155   1.513   7.309  0.8431  0.2020 -0.2086
 3365SOL    HW121728   3.081   1.498   7.251 -0.3366 -1.8930  1.8256
 3365SOL    HW221729   3.196   1.426   7.309  0.4719  0.0269  0.8285
 3366SOL     OW21730   3.523   3.727   8.113 -0.8115  0.1745  0.5474
 3366SOL    HW121731   3.591   3.712   8.047 -0.6654 -2.7618  1.3676
 3366SOL    HW221732   3.518   3.653   8.175 -1.3701 -0.0849  0.1923
 3367SOL     OW21733   4.402   3.127  13.007 -0.0888 -0.1736  0.0825
 3367SOL    HW121734   4.338   3.063  12.976 -0.3467  0.1591 -0.0638
 3367SOL    HW221735   4.449   3.116  12.925 -0.8851 -2.2871 -0.0963
 3368SOL     OW21736   3.670   1.949   4.840 -0.2305 -0.5244  0.2985
 3368SOL    HW121737   3.658   1.893   4.764 -1.8859 -0.0054  0.1705
 3368SOL    HW221738   3.761   1.935   4.869  0.4757  1.4432 -0.9709
 3369SOL     OW21739   0.449   2.109  15.925  0.0426  0.0312  0.6036
 3369SOL    HW121740   0.361   2.110  15.962 -0.1337  0.5445  0.1479
 3369SOL    HW221741   0.496   2.155  15.995 -1.5161 -0.2685  1.8490
 3370SOL     OW21742   0.153   0.148   2.395 -0.1777 -0.3222  0.5758
 3370SOL    HW121743   0.169   0.056   2.415  0.2450 -0.5402 -0.7627
 3370SOL    HW221744   0.147   0.180   2.485 -1.3525  3.6962 -0.9254
 3371SOL     OW21745   2.027   2.926   1.977  0.3190  0.1895  0.4885
 3371SOL    HW121746   2.107   2.888   2.014 -0.4799 -1.9618  0.0207
 3371SOL    HW221747   2.032   2.920   1.882 -0.8351 -0.7676  0.4982
 3372SOL     OW21748   0.234   0.493   9.335  0.3716 -0.0089  0.3734
 3372SOL    HW121749   0.147   0.453   9.332  0.3349 -0.0173  1.6376
 3372SOL    HW221750   0.273   0.448   9.259  1.9192 -1.5883  2.1138
 3373SOL     OW21751   2.660   3.057  15.811  0.0987  0.3760  0.2186
 3373SOL    HW121752   2.656   3.037  15.904 -0.9942 -1.0821 -0.1448
 3373SOL    HW221753   2.755   3.053  15.800  0.4429  1.0325  3.0115
 3374SOL     OW21754   4.082   3.667   7.901  1.0158  0.4271 -0.1806
 3374SOL    HW121755   4.056   3.712   7.821 -0.3979 -0.3941 -0.1767
 3374SOL    HW221756   4.178   3.670   7.903  1.0191 -0.0598  0.5948
 3375SOL     OW21757   0.038   4.256   9.019  0.6973 -0.3880  0.2491
 3375SOL    HW121758   0.035   4.210   8.935  3.1122  1.8587 -1.0735
 3375SOL    HW221759   0.102   4.212   9.075  0.4404  0.0572  0.8995
 3376SOL     OW21760   0.075   1.224  15.825 -0.2871  0.6367 -0.4379
 3376SOL    HW121761   4.721   1.211  15.814 -0.4603 -0.2094  2.0097
 3376SOL    HW221762   0.117   1.236  15.740  1.0370 -0.1653  0.0950
 3377SOL     OW21763   0.196   3.428   8.504 -0.3801 -0.0902 -0.1110
 3377SOL    HW121764   0.127   3.366   8.481 -0.4895 -1.0616  2.7682
 3377SOL    HW221765   0.201   3.409   8.598  1.8065 -3.9138 -1.0015
 3378SOL     OW21766   3.794   4.066   7.944  1.1266 -0.2018  0.0808
 3378SOL    HW121767   3.773   4.028   7.859 -0.7896  0.4816  0.2530
 3378SOL    HW221768   3.856   4.137   7.925  0.2616  1.0335  1.8121
 3379SOL     OW21769   1.217   0.634   0.609 -0.3338  0.1751 -0.3445
 3379SOL    HW121770   1.278   0.703   0.582  1.3873 -1.4582 -0.5577
 3379SOL    HW221771   1.277   0.568   0.576 -1.3806 -1.4798  1.0917
 3380SOL     OW21772   0.320   2.203   9.960  0.2761  0.0385 -0.1894
 3380SOL    HW121773   0.399   2.210  10.013 -1.6369  0.3975  2.6421
 3380SOL    HW221774   0.283   2.285   9.993  1.7619 -0.2736  2.2201
 3381SOL     OW21775   1.981   2.035   3.882  0.3772 -0.1723  0.6277
 3381SOL    HW121776   2.028   2.053   3.963 -0.1032  1.9103  0.4615
 3381SOL    HW221777   1.904   2.092   3.878  1.4867  1.1627 -1.8419
 3382SOL     OW21778   1.965   1.736   4.944 -0.4160 -0.5930  0.2238
 3382SOL    HW121779   1.994   1.645   4.949  1.1357 -0.0149  1.9128
 3382SOL    HW221780   1.924   1.750   5.030  0.7890 -2.0024  1.0189
 3383SOL     OW21781   4.245   4.444   2.207 -0.0177  0.4168 -0.0357
 3383SOL    HW121782   4.270   4.516   2.265  1.3424 -0.4224  0.4211
 3383SOL    HW221783   4.184   4.490   2.149  0.4467  0.7523 -0.2567
 3384SOL     OW21784   3.827   1.302   8.313 -0.2595  0.0818  0.4384
 3384SOL    HW121785   3.830   1.289   8.219 -1.1158  0.1546  0.4009
 3384SOL    HW221786   3.899   1.362   8.333  0.5203 -1.3440  1.9876
 3385SOL     OW21787   2.694   2.672   5.339 -0.3253 -0.1889  0.1129
 3385SOL    HW121788   2.712   2.700   5.249  0.0747 -1.2547 -0.1432
 3385SOL    HW221789   2.620   2.614   5.323 -0.5602  0.2869 -0.5265
 3386SOL     OW21790   1.612   0.572   6.657  0.1285 -0.2191 -0.1023
 3386SOL    HW121791   1.585   0.501   6.716 -1.0606  1.9155  1.9334
 3386SOL    HW221792   1.702   0.595   6.678 -0.3387  0.9234  0.6732
 3387SOL     OW21793   3.877   3.864   3.720 -0.5111 -0.0817 -0.7382
 3387SOL    HW121794   3.868   3.791   3.659  1.5502  0.5590 -1.7837
 3387SOL    HW221795   3.932   3.829   3.790  0.7636  0.4832 -1.4587
 3388SOL     OW21796   2.328   4.016   7.635 -0.3275  0.1524 -0.2665
 3388SOL    HW121797   2.238   4.047   7.635 -0.7651 -1.0799  1.9754
 3388SOL    HW221798   2.309   3.923   7.625  0.3402  0.0552 -0.5891
 3389SOL     OW21799   4.240   1.853   9.257 -0.1499 -0.0757 -0.4564
 3389SOL    HW121800   4.215   1.943   9.278 -2.7067 -0.1819 -3.0182
 3389SOL    HW221801   4.249   1.856   9.162 -1.6920 -0.9364 -0.6401
 3390SOL     OW21802   3.829   1.609   5.806 -0.5490  0.1635  0.3123
 3390SOL    HW121803   3.745   1.567   5.823 -1.5908  0.8957 -2.9753
 3390SOL    HW221804   3.816   1.682   5.867 -0.5127  0.0246  0.4868
 3391SOL     OW21805   1.426   0.197   3.726 -0.2225  0.6704  0.0713
 3391SOL    HW121806   1.453   0.114   3.765 -0.4971 -0.2268 -1.6253
 3391SOL    HW221807   1.433   0.245   3.808 -0.2338  1.2919 -0.2912
 3392SOL     OW21808   1.581   3.033   3.420 -0.5383 -0.2039 -0.3483
 3392SOL    HW121809   1.499   3.065   3.383  0.0844  0.1407 -1.4240
 3392SOL    HW221810   1.609   3.101   3.482 -1.0383 -0.1067 -0.2273
 3393SOL     OW21811   0.844   4.617   6.803  0.0082 -0.1746  0.3695
 3393SOL    HW121812   0.870   4.593   6.892 -1.9140  0.0817  0.9973
 3393SOL    HW221813   0.908   4.680   6.772  0.8126 -0.8058  0.7618
 3394SOL     OW21814   3.520   3.544   2.519  0.1860 -0.2776  0.1313
 3394SOL    HW121815   3.461   3.469   2.519 -0.2832  0.0878 -0.0462
 3394SOL    HW221816   3.594   3.504   2.473 -0.0018 -0.3081 -0.1471
 3395SOL     OW21817   3.359   3.304  16.576 -0.3463  0.1874 -0.4997
 3395SOL    HW121818   3.308   3.226  16.554 -0.8979  0.7787 -1.2712
 3395SOL    HW221819   3.293   3.360  16.618 -3.3029 -1.7570 -2.5763
 3396SOL     OW21820   3.444   4.252  12.174 -0.0716 -0.7245 -0.1302
 3396SOL    HW121821   3.477   4.272  12.262  1.4304 -0.9760 -0.6315
 3396SOL    HW221822   3.413   4.165  12.197  0.2774 -0.3143  1.8743
 3397SOL     OW21823   2.956   3.136   9.600 -0.0045  0.0955 -0.0927
 3397SOL    HW121824   2.965   3.225   9.566 -0.9569  0.3959  0.4603
 3397SOL    HW221825   2.986   3.147   9.690 -1.0006 -1.6537  0.4523
 3398SOL     OW21826   0.093   1.520   5.706  0.3681  0.2926 -0.1360
 3398SOL    HW121827   0.021   1.540   5.646  0.6775  0.0328 -0.5939
 3398SOL    HW221828   0.130   1.444   5.661 -0.1954 -0.6910  1.0785
 3399SOL     OW21829   0.830   2.629   1.611  0.1113 -0.8614  0.1175
 3399SOL    HW121830   0.752   2.578   1.591 -1.4469  1.3663  0.4703
 3399SOL    HW221831   0.816   2.701   1.549  1.7190 -0.6144  0.0495
 3400SOL     OW21832   3.533   4.089  12.636 -0.2709 -0.5548  0.1684
 3400SOL    HW121833   3.627   4.080  12.622 -0.3810  0.5843 -1.3269
 3400SOL    HW221834   3.524   4.030  12.711 -2.4235 -2.7090 -1.7780
 3401SOL     OW21835   2.034   3.282   2.659  0.3046 -0.3326 -0.7529
 3401SOL    HW121836   2.041   3.224   2.735  2.2379  0.3791 -0.4074
 3401SOL    HW221837   1.950   3.253   2.623  0.3344  0.6695 -1.6153
 3402SOL     OW21838   0.609   3.098   9.662  0.2453  0.3823  0.0832
 3402SOL    HW121839   0.613   3.176   9.607  1.0739  1.0430  1.0576
 3402SOL    HW221840   0.692   3.056   9.637 -0.6271 -0.1485 -1.9113
 3403SOL     OW21841   2.406   3.455   4.920 -0.6953  0.4681 -0.3334
 3403SOL    HW121842   2.454   3.461   5.002 -0.5261 -1.3481 -0.2992
 3403SOL    HW221843   2.315   3.479   4.937  0.0429  1.8835  1.5232
 3404SOL     OW21844   2.179   0.296   3.861  0.1285  0.0970  0.1144
 3404SOL    HW121845   2.180   0.346   3.779 -0.1790 -0.1017 -0.0065
 3404SOL    HW221846   2.137   0.223   3.816 -0.5104 -1.2912  3.0157
 3405SOL     OW21847   4.674   1.537  16.456 -0.1410  0.0996  0.1849
 3405SOL    HW121848   4.618   1.478  16.406 -0.1580  0.3464 -0.0849
 3405SOL    HW221849   4.665   1.614  16.401  0.2902  0.4478  0.6002
 3406SOL     OW21850   1.298   0.230   2.535 -0.4004 -0.6443  0.4200
 3406SOL    HW121851   1.363   0.235   2.464 -0.8712 -0.8952 -0.0236
 3406SOL    HW221852   1.244   0.158   2.502 -0.1412  1.5218 -4.7162
 3407SOL     OW21853   1.102   2.978   3.554 -0.6129  0.0463 -0.2734
 3407SOL    HW121854   1.006   2.980   3.551 -0.5527 -0.2600 -1.8826
 3407SOL    HW221855   1.124   2.899   3.506 -1.6177 -0.3338 -0.1120
 3408SOL     OW21856   3.369   1.932   1.728 -0.3173 -0.0978 -0.1313
 3408SOL    HW121857   3.343   1.904   1.640 -2.6912  1.9978 -0.1094
 3408SOL    HW221858   3.389   2.024   1.706  0.9192  0.2246  2.2748
 3409SOL     OW21859   3.489   1.997   2.879  0.0054  0.9725 -0.2487
 3409SOL    HW121860   3.408   2.029   2.919  0.6533 -1.1971  2.7827
 3409SOL    HW221861   3.532   2.082   2.868  0.4389  0.6426 -1.1208
 3410SOL     OW21862   2.894   2.806   9.838  0.2794 -0.0034 -0.2657
 3410SOL    HW121863   2.819   2.747   9.825 -0.6626  0.6473  2.0864
 3410SOL    HW221864   2.917   2.770   9.924 -0.9264 -0.2007 -0.0184
 3411SOL     OW21865   0.715   0.994   2.966  0.5022  0.0341  0.6099
 3411SOL    HW121866   0.779   0.933   2.930  0.2446  0.5481 -0.7557
 3411SOL    HW221867   0.634   0.965   2.923  0.3356  0.9852  0.2715
 3412SOL     OW21868   0.168   4.705  11.299 -0.2066 -0.0605 -0.2995
 3412SOL    HW121869   0.111   0.041  11.312 -0.0404  0.1116 -0.5663
 3412SOL    HW221870   0.093   4.655  11.268 -2.3622  2.4215  0.8999
 3413SOL     OW21871   2.344   1.579   1.147 -0.1474  0.6205  0.3670
 3413SOL    HW121872   2.272   1.590   1.210 -0.3714 -0.5475  0.3164
 3413SOL    HW221873   2.413   1.557   1.209  0.2761 -0.3127 -0.4273
 3414SOL     OW21874   0.916   2.829   0.967  0.0922  0.2964 -0.1862
 3414SOL    HW121875   0.923   2.735   0.956 -1.6583  0.4926 -3.0215
 3414SOL    HW221876   0.933   2.867   0.881  2.7725 -1.0320 -0.2070
 3415SOL     OW21877   1.250   1.675   6.606 -0.2715 -0.0040 -0.6103
 3415SOL    HW121878   1.286   1.589   6.627  0.3881  1.0896  2.6067
 3415SOL    HW221879   1.168   1.644   6.566  0.3025 -1.8727 -0.3370
 3416SOL     OW21880   3.892   1.642   9.070  0.0719 -0.5462  0.5997
 3416SOL    HW121881   3.949   1.569   9.047  0.6936 -0.1555  0.9057
 3416SOL    HW221882   3.933   1.718   9.028  1.8777 -1.7248  0.2409
 3417SOL     OW21883   3.550   3.119   9.590 -0.2257  0.5363 -0.0766
 3417SOL    HW121884   3.521   3.182   9.524  0.3342 -0.8157 -1.5997
 3417SOL    HW221885   3.490   3.046   9.579 -0.1234  0.2735  1.1630
 3418SOL     OW21886   1.215   0.331   6.861  0.2665  0.2213 -0.1813
 3418SOL    HW121887   1.295   0.357   6.817 -0.1090  0.1762 -0.8835
 3418SOL    HW221888   1.199   0.400   6.925  1.4374  1.6754 -1.4846
 3419SOL     OW21889   1.658   0.795   1.449  0.0503 -0.8336  0.2361
 3419SOL    HW121890   1.652   0.837   1.363  0.6198  0.8931  1.0382
 3419SOL    HW221891   1.598   0.722   1.436  0.0188 -0.4987 -1.5171
 3420SOL     OW21892   3.897   1.941   6.854  0.0227  0.2454  0.0907
 3420SOL    HW121893   3.891   1.898   6.769 -1.2573 -0.1144  0.3535
 3420SOL    HW221894   3.822   2.000   6.851 -0.2341  0.1100  3.7544
 3421SOL     OW21895   2.808   4.134   4.067 -0.3134  0.2543 -0.2850
 3421SOL    HW121896   2.888   4.104   4.109 -0.3346  1.2450  0.4497
 3421SOL    HW221897   2.758   4.052   4.064  2.5630 -1.4853 -0.1270
 3422SOL     OW21898   0.363   3.535   7.471 -0.2857  0.5577 -0.3253
 3422SOL    HW121899   0.314   3.496   7.544 -2.2935  0.2668 -1.8115
 3422SOL    HW221900   0.362   3.459   7.412 -0.6452  0.0018  0.3944
 3423SOL     OW21901   4.282   4.345   3.880 -0.3207 -0.2292  0.1942
 3423SOL    HW121902   4.315   4.353   3.969  0.1154 -2.2669  0.2242
 3423SOL    HW221903   4.264   4.251   3.874 -1.6557  0.1279 -1.5220
 3424SOL     OW21904   4.100   2.762   1.793 -0.4817  0.4836 -0.4988
 3424SOL    HW121905   4.102   2.755   1.697 -3.0086  1.9068 -0.6359
 3424SOL    HW221906   4.183   2.810   1.792 -0.5696  0.6337 -0.5701
 3425SOL     OW21907   1.970   1.938   1.690 -0.1211  0.1881 -0.0626
 3425SOL    HW121908   1.989   2.027   1.721 -0.6520  0.2210  0.1613
 3425SOL    HW221909   2.030   1.939   1.615 -5.0099 -2.1315 -3.9987
 3426SOL     OW21910   1.135   4.521   4.291 -0.0588  0.2472 -0.0690
 3426SOL    HW121911   1.135   4.441   4.239 -0.1970  0.8408 -0.9701
 3426SOL    HW221912   1.060   4.491   4.342  1.0471 -2.3518  0.0466
 3427SOL     OW21913   0.315   4.333   8.909  0.1758 -0.3402  0.4002
 3427SOL    HW121914   0.372   4.410   8.904 -0.0612 -0.1273  0.9998
 3427SOL    HW221915   0.253   4.374   8.969  0.8263 -0.1044  0.9096
 3428SOL     OW21916   2.987   3.467   6.396  0.5260  0.1981  0.1308
 3428SOL    HW121917   2.959   3.445   6.307 -0.2975  3.7565 -0.4882
 3428SOL    HW221918   2.928   3.539   6.416 -1.9167 -1.4481 -1.1654
 3429SOL     OW21919   1.796   1.402   2.503 -0.2424 -0.3651  0.4944
 3429SOL    HW121920   1.859   1.462   2.462 -0.6446 -0.2691  0.0211
 3429SOL    HW221921   1.717   1.434   2.461  0.3606 -0.4749 -0.7612
 3430SOL     OW21922   2.543   2.655   3.116  0.4272  0.0050  0.1213
 3430SOL    HW121923   2.529   2.703   3.035  2.9169  1.4114  0.5438
 3430SOL    HW221924   2.455   2.633   3.148  0.0382  0.3395 -0.7276
 3431SOL     OW21925   1.692   0.157   2.694 -0.4897  0.0249  0.0993
 3431SOL    HW121926   1.753   0.093   2.731 -1.0732 -0.8815 -0.4970
 3431SOL    HW221927   1.736   0.179   2.612  2.4406 -0.4082  1.5668
 3432SOL     OW21928   2.445   2.821   1.825 -0.1310 -0.4687  0.1343
 3432SOL    HW121929   2.483   2.903   1.857  0.9820 -1.5913  1.7102
 3432SOL    HW221930   2.451   2.773   1.908 -1.3663 -0.7478  0.0584
 3433SOL     OW21931   4.126   4.450   4.134  0.5073 -0.5216  0.1363
 3433SOL    HW121932   4.042   4.405   4.141 -0.4105  1.2869  0.7405
 3433SOL    HW221933   4.132   4.481   4.043 -1.0256 -0.3529  0.0960
 3434SOL     OW21934   1.973   2.723  11.952 -0.1806 -0.0738  0.6663
 3434SOL    HW121935   1.925   2.798  11.915 -1.5826 -0.8555  0.9128
 3434SOL    HW221936   1.903   2.679  11.998 -1.3546  1.1774  0.0774
 3435SOL     OW21937   2.098   0.588   9.437  0.1552  0.5656  0.1380
 3435SOL    HW121938   2.088   0.608   9.530  0.1575  1.3719 -0.0380
 3435SOL    HW221939   2.189   0.606   9.414 -0.3151 -0.0559 -2.2201
 3436SOL     OW21940   3.774   4.404  12.671 -0.0447 -0.6386  0.3544
 3436SOL    HW121941   3.680   4.403  12.650  0.2694 -1.7777 -0.9506
 3436SOL    HW221942   3.812   4.468  12.610  0.9107 -1.3990  0.1546
 3437SOL     OW21943   0.721   3.692  14.416 -0.1015  0.2956  0.3785
 3437SOL    HW121944   0.773   3.726  14.488 -0.4170 -0.4340  0.9492
 3437SOL    HW221945   0.629   3.691  14.444  0.2693  1.3837  1.6254
 3438SOL     OW21946   0.103   0.471   3.625  0.3235  0.0704  0.4221
 3438SOL    HW121947   0.112   0.381   3.593  2.7860  0.4826 -0.0378
 3438SOL    HW221948   0.017   0.468   3.667 -0.8101 -3.3566 -2.1346
 3439SOL     OW21949   2.319   2.594   3.631  0.2836  0.0778  0.0341
 3439SOL    HW121950   2.334   2.598   3.537 -1.5935 -0.5091 -0.3036
 3439SOL    HW221951   2.252   2.525   3.626  3.0443 -2.3899 -2.3177
 3440SOL     OW21952   2.298   4.321  14.326 -0.2305 -0.2753 -0.5721
 3440SOL    HW121953   2.247   4.381  14.380 -0.7485 -1.2765  0.0621
 3440SOL    HW221954   2.239   4.325  14.250 -0.9757 -2.9883 -0.1491
 3441SOL     OW21955   3.285   1.148   1.037  0.1010  0.1803  0.2076
 3441SOL    HW121956   3.246   1.123   1.120 -1.4668 -0.0562 -0.5911
 3441SOL    HW221957   3.265   1.064   0.995 -1.0870  0.5670  0.0134
 3442SOL     OW21958   2.139   2.802   6.878 -0.0178 -0.7624  0.1315
 3442SOL    HW121959   2.183   2.822   6.795  1.2303  0.3718  1.0663
 3442SOL    HW221960   2.202   2.741   6.917 -0.8540 -1.1785  0.8218
 3443SOL     OW21961   4.297   0.246   7.443 -0.6687  0.1667  0.5077
 3443SOL    HW121962   4.302   0.210   7.354  2.4785  1.7320  0.0439
 3443SOL    HW221963   4.212   0.206   7.461 -0.9018 -0.0500 -1.0380
 3444SOL     OW21964   0.657   3.955   2.354 -0.3023 -0.2651  0.4958
 3444SOL    HW121965   0.604   3.916   2.285 -0.8925 -0.4051  1.0212
 3444SOL    HW221966   0.620   3.925   2.438  2.0925  2.4940  2.5494
 3445SOL     OW21967   3.724   0.934   9.875 -0.0369 -0.3033  0.4316
 3445SOL    HW121968   3.732   0.904   9.966  2.0704  0.6727  0.5532
 3445SOL    HW221969   3.673   0.866   9.831  0.8869 -2.1560  2.2149
 3446SOL     OW21970   0.483   4.142   2.500  0.0620 -0.1296  0.2610
 3446SOL    HW121971   0.521   4.068   2.548 -1.6498  0.0772  1.9391
 3446SOL    HW221972   0.451   4.195   2.574 -0.0429  0.0887  0.0587
 3447SOL     OW21973   3.692   4.186   4.380  0.4616  0.2392  0.2306
 3447SOL    HW121974   3.714   4.178   4.473  3.5416  0.2098 -0.4896
 3447SOL    HW221975   3.624   4.120   4.371 -1.1079  1.9771 -0.5247
 3448SOL     OW21976   4.194   1.361   9.970 -0.0718  0.2949  0.5447
 3448SOL    HW121977   4.138   1.327   9.901  2.0731 -1.1271 -0.5115
 3448SOL    HW221978   4.176   1.454   9.958  1.4821  0.5067 -0.1170
 3449SOL     OW21979   2.150   1.282   2.113 -0.1482  0.2352  0.5515
 3449SOL    HW121980   2.187   1.221   2.049 -1.5183  0.1808 -0.1737
 3449SOL    HW221981   2.114   1.350   2.057 -1.3214 -0.4644  0.4756
 3450SOL     OW21982   1.467   2.946   4.165 -0.7723  0.2877 -0.5964
 3450SOL    HW121983   1.382   2.961   4.124 -1.1410  1.1205  0.4733
 3450SOL    HW221984   1.440   2.929   4.255  1.1245  4.6625  0.7847
 3451SOL     OW21985   0.644   0.441   8.386 -0.2380  0.6038  0.2686
 3451SOL    HW121986   0.682   0.515   8.338  0.7747 -0.6580 -0.9031
 3451SOL    HW221987   0.655   0.467   8.478  0.1582  0.7462  0.1829
 3452SOL     OW21988   1.888   3.802   7.356  0.4393 -0.9158 -0.0643
 3452SOL    HW121989   1.921   3.863   7.422  0.7458 -0.4068 -0.6874
 3452SOL    HW221990   1.912   3.853   7.278  1.5347 -0.1044  0.8129
 3453SOL     OW21991   0.430   1.074   7.837  0.2641  0.1602 -0.0207
 3453SOL    HW121992   0.436   0.989   7.881  0.7757 -0.1182 -0.6261
 3453SOL    HW221993   0.358   1.051   7.778 -1.2716  2.7331  0.8754
 3454SOL     OW21994   4.398   0.978   2.497 -0.7418  0.3673  0.0630
 3454SOL    HW121995   4.371   0.958   2.587 -2.1957 -1.3469 -0.7414
 3454SOL    HW221996   4.391   1.073   2.495  1.3370  0.6341  4.4667
 3455SOL     OW21997   1.783   2.703   1.180  0.1093 -0.0067 -0.2250
 3455SOL    HW121998   1.829   2.770   1.230  1.1918 -0.4427 -0.6455
 3455SOL    HW221999   1.743   2.756   1.111 -1.1013 -1.4698 -0.6398
 3456SOL     OW22000   1.294   3.829   2.178  0.0449  0.2647 -0.5588
 3456SOL    HW122001   1.315   3.769   2.107 -2.0571 -3.1623  1.7031
 3456SOL    HW222002   1.384   3.835   2.210 -0.1570  0.3182  0.0024
 3457SOL     OW22003   2.908   3.192   0.407 -0.0520  0.0721 -0.0389
 3457SOL    HW122004   2.851   3.119   0.432 -1.2282  0.6649 -1.0312
 3457SOL    HW222005   2.968   3.163   0.338  0.1365 -1.3225  0.7092
 3458SOL     OW22006   0.445   1.544  11.009  0.0822  0.3556  0.0437
 3458SOL    HW122007   0.529   1.570  11.047  1.9679 -2.8335 -1.9299
 3458SOL    HW222008   0.389   1.615  11.039 -0.7468 -0.5412  0.5977
 3459SOL     OW22009   1.652   2.365   4.866 -0.1122 -0.3081 -0.0451
 3459SOL    HW122010   1.570   2.370   4.914  0.1703  3.8707 -0.0565
 3459SOL    HW222011   1.628   2.303   4.796  0.9430 -0.2824 -0.4305
 3460SOL     OW22012   4.548   3.911   8.424  0.3822 -0.0466 -0.5127
 3460SOL    HW122013   4.516   3.938   8.338 -0.1072 -0.5573 -0.4916
 3460SOL    HW222014   4.544   3.816   8.414  1.0305 -0.1903  0.5735
 3461SOL     OW22015   2.017   2.588   8.941 -0.0448 -0.2161 -0.3307
 3461SOL    HW122016   2.051   2.649   9.006 -1.4418 -0.2083  0.3934
 3461SOL    HW222017   1.924   2.611   8.940 -0.2459 -0.9973  0.9812
 3462SOL     OW22018   4.373   2.826   1.467  0.5713  0.5901 -0.8954
 3462SOL    HW122019   4.465   2.797   1.468  0.9129  1.5962 -3.6618
 3462SOL    HW222020   4.380   2.854   1.376 -1.0418 -2.3033 -1.9083
 3463SOL     OW22021   0.734   4.230   6.934  0.1147  0.1393  0.2113
 3463SOL    HW122022   0.660   4.174   6.958  1.3615 -1.7503 -0.3299
 3463SOL    HW222023   0.755   4.266   7.020 -0.6071  0.1332  0.3867
 3464SOL     OW22024   0.619   4.488   5.072 -0.5843  0.6641  0.2619
 3464SOL    HW122025   0.623   4.525   4.984  1.3772  0.0251  0.1018
 3464SOL    HW222026   0.531   4.451   5.084  0.2468 -1.8264 -1.4532
 3465SOL     OW22027   0.621   1.154   4.555 -0.2099 -0.0295 -0.2680
 3465SOL    HW122028   0.645   1.201   4.475  0.4430 -0.3059 -0.2353
 3465SOL    HW222029   0.555   1.210   4.595 -1.7778 -0.5823 -2.1178
 3466SOL     OW22030   3.317   2.132   3.443 -0.1323  0.0717  0.7249
 3466SOL    HW122031   3.227   2.103   3.459  0.2086 -0.8289  1.0561
 3466SOL    HW222032   3.324   2.197   3.512 -1.2689  1.3334 -0.3574
 3467SOL     OW22033   3.534   2.951  14.633  0.3651  0.0597 -0.1787
 3467SOL    HW122034   3.502   3.021  14.690  2.6836  0.1269  1.0377
 3467SOL    HW222035   3.461   2.949  14.571 -0.8524  0.0133  1.2387
 3468SOL     OW22036   0.343   1.389   2.280 -0.1528 -0.5998  0.6845
 3468SOL    HW122037   0.415   1.329   2.300  0.2319  0.2105  1.7196
 3468SOL    HW222038   0.334   1.455   2.349 -0.9228  0.2841 -0.2628
 3469SOL     OW22039   1.303   2.609   6.129 -0.2457  0.0556  0.2792
 3469SOL    HW122040   1.280   2.533   6.075  1.9403 -0.2156 -0.2572
 3469SOL    HW222041   1.390   2.626   6.094 -0.5884  2.8784  0.8019
 3470SOL     OW22042   1.956   4.600   5.348  0.2464 -0.0432  0.3568
 3470SOL    HW122043   2.014   4.663   5.392  1.1243 -0.6914  0.1325
 3470SOL    HW222044   1.879   4.611   5.404 -0.3823 -1.8911 -0.1750
 3471SOL     OW22045   2.492   3.571   8.692 -0.0229 -0.0162  0.2180
 3471SOL    HW122046   2.529   3.544   8.775  1.8543  2.5394  0.2089
 3471SOL    HW222047   2.471   3.484   8.658 -2.1095  1.6379 -2.8326
 3472SOL     OW22048   4.537   3.670   9.326 -0.3131  0.1624 -0.2849
 3472SOL    HW122049   4.544   3.719   9.407 -0.1988 -0.8563  0.3259
 3472SOL    HW222050   4.624   3.679   9.289  0.3017 -2.0563  0.6233
 3473SOL     OW22051   1.382   0.546   4.764 -0.5739 -0.3681  0.1893
 3473SOL    HW122052   1.423   0.632   4.761 -1.8975  0.3118  1.7879
 3473SOL    HW222053   1.422   0.506   4.841 -1.1759 -0.3762  0.4953
 3474SOL     OW22054   3.386   2.558  15.774  0.4532  0.3202 -0.6183
 3474SOL    HW122055   3.333   2.636  15.760  0.1237 -0.0642 -1.5183
 3474SOL    HW222056   3.324   2.497  15.815  0.7425 -0.7907 -1.8279
 3475SOL     OW22057   1.995   2.153  13.848  0.2124  0.1575  0.5795
 3475SOL    HW122058   1.912   2.171  13.891  0.2707 -1.0225  1.1855
 3475SOL    HW222059   2.027   2.240  13.822  1.6248  0.0456  1.9709
 3476SOL     OW22060   2.829   0.801   5.039  0.8817 -0.2116  0.4010
 3476SOL    HW122061   2.789   0.778   4.955  2.4604 -2.7653  0.3588
 3476SOL    HW222062   2.872   0.718   5.060 -1.0499 -1.0273  1.0479
 3477SOL     OW22063   1.155   0.899   3.497  0.4655 -0.8675  0.3636
 3477SOL    HW122064   1.191   0.866   3.579 -0.1009 -1.1689  0.4870
 3477SOL    HW222065   1.233   0.944   3.463  0.4564 -1.7079 -0.7878
 3478SOL     OW22066   3.449   4.026  16.505  1.0494 -0.3923  0.1226
 3478SOL    HW122067   3.493   4.111  16.502 -1.0367  0.6962  0.3174
 3478SOL    HW222068   3.400   4.025  16.422  1.1538 -1.4528  0.0800
 3479SOL     OW22069   0.562   3.090   1.812  0.5309  0.2222  0.3335
 3479SOL    HW122070   0.550   3.173   1.768  1.2896  1.0998  1.7634
 3479SOL    HW222071   0.507   3.037   1.755 -0.8705  2.9332 -0.7810
 3480SOL     OW22072   0.815   0.827   0.180  0.1240  0.0139  0.3901
 3480SOL    HW122073   0.795   0.734   0.174 -1.4565  0.3846 -0.0401
 3480SOL    HW222074   0.899   0.843   0.136 -1.4920  1.4699 -2.1520
 3481SOL     OW22075   3.474   0.589   0.278  0.0122 -0.1155  0.4652
 3481SOL    HW122076   3.471   0.539   0.360 -0.4208 -0.4030  0.2784
 3481SOL    HW222077   3.442   0.524   0.214 -1.2112 -0.7522  1.7124
 3482SOL     OW22078   4.681   3.303   8.510 -0.0992 -0.0565  0.2042
 3482SOL    HW122079   4.629   3.344   8.579 -0.3131 -0.1865  0.1189
 3482SOL    HW222080   4.613   3.279   8.448  0.2100 -0.2398 -0.0647
 3483SOL     OW22081   4.239   3.145  16.997  0.0492 -0.0616 -0.1819
 3483SOL    HW122082   4.199   3.142  16.910  0.1004  1.2252 -0.2436
 3483SOL    HW222083   4.168   3.181  17.050  0.1823 -1.4352  0.9436
 3484SOL     OW22084   3.019   3.093   9.230 -0.1687 -0.5479  0.2956
 3484SOL    HW122085   2.968   3.163   9.269  2.2403  1.6660 -0.5394
 3484SOL    HW222086   2.955   3.070   9.162  0.6915  1.4590 -1.2065
 3485SOL     OW22087   0.905   2.749   5.418 -0.1980  0.2748 -0.1715
 3485SOL    HW122088   0.911   2.787   5.505  2.8582 -1.0099  0.1862
 3485SOL    HW222089   0.935   2.816   5.357 -0.0166  0.1326 -0.2373
 3486SOL     OW22090   2.913   3.940   4.810 -0.2012  0.6494  1.1546
 3486SOL    HW122091   2.842   3.918   4.871 -2.4540  1.0393 -1.3031
 3486SOL    HW222092   2.869   3.992   4.743  0.0133 -1.9563 -1.0024
 3487SOL     OW22093   0.738   1.745   3.257 -0.1840 -0.5075  0.1876
 3487SOL    HW122094   0.827   1.711   3.267  0.3888  0.1794 -2.3593
 3487SOL    HW222095   0.692   1.695   3.324  0.9272  0.8633  1.9908
 3488SOL     OW22096   4.331   1.028   9.362 -0.2919  0.5195  0.0681
 3488SOL    HW122097   4.407   1.080   9.387 -0.3795  0.4589  0.4498
 3488SOL    HW222098   4.351   0.996   9.274  2.1930 -0.6411  1.0707
 3489SOL     OW22099   2.731   0.069  12.687  0.3423 -0.1246  0.1243
 3489SOL    HW122100   2.661   0.007  12.709 -0.0309 -0.0657 -0.9075
 3489SOL    HW222101   2.798   0.054  12.754  0.0642 -1.8660  0.0130
 3490SOL     OW22102   4.666   2.058   0.426 -0.1323  0.2870  0.0331
 3490SOL    HW122103   4.681   2.091   0.515  2.1197 -0.5274 -0.0276
 3490SOL    HW222104   4.639   1.968   0.445 -1.2156  0.8905  1.3932
 3491SOL     OW22105   2.125   3.662  16.579 -0.3092  0.2305  0.0060
 3491SOL    HW122106   2.156   3.572  16.567  0.0292 -0.2562  4.4923
 3491SOL    HW222107   2.086   3.684  16.495  2.0749 -0.2630 -1.2287
 3492SOL     OW22108   4.346   3.369   8.100  0.7078  0.2401 -0.4444
 3492SOL    HW122109   4.387   3.335   8.179  1.1976 -1.1559 -1.3128
 3492SOL    HW222110   4.417   3.400   8.044  0.9256 -1.8173 -1.2896
 3493SOL     OW22111   3.228   1.291  10.738  0.2916  0.4685  0.2127
 3493SOL    HW122112   3.309   1.239  10.738 -0.7872 -1.1981  3.2639
 3493SOL    HW222113   3.222   1.289  10.642 -0.5475  0.2636  0.2645
 3494SOL     OW22114   1.466   2.801   9.024  0.9925 -0.4822 -0.3613
 3494SOL    HW122115   1.489   2.893   9.023  1.6237 -0.5971  2.0986
 3494SOL    HW222116   1.517   2.771   8.949 -0.2005  0.4263 -1.5253
 3495SOL     OW22117   0.171   2.171   8.559  0.2845  0.0505  0.3107
 3495SOL    HW122118   0.149   2.172   8.652  2.0662  1.4635  0.7160
 3495SOL    HW222119   0.193   2.078   8.550  0.1894 -0.1754  2.2801
 3496SOL     OW22120   1.327   2.699   7.570 -0.1922 -0.2775  0.4124
 3496SOL    HW122121   1.413   2.735   7.551 -0.5012 -0.2509 -0.9066
 3496SOL    HW222122   1.264   2.755   7.525  1.7181  0.7437 -0.9598
 3497SOL     OW22123   2.903   3.451   5.170 -0.1381  0.4895 -0.1114
 3497SOL    HW122124   2.846   3.526   5.155 -1.3986 -0.9796 -2.7409
 3497SOL    HW222125   2.916   3.459   5.264  1.2953 -0.8877 -0.1961
 3498SOL     OW22126   3.749   0.720   6.771 -0.4782 -0.4403 -0.0257
 3498SOL    HW122127   3.759   0.665   6.694 -0.2172  0.5104 -0.6700
 3498SOL    HW222128   3.694   0.786   6.729  1.1190  0.6236 -0.4525
 3499SOL     OW22129   0.369   3.471   8.170 -0.4622  0.0782  0.0359
 3499SOL    HW122130   0.407   3.513   8.094  1.4190 -0.4767  0.6711
 3499SOL    HW222131   0.426   3.502   8.240  1.3285 -0.1596 -1.3216
 3500SOL     OW22132   4.535   4.168  16.950  0.8650 -0.1838 -0.5495
 3500SOL    HW122133   4.440   4.160  16.940  1.3052 -1.0718 -4.3697
 3500SOL    HW222134   4.535   4.158  17.045  1.3731  0.5495 -0.4679
 3501SOL     OW22135   1.624   4.195   4.607 -0.5865  0.0778  0.1211
 3501SOL    HW122136   1.620   4.290   4.613  0.6202  0.1091  0.4448
 3501SOL    HW222137   1.718   4.174   4.607 -0.5315  0.2930 -0.6540
 3502SOL     OW22138   1.171   1.399  16.709  0.4295 -0.2799 -0.5107
 3502SOL    HW122139   1.102   1.456  16.676 -0.7291 -1.8613 -0.8521
 3502SOL    HW222140   1.217   1.453  16.772  1.4810  0.1300 -1.6151
 3503SOL     OW22141   2.589   2.949   9.118 -0.0029 -0.5460 -0.3750
 3503SOL    HW122142   2.518   2.928   9.058 -1.0240 -2.2706  1.4296
 3503SOL    HW222143   2.552   2.958   9.206 -1.0645  2.5471 -1.1465
 3504SOL     OW22144   4.117   4.622   5.685 -0.2099 -0.2183 -0.1358
 3504SOL    HW122145   4.142   4.714   5.680 -1.9991  0.1490 -2.4603
 3504SOL    HW222146   4.051   4.608   5.616 -0.6829 -1.5752  0.5903
 3505SOL     OW22147   2.683   3.797   4.226  0.6466  0.1044  0.1929
 3505SOL    HW122148   2.711   3.712   4.194 -1.3985 -0.1371 -0.9829
 3505SOL    HW222149   2.648   3.840   4.148  0.8500 -2.3958 -1.2755
 3506SOL     OW22150   3.210   2.121   7.316 -0.1291 -0.6896 -0.0022
 3506SOL    HW122151   3.276   2.186   7.337 -1.2604  0.5757 -0.3152
 3506SOL    HW222152   3.200   2.078   7.401 -1.5096  0.5314  0.4584
 3507SOL     OW22153   1.043   0.612  11.633  0.0797 -0.3127  0.3121
 3507SOL    HW122154   1.015   0.696  11.598  0.4943  0.6516  2.2887
 3507SOL    HW222155   1.134   0.605  11.603  0.6325 -3.3697  2.5954
 3508SOL     OW22156   3.947   3.603   5.630  0.2634  0.3084 -0.3277
 3508SOL    HW122157   3.884   3.591   5.559  1.0453 -1.6041 -0.6962
 3508SOL    HW222158   3.890   3.590   5.706  0.7879 -0.5421 -0.0785
 3509SOL     OW22159   1.920   3.269   7.138  0.1676 -0.2842  0.1605
 3509SOL    HW122160   1.936   3.275   7.044 -0.9926 -1.8482 -0.1362
 3509SOL    HW222161   1.837   3.314   7.155  0.4453 -0.5009  2.1108
 3510SOL     OW22162   3.841   4.168   6.291  0.1401 -0.1931 -0.1484
 3510SOL    HW122163   3.889   4.088   6.268  0.1791 -0.1937 -0.0629
 3510SOL    HW222164   3.755   4.143   6.257  0.0941 -1.1309  0.6752
 3511SOL     OW22165   0.048   1.032   5.122  0.1386  0.4166 -0.0852
 3511SOL    HW122166   4.736   1.074   5.053 -0.8977 -0.8467 -0.0883
 3511SOL    HW222167   0.036   0.939   5.103 -1.6414  0.7576 -0.6198
 3512SOL     OW22168   2.813   0.778   2.990  0.4271 -1.0563 -0.0290
 3512SOL    HW122169   2.786   0.796   2.900 -1.4647 -1.6062  0.4178
 3512SOL    HW222170   2.891   0.833   2.997 -1.7582  2.0361  0.2417
 3513SOL     OW22171   0.670   3.629   4.866  0.2797  0.1597 -0.0060
 3513SOL    HW122172   0.753   3.603   4.905 -0.9287  0.1335  2.5681
 3513SOL    HW222173   0.605   3.566   4.899  0.9992 -0.4459  0.2664
 3514SOL     OW22174   0.941   3.055   8.555  0.0872 -0.0469 -0.0469
 3514SOL    HW122175   1.006   2.987   8.573  2.0343  1.2454 -2.1505
 3514SOL    HW222176   0.984   3.104   8.484  0.0744  0.8215  0.5428
 3515SOL     OW22177   0.815   3.109   4.801 -0.2385 -0.1208 -0.1334
 3515SOL    HW122178   0.822   3.051   4.725  1.0753 -0.0396 -0.0754
 3515SOL    HW222179   0.874   3.178   4.772 -1.2860  0.1442 -1.6297
 3516SOL     OW22180   0.788   0.267   4.131  0.4392  0.0520  0.2240
 3516SOL    HW122181   0.696   0.279   4.107  0.4275 -1.1571 -0.3362
 3516SOL    HW222182   0.795   0.175   4.109  1.1191  0.1541  0.0232
 3517SOL     OW22183   3.632   3.408   4.533 -0.7158  0.9716 -0.0582
 3517SOL    HW122184   3.577   3.361   4.471  2.7293  2.9062 -4.6285
 3517SOL    HW222185   3.665   3.338   4.589  1.3949  0.1573 -2.2722
 3518SOL     OW22186   2.471   4.195   5.346  0.1595  0.0917 -0.3186
 3518SOL    HW122187   2.452   4.250   5.422 -1.0598  0.7007 -1.0798
 3518SOL    HW222188   2.454   4.260   5.278  0.2120  2.0882  1.5738
 3519SOL     OW22189   4.050   1.344  16.106  0.1724  0.2931 -0.4661
 3519SOL    HW122190   4.077   1.349  16.014  1.9365  0.8535  0.1020
 3519SOL    HW222191   3.957   1.366  16.094  0.2332 -0.7018 -2.8028
 3520SOL     OW22192   3.509   1.353   8.120 -0.6206 -0.5605 -0.2827
 3520SOL    HW122193   3.461   1.423   8.163 -2.9990 -2.8811  0.8012
 3520SOL    HW222194   3.594   1.394   8.102 -0.6250 -1.2064 -1.7931
 3521SOL     OW22195   3.701   0.504   0.075  0.1393 -0.0295 -0.0269
 3521SOL    HW122196   3.781   0.514   0.126  0.7687  1.2499 -1.2722
 3521SOL    HW222197   3.631   0.462   0.125 -1.7968  2.1163 -0.9469
 3522SOL     OW22198   1.801   2.507  12.362  0.5352  0.1071  0.3767
 3522SOL    HW122199   1.780   2.564  12.288  4.2610  1.1419  0.1162
 3522SOL    HW222200   1.739   2.435  12.353  2.8964 -1.9190  0.1707
 3523SOL     OW22201   1.601   1.597   3.849  0.1080  0.1527  0.0120
 3523SOL    HW122202   1.643   1.618   3.765  0.0490 -0.8153 -0.2625
 3523SOL    HW222203   1.671   1.547   3.891  0.5567  1.5198  0.8793
 3524SOL     OW22204   2.907   4.445   7.997  0.1550 -0.2145 -0.6195
 3524SOL    HW122205   2.825   4.418   8.039  3.0115 -1.1391  4.3576
 3524SOL    HW222206   2.951   4.501   8.060 -2.0554 -0.1257  0.8422
 3525SOL     OW22207   1.957   0.894  10.566 -0.4660 -0.8139 -0.2251
 3525SOL    HW122208   2.007   0.851  10.498 -2.7269 -1.4990 -1.4611
 3525SOL    HW222209   1.919   0.968  10.519  0.4378  0.5689  1.2214
 3526SOL     OW22210   1.433   4.100   3.074 -0.3209  0.1247 -0.1694
 3526SOL    HW122211   1.474   4.097   2.987 -0.6237 -0.8245 -0.2737
 3526SOL    HW222212   1.420   4.195   3.076  1.1888  0.3008  0.7476
 3527SOL     OW22213   1.189   4.079   2.193 -0.1616  0.0770  0.0514
 3527SOL    HW122214   1.240   3.999   2.174  1.4163  0.9901  0.4230
 3527SOL    HW222215   1.098   4.057   2.172  0.4008 -0.7150 -1.5782
 3528SOL     OW22216   4.273   3.314   6.752 -0.2028 -0.1172 -0.3786
 3528SOL    HW122217   4.184   3.306   6.718  0.0331  1.4911 -1.3594
 3528SOL    HW222218   4.315   3.251   6.693  0.0019 -0.8230  0.5175
 3529SOL     OW22219   3.002   0.034   2.866 -0.0609 -0.1307  0.0032
 3529SOL    HW122220   2.920   4.730   2.892  0.4516 -0.8607  0.3994
 3529SOL    HW222221   2.968   0.102   2.808  1.0890 -0.6045 -1.2281
 3530SOL     OW22222   4.070   0.765   8.020  0.3578 -0.2956  0.1058
 3530SOL    HW122223   4.085   0.813   8.101  0.8443 -0.7730  0.2964
 3530SOL    HW222224   4.129   0.823   7.972  0.0521 -0.7320 -0.8132
 3531SOL     OW22225   1.594   2.593   9.567 -0.0671  0.0220 -0.1220
 3531SOL    HW122226   1.564   2.512   9.608 -0.6771  0.1686 -0.2711
 3531SOL    HW222227   1.686   2.582   9.543 -0.3345  2.0492 -2.1173
 3532SOL     OW22228   3.242   2.469   2.820  0.4153  0.0889 -0.3197
 3532SOL    HW122229   3.194   2.501   2.897 -0.6791  1.6027 -1.6213
 3532SOL    HW222230   3.190   2.389   2.813 -0.6217  0.6056  1.3331
 3533SOL     OW22231   0.775   2.012   6.071  0.4605 -0.0255 -0.8439
 3533SOL    HW122232   0.729   2.094   6.055 -0.6234 -0.0599  2.1258
 3533SOL    HW222233   0.716   1.957   6.122 -0.1980  2.0654  0.6755
 3534SOL     OW22234   0.021   1.044   4.015  0.0649 -0.1578  0.0998
 3534SOL    HW122235   4.715   1.073   3.936  0.6370 -2.0216 -0.9137
 3534SOL    HW222236   4.737   0.951   4.019 -0.2448 -0.0677  0.4374
 3535SOL     OW22237   3.532   1.100   2.289 -0.0105  0.5403  0.0371
 3535SOL    HW122238   3.495   1.099   2.377 -1.4068 -0.3815 -0.5528
 3535SOL    HW222239   3.534   1.006   2.268  1.0206  0.3778  0.8567
 3536SOL     OW22240   3.135   3.936   4.643 -0.0418 -0.0901 -0.3020
 3536SOL    HW122241   3.060   3.906   4.694  1.1502 -3.1614 -0.3313
 3536SOL    HW222242   3.122   4.029   4.627 -1.5377 -0.3151 -0.4323
 3537SOL     OW22243   4.616   4.457   5.761  0.3738  0.2992  0.0962
 3537SOL    HW122244   4.663   4.453   5.844 -0.6696 -0.1921  0.6644
 3537SOL    HW222245   4.687   4.494   5.708 -0.7763  0.5355 -1.3000
 3538SOL     OW22246   1.657   2.061   3.709 -0.1522 -0.4248  0.1072
 3538SOL    HW122247   1.581   2.003   3.709 -0.2081 -0.3238 -2.1605
 3538SOL    HW222248   1.696   2.038   3.625 -3.5574 -0.6482 -1.3695
 3539SOL     OW22249   0.637   0.707   7.528  0.2593  0.1470  0.7352
 3539SOL    HW122250   0.612   0.615   7.521  3.5363 -0.6255 -0.9196
 3539SOL    HW222251   0.598   0.719   7.615  2.2193  0.6045  1.5652
 3540SOL     OW22252   3.762   4.240   9.412  0.2598  0.0122 -0.2811
 3540SOL    HW122253   3.751   4.288   9.494  0.2230  0.6463 -0.6515
 3540SOL    HW222254   3.817   4.300   9.360 -0.1790 -0.5387 -1.3753
 3541SOL     OW22255   1.603   3.252   8.796  0.4986 -0.5803 -0.7939
 3541SOL    HW122256   1.635   3.338   8.826 -0.0295 -0.4046 -0.7330
 3541SOL    HW222257   1.657   3.192   8.847 -0.5391 -2.0156 -1.3895
 3542SOL     OW22258   0.287   1.801  11.335 -0.7336  0.3859  0.3010
 3542SOL    HW122259   0.344   1.780  11.410  0.5029 -0.3499 -0.8368
 3542SOL    HW222260   0.228   1.726  11.344 -1.7627  0.8418 -2.7906
 3543SOL     OW22261   1.789   0.487   3.795  0.1854  0.0491  0.2314
 3543SOL    HW122262   1.732   0.457   3.865  1.0022 -0.9333  0.4651
 3543SOL    HW222263   1.722   0.482   3.726  0.8405  2.7591 -0.5973
 3544SOL     OW22264   0.044   0.137   9.283  0.3705  0.0640  0.0013
 3544SOL    HW122265   4.704   0.118   9.332  0.5330 -0.8757 -0.0914
 3544SOL    HW222266   0.060   0.231   9.293  1.6519  0.1492 -2.8295
 3545SOL     OW22267   4.463   0.469   7.402 -0.2585  0.0919 -0.3078
 3545SOL    HW122268   4.407   0.392   7.405  0.6627 -0.5954 -0.7985
 3545SOL    HW222269   4.544   0.429   7.370  0.3536 -0.7386  2.2611
 3546SOL     OW22270   2.424   2.994   6.910  0.4535 -0.0835  0.1117
 3546SOL    HW122271   2.470   3.052   6.849  0.6617 -2.3217 -1.8675
 3546SOL    HW222272   2.330   3.015   6.910  0.5957  0.5187 -0.9939
 3547SOL     OW22273   4.196   2.529   9.610  0.3442  0.3068  0.2651
 3547SOL    HW122274   4.214   2.623   9.604  1.0360  0.2185  0.9452
 3547SOL    HW222275   4.143   2.505   9.685 -0.5966  1.2254 -0.1008
 3548SOL     OW22276   2.553   2.608   1.353 -0.6090  0.6031  0.5244
 3548SOL    HW122277   2.578   2.676   1.290  2.3067 -0.9830 -0.0286
 3548SOL    HW222278   2.583   2.646   1.435 -0.3651 -1.6438  1.4602
 3549SOL     OW22279   4.097   0.244  13.509 -0.3225  0.4292  0.5154
 3549SOL    HW122280   4.059   0.286  13.432  2.6737  1.6513 -0.2887
 3549SOL    HW222281   4.021   0.237  13.567 -0.9304  1.1500 -0.2018
 3550SOL     OW22282   3.573   1.019   9.085  0.1186  0.0466 -0.5424
 3550SOL    HW122283   3.596   1.083   9.017  1.4754  0.4383  0.2785
 3550SOL    HW222284   3.641   0.954   9.070  0.4685  0.4999 -0.9086
 3551SOL     OW22285   1.347   1.354   8.769  0.3404 -0.4670 -0.2608
 3551SOL    HW122286   1.298   1.300   8.706 -1.5362 -0.8420  1.5152
 3551SOL    HW222287   1.315   1.442   8.752  0.2590 -0.1087  1.7698
 3552SOL     OW22288   3.516   3.032   1.241 -0.5806  0.6468  0.1463
 3552SOL    HW122289   3.596   2.990   1.212  0.8885  3.7287 -0.2748
 3552SOL    HW222290   3.454   2.981   1.188  1.6152 -2.9924  1.1410
 3553SOL     OW22291   3.884   0.579   7.618 -0.0425 -0.4901  0.0327
 3553SOL    HW122292   3.854   0.500   7.662  1.1904 -2.1680 -2.1185
 3553SOL    HW222293   3.967   0.593   7.663 -0.4653  0.1599  0.6103
 3554SOL     OW22294   4.078   2.856   6.564 -0.0435 -0.3594  0.1546
 3554SOL    HW122295   4.081   2.939   6.516 -0.4541 -0.6339 -0.3475
 3554SOL    HW222296   4.050   2.899   6.645  0.0969  1.9721 -1.0542
 3555SOL     OW22297   2.259   1.033  17.409  0.6177 -0.2672 -0.5440
 3555SOL    HW122298   2.250   1.098  17.338 -2.4953 -0.3852 -0.2410
 3555SOL    HW222299   2.216   1.071  17.485  0.9688  3.9296 -2.4230
 3556SOL     OW22300   1.863   1.777   4.385  0.1906 -0.5477  0.4834
 3556SOL    HW122301   1.848   1.682   4.387  0.3789 -0.6409 -1.9468
 3556SOL    HW222302   1.794   1.808   4.443 -0.5329 -1.2532  0.0026
 3557SOL     OW22303   3.820   1.869   3.729  0.1630  0.1307 -0.2849
 3557SOL    HW122304   3.915   1.859   3.735 -0.0823 -0.5512  2.4508
 3557SOL    HW222305   3.797   1.894   3.818 -1.3217 -1.5918 -0.1769
 3558SOL     OW22306   0.886   0.974   3.885 -0.1041 -0.1476 -0.0078
 3558SOL    HW122307   0.830   0.938   3.954 -0.5855 -0.9699 -0.8324
 3558SOL    HW222308   0.947   1.022   3.940 -0.9089  0.2019  0.5836
 3559SOL     OW22309   2.830   4.332  12.952 -0.0033 -0.1569  0.4348
 3559SOL    HW122310   2.767   4.362  13.018  0.9292 -1.9135  2.1413
 3559SOL    HW222311   2.904   4.312  13.009 -0.1314 -2.3181 -0.1426
 3560SOL     OW22312   1.061   4.275   3.792  0.1047 -0.2619 -0.3077
 3560SOL    HW122313   1.014   4.322   3.861 -1.4395 -0.2315 -1.4011
 3560SOL    HW222314   1.023   4.190   3.813 -1.9646  0.9732  0.9580
 3561SOL     OW22315   0.451   1.879   8.686 -0.6752  0.3695 -0.3032
 3561SOL    HW122316   0.450   1.885   8.781 -1.9117 -2.2115 -0.1581
 3561SOL    HW222317   0.458   1.973   8.665 -1.2112  1.1198  2.8921
 3562SOL     OW22318   2.955   0.393   9.331  0.3771 -0.0198  0.6111
 3562SOL    HW122319   2.885   0.420   9.391  0.5992  0.6812  0.5538
 3562SOL    HW222320   2.924   0.452   9.261 -0.4001  1.0914  1.8863
 3563SOL     OW22321   0.669   0.566  16.881  0.0207  0.5664 -0.0918
 3563SOL    HW122322   0.628   0.646  16.848 -1.0844 -0.8338 -2.0876
 3563SOL    HW222323   0.727   0.537  16.810 -0.2060 -1.8903  0.7481
 3564SOL     OW22324   4.622   3.150   2.713 -0.3971 -0.5900 -0.2633
 3564SOL    HW122325   4.579   3.076   2.756 -0.4599 -0.7022 -0.5208
 3564SOL    HW222326   4.564   3.172   2.641 -0.3738  1.0648  0.2237
 3565SOL     OW22327   1.223   1.844   5.916  0.2923 -0.0218  0.0397
 3565SOL    HW122328   1.202   1.876   5.828 -1.5719 -0.8438  0.1932
 3565SOL    HW222329   1.176   1.897   5.981  1.0297  0.3472  0.2773
 3566SOL     OW22330   3.089   2.637  17.663  0.7724  0.1735  0.3296
 3566SOL    HW122331   3.126   2.714  17.620 -1.8213  1.1145 -0.2398
 3566SOL    HW222332   3.113   2.576  17.594 -1.5003 -0.8315  0.4143
 3567SOL     OW22333   4.257   2.282   7.620 -0.8829  0.5336 -0.5722
 3567SOL    HW122334   4.166   2.309   7.634 -0.6259 -0.3859  2.9599
 3567SOL    HW222335   4.245   2.192   7.649  0.9809  0.4292 -0.1533
 3568SOL     OW22336   3.844   4.720   3.815 -0.2689 -0.2948  0.0884
 3568SOL    HW122337   3.930   0.021   3.818  0.0896 -1.0142 -0.3091
 3568SOL    HW222338   3.788   0.055   3.795  1.6282  1.9226  2.8991
 3569SOL     OW22339   1.094   0.337   2.719 -0.3882  0.2080 -0.1723
 3569SOL    HW122340   1.170   0.325   2.661 -0.4169 -1.0384  0.0557
 3569SOL    HW222341   1.018   0.335   2.662 -1.3413 -2.1238  1.1701
 3570SOL     OW22342   3.628   1.489   5.983  0.7267  0.1153  0.2911
 3570SOL    HW122343   3.691   1.458   6.048  0.3270  0.6427  0.9274
 3570SOL    HW222344   3.623   1.418   5.919  0.4662  1.7108 -1.4344
 3571SOL     OW22345   1.004   2.604   9.500  0.0150 -1.1691  0.1048
 3571SOL    HW122346   1.088   2.617   9.545  0.3769  0.3813 -1.0333
 3571SOL    HW222347   1.023   2.608   9.406 -1.0206  3.0713  0.0951
 3572SOL     OW22348   4.628   2.387   6.882  0.2002  0.0807  0.5235
 3572SOL    HW122349   4.541   2.423   6.900 -0.1606  0.4279 -1.9689
 3572SOL    HW222350   4.677   2.442   6.943 -0.4481  2.3664 -1.0292
 3573SOL     OW22351   3.721   3.585   0.410 -0.3466  0.3163  0.5262
 3573SOL    HW122352   3.740   3.562   0.501  0.9117  1.5093  0.5551
 3573SOL    HW222353   3.687   3.498   0.387  0.2655  0.1886  0.1153
 3574SOL     OW22354   2.921   3.792   2.265  0.1274 -0.5068 -0.3203
 3574SOL    HW122355   2.826   3.783   2.275  0.1853  0.3821  0.9935
 3574SOL    HW222356   2.938   3.703   2.235  2.4154 -0.8199  1.9443
 3575SOL     OW22357   3.912   4.150   1.175 -0.1956 -0.0388 -0.6608
 3575SOL    HW122358   3.974   4.134   1.246 -0.2665 -1.1381 -0.8564
 3575SOL    HW222359   3.830   4.109   1.200  0.5180  0.2103  2.0907
 3576SOL     OW22360   0.717   1.301   4.336 -0.5945 -0.0866 -0.2192
 3576SOL    HW122361   0.642   1.353   4.364 -1.7526 -3.3605  2.7024
 3576SOL    HW222362   0.697   1.286   4.244  0.7998 -2.1448 -0.1759
 3577SOL     OW22363   0.244   3.984   4.301  0.1394  0.0939  0.0394
 3577SOL    HW122364   0.339   3.970   4.303  0.1064 -0.0996  0.3900
 3577SOL    HW222365   0.244   4.075   4.270 -2.2105 -0.2211 -0.8702
 3578SOL     OW22366   4.542   0.282   4.085 -1.0000  0.2795 -0.2966
 3578SOL    HW122367   4.492   0.205   4.112 -0.6812 -0.3306 -1.4530
 3578SOL    HW222368   4.609   0.297   4.153 -0.3143 -0.9929 -0.7015
 3579SOL     OW22369   0.173   0.969   0.855 -0.6353 -0.6086 -0.3931
 3579SOL    HW122370   0.142   0.926   0.776  0.0252  2.6839 -2.4556
 3579SOL    HW222371   0.093   1.008   0.890  0.0837  0.1035  0.4994
 3580SOL     OW22372   3.159   4.249   6.569  0.1461 -0.0272  0.2684
 3580SOL    HW122373   3.218   4.296   6.510  1.1185 -2.4531 -0.6745
 3580SOL    HW222374   3.134   4.321   6.628 -0.3985 -0.9296  1.1324
 3581SOL     OW22375   3.971   2.849   0.428 -0.0763  0.2112 -0.2230
 3581SOL    HW122376   3.952   2.760   0.458  0.7475  0.3096  0.5830
 3581SOL    HW222377   4.049   2.842   0.374  0.0664 -0.3536  0.0577
 3582SOL     OW22378   1.903   2.660   4.593 -0.1442  0.2090 -0.0213
 3582SOL    HW122379   1.955   2.693   4.520 -2.0587  0.0620 -1.4477
 3582SOL    HW222380   1.967   2.637   4.661  0.4591 -0.3298 -0.7651
 3583SOL     OW22381   0.507   2.650  16.674  0.1424  0.4790  0.4034
 3583SOL    HW122382   0.540   2.690  16.754 -2.1109  0.3056  1.4371
 3583SOL    HW222383   0.437   2.710  16.650  0.2717  0.5142  0.1183
 3584SOL     OW22384   1.206   3.625  11.665  0.7825  0.1334  0.0515
 3584SOL    HW122385   1.290   3.585  11.689  0.1909  0.3660  2.5343
 3584SOL    HW222386   1.214   3.720  11.667  2.1135  0.1011 -3.1587
 3585SOL     OW22387   0.085   4.484  17.045 -0.2626 -0.2155  0.1045
 3585SOL    HW122388   4.729   4.479  17.035 -0.3926  0.6549  0.9238
 3585SOL    HW222389   0.105   4.560  16.991 -0.1286 -0.5605 -0.3292
 3586SOL     OW22390   1.993   0.876  12.018 -0.0020 -0.1034  0.1557
 3586SOL    HW122391   2.048   0.807  12.055 -0.5722 -0.7471 -0.1994
 3586SOL    HW222392   1.985   0.932  12.096 -0.4154 -1.7780  1.3294
 3587SOL     OW22393   0.496   4.619   8.340 -0.0580  0.0288 -0.2423
 3587SOL    HW122394   0.408   4.586   8.358 -0.3008  1.5721  1.3707
 3587SOL    HW222395   0.473   4.702   8.299  0.9612  0.4057 -0.0447
 3588SOL     OW22396   3.615   2.599   5.919 -0.0327  0.0760  0.2836
 3588SOL    HW122397   3.662   2.584   5.837 -0.2396 -1.1922  0.3926
 3588SOL    HW222398   3.633   2.522   5.973 -2.1898  0.1817  1.1491
 3589SOL     OW22399   2.125   1.501  15.756 -0.5392 -0.0991  0.3106
 3589SOL    HW122400   2.032   1.487  15.741 -0.1839 -0.6416 -1.4474
 3589SOL    HW222401   2.159   1.556  15.685  1.0625 -0.9101  0.4508
 3590SOL     OW22402   3.672   1.572   0.155  0.0935  0.0508  0.9593
 3590SOL    HW122403   3.593   1.534   0.116  1.4931  0.0392 -1.8533
 3590SOL    HW222404   3.722   1.599   0.079  2.5780 -1.8401  1.9060
 3591SOL     OW22405   0.450   4.633   9.979  0.8888  0.4731 -0.2766
 3591SOL    HW122406   0.428   4.724   9.960  1.6977  0.8370  0.5427
 3591SOL    HW222407   0.402   4.594   9.906 -0.0210 -1.0498  1.1339
 3592SOL     OW22408   3.507   3.418   7.959 -0.0296 -0.7140  0.2440
 3592SOL    HW122409   3.590   3.406   7.913 -0.4742  0.7036 -0.9052
 3592SOL    HW222410   3.448   3.433   7.886 -0.2621 -1.9521  0.1742
 3593SOL     OW22411   3.635   2.674   7.044 -0.4698  0.0833 -0.3468
 3593SOL    HW122412   3.642   2.720   7.128 -0.2781 -0.4952 -0.0404
 3593SOL    HW222413   3.697   2.603   7.061  1.7217  1.6755 -1.7810
 3594SOL     OW22414   1.598   1.639   2.719 -0.1435 -0.2401  0.1616
 3594SOL    HW122415   1.634   1.639   2.631  0.1936 -1.4430  0.2976
 3594SOL    HW222416   1.516   1.590   2.711 -0.1246 -0.2727  0.1677
 3595SOL     OW22417   4.161   3.675  16.742  0.0475  0.0652 -0.2449
 3595SOL    HW122418   4.174   3.611  16.812 -1.1949 -1.0386 -1.0156
 3595SOL    HW222419   4.212   3.634  16.673 -0.8251 -1.0334 -0.2330
 3596SOL     OW22420   0.994   1.630   3.312  0.1030  0.1386  0.2536
 3596SOL    HW122421   1.052   1.559   3.340 -2.8115 -2.7530 -0.9282
 3596SOL    HW222422   1.031   1.690   3.376  3.0169  0.3684 -1.6381
 3597SOL     OW22423   3.044   4.273   2.695  0.3457  0.5490  0.1839
 3597SOL    HW122424   3.087   4.193   2.664  0.0250  0.5682 -0.3152
 3597SOL    HW222425   3.095   4.283   2.776 -0.3767  0.6374  0.6290
 3598SOL     OW22426   3.714   3.177   5.133 -0.0391 -0.3099 -0.2225
 3598SOL    HW122427   3.678   3.246   5.078  2.6035 -0.8726 -2.6511
 3598SOL    HW222428   3.807   3.197   5.130  0.9099 -4.6061  0.6814
 3599SOL     OW22429   3.990   3.038  11.527  0.1571 -0.3870 -0.3383
 3599SOL    HW122430   4.020   2.951  11.503  0.5758 -0.6951  1.2913
 3599SOL    HW222431   3.929   3.013  11.597  0.3150  0.2521  0.0313
 3600SOL     OW22432   0.096   3.968   2.159  0.0843 -0.1086 -0.2088
 3600SOL    HW122433   0.124   3.882   2.128  1.8996  0.4409 -0.0807
 3600SOL    HW222434   0.184   4.003   2.176 -0.1025  0.6022 -0.7063
 3601SOL     OW22435   3.958   1.903   8.248  0.4712  0.6959 -0.1168
 3601SOL    HW122436   3.885   1.864   8.200  0.1859 -0.0441  0.9164
 3601SOL    HW222437   4.012   1.918   8.171  1.6220 -1.6156  0.2372
 3602SOL     OW22438   1.124   3.672  12.813 -0.2037  0.4069  0.5086
 3602SOL    HW122439   1.215   3.655  12.786 -1.2793 -3.9642 -0.4565
 3602SOL    HW222440   1.134   3.766  12.828 -0.5202  0.6782 -1.0209
 3603SOL     OW22441   4.219   0.675   6.311  0.3399  0.2294  0.0459
 3603SOL    HW122442   4.290   0.612   6.297  1.2070  1.1304  0.3760
 3603SOL    HW222443   4.227   0.692   6.405 -1.2459  3.4885 -0.4232
 3604SOL     OW22444   1.627   4.249   8.384 -0.2716  0.1709 -0.4214
 3604SOL    HW122445   1.664   4.161   8.375 -0.0426  0.3016 -0.7353
 3604SOL    HW222446   1.685   4.300   8.329  1.6730  0.6105  2.0206
 3605SOL     OW22447   0.263   2.572   5.094 -0.0306 -0.1613  0.0903
 3605SOL    HW122448   0.303   2.638   5.038 -1.8531  0.8049 -0.0604
 3605SOL    HW222449   0.334   2.508   5.094  0.0138 -0.1003  1.1228
 3606SOL     OW22450   3.037   4.213   8.010 -0.1547 -0.2926 -0.2466
 3606SOL    HW122451   2.978   4.286   7.993  1.2870  0.6406 -1.2496
 3606SOL    HW222452   3.050   4.219   8.105  4.0772 -0.5293 -0.8016
 3607SOL     OW22453   1.076   4.607   3.920  0.3221 -0.4900  0.3721
 3607SOL    HW122454   1.159   4.633   3.959  0.0167  0.3930  0.4225
 3607SOL    HW222455   1.057   4.680   3.861  0.1725  0.0310  1.0697
 3608SOL     OW22456   0.865   3.138   8.168 -0.1499 -0.1177 -0.1081
 3608SOL    HW122457   0.799   3.172   8.229  0.5615  1.3006 -0.1265
 3608SOL    HW222458   0.942   3.187   8.197 -0.3889 -0.6934  1.4548
 3609SOL     OW22459   3.973   3.418   0.344 -0.5736 -0.0168  0.9099
 3609SOL    HW122460   3.881   3.393   0.340 -0.2744 -1.0551  0.4509
 3609SOL    HW222461   4.006   3.343   0.294 -1.2516  0.3251 -0.0523
 3610SOL     OW22462   2.232   1.314   7.127 -0.5154 -0.8430 -0.0195
 3610SOL    HW122463   2.283   1.234   7.140 -2.6248 -2.0966  0.5485
 3610SOL    HW222464   2.162   1.270   7.079 -0.2426 -0.0881 -1.1009
 3611SOL     OW22465   4.553   3.994   7.587  0.1384 -0.7955 -0.1643
 3611SOL    HW122466   4.584   3.985   7.678  3.0531  0.5531 -1.0175
 3611SOL    HW222467   4.622   3.947   7.540  0.2289 -1.2200  0.3880
 3612SOL     OW22468   0.130   4.080   6.091  0.5041 -0.1306 -0.7797
 3612SOL    HW122469   0.207   4.061   6.144  0.4820  1.7593 -0.0459
 3612SOL    HW222470   0.095   4.154   6.142 -1.2267 -1.1270 -0.5308
 3613SOL     OW22471   3.891   3.043  16.952 -0.2284  0.0389  0.5345
 3613SOL    HW122472   3.817   3.104  16.956 -0.9217 -0.7566 -0.0874
 3613SOL    HW222473   3.969   3.098  16.945  0.5458 -1.1618 -0.2720
 3614SOL     OW22474   2.777   1.707  15.854 -0.1022  0.1367 -0.1885
 3614SOL    HW122475   2.762   1.799  15.874 -0.5210 -0.2058  1.0222
 3614SOL    HW222476   2.806   1.716  15.763 -0.1939  2.2920 -0.0145
 3615SOL     OW22477   3.892   1.481  12.065 -0.0380  0.0279  0.0516
 3615SOL    HW122478   3.839   1.533  12.125  0.2949 -2.4271  2.5105
 3615SOL    HW222479   3.867   1.390  12.085 -4.0980  1.1068 -0.1511
 3616SOL     OW22480   3.161   0.464  17.183 -0.2844  0.2087  0.0963
 3616SOL    HW122481   3.215   0.441  17.108  1.1285 -1.3229  1.5791
 3616SOL    HW222482   3.082   0.496  17.139 -0.3142 -0.4990 -0.3756
 3617SOL     OW22483   1.183   0.292   4.994  0.3665 -0.1433 -0.0991
 3617SOL    HW122484   1.152   0.363   4.937  0.7774  0.3203  0.2518
 3617SOL    HW222485   1.161   0.323   5.082 -1.8739 -0.9864 -0.3719
 3618SOL     OW22486   1.408   2.462  12.286  0.1391 -0.1636  0.2661
 3618SOL    HW122487   1.477   2.395  12.277 -0.1504 -0.3049 -0.9620
 3618SOL    HW222488   1.339   2.418  12.235  1.4538 -2.6913  0.6837
 3619SOL     OW22489   3.792   4.124   1.514  0.4237  0.6322  0.2323
 3619SOL    HW122490   3.774   4.210   1.553 -2.4780  0.8963 -1.6787
 3619SOL    HW222491   3.740   4.069   1.573 -0.1442 -0.0130 -0.8607
 3620SOL     OW22492   3.060   1.279   8.029  0.6902  0.3638  0.7285
 3620SOL    HW122493   2.976   1.280   7.982  1.8726 -0.9160 -1.4304
 3620SOL    HW222494   3.113   1.247   7.956  2.9643  0.0180  2.5545
 3621SOL     OW22495   2.622   2.076   2.003 -0.4740 -0.1308 -0.2200
 3621SOL    HW122496   2.588   2.000   1.956 -1.2347  0.6556 -0.9290
 3621SOL    HW222497   2.716   2.082   1.984  0.1488 -1.4685  2.3760
 3622SOL     OW22498   3.935   2.382   0.120 -0.2921  0.0766 -0.2365
 3622SOL    HW122499   4.001   2.336   0.171 -0.0484 -1.1923 -1.7208
 3622SOL    HW222500   3.980   2.413   0.042  3.5550 -0.1273  1.9191
 3623SOL     OW22501   0.895   4.428  15.113  0.6833  0.2897 -0.5492
 3623SOL    HW122502   0.954   4.480  15.060 -0.9351  1.9238 -0.7577
 3623SOL    HW222503   0.954   4.381  15.171  0.7495  1.0027 -0.0443
 3624SOL     OW22504   4.516   2.962  16.393 -0.1328  0.0339  0.5313
 3624SOL    HW122505   4.497   2.916  16.474  0.7086 -0.5624  0.3905
 3624SOL    HW222506   4.498   2.896  16.326 -0.8922  1.3295 -0.5369
 3625SOL     OW22507   3.423   1.399   9.145 -0.0122  0.2727 -0.0528
 3625SOL    HW122508   3.426   1.494   9.159 -0.2305  0.3429 -0.5050
 3625SOL    HW222509   3.515   1.379   9.129 -0.1599 -1.0668  0.7756
 3626SOL     OW22510   4.058   0.839   8.397  0.3530  0.2127  0.0501
 3626SOL    HW122511   4.025   0.926   8.418 -0.5268  0.0179 -0.4942
 3626SOL    HW222512   4.122   0.860   8.330  0.2031 -1.8477 -0.7588
 3627SOL     OW22513   2.309   4.297   0.812 -0.3506  0.1243  0.3746
 3627SOL    HW122514   2.305   4.201   0.814 -0.5444  0.1053 -0.8106
 3627SOL    HW222515   2.226   4.308   0.766 -0.5925  0.7014  0.9457
 3628SOL     OW22516   0.346   2.843  16.589 -0.2032  0.1691 -0.2673
 3628SOL    HW122517   0.412   2.899  16.550 -0.6395  1.0541  0.2744
 3628SOL    HW222518   0.264   2.886  16.565 -0.6533 -0.1753  0.6492
 3629SOL     OW22519   4.732   2.981  11.191 -0.2410  0.5594 -0.4254
 3629SOL    HW122520   4.689   2.946  11.113 -0.1316 -1.1142  0.2705
 3629SOL    HW222521   0.086   2.986  11.170 -0.2982  1.5142 -0.4749
 3630SOL     OW22522   0.313   3.582   4.389 -0.1797 -0.2354  0.3570
 3630SOL    HW122523   0.285   3.597   4.299  1.7764  2.4213  0.1660
 3630SOL    HW222524   0.336   3.490   4.380  1.5639  0.5093 -2.4972
 3631SOL     OW22525   0.368   2.038  15.447 -0.4161 -0.2692 -0.0008
 3631SOL    HW122526   0.447   2.072  15.403 -0.3307  2.9569  2.6685
 3631SOL    HW222527   0.333   1.991  15.371 -0.1020  0.2642 -0.4750
 3632SOL     OW22528   0.091   4.399  10.761  0.1406 -0.5276 -0.3789
 3632SOL    HW122529   0.028   4.330  10.784  0.1602 -0.5416 -0.3674
 3632SOL    HW222530   0.039   4.452  10.701  1.6446  1.4412  0.0690
 3633SOL     OW22531   3.786   3.096  15.409 -0.5153  0.3418 -0.2836
 3633SOL    HW122532   3.721   3.165  15.404  0.1905  1.0100 -0.2654
 3633SOL    HW222533   3.805   3.078  15.316 -1.4285  0.6559 -0.5284
 3634SOL     OW22534   0.198   4.404  14.165 -0.3577 -0.2745 -0.1001
 3634SOL    HW122535   0.279   4.427  14.120 -0.2929  0.8724  0.5853
 3634SOL    HW222536   0.195   4.309  14.163 -2.1739 -0.2533  0.6440
 3635SOL     OW22537   4.667   0.059  13.983  0.0352  0.3173  0.4976
 3635SOL    HW122538   4.727   0.123  14.020  0.5560  0.3680 -0.4301
 3635SOL    HW222539   4.675   4.729  14.049 -1.9698 -0.8003 -0.4360
 3636SOL     OW22540   0.775   0.086   2.489  0.2363 -0.4850 -0.3139
 3636SOL    HW122541   0.690   0.043   2.498  0.8586 -1.3494  1.3999
 3636SOL    HW222542   0.777   0.122   2.401 -0.9023 -0.7011 -0.4370
 3637SOL     OW22543   0.122   3.523   4.559  0.6457 -0.3116  0.0325
 3637SOL    HW122544   0.176   3.542   4.482 -0.7644  0.0382 -0.8808
 3637SOL    HW222545   0.049   3.584   4.563  0.5933 -0.2503 -1.7733
 3638SOL     OW22546   0.917   1.411   4.084 -0.0356  0.2735  0.4603
 3638SOL    HW122547   0.955   1.495   4.060 -1.2955  0.5260 -0.6053
 3638SOL    HW222548   0.833   1.446   4.111 -1.2651 -1.2683 -1.3541
 3639SOL     OW22549   0.211   0.955   9.695 -0.6849 -0.2153  0.0202
 3639SOL    HW122550   0.235   0.877   9.745 -2.9421 -0.1492  1.2204
 3639SOL    HW222551   0.158   1.013   9.749 -0.5397  0.7100 -0.8305
 3640SOL     OW22552   4.324   0.440  11.248 -0.3604  0.0054  0.2340
 3640SOL    HW122553   4.318   0.484  11.163  0.0005 -0.8507 -0.2459
 3640SOL    HW222554   4.242   0.391  11.252  1.2389 -2.6715  0.6561
 3641SOL     OW22555   3.262   2.401   5.247  0.4030  0.2262  0.0293
 3641SOL    HW122556   3.194   2.376   5.184 -0.4173  0.3176  0.8839
 3641SOL    HW222557   3.224   2.474   5.295  0.5354 -0.7967  1.6656
 3642SOL     OW22558   0.659   4.431   7.378  0.1151  0.1895 -0.1011
 3642SOL    HW122559   0.616   4.394   7.455 -0.1317  2.8060  1.0059
 3642SOL    HW222560   0.627   4.521   7.382 -1.2501 -0.2811 -0.2365
 3643SOL     OW22561   3.990   1.800   9.622  0.0429  0.0661  0.4164
 3643SOL    HW122562   4.066   1.800   9.681 -0.6105  1.2218  1.2519
 3643SOL    HW222563   4.006   1.739   9.550 -1.4857 -0.9566  0.9447
 3644SOL     OW22564   4.570   0.432   2.425  0.0758  0.3029 -0.0991
 3644SOL    HW122565   4.552   0.406   2.335  0.4289 -1.4982  0.3365
 3644SOL    HW222566   4.587   0.523   2.402  0.3589  0.2790  0.0154
 3645SOL     OW22567   2.180   1.072   3.595  1.0333  0.2126  0.1060
 3645SOL    HW122568   2.170   1.102   3.504  1.2203  0.7703  0.2705
 3645SOL    HW222569   2.101   1.023   3.618  0.5766  0.9460  0.0793
 3646SOL     OW22570   4.567   2.904   5.568 -0.3263  0.4564 -0.0861
 3646SOL    HW122571   4.570   2.809   5.570 -0.7820  0.4661  1.4343
 3646SOL    HW222572   4.537   2.917   5.658  0.9820  2.4484  0.0646
 3647SOL     OW22573   4.106   2.708   1.514  0.3941  0.1286 -0.4710
 3647SOL    HW122574   4.067   2.767   1.450  0.8868 -0.7714 -1.6072
 3647SOL    HW222575   4.195   2.702   1.478  0.3491  0.1288 -0.5850
 3648SOL     OW22576   1.130   3.494   2.037 -0.5773 -0.0043 -0.2057
 3648SOL    HW122577   1.225   3.502   2.027 -0.7497 -0.8624 -2.4640
 3648SOL    HW222578   1.118   3.405   2.070 -1.6108 -0.0073 -0.5782
 3649SOL     OW22579   0.440   1.788   3.158 -1.0981  0.1742  0.4856
 3649SOL    HW122580   0.529   1.763   3.184 -0.3203 -0.1217 -2.5473
 3649SOL    HW222581   0.421   1.751   3.072 -0.7950 -0.8980  0.8805
 3650SOL     OW22582   3.530   3.154   5.349  0.4208  0.0207  0.3465
 3650SOL    HW122583   3.448   3.169   5.302  0.6702  1.4235  0.3695
 3650SOL    HW222584   3.589   3.145   5.274  0.2026 -1.8916  0.4076
 3651SOL     OW22585   0.797   3.248   6.616 -0.0873  0.3010 -0.2722
 3651SOL    HW122586   0.779   3.222   6.707  0.2474  0.1440 -0.2499
 3651SOL    HW222587   0.889   3.268   6.631  0.2996 -0.0129 -2.2233
 3652SOL     OW22588   2.294   3.016   8.924 -0.3516  0.2235  0.3912
 3652SOL    HW122589   2.288   3.109   8.900  0.9538  0.2580  0.1796
 3652SOL    HW222590   2.246   3.012   9.006  1.2564  0.2157  1.3240
 3653SOL     OW22591   0.824   2.364  16.529  0.0449  0.6903 -0.0647
 3653SOL    HW122592   0.747   2.378  16.585 -1.6856 -3.9172 -1.2830
 3653SOL    HW222593   0.893   2.352  16.594  1.8678  1.5813 -1.8300
 3654SOL     OW22594   1.891   0.647   4.668  0.1334  0.3772  0.3492
 3654SOL    HW122595   1.917   0.704   4.741  0.1160 -0.0621  0.6959
 3654SOL    HW222596   1.963   0.586   4.683  0.2783  0.3145 -0.6103
 3655SOL     OW22597   2.098   3.576   0.434 -0.0632  0.4650 -0.2988
 3655SOL    HW122598   2.068   3.496   0.390 -0.4711  0.4387  0.0236
 3655SOL    HW222599   2.090   3.558   0.528  1.4027  1.9385  0.1083
 3656SOL     OW22600   0.719   1.252   3.043 -0.3234 -0.2014 -0.2005
 3656SOL    HW122601   0.730   1.157   3.053 -2.4081 -0.2807  1.3037
 3656SOL    HW222602   0.763   1.274   3.124  1.8088 -0.9649 -1.1507
 3657SOL     OW22603   4.243   4.061   7.293 -0.2142 -0.0320 -0.2251
 3657SOL    HW122604   4.215   3.970   7.284 -0.7608  0.4035 -2.7514
 3657SOL    HW222605   4.273   4.063   7.384 -1.2341  2.0802  0.0431
 3658SOL     OW22606   2.383   4.607   8.704 -0.1391  0.0961 -0.0694
 3658SOL    HW122607   2.295   4.611   8.666 -1.6480 -1.7167  3.2872
 3658SOL    HW222608   2.426   4.658   8.635 -1.6325  3.1224  1.2475
 3659SOL     OW22609   4.619   1.652   3.933  0.2253 -0.3811 -0.3438
 3659SOL    HW122610   4.602   1.689   4.020  2.1460  0.7347 -0.4324
 3659SOL    HW222611   4.533   1.656   3.893  1.3242  0.3923 -2.6419
 3660SOL     OW22612   4.258   4.206   2.062 -0.0334  0.2597 -0.1482
 3660SOL    HW122613   4.250   4.294   2.099  1.5332 -0.4329  1.8090
 3660SOL    HW222614   4.210   4.156   2.127  2.0544 -1.4927  0.0460
 3661SOL     OW22615   2.786   2.442   9.129  0.0849 -0.3045 -0.4914
 3661SOL    HW122616   2.864   2.418   9.180  0.5165  1.2416 -0.4281
 3661SOL    HW222617   2.783   2.537   9.138 -0.8531 -0.4399  0.6050
 3662SOL     OW22618   2.431   2.297   6.100  0.0431 -0.0183  0.6221
 3662SOL    HW122619   2.398   2.386   6.107  1.5969  0.5905  0.0653
 3662SOL    HW222620   2.451   2.281   6.192 -1.2119 -1.3782  0.6784
 3663SOL     OW22621   1.720   3.392   5.132  0.3513  0.0892 -0.0360
 3663SOL    HW122622   1.799   3.423   5.175 -1.1975  1.1013  2.0785
 3663SOL    HW222623   1.726   3.297   5.128  3.8101  0.2229  2.3463
 3664SOL     OW22624   3.232   3.633  17.183  0.2980  0.1543 -0.2785
 3664SOL    HW122625   3.324   3.659  17.186  0.0553  0.7342  3.2053
 3664SOL    HW222626   3.236   3.580  17.104  1.4588  0.5603 -0.4994
 3665SOL     OW22627   3.482   0.297   6.921 -0.4721  0.0849  0.4397
 3665SOL    HW122628   3.450   0.211   6.948  2.0255 -0.5537  1.3652
 3665SOL    HW222629   3.411   0.360   6.929  1.1394  1.9684  0.1660
 3666SOL     OW22630   1.802   1.059   8.355  0.1249  0.6453  0.5656
 3666SOL    HW122631   1.890   1.096   8.349  1.2442 -1.7931  2.3744
 3666SOL    HW222632   1.757   1.142   8.373 -2.2482 -0.2930 -1.1005
 3667SOL     OW22633   3.973   2.523   1.833 -0.1624  0.3226 -0.3559
 3667SOL    HW122634   4.031   2.465   1.784  2.5485  1.6159  1.3252
 3667SOL    HW222635   4.011   2.610   1.820 -1.5108  0.8715 -0.7349
 3668SOL     OW22636   3.411   1.397   3.203 -0.0061  0.0694  0.3070
 3668SOL    HW122637   3.317   1.387   3.221  0.1199 -2.0172 -0.2140
 3668SOL    HW222638   3.410   1.337   3.128  2.5669  1.5311 -0.9011
 3669SOL     OW22639   1.766   3.515  13.805 -0.1000  0.6425  0.0386
 3669SOL    HW122640   1.820   3.472  13.871 -0.5827 -0.5511 -0.3294
 3669SOL    HW222641   1.689   3.529  13.860 -0.5927 -0.4306 -0.3696
 3670SOL     OW22642   2.864   0.375  17.107  0.2655 -0.7139  0.0296
 3670SOL    HW122643   2.904   0.292  17.133  0.5387 -0.8222 -0.7372
 3670SOL    HW222644   2.832   0.356  17.019  2.3926  1.6281 -1.2781
 3671SOL     OW22645   4.103   4.674  10.711  0.0479 -0.3034  0.0866
 3671SOL    HW122646   4.085   4.584  10.685 -0.4491 -0.4411  0.8987
 3671SOL    HW222647   4.196   4.661  10.730  0.0102 -0.0759  0.4319
 3672SOL     OW22648   1.327   2.337   6.045  0.2719  0.3384 -0.0464
 3672SOL    HW122649   1.380   2.306   6.119 -1.1487 -1.8819  0.0457
 3672SOL    HW222650   1.375   2.296   5.974  0.2975 -0.3185  0.3522
 3673SOL     OW22651   1.825   4.261   2.206  0.0895  0.2098 -0.0210
 3673SOL    HW122652   1.750   4.254   2.147  0.3392  1.2438 -0.4512
 3673SOL    HW222653   1.887   4.195   2.175 -2.0628 -2.3220  0.9984
 3674SOL     OW22654   4.541   4.529   2.118 -0.2938 -0.0749 -0.2098
 3674SOL    HW122655   4.462   4.556   2.166 -0.3934  0.3517 -0.6161
 3674SOL    HW222656   4.598   4.470   2.167  0.6252  0.4696 -0.6297
 3675SOL     OW22657   3.345   2.435   7.785 -0.3035 -0.4145  0.0869
 3675SOL    HW122658   3.438   2.412   7.795  0.6983  2.1894 -2.9197
 3675SOL    HW222659   3.303   2.350   7.779  0.4985 -0.8417  0.4940
 3676SOL     OW22660   4.546   0.140  12.200 -0.1887 -0.1534  0.0454
 3676SOL    HW122661   4.546   0.216  12.142 -3.0158  1.2228  1.8372
 3676SOL    HW222662   4.626   0.160  12.248  0.4163  0.7461 -1.3349
 3677SOL     OW22663   1.369   0.338   7.297  0.3990  0.2982  0.0935
 3677SOL    HW122664   1.281   0.369   7.274  1.1157  0.5078 -2.2968
 3677SOL    HW222665   1.338   0.254   7.331 -0.6331  0.2931 -0.8704
 3678SOL     OW22666   2.847   1.993  11.049 -0.4794  0.5898 -0.6415
 3678SOL    HW122667   2.806   2.011  11.134  0.0110  0.0057 -0.2841
 3678SOL    HW222668   2.779   1.936  11.012  3.2291 -2.1497 -3.2228
 3679SOL     OW22669   4.564   4.575   2.564 -0.1131  0.0450  0.0449
 3679SOL    HW122670   4.530   4.487   2.580  0.2226  0.0584  0.8026
 3679SOL    HW222671   4.487   4.630   2.575 -1.0509 -1.7715  2.5957
 3680SOL     OW22672   0.269   2.778  11.356 -0.0149  0.1131 -0.1711
 3680SOL    HW122673   0.223   2.792  11.274 -0.0300 -0.0869 -0.1957
 3680SOL    HW222674   0.357   2.783  11.319  0.5568 -1.0379  1.0363
 3681SOL     OW22675   2.839   0.506   2.046 -0.3996 -0.6999 -0.3838
 3681SOL    HW122676   2.883   0.540   1.968 -0.3562 -0.6261 -0.3268
 3681SOL    HW222677   2.764   0.566   2.053  0.4321  0.3720 -0.6926
 3682SOL     OW22678   1.839   0.095   6.958 -0.2675 -1.0716 -0.5634
 3682SOL    HW122679   1.822   0.086   7.052  0.0336  0.1970 -0.3796
 3682SOL    HW222680   1.828   0.005   6.929 -0.3672 -0.4025 -2.6184
 3683SOL     OW22681   1.387   1.298   8.141  0.4417 -0.1315  0.0479
 3683SOL    HW122682   1.351   1.232   8.201  1.6956 -0.2829  0.6158
 3683SOL    HW222683   1.478   1.304   8.170  0.1328  1.7414  0.6216
 3684SOL     OW22684   0.039   4.557   4.617 -0.3844  0.3732 -0.0451
 3684SOL    HW122685   0.011   4.476   4.573 -0.0258 -0.3130  0.9809
 3684SOL    HW222686   4.693   4.595   4.634  0.5181  2.8957 -1.1314
 3685SOL     OW22687   0.075   0.828  11.975  0.2636  0.4396 -0.2285
 3685SOL    HW122688   4.722   0.802  11.971  0.5049 -0.3280 -0.9061
 3685SOL    HW222689   0.095   0.802  12.065 -0.3125 -0.9398 -0.4947
 3686SOL     OW22690   3.814   2.227   3.630  0.6024  0.0761 -0.4318
 3686SOL    HW122691   3.729   2.268   3.616  0.9005  1.2284  1.2463
 3686SOL    HW222692   3.850   2.263   3.711  1.9066  2.0261 -1.9016
 3687SOL     OW22693   0.773   0.597   8.215  0.1646 -0.2851 -0.0971
 3687SOL    HW122694   0.830   0.529   8.179  1.6370  0.7234  0.3110
 3687SOL    HW222695   0.823   0.678   8.207 -1.3945  0.5089 -1.7500
 3688SOL     OW22696   2.110   1.284  13.928 -0.0935  0.3000 -1.2770
 3688SOL    HW122697   2.030   1.279  13.876  0.1710 -1.2694 -1.5329
 3688SOL    HW222698   2.083   1.255  14.015 -0.6733 -0.4723 -1.7128
 3689SOL     OW22699   1.059   2.261   6.046  0.4263  0.3497 -0.5650
 3689SOL    HW122700   1.139   2.311   6.064  0.5819  0.3855 -1.3365
 3689SOL    HW222701   1.014   2.312   5.978 -0.8475 -1.8291 -1.3427
 3690SOL     OW22702   0.730   3.736   8.394 -0.4700 -0.0616 -0.1387
 3690SOL    HW122703   0.781   3.789   8.333 -0.4501  1.0866  0.8667
 3690SOL    HW222704   0.651   3.734   8.341 -0.6133  0.0250  0.0715
 3691SOL     OW22705   0.320   1.853   7.589  0.0149  0.3523  0.1370
 3691SOL    HW122706   0.324   1.785   7.657 -0.8652 -0.2443 -0.4099
 3691SOL    HW222707   0.395   1.821   7.538 -1.1299 -2.1825  0.0658
 3692SOL     OW22708   4.608   2.335   2.858 -0.0373 -0.7656 -0.3272
 3692SOL    HW122709   4.570   2.248   2.868 -0.4441 -0.6433 -0.7838
 3692SOL    HW222710   4.576   2.375   2.939 -0.7175 -2.0020  0.0168
 3693SOL     OW22711   3.626   2.723   1.114 -0.0347  0.4711  0.0294
 3693SOL    HW122712   3.574   2.654   1.074  0.9431  0.3036 -0.9412
 3693SOL    HW222713   3.646   2.690   1.202 -2.0158 -0.2474  0.2118
 3694SOL     OW22714   0.239   3.221   5.790 -0.3528 -0.2278  0.2304
 3694SOL    HW122715   0.327   3.237   5.824  0.5527 -2.4673 -1.1025
 3694SOL    HW222716   0.253   3.255   5.702  0.1216  0.1601  0.4586
 3695SOL     OW22717   2.238   0.815   2.954 -0.1790 -0.2904  0.0251
 3695SOL    HW122718   2.168   0.761   2.990  0.9341 -0.9763  1.1658
 3695SOL    HW222719   2.210   0.809   2.863 -0.0234  3.4338 -0.2965
 3696SOL     OW22720   2.922   4.428   7.712  0.1220  0.3410 -0.0346
 3696SOL    HW122721   3.002   4.458   7.669 -1.4431 -0.5700 -3.6456
 3696SOL    HW222722   2.941   4.457   7.801 -0.6412  0.3691  0.1143
 3697SOL     OW22723   4.721   4.073   9.311  0.0371  0.2158 -0.2135
 3697SOL    HW122724   0.064   4.029   9.330  0.1481  0.3654 -0.3526
 3697SOL    HW222725   4.704   4.046   9.221 -2.3525  0.1697  0.2381
 3698SOL     OW22726   1.700   1.488   3.415  1.0166  0.1735  0.2428
 3698SOL    HW122727   1.757   1.477   3.491  1.1841 -1.5192 -0.1204
 3698SOL    HW222728   1.742   1.434   3.348 -1.6619 -1.2604 -0.2745
 3699SOL     OW22729   0.738   0.531   2.242 -0.1578 -0.5999  0.2291
 3699SOL    HW122730   0.809   0.467   2.255  1.6190  1.9689  3.1444
 3699SOL    HW222731   0.660   0.485   2.271 -0.0885  0.3997  1.9781
 3700SOL     OW22732   1.477   2.920  16.874 -0.3281  0.0897 -0.0572
 3700SOL    HW122733   1.421   2.993  16.847 -1.1765  0.0174  1.4959
 3700SOL    HW222734   1.522   2.891  16.795  1.1968 -1.1188  1.2667
 3701SOL     OW22735   1.347   2.860   9.658 -0.1061 -0.0620  0.1824
 3701SOL    HW122736   1.276   2.914   9.694  0.2240 -1.0807  2.3837
 3701SOL    HW222737   1.320   2.770   9.642  0.1886 -0.1546  0.1936
 3702SOL     OW22738   4.561   0.643  11.188  0.4845 -0.0443 -0.1618
 3702SOL    HW122739   4.494   0.631  11.121  0.1510  0.9196  0.0031
 3702SOL    HW222740   4.516   0.683  11.263 -1.5061 -0.0274 -1.3902
 3703SOL     OW22741   2.709   0.603  17.146  0.0437 -0.6897 -0.1958
 3703SOL    HW122742   2.789   0.556  17.169  0.7613 -0.7034 -2.7439
 3703SOL    HW222743   2.705   0.566  17.058 -0.4665 -0.2047 -0.3751
 3704SOL     OW22744   4.062   2.695   2.647  0.8122  0.0492 -0.5514
 3704SOL    HW122745   4.083   2.780   2.608 -1.1371  0.2119 -1.2311
 3704SOL    HW222746   4.099   2.637   2.580 -0.6672 -3.0611  1.3342
 3705SOL     OW22747   1.246   0.296   8.553 -0.4536  0.3793 -0.1063
 3705SOL    HW122748   1.224   0.207   8.578 -2.0550  0.4053 -1.4184
 3705SOL    HW222749   1.231   0.294   8.458  1.7285  0.5771 -0.4716
 3706SOL     OW22750   2.388   3.612  14.396  0.0984  0.2840 -0.3619
 3706SOL    HW122751   2.455   3.659  14.346 -0.5604  0.8930 -0.6730
 3706SOL    HW222752   2.399   3.523  14.363  0.6142  0.4905 -0.7569
 3707SOL     OW22753   1.609   1.937   8.557  0.3284 -0.6428 -0.4241
 3707SOL    HW122754   1.521   1.928   8.594  0.7663  1.7638  1.2314
 3707SOL    HW222755   1.590   1.947   8.464 -0.9529 -0.5504 -0.1523
 3708SOL     OW22756   4.498   1.641   7.455 -0.2651 -0.1958 -0.3107
 3708SOL    HW122757   4.445   1.568   7.487  0.5774 -0.2213  1.0330
 3708SOL    HW222758   4.427   1.696   7.425 -1.3820 -2.4672 -1.8499
 3709SOL     OW22759   0.985   2.337   6.912  0.2275 -0.3553  0.1972
 3709SOL    HW122760   1.049   2.353   6.981  0.4546 -0.1006 -0.0705
 3709SOL    HW222761   1.008   2.410   6.855  1.9503 -2.3738 -1.7253
 3710SOL     OW22762   2.227   4.717   6.624  0.5513 -0.1429 -0.1959
 3710SOL    HW122763   2.265   0.066   6.623  1.1235 -0.3874  0.3620
 3710SOL    HW222764   2.152   0.002   6.569  0.6660  2.0939  0.6425
 3711SOL     OW22765   4.054   2.211   8.396 -0.7685 -0.0830  0.7365
 3711SOL    HW122766   4.023   2.157   8.323 -0.0208  0.3086  0.1309
 3711SOL    HW222767   3.992   2.282   8.384  0.1167  0.4898 -0.4205
 3712SOL     OW22768   1.578   0.229   7.119  0.1787 -0.3288 -0.2564
 3712SOL    HW122769   1.580   0.138   7.150 -1.0283 -0.6195 -1.0298
 3712SOL    HW222770   1.524   0.266   7.188  1.8076  2.7645 -0.6378
 3713SOL     OW22771   0.872   1.440   5.447  0.7302  0.2519  0.3715
 3713SOL    HW122772   0.802   1.436   5.512 -1.2380 -1.3120 -1.8558
 3713SOL    HW222773   0.864   1.348   5.420  0.3388 -0.0212  1.4230
 3714SOL     OW22774   4.187   3.568   4.023 -0.2988  0.1041  0.0922
 3714SOL    HW122775   4.134   3.615   3.958  1.1989  2.0790  0.2862
 3714SOL    HW222776   4.251   3.545   3.957  1.7682  2.9310  1.0929
 3715SOL     OW22777   1.696   0.983   6.784  0.6546  0.0221  0.3653
 3715SOL    HW122778   1.647   0.905   6.757  0.3275  1.2191 -2.4640
 3715SOL    HW222779   1.736   0.996   6.698  4.0465  1.8078  2.2096
 3716SOL     OW22780   0.654   2.369   2.230  0.6792  0.1881  0.3597
 3716SOL    HW122781   0.701   2.301   2.183  0.9643 -0.8945  2.1909
 3716SOL    HW222782   0.640   2.428   2.156  1.6401 -2.4053 -1.8626
 3717SOL     OW22783   3.083   3.995  14.733  0.5357  0.7255  0.1350
 3717SOL    HW122784   3.153   4.019  14.672  1.8050  0.7060  1.5900
 3717SOL    HW222785   3.071   3.900  14.729  2.1276  0.5203  0.2560
 3718SOL     OW22786   0.545   0.260   4.881 -0.6977 -0.0293 -0.3882
 3718SOL    HW122787   0.506   0.267   4.795  0.9566  1.5369 -1.0095
 3718SOL    HW222788   0.592   0.178   4.868 -0.4405 -0.2093  1.6435
 3719SOL     OW22789   1.579   4.067   2.813  0.1815  0.0026  0.0635
 3719SOL    HW122790   1.541   4.123   2.745  2.7130  2.0891  0.3581
 3719SOL    HW222791   1.558   3.979   2.781  0.7816  0.1194 -0.6703
 3720SOL     OW22792   0.843   4.522  12.544  0.1505 -0.5572  0.0830
 3720SOL    HW122793   0.931   4.530  12.580 -0.3666  1.5168  0.8673
 3720SOL    HW222794   0.825   4.431  12.568  1.7984 -0.8144  0.3327
 3721SOL     OW22795   4.676   1.857   3.708  0.1559  0.2804  0.0581
 3721SOL    HW122796   4.659   1.806   3.787  0.1139  0.7988  0.3853
 3721SOL    HW222797   4.596   1.827   3.664  0.5090 -0.6692  0.0557
 3722SOL     OW22798   1.379   2.097   9.514  0.1370 -0.9060  0.1268
 3722SOL    HW122799   1.415   2.166   9.459 -0.1751 -1.4971 -0.8290
 3722SOL    HW222800   1.417   2.109   9.601  0.2611  1.2987 -0.2455
 3723SOL     OW22801   3.061   1.184   4.450 -1.0625 -1.0182  0.1360
 3723SOL    HW122802   3.152   1.186   4.481 -1.2399  2.5436  0.3897
 3723SOL    HW222803   3.052   1.100   4.405 -1.3274 -1.3574  0.8135
 3724SOL     OW22804   2.888   4.147   9.165  0.1637  0.4838 -0.7352
 3724SOL    HW122805   2.806   4.168   9.209  1.1437 -2.4585  2.4534
 3724SOL    HW222806   2.898   4.060   9.204  2.1170  0.5726 -1.0362
 3725SOL     OW22807   4.636   0.219  10.319 -0.2598 -0.0100  0.4468
 3725SOL    HW122808   4.670   0.131  10.300 -0.3562 -0.6561  3.2182
 3725SOL    HW222809   4.717   0.248  10.361 -0.5535 -0.6753  1.4963
 3726SOL     OW22810   0.047   3.488   6.932  0.0681 -0.3047  0.3538
 3726SOL    HW122811   4.724   3.553   6.964  0.6302 -0.7705  2.3770
 3726SOL    HW222812   0.091   3.527   6.856 -1.2237  1.6443  0.6206
 3727SOL     OW22813   3.104   4.507   2.511  0.4461 -0.0842  0.4547
 3727SOL    HW122814   3.106   4.450   2.588  2.0825  0.9010  1.1227
 3727SOL    HW222815   3.119   4.590   2.556  0.0493  1.1280 -1.6361
 3728SOL     OW22816   2.303   3.971   2.844 -0.8959  0.1922  0.4584
 3728SOL    HW122817   2.280   4.027   2.918  3.3262 -0.5918  2.3902
 3728SOL    HW222818   2.362   3.909   2.888  1.9688  0.6031 -2.7561
 3729SOL     OW22819   0.032   3.655   6.555  0.3412 -0.1747 -0.2738
 3729SOL    HW122820   4.715   3.727   6.583  0.5178 -0.2083  0.1655
 3729SOL    HW222821   0.042   3.681   6.463 -1.0406 -0.3650 -0.4859
 3730SOL     OW22822   3.866   4.228   3.978 -0.3554  0.6276 -0.3826
 3730SOL    HW122823   3.866   4.300   4.042 -0.8985  0.4007 -0.1170
 3730SOL    HW222824   3.883   4.280   3.900  0.1114 -0.1893 -0.8210
 3731SOL     OW22825   0.112   1.646  17.405  0.1232 -0.0921 -0.2930
 3731SOL    HW122826   0.055   1.589  17.457 -0.8546 -0.5784 -1.8928
 3731SOL    HW222827   0.156   1.703  17.469 -0.1159  1.7678 -1.7912
 3732SOL     OW22828   4.610   2.710   2.742  0.0149  0.8179 -0.2203
 3732SOL    HW122829   4.583   2.626   2.704  1.0068  0.0426  0.7944
 3732SOL    HW222830   4.654   2.754   2.669  0.8560  0.4928  0.0952
 3733SOL     OW22831   1.144   4.424   7.496  0.4718  0.0926  0.2012
 3733SOL    HW122832   1.146   4.497   7.559 -2.7050 -1.0911  1.6959
 3733SOL    HW222833   1.080   4.375   7.547  0.5590  1.5977  1.7704
 3734SOL     OW22834   2.685   4.593   7.001  0.0503 -0.4061 -0.6398
 3734SOL    HW122835   2.653   4.627   7.085  1.3183 -2.3665  0.6217
 3734SOL    HW222836   2.615   4.608   6.937  0.0050  1.3761 -0.1629
 3735SOL     OW22837   1.910   3.424   9.270  0.0272 -0.3830  0.1570
 3735SOL    HW122838   1.858   3.411   9.349  0.0950  0.0644  0.2806
 3735SOL    HW222839   1.960   3.343   9.260 -0.0510 -0.0995 -2.5701
 3736SOL     OW22840   2.078   0.067   4.757  0.3042  0.6473  0.5422
 3736SOL    HW122841   2.014   0.058   4.687  0.6667 -2.3491  0.5913
 3736SOL    HW222842   2.045   0.132   4.819 -1.7752 -1.1908  1.3410
 3737SOL     OW22843   3.602   4.565   6.756  0.1087  0.0292  0.3107
 3737SOL    HW122844   3.562   4.585   6.841  0.0116 -0.4232  0.3700
 3737SOL    HW222845   3.525   4.595   6.707  1.9539  0.8243 -2.0772
 3738SOL     OW22846   2.156   3.639   4.979 -0.4135  0.3966  0.2760
 3738SOL    HW122847   2.090   3.703   4.954 -0.5371  0.2377  0.1964
 3738SOL    HW222848   2.157   3.635   5.075 -1.5521 -0.4603  0.2538
 3739SOL     OW22849   3.851   1.770   6.322  0.1942 -0.3580  0.3419
 3739SOL    HW122850   3.783   1.737   6.264  1.4210 -0.3233 -1.1008
 3739SOL    HW222851   3.862   1.861   6.293 -1.0157  0.0482  1.1358
 3740SOL     OW22852   4.271   3.263   3.206  0.8222  0.1171  0.2709
 3740SOL    HW122853   4.365   3.277   3.216  0.8073  0.8484 -0.5757
 3740SOL    HW222854   4.243   3.261   3.297  2.5947  1.5268  0.8461
 3741SOL     OW22855   4.110   0.692   2.161  0.2639  0.0599 -0.2189
 3741SOL    HW122856   4.183   0.644   2.124 -0.2000 -0.5129 -0.3933
 3741SOL    HW222857   4.171   0.746   2.210  0.8596  0.1257 -1.0285
 3742SOL     OW22858   3.207   3.434   2.799  0.1771  0.6855  0.2125
 3742SOL    HW122859   3.237   3.382   2.725  5.3958 -0.3165  2.9611
 3742SOL    HW222860   3.285   3.431   2.855  0.7166  0.5605 -0.5555
 3743SOL     OW22861   3.488   2.581  12.347 -0.3585  0.4199  0.2283
 3743SOL    HW122862   3.582   2.566  12.357 -0.6709 -1.7323 -0.2337
 3743SOL    HW222863   3.481   2.529  12.267 -2.5613  0.5583  0.3245
 3744SOL     OW22864   0.825   2.692   0.516 -0.1856 -0.5938  0.2971
 3744SOL    HW122865   0.772   2.745   0.456 -0.7934 -2.4619 -0.7988
 3744SOL    HW222866   0.851   2.763   0.575 -1.7976  0.3929 -0.1695
 3745SOL     OW22867   0.089   1.274   8.240  0.0657 -0.4398  0.3162
 3745SOL    HW122868   0.149   1.347   8.224 -1.0827  0.3545 -0.4641
 3745SOL    HW222869   0.149   1.203   8.219  1.5785  1.2210 -1.0129
 3746SOL     OW22870   0.695   1.538   7.173  0.6415  0.3718 -0.1867
 3746SOL    HW122871   0.694   1.501   7.085  2.4401 -0.7560  0.2706
 3746SOL    HW222872   0.654   1.470   7.227  2.5443  0.1893  1.0032
 3747SOL     OW22873   0.343   2.051   8.305 -0.4166 -0.2249  0.3471
 3747SOL    HW122874   0.324   2.047   8.398 -0.4581  0.0389  0.3507
 3747SOL    HW222875   0.335   1.958   8.283  0.1248 -0.4943  1.3197
 3748SOL     OW22876   4.031   0.020   4.630  0.0897 -0.9670 -0.4512
 3748SOL    HW122877   3.997   4.673   4.653 -1.3637 -0.2610  0.0746
 3748SOL    HW222878   4.014   0.029   4.537 -0.5874 -2.7857 -0.5105
 3749SOL     OW22879   0.716   0.404  13.844  0.0327 -0.4966 -0.9415
 3749SOL    HW122880   0.677   0.454  13.773 -0.1265  1.7031  0.7097
 3749SOL    HW222881   0.635   0.359  13.871  1.5693 -2.3767  0.5550
 3750SOL     OW22882   0.377   3.693   7.016 -0.0934  0.0437 -0.7226
 3750SOL    HW122883   0.450   3.642   6.982  0.0980  0.0076 -0.2557
 3750SOL    HW222884   0.321   3.624   7.050  1.5361 -0.8874  0.0690
 3751SOL     OW22885   3.553   0.806   9.700 -0.1529 -0.4711 -0.1075
 3751SOL    HW122886   3.500   0.886   9.698  1.6790  0.7173 -1.0826
 3751SOL    HW222887   3.486   0.746   9.667  0.5473 -1.1853 -0.2344
 3752SOL     OW22888   2.165   1.366   3.629 -0.4663  0.5215 -0.3116
 3752SOL    HW122889   2.107   1.374   3.554 -1.4694 -1.1957  0.2940
 3752SOL    HW222890   2.159   1.273   3.648 -2.5679  0.7250 -0.0049
 3753SOL     OW22891   3.494   3.341  11.608 -0.3408  0.7307  0.4462
 3753SOL    HW122892   3.566   3.278  11.600 -1.0247 -0.2300  1.8879
 3753SOL    HW222893   3.440   3.306  11.679  1.2245  2.9410  2.7420
 3754SOL     OW22894   0.371   0.732  11.393  0.9779 -0.4669  0.1944
 3754SOL    HW122895   0.405   0.795  11.456  3.1869 -1.4495 -0.0168
 3754SOL    HW222896   0.434   0.661  11.409  2.3928  0.4641 -1.3007
 3755SOL     OW22897   4.126   2.549   0.517  0.2387  0.4520  0.3203
 3755SOL    HW122898   4.126   2.562   0.422 -1.1004  0.5545  0.3405
 3755SOL    HW222899   4.036   2.575   0.535  0.6295  1.3077  1.0608
 3756SOL     OW22900   3.942   2.231   7.951  0.5449  0.3112  0.1870
 3756SOL    HW122901   3.861   2.282   7.957  0.0874 -0.3736 -0.1610
 3756SOL    HW222902   4.004   2.297   7.982  1.4416 -0.8807  0.9431
 3757SOL     OW22903   0.881   1.488   4.572 -0.1816  0.1045  0.5531
 3757SOL    HW122904   0.916   1.554   4.632  1.5687  0.0455 -0.4278
 3757SOL    HW222905   0.852   1.538   4.496  0.0748 -0.5078  0.0502
 3758SOL     OW22906   4.568   0.186   5.025  0.2834 -0.1293  0.3820
 3758SOL    HW122907   4.494   0.236   4.992  0.1228 -0.3540  0.3992
 3758SOL    HW222908   4.530   0.100   5.006  0.6562 -0.3962  0.8376
 3759SOL     OW22909   0.342   3.379   9.685 -0.0833 -0.3235 -0.1654
 3759SOL    HW122910   0.437   3.372   9.699  0.0033 -0.7392 -0.9380
 3759SOL    HW222911   0.337   3.332   9.601  0.8167 -0.0047 -0.3974
 3760SOL     OW22912   1.812   2.573  14.507  0.4524 -0.4872  0.4762
 3760SOL    HW122913   1.888   2.529  14.467  1.5379 -1.5571  3.7281
 3760SOL    HW222914   1.748   2.517  14.464 -0.6763  0.8085  0.4819
 3761SOL     OW22915   0.803   0.520   9.588 -0.3577 -0.5252  0.7626
 3761SOL    HW122916   0.887   0.497   9.547 -0.1526 -0.4815  1.1514
 3761SOL    HW222917   0.753   0.439   9.576 -0.0262 -0.4717 -0.8965
 3762SOL     OW22918   3.351   0.754   0.711 -0.0839  0.4829 -0.0191
 3762SOL    HW122919   3.405   0.680   0.685 -1.6787 -0.6076 -0.2043
 3762SOL    HW222920   3.355   0.810   0.634 -2.8968  0.9121  0.1458
 3763SOL     OW22921   0.174   1.787   5.966  0.7766  0.0119 -0.3572
 3763SOL    HW122922   0.109   1.720   5.982 -0.1481  1.2882  1.2295
 3763SOL    HW222923   0.241   1.755   6.027 -1.3694 -1.9031  0.9421
 3764SOL     OW22924   2.536   0.609   3.997  0.2053 -1.1206 -0.2495
 3764SOL    HW122925   2.455   0.562   4.016 -2.0822  3.0526  0.3146
 3764SOL    HW222926   2.597   0.537   3.982  1.6794 -0.1121  0.8310
 3765SOL     OW22927   2.958   1.316  11.860 -0.1552 -0.3572 -0.2201
 3765SOL    HW122928   2.894   1.247  11.881  0.3391 -1.0181 -0.8582
 3765SOL    HW222929   3.042   1.275  11.880  0.2200  0.2657 -0.5356
 3766SOL     OW22930   2.346   4.486   3.807  0.2202 -0.3284 -0.1899
 3766SOL    HW122931   2.382   4.500   3.720  2.3920  1.0875  0.9149
 3766SOL    HW222932   2.271   4.545   3.808  0.9045  0.5416 -0.6811
 3767SOL     OW22933   0.194   4.652   6.727 -0.2049 -0.0094 -0.5562
 3767SOL    HW122934   0.282   4.660   6.764 -0.7286  0.5955  0.5468
 3767SOL    HW222935   0.212   4.711   6.654 -0.0702  0.6651  0.0211
 3768SOL     OW22936   3.780   3.378  11.414  0.0893 -0.3844  0.3461
 3768SOL    HW122937   3.782   3.318  11.489 -1.3916 -1.3400 -0.3665
 3768SOL    HW222938   3.792   3.462  11.458  0.9569 -1.1567  1.5861
 3769SOL     OW22939   3.429   2.431  14.972 -0.1129 -0.4293 -0.5914
 3769SOL    HW122940   3.338   2.409  14.956 -0.9734  1.8656  1.1790
 3769SOL    HW222941   3.425   2.527  14.964  0.0670 -0.2937  1.0216
 3770SOL     OW22942   1.150   2.087   8.552  0.2351 -0.4983 -0.3410
 3770SOL    HW122943   1.083   2.078   8.484 -0.5479 -4.8351  0.9980
 3770SOL    HW222944   1.222   2.137   8.514 -1.5845  1.9621 -0.5794
 3771SOL     OW22945   1.669   2.973   6.893  0.5460 -0.9178 -0.3242
 3771SOL    HW122946   1.699   2.889   6.930 -1.1843 -0.6754  1.6335
 3771SOL    HW222947   1.602   2.945   6.831  0.0241  2.1468 -1.0963
 3772SOL     OW22948   1.402   4.474   4.989 -0.5557 -0.0118 -0.2785
 3772SOL    HW122949   1.316   4.437   5.011  0.1078 -1.0543  0.5806
 3772SOL    HW222950   1.387   4.525   4.910  0.6053  0.1205 -0.4113
 3773SOL     OW22951   1.608   1.004  17.034 -0.6698  0.9537  0.1905
 3773SOL    HW122952   1.539   0.980  17.096 -1.1034  1.5910 -0.0470
 3773SOL    HW222953   1.648   0.918  17.017  0.6455  1.5482  0.2589
 3774SOL     OW22954   0.757   3.656   4.383  0.1326  0.4889  0.9748
 3774SOL    HW122955   0.691   3.703   4.434 -0.0531  0.5450  0.6802
 3774SOL    HW222956   0.804   3.607   4.450  1.5166  0.4882  0.0098
 3775SOL     OW22957   4.681   4.091   6.679  0.3602 -0.0885  0.0485
 3775SOL    HW122958   4.659   4.162   6.739 -0.2670 -0.6367  0.4752
 3775SOL    HW222959   0.025   4.117   6.641  0.8283  0.3643  1.3915
 3776SOL     OW22960   1.866   4.738   4.568  0.2768  0.2226  0.3463
 3776SOL    HW122961   1.797   0.037   4.621  0.3107  1.9919 -0.8561
 3776SOL    HW222962   1.833   0.037   4.486  0.2928  0.8780  0.6477
 3777SOL     OW22963   0.889   0.616   4.357  0.0121  0.4750  0.4645
 3777SOL    HW122964   0.821   0.635   4.293 -0.6492  2.2487  1.6929
 3777SOL    HW222965   0.843   0.645   4.436 -1.5491 -1.4866  0.2709
 3778SOL     OW22966   2.229   1.478   3.230 -0.1728 -0.0231 -0.4819
 3778SOL    HW122967   2.225   1.442   3.142 -0.2409 -0.2938 -0.3700
 3778SOL    HW222968   2.306   1.534   3.232 -0.4869  0.4075 -0.6480
 3779SOL     OW22969   1.353   1.024   2.412 -0.3617 -0.4221 -0.0516
 3779SOL    HW122970   1.274   1.021   2.359  0.1637 -4.6184 -0.6059
 3779SOL    HW222971   1.390   0.941   2.382 -0.4059 -0.4048 -0.1509
 3780SOL     OW22972   0.857   0.614  10.091  0.7977  0.4173 -0.3575
 3780SOL    HW122973   0.816   0.645  10.010 -0.8865  0.2486  0.4393
 3780SOL    HW222974   0.888   0.531  10.054 -0.1838 -0.2865  0.4027
 3781SOL     OW22975   0.362   2.479  17.567  0.2166  0.4515 -0.2823
 3781SOL    HW122976   0.328   2.450  17.652 -1.0989 -0.7382 -1.2203
 3781SOL    HW222977   0.414   2.403  17.542  0.4431  0.7667 -0.7661
 3782SOL     OW22978   2.887   3.164   7.994  0.0546 -0.1642 -0.0753
 3782SOL    HW122979   2.877   3.129   7.906  3.3947  1.6656 -1.1970
 3782SOL    HW222980   2.961   3.114   8.027  1.8538  1.8888 -0.9858
 3783SOL     OW22981   3.870   0.211   3.985  0.2754  0.1297 -0.0184
 3783SOL    HW122982   3.848   0.262   4.062 -1.2486 -0.6638  0.0786
 3783SOL    HW222983   3.806   0.247   3.924 -0.8297 -2.1727 -0.2438
 3784SOL     OW22984   1.806   0.756   5.336  0.5166 -0.6720 -0.3355
 3784SOL    HW122985   1.794   0.807   5.417  1.1447 -0.3149 -0.4715
 3784SOL    HW222986   1.784   0.813   5.263 -0.5795 -0.3727  0.2197
 3785SOL     OW22987   4.118   1.553   3.116 -0.1052  0.2980 -0.2245
 3785SOL    HW122988   4.072   1.547   3.199  2.6584  2.5508  1.4516
 3785SOL    HW222989   4.094   1.471   3.072 -0.1512 -0.1883  0.7017
 3786SOL     OW22990   0.687   3.519   2.377 -0.1626 -0.0998  0.4794
 3786SOL    HW122991   0.763   3.557   2.333  0.2269 -0.9643  0.4074
 3786SOL    HW222992   0.725   3.436   2.404 -0.6163 -0.5721 -0.3411
 3787SOL     OW22993   0.653   2.431   5.411  0.1234  0.4078  0.3744
 3787SOL    HW122994   0.627   2.367   5.477 -0.1108 -1.1355 -1.2213
 3787SOL    HW222995   0.676   2.510   5.459  0.6653  1.2993 -1.3397
 3788SOL     OW22996   0.541   3.945   9.605  0.1583 -0.4106  0.0403
 3788SOL    HW122997   0.493   4.026   9.624 -1.2599 -0.9510 -1.1793
 3788SOL    HW222998   0.619   3.952   9.659 -0.5193 -2.0167  1.2314
 3789SOL     OW22999   0.915   3.991   4.091  0.1076 -0.3919  0.8327
 3789SOL    HW123000   0.904   4.084   4.111 -0.8613 -0.8421  2.4288
 3789SOL    HW223001   1.002   3.986   4.051 -1.1122 -1.5406 -1.6437
 3790SOL     OW23002   2.388   2.014   3.923  0.3490 -0.2937 -0.1453
 3790SOL    HW123003   2.313   2.045   3.973  0.3457  0.7307 -0.7930
 3790SOL    HW223004   2.365   1.934   3.875  0.6898 -1.2443  1.2616
 3791SOL     OW23005   0.955   1.040   0.868 -0.0786 -0.2711 -0.2790
 3791SOL    HW123006   0.866   1.010   0.848  0.1480 -0.7987 -0.4686
 3791SOL    HW223007   0.932   1.115   0.923  1.5530 -0.2000  0.2857
 3792SOL     OW23008   3.924   4.373   7.938 -0.1533  0.4921  0.3119
 3792SOL    HW123009   3.884   4.443   7.989 -1.3642 -0.9928  1.3775
 3792SOL    HW223010   3.869   4.382   7.860  1.2452  1.6102 -0.5517
 3793SOL     OW23011   3.178   2.847  10.792 -0.1215 -0.7370 -0.2279
 3793SOL    HW123012   3.176   2.773  10.853  2.3729  1.2938  2.3573
 3793SOL    HW223013   3.263   2.830  10.753  0.1271 -0.1063  0.0347
 3794SOL     OW23014   0.848   0.457   9.232  0.3176  0.2787 -0.2119
 3794SOL    HW123015   0.917   0.442   9.297 -0.5020  0.3774  0.6847
 3794SOL    HW223016   0.808   0.370   9.232 -0.5924  0.6937  0.8659
 3795SOL     OW23017   2.899   2.505   9.601 -0.1038  0.3028  0.4842
 3795SOL    HW123018   2.974   2.544   9.556 -1.1486  0.9900 -0.6721
 3795SOL    HW223019   2.943   2.454   9.669  0.1644 -1.4669 -0.9914
 3796SOL     OW23020   1.554   1.658  16.037  0.0489 -0.1729 -0.5893
 3796SOL    HW123021   1.515   1.571  16.033  1.7454 -1.0288  0.8493
 3796SOL    HW223022   1.490   1.711  16.084 -0.0559 -0.3888 -0.4903
 3797SOL     OW23023   1.493   3.481   1.522  0.3218 -0.2439  0.3868
 3797SOL    HW123024   1.512   3.551   1.585 -0.1034 -0.5632  0.8647
 3797SOL    HW223025   1.400   3.470   1.538  0.3575  1.1300  1.5836
 3798SOL     OW23026   0.781   4.420   2.083  0.2596  0.2222 -0.1272
 3798SOL    HW123027   0.836   4.422   2.162 -0.0697 -2.1048  0.1914
 3798SOL    HW223028   0.770   4.325   2.079 -1.7604  0.3953  1.0636
 3799SOL     OW23029   3.737   3.593   9.767  0.3321 -0.5058 -0.1325
 3799SOL    HW123030   3.663   3.646   9.737  1.2605  1.8447  1.8040
 3799SOL    HW223031   3.723   3.521   9.705 -0.6971  0.1036 -0.6064
 3800SOL     OW23032   0.268   0.424   3.056 -0.1689  0.0845 -0.4219
 3800SOL    HW123033   0.297   0.386   3.139  2.3657  0.3739 -1.1613
 3800SOL    HW223034   0.176   0.435   3.080 -0.1902 -2.4428  0.6030
 3801SOL     OW23035   0.717   1.240   7.314  0.2831 -0.8858 -0.2140
 3801SOL    HW123036   0.657   1.182   7.360 -0.9918 -0.3132 -1.1631
 3801SOL    HW223037   0.721   1.191   7.232  0.2850 -0.8182 -0.2549
 3802SOL     OW23038   0.186   3.636   7.888  0.4259 -0.8089  0.6978
 3802SOL    HW123039   0.122   3.614   7.820  1.1276 -1.9127  0.4000
 3802SOL    HW223040   0.236   3.556   7.902  0.1248 -1.0688  0.3137
 3803SOL     OW23041   3.529   1.871   8.857 -0.1696 -0.5451  0.5352
 3803SOL    HW123042   3.439   1.856   8.884 -1.1069  2.0210 -1.2402
 3803SOL    HW223043   3.568   1.910   8.935 -3.5449  1.5848  1.1211
 3804SOL     OW23044   4.559   1.989  10.792 -0.3577  0.1885 -0.2980
 3804SOL    HW123045   4.495   2.026  10.852 -1.9923 -1.9757 -0.7438
 3804SOL    HW223046   4.618   2.064  10.782 -0.6665  0.4265 -0.3473
 3805SOL     OW23047   3.468   0.162   1.551 -0.1652  0.1503  0.3003
 3805SOL    HW123048   3.445   0.224   1.481  0.5063  1.3542  1.1630
 3805SOL    HW223049   3.404   0.091   1.543 -2.3421  2.2032 -0.6465
 3806SOL     OW23050   0.081   2.908   5.218  0.0739 -0.1529  1.0698
 3806SOL    HW123051   0.044   2.960   5.289 -2.0592 -0.0043 -0.1427
 3806SOL    HW223052   0.003   2.925   5.166  0.7252  0.6877  0.3743
 3807SOL     OW23053   0.779   3.789  10.190 -0.3151 -0.5707  0.2580
 3807SOL    HW123054   0.844   3.719  10.184  0.8016  0.3548  1.7339
 3807SOL    HW223055   0.817   3.859  10.136  2.2053 -0.9089  1.6115
 3808SOL     OW23056   0.289   3.840   2.847 -0.4994 -0.1415  0.5695
 3808SOL    HW123057   0.274   3.855   2.753 -0.7763 -0.4969  0.5593
 3808SOL    HW223058   0.382   3.819   2.851 -0.9726 -2.2769  0.1962
 3809SOL     OW23059   4.633   1.056   9.310  0.1769  0.1522 -0.1399
 3809SOL    HW123060   4.688   1.004   9.370 -0.2842 -0.2302 -0.0490
 3809SOL    HW223061   4.683   1.067   9.230 -0.7918  1.5714 -0.5478
 3810SOL     OW23062   3.926   0.347   3.684  0.1671  0.0106  0.1593
 3810SOL    HW123063   3.965   0.368   3.600  0.6949 -1.3483  0.0628
 3810SOL    HW223064   3.990   0.292   3.729 -0.5386 -1.6018 -0.8367
 3811SOL     OW23065   0.945   4.090   1.966 -0.2326 -0.4086 -0.2024
 3811SOL    HW123066   0.861   4.131   1.946 -0.9213 -1.3478  0.7695
 3811SOL    HW223067   0.925   3.998   1.983  1.0733 -0.8961 -1.3340
 3812SOL     OW23068   2.315   1.220  14.874  0.3098  0.8827  0.4708
 3812SOL    HW123069   2.333   1.305  14.831 -0.8679  1.4145  1.0444
 3812SOL    HW223070   2.352   1.153  14.816 -3.7601  0.1671 -1.2466
 3813SOL     OW23071   3.119   1.493   3.786 -0.3885  0.1642 -0.6423
 3813SOL    HW123072   3.181   1.426   3.757  0.4720  0.7982 -0.2348
 3813SOL    HW223073   3.177   1.552   3.833 -0.7180 -1.0382  1.2703
 3814SOL     OW23074   3.936   3.578  10.362  0.1364  0.3799 -0.0462
 3814SOL    HW123075   3.966   3.586  10.453 -1.0911  0.7109  0.3287
 3814SOL    HW223076   4.003   3.617  10.305 -0.2139  0.3659 -0.4666
 3815SOL     OW23077   4.484   3.683  10.103 -0.7111 -0.0906 -0.0549
 3815SOL    HW123078   4.544   3.645  10.166  3.1242  3.4748 -1.5791
 3815SOL    HW223079   4.411   3.698  10.163  0.0487  2.9365  0.1333
 3816SOL     OW23080   2.437   1.322   3.661 -0.8555  0.0430 -0.0943
 3816SOL    HW123081   2.431   1.228   3.645 -0.6734  0.1588 -0.8661
 3816SOL    HW223082   2.346   1.345   3.645 -0.2910  1.2493 -1.6337
 3817SOL     OW23083   1.283   1.917  13.777  0.1938  0.0343  0.6187
 3817SOL    HW123084   1.311   1.830  13.749  1.7609  0.5498  0.6251
 3817SOL    HW223085   1.343   1.973  13.728 -0.8501 -0.6999 -1.5054
 3818SOL     OW23086   0.493   1.086   1.357  0.1561 -0.0538 -0.4380
 3818SOL    HW123087   0.468   1.023   1.289  1.2825 -1.0665  0.0935
 3818SOL    HW223088   0.513   1.031   1.432 -0.5919 -0.0174 -0.2116
 3819SOL     OW23089   4.680   4.586   4.220 -0.0815 -0.0731  0.3390
 3819SOL    HW123090   4.627   4.511   4.192  0.6366 -0.7231  0.7093
 3819SOL    HW223091   4.685   4.575   4.315 -4.5637  0.5730  0.6304
 3820SOL     OW23092   1.585   4.557   1.496 -0.4803 -0.1444 -0.9573
 3820SOL    HW123093   1.552   4.478   1.454  0.9512 -0.7156 -1.0185
 3820SOL    HW223094   1.505   4.583   1.543  1.3663  2.6182  0.6809
 3821SOL     OW23095   1.438   3.320   4.453 -0.4630 -0.2242  0.1053
 3821SOL    HW123096   1.432   3.231   4.487  1.9202 -1.3135 -2.2848
 3821SOL    HW223097   1.429   3.308   4.358 -1.2199 -1.3552  0.3112
 3822SOL     OW23098   1.445   0.149  13.420  0.2351 -0.6572 -0.0768
 3822SOL    HW123099   1.443   0.067  13.470 -1.2417  0.3269  1.4525
 3822SOL    HW223100   1.451   0.102  13.336  0.2430 -1.0783  0.1583
 3823SOL     OW23101   2.407   1.313  15.837  0.6326  0.2574 -0.0175
 3823SOL    HW123102   2.384   1.254  15.765  0.2139  1.0272 -0.5030
 3823SOL    HW223103   2.361   1.263  15.904  0.0718 -1.1981 -1.4858
 3824SOL     OW23104   0.127   1.023   8.434 -0.0243  0.1879 -0.2994
 3824SOL    HW123105   0.069   0.977   8.374 -1.1071 -1.9308  2.3823
 3824SOL    HW223106   0.180   0.947   8.457 -0.0299 -0.4228 -2.2752
 3825SOL     OW23107   2.980   0.573   5.383  0.3285 -0.5766 -0.4609
 3825SOL    HW123108   3.054   0.512   5.372  1.8607  1.2209 -0.1718
 3825SOL    HW223109   2.948   0.582   5.294 -0.1489  1.5687 -0.0678
 3826SOL     OW23110   4.134   2.216   1.902  0.0999  0.1387  0.1651
 3826SOL    HW123111   4.216   2.170   1.920 -1.3907 -3.0594 -1.3074
 3826SOL    HW223112   4.115   2.175   1.818 -0.5256  0.5812  0.0941
 3827SOL     OW23113   1.113   1.379  13.866 -0.1828  0.3186  0.5223
 3827SOL    HW123114   1.046   1.311  13.863  1.3977 -1.2135 -0.0346
 3827SOL    HW223115   1.132   1.391  13.959 -0.7913  2.8079  0.3260
 3828SOL     OW23116   4.077   2.478  17.674  0.3303 -0.3713 -0.6194
 3828SOL    HW123117   4.073   2.514  17.585  0.9640 -1.3213 -1.0266
 3828SOL    HW223118   4.161   2.434  17.679  1.8216  2.5109 -0.5024
 3829SOL     OW23119   3.244   4.206  10.220 -0.4985  0.3672 -0.5775
 3829SOL    HW123120   3.224   4.117  10.190 -2.6095  0.3605  0.8707
 3829SOL    HW223121   3.338   4.206  10.201 -0.8424 -1.8468 -2.1798
 3830SOL     OW23122   0.592   2.492   4.404  0.1421  0.5233 -0.1387
 3830SOL    HW123123   0.678   2.479   4.364  1.0013  0.4725  1.7639
 3830SOL    HW223124   0.533   2.474   4.330  2.4778  1.7099 -2.2969
 3831SOL     OW23125   3.408   1.196   9.368 -0.0409  0.6194 -0.0941
 3831SOL    HW123126   3.452   1.238   9.294 -1.0624  2.7691  0.4965
 3831SOL    HW223127   3.361   1.128   9.320  0.4579  0.8015 -0.8431
 3832SOL     OW23128   2.588   1.814  13.370  0.7115  0.4368 -0.0794
 3832SOL    HW123129   2.679   1.845  13.377 -0.0739  2.7780 -0.2142
 3832SOL    HW223130   2.545   1.899  13.380 -1.7915 -0.7957 -0.3781
 3833SOL     OW23131   3.428   4.017   9.176  0.4858  0.1865  0.2784
 3833SOL    HW123132   3.392   4.060   9.253  0.2201  1.8787 -0.7878
 3833SOL    HW223133   3.355   4.010   9.115  0.9262 -1.9257 -0.0075
 3834SOL     OW23134   2.788   3.597   7.870  0.1857 -0.6303  0.6303
 3834SOL    HW123135   2.843   3.579   7.794 -0.3827 -2.0465  0.5509
 3834SOL    HW223136   2.819   3.687   7.875 -4.2404  1.0503 -2.6257
 3835SOL     OW23137   3.608   4.241   5.648  0.2280  0.7898 -0.0016
 3835SOL    HW123138   3.515   4.232   5.628 -0.0597 -0.5709  1.8984
 3835SOL    HW223139   3.605   4.235   5.743  0.6841 -0.7164 -0.0791
 3836SOL     OW23140   0.412   2.337  13.720  0.3480 -0.5044 -0.0984
 3836SOL    HW123141   0.464   2.263  13.690 -0.4889 -1.2595  0.3291
 3836SOL    HW223142   0.329   2.295  13.741  1.6074 -2.0054  1.9636
 3837SOL     OW23143   4.367   4.358  16.811 -0.1554  0.5353 -0.0715
 3837SOL    HW123144   4.303   4.316  16.869 -1.1751  3.6083  1.0632
 3837SOL    HW223145   4.388   4.294  16.743  0.8697 -0.1647  0.9143
 3838SOL     OW23146   2.618   0.409  10.695 -0.6023  0.3625  0.3460
 3838SOL    HW123147   2.565   0.329  10.695  1.7943 -1.2279 -0.3664
 3838SOL    HW223148   2.555   0.463  10.743 -0.5613  0.0423  0.7547
 3839SOL     OW23149   1.652   4.257   7.443  0.2934  0.6949 -0.2611
 3839SOL    HW123150   1.609   4.221   7.366  4.0906 -1.9481 -1.1495
 3839SOL    HW223151   1.598   4.220   7.513  1.7744 -0.0422  0.4892
 3840SOL     OW23152   4.169   2.341  12.057 -0.1531 -0.2466  0.2972
 3840SOL    HW123153   4.194   2.433  12.067 -0.1381 -0.6119  3.5891
 3840SOL    HW223154   4.192   2.327  11.965  0.3698  1.4737  0.1691
 3841SOL     OW23155   0.511   3.582   2.164  0.2490  0.0113 -0.2554
 3841SOL    HW123156   0.423   3.570   2.200 -0.1970  1.0329 -1.0299
 3841SOL    HW223157   0.563   3.536   2.231  1.4296  0.0061 -1.1667
 3842SOL     OW23158   2.199   1.120   3.296 -0.0365 -0.7309  0.4401
 3842SOL    HW123159   2.290   1.149   3.304 -0.3221  0.9492 -2.4444
 3842SOL    HW223160   2.199   1.093   3.204  1.5845  2.6548 -0.5620
 3843SOL     OW23161   4.277   1.524   9.288  0.5270 -0.0993  0.1447
 3843SOL    HW123162   4.363   1.481   9.294  1.0114  0.5536 -1.7659
 3843SOL    HW223163   4.257   1.510   9.195  1.5264  0.0319 -0.0945
 3844SOL     OW23164   3.257   1.192   5.618 -0.0161 -0.0265 -1.1209
 3844SOL    HW123165   3.332   1.244   5.646 -0.6265  0.0888  0.3021
 3844SOL    HW223166   3.281   1.184   5.526  0.4008 -1.0025 -0.9214
 3845SOL     OW23167   0.196   0.462   7.860  0.4362 -0.2549 -0.3634
 3845SOL    HW123168   0.119   0.413   7.891 -1.6731  2.4447 -1.2826
 3845SOL    HW223169   0.146   0.534   7.821  1.4840  0.9025  0.4045
 3846SOL     OW23170   4.543   4.291   4.836  0.1688  0.0178 -0.3618
 3846SOL    HW123171   4.500   4.370   4.869  1.7243  0.9469 -0.5781
 3846SOL    HW223172   4.480   4.225   4.865  0.5031  0.4365  1.3492
 3847SOL     OW23173   2.551   2.274   2.157  0.1379 -0.1357  0.2832
 3847SOL    HW123174   2.605   2.226   2.093  1.2923  0.3647  0.8945
 3847SOL    HW223175   2.472   2.220   2.154  0.7042 -0.9032 -1.0438
 3848SOL     OW23176   4.065   1.289   4.383 -0.2831  0.0701  0.2214
 3848SOL    HW123177   4.156   1.292   4.353 -0.4903 -2.1580 -0.6589
 3848SOL    HW223178   4.038   1.207   4.340  1.6980  0.2543 -1.3890
 3849SOL     OW23179   2.620   3.935   5.468  0.3658 -0.4106 -0.3111
 3849SOL    HW123180   2.583   4.010   5.420  0.2215  0.8066  1.6708
 3849SOL    HW223181   2.683   3.988   5.518  1.2789  0.0941 -2.0080
 3850SOL     OW23182   3.519   3.941   6.356 -0.7375 -0.4962 -0.3133
 3850SOL    HW123183   3.428   3.913   6.356 -0.8395 -0.1618  0.8843
 3850SOL    HW223184   3.562   3.869   6.402 -3.0748 -0.8891  1.2495
 3851SOL     OW23185   0.624   2.391  16.706  0.3220 -0.6924  0.6505
 3851SOL    HW123186   0.554   2.331  16.732 -0.1650 -0.5074 -0.2346
 3851SOL    HW223187   0.576   2.470  16.682 -0.7218 -2.4155 -2.9158
 3852SOL     OW23188   0.570   4.450   4.014 -0.4892  0.3378 -0.4043
 3852SOL    HW123189   0.597   4.382   4.075  0.2017 -0.1121 -1.2144
 3852SOL    HW223190   0.474   4.454   4.020 -0.4910 -0.0543 -0.1234
 3853SOL     OW23191   4.026   1.004  13.000 -0.6185  0.0342 -0.3471
 3853SOL    HW123192   4.114   0.991  13.035 -2.0780 -1.4726  2.7806
 3853SOL    HW223193   3.994   1.081  13.047 -1.2129 -0.6867  0.4432
 3854SOL     OW23194   2.138   3.111   0.173 -0.3344 -0.2802 -0.4011
 3854SOL    HW123195   2.159   3.022   0.202  0.1272 -0.4092 -1.1443
 3854SOL    HW223196   2.144   3.104   0.078  3.3993  0.3302 -0.2016
 3855SOL     OW23197   4.120   2.552   3.268  0.1981  0.1617  0.3676
 3855SOL    HW123198   4.172   2.480   3.304  0.1018 -0.3430 -0.5121
 3855SOL    HW223199   4.165   2.634   3.291 -0.4352  1.1378 -1.8189
 3856SOL     OW23200   1.703   4.039   8.854 -0.6127  0.5895 -0.7644
 3856SOL    HW123201   1.755   4.072   8.781 -0.2562  1.0031 -0.3325
 3856SOL    HW223202   1.739   3.952   8.866 -2.2043  0.2142  1.3624
 3857SOL     OW23203   4.104   0.780   6.078 -0.2865 -0.0586 -0.1891
 3857SOL    HW123204   4.086   0.696   6.036  0.5118  0.1307 -0.9119
 3857SOL    HW223205   4.116   0.744   6.166  1.8106 -0.4262 -0.6114
 3858SOL     OW23206   2.955   3.186   6.453  0.0199 -0.2954 -0.1350
 3858SOL    HW123207   2.948   3.130   6.376 -1.9354  1.5420 -1.2688
 3858SOL    HW223208   2.950   3.269   6.408 -1.0650 -1.3954 -2.0201
 3859SOL     OW23209   0.711   1.083   9.152 -0.1625 -0.0107 -0.3154
 3859SOL    HW123210   0.762   1.147   9.201  0.2003 -1.3614  1.0571
 3859SOL    HW223211   0.630   1.133   9.156  0.8053  1.5630 -0.3417
 3860SOL     OW23212   3.492   3.501   5.750 -0.2783 -0.0376 -0.1730
 3860SOL    HW123213   3.457   3.482   5.837  0.5403  2.2694  0.6572
 3860SOL    HW223214   3.492   3.412   5.714 -0.5612  0.3858 -1.2205
 3861SOL     OW23215   2.186   1.895   6.961  0.4335 -0.0267 -0.2934
 3861SOL    HW123216   2.238   1.951   7.019 -0.1087  1.5508 -1.3339
 3861SOL    HW223217   2.257   1.841   6.925 -1.1947 -2.7610  0.5996
 3862SOL     OW23218   0.573   4.255   4.229  0.1296  0.2685 -0.2887
 3862SOL    HW123219   0.511   4.187   4.205 -0.9917  0.6875  1.4367
 3862SOL    HW223220   0.567   4.248   4.325 -1.1060  0.6378 -0.3499
 3863SOL     OW23221   3.769   4.506   2.595  0.2430 -0.7514  0.6516
 3863SOL    HW123222   3.827   4.430   2.596  1.4927  0.1852 -1.7388
 3863SOL    HW223223   3.704   4.464   2.539  0.1155  0.3430 -0.0187
 3864SOL     OW23224   2.892   1.690   6.502 -0.3498  0.7625 -0.1288
 3864SOL    HW123225   2.916   1.623   6.438 -1.4749 -1.8019  2.1692
 3864SOL    HW223226   2.881   1.766   6.444  1.1118  1.1375  0.0881
 3865SOL     OW23227   1.187   0.369  17.354  0.5237  0.1673  0.1880
 3865SOL    HW123228   1.130   0.302  17.315  0.2269 -0.5396  1.8561
 3865SOL    HW223229   1.128   0.444  17.368 -0.6346 -1.0838  1.9647
 3866SOL     OW23230   4.233   0.999   5.234  0.5152 -0.0526 -0.1521
 3866SOL    HW123231   4.161   0.991   5.297  1.2524 -0.6665  0.6124
 3866SOL    HW223232   4.286   1.058   5.288  1.5667  0.2419 -1.5031
 3867SOL     OW23233   4.539   2.478   2.639  0.0749 -0.1006  0.6006
 3867SOL    HW123234   4.456   2.430   2.631  0.6678 -0.9837 -0.2123
 3867SOL    HW223235   4.565   2.439   2.722 -0.9591 -2.0015  0.0489
 3868SOL     OW23236   2.538   1.934   6.296  0.3132 -0.5880  0.8920
 3868SOL    HW123237   2.612   1.900   6.347  2.2361  1.6908 -0.4068
 3868SOL    HW223238   2.565   2.025   6.288  0.4353 -0.5881  1.3375
 3869SOL     OW23239   4.694   1.921  15.272 -0.0594 -0.8997  0.0709
 3869SOL    HW123240   0.032   1.865  15.284 -0.0252 -1.0376 -0.8022
 3869SOL    HW223241   4.646   1.878  15.343 -0.8027 -2.0488 -1.1371
 3870SOL     OW23242   2.510   1.599  13.264  0.4804 -0.5923  0.5392
 3870SOL    HW123243   2.583   1.589  13.202  0.3193 -1.6707  0.5258
 3870SOL    HW223244   2.538   1.683  13.299 -0.1996 -0.0037 -0.3435
 3871SOL     OW23245   0.464   1.817   1.666 -0.1252 -0.5187  0.2905
 3871SOL    HW123246   0.479   1.911   1.658  2.6397 -0.9678 -0.0108
 3871SOL    HW223247   0.388   1.797   1.611 -0.7049  1.6566  0.3278
 3872SOL     OW23248   1.220   2.836   5.398 -0.5975 -0.4800  0.7077
 3872SOL    HW123249   1.286   2.840   5.329 -1.9674 -1.9317 -0.6687
 3872SOL    HW223250   1.143   2.873   5.356  0.0684  0.4638  0.3122
 3873SOL     OW23251   2.199   4.588   0.967 -0.2907  0.1476  0.2222
 3873SOL    HW123252   2.205   4.497   0.938 -1.0250 -0.2174  1.2555
 3873SOL    HW223253   2.138   4.583   1.040 -1.2257  0.3849 -0.5398
 3874SOL     OW23254   2.216   0.566  11.807  0.7117  0.8906  0.4807
 3874SOL    HW123255   2.190   0.512  11.882 -0.7701  0.5144 -0.3113
 3874SOL    HW223256   2.291   0.518  11.774 -2.0432 -1.1693 -2.7698
 3875SOL     OW23257   1.446   1.335   0.541 -0.1915  0.0235  0.0637
 3875SOL    HW123258   1.460   1.319   0.448  0.9430  0.6587  0.1171
 3875SOL    HW223259   1.417   1.246   0.560 -0.1843 -0.2836 -1.3395
 3876SOL     OW23260   4.494   2.688  12.747  0.0335 -0.4280  0.5357
 3876SOL    HW123261   4.472   2.774  12.712 -0.1835  0.2035  2.2025
 3876SOL    HW223262   4.476   2.629  12.674  0.8805  0.9332 -0.7691
 3877SOL     OW23263   1.266   0.808   6.119  0.2494 -0.3267 -0.4578
 3877SOL    HW123264   1.211   0.872   6.074 -0.4064  0.0020  0.7999
 3877SOL    HW223265   1.231   0.810   6.208  0.0929  1.7462 -0.5563
 3878SOL     OW23266   0.871   0.574  15.107  0.8016 -0.2738 -0.4306
 3878SOL    HW123267   0.839   0.657  15.074  1.9116  0.4571  0.3270
 3878SOL    HW223268   0.873   0.515  15.031 -0.2419 -0.9201  0.0434
 3879SOL     OW23269   1.757   3.997  14.197 -0.2971 -0.4849  0.1780
 3879SOL    HW123270   1.766   3.964  14.107 -2.0447  0.2414 -0.2584
 3879SOL    HW223271   1.682   3.942  14.219 -1.3087  0.9438  0.2663
 3880SOL     OW23272   3.728   3.702   6.319 -0.4399 -0.1006 -0.2507
 3880SOL    HW123273   3.744   3.681   6.411  1.7623  0.0722 -0.5898
 3880SOL    HW223274   3.802   3.759   6.299 -0.6490  0.1160 -0.4045
 3881SOL     OW23275   2.732   3.465  16.372 -0.1905 -0.1568  0.2062
 3881SOL    HW123276   2.805   3.485  16.313 -1.9234  3.5840 -0.6995
 3881SOL    HW223277   2.671   3.416  16.317 -0.9701  0.5710  0.4236
 3882SOL     OW23278   2.421   1.646   8.933  0.1850 -0.0362 -0.7763
 3882SOL    HW123279   2.455   1.614   9.017 -1.0827 -1.4289 -0.7977
 3882SOL    HW223280   2.477   1.609   8.864 -0.3085 -0.4137 -0.9779
 3883SOL     OW23281   3.847   0.252  16.853  0.1363 -0.4963 -0.3507
 3883SOL    HW123282   3.865   0.341  16.883 -0.1515 -0.9810  1.2623
 3883SOL    HW223283   3.937   0.226  16.833  0.8554  0.9804  0.9222
 3884SOL     OW23284   2.579   0.206   8.771  0.0578 -0.5882 -0.4529
 3884SOL    HW123285   2.627   0.170   8.845  2.2812  1.1396 -1.0594
 3884SOL    HW223286   2.553   0.128   8.722  0.4936 -1.0812  0.1182
 3885SOL     OW23287   1.675   0.867   8.493  0.2214 -0.1875  0.3152
 3885SOL    HW123288   1.679   0.864   8.588  0.0265 -1.5758  0.2721
 3885SOL    HW223289   1.709   0.955   8.478  0.0259 -0.2343 -0.3980
 3886SOL     OW23290   1.031   0.156   3.925  0.9736 -0.2674 -0.2187
 3886SOL    HW123291   1.109   0.186   3.972  0.4657  0.4543  0.1635
 3886SOL    HW223292   0.950   0.182   3.969  2.2983 -0.6591  2.4574
 3887SOL     OW23293   0.286   1.232  17.299 -0.1099 -1.2934 -0.3970
 3887SOL    HW123294   0.286   1.327  17.289 -0.5313 -1.2869 -0.3582
 3887SOL    HW223295   0.353   1.210  17.236 -0.1750  0.2133 -0.9825
 3888SOL     OW23296   2.471   1.285   7.258 -0.0534  0.1690 -0.2610
 3888SOL    HW123297   2.415   1.363   7.259 -0.7560 -0.3515  0.5556
 3888SOL    HW223298   2.505   1.287   7.169 -2.4093 -4.2157 -1.2527
 3889SOL     OW23299   4.704   3.676   1.616  0.3538  0.0610 -0.4500
 3889SOL    HW123300   0.015   3.754   1.640  0.0517  0.4162 -0.9726
 3889SOL    HW223301   4.620   3.721   1.624  2.4612  3.9720 -0.0153
 3890SOL     OW23302   1.488   2.560   6.376 -0.0897  0.1746 -0.5450
 3890SOL    HW123303   1.429   2.615   6.324 -0.7326 -0.9617 -1.0231
 3890SOL    HW223304   1.578   2.589   6.367  0.5665 -2.0275 -1.2775
 3891SOL     OW23305   2.283   3.098   1.875  0.4886 -0.1147 -0.3166
 3891SOL    HW123306   2.373   3.076   1.850  0.8395  0.0786  0.7640
 3891SOL    HW223307   2.243   3.092   1.789  3.0598  0.8787 -1.5698
 3892SOL     OW23308   1.122   2.189   3.668  0.1309  0.3832 -0.5968
 3892SOL    HW123309   1.183   2.119   3.644  0.5513  1.0462 -1.4642
 3892SOL    HW223310   1.127   2.243   3.589  1.4519 -0.3495 -1.0141
 3893SOL     OW23311   1.295   0.943   8.238  0.7039 -0.3442 -0.0954
 3893SOL    HW123312   1.344   0.860   8.235  1.6070  0.1529  1.3627
 3893SOL    HW223313   1.303   0.975   8.327  0.1617  0.3332 -0.2876
 3894SOL     OW23314   1.288   1.884   7.966  0.2009  0.2517  0.1325
 3894SOL    HW123315   1.208   1.891   7.915  0.6806  0.2500 -0.6257
 3894SOL    HW223316   1.349   1.912   7.898 -2.1346  0.7344 -1.7564
 3895SOL     OW23317   0.102   2.974  10.891  0.4745  0.2444 -0.1825
 3895SOL    HW123318   0.129   2.960  10.982 -1.2547 -0.4975  0.2262
 3895SOL    HW223319   0.078   3.067  10.892 -0.5695 -0.0264  0.3344
 3896SOL     OW23320   0.222   3.213  10.678  0.0015  0.3500  0.0209
 3896SOL    HW123321   0.140   3.176  10.713  0.2371 -0.9239 -0.7654
 3896SOL    HW223322   0.212   3.190  10.586  0.1524 -0.4298  0.2009
 3897SOL     OW23323   0.674   4.445  15.543  0.3380 -0.0466 -0.1532
 3897SOL    HW123324   0.590   4.456  15.498  0.1403  0.0519  0.2456
 3897SOL    HW223325   0.654   4.499  15.619 -0.4827  0.1767 -0.5255
 3898SOL     OW23326   0.509   3.729   0.964  0.3973 -0.8040 -0.5104
 3898SOL    HW123327   0.505   3.807   0.909  1.1345  0.6795  1.5517
 3898SOL    HW223328   0.418   3.702   0.949 -0.3499  2.6279 -2.2144
 3899SOL     OW23329   3.140   4.327   8.759 -0.1878  0.3094  0.3654
 3899SOL    HW123330   3.080   4.261   8.793 -1.6660  1.7703  0.5997
 3899SOL    HW223331   3.176   4.281   8.683 -0.3503  1.8011 -0.6111
 3900SOL     OW23332   3.733   1.620  10.236  0.1492  0.0208 -0.9647
 3900SOL    HW123333   3.757   1.712  10.221  1.4085  0.3921  3.2188
 3900SOL    HW223334   3.812   1.587  10.279  0.0490 -1.5001 -1.9724
 3901SOL     OW23335   0.202   2.525  15.110  0.7671  0.4325  0.1337
 3901SOL    HW123336   0.140   2.453  15.097  0.8910  0.8244 -2.7231
 3901SOL    HW223337   0.142   2.597  15.091  1.6120  0.9493 -0.5875
 3902SOL     OW23338   1.714   4.584  11.595  0.4125 -0.1645  0.1894
 3902SOL    HW123339   1.625   4.602  11.625  0.1099 -1.1203 -0.1205
 3902SOL    HW223340   1.706   4.493  11.564 -3.0115  0.9955 -2.3359
 3903SOL     OW23341   2.988   4.127  12.779 -0.0790 -0.2431  0.2999
 3903SOL    HW123342   3.043   4.120  12.857 -0.9697 -0.8731  0.8920
 3903SOL    HW223343   2.907   4.164  12.814  0.8217  1.5724  0.4120
 3904SOL     OW23344   0.039   1.965   1.389 -0.0730  0.1249  0.2002
 3904SOL    HW123345   0.025   1.997   1.478  3.4974 -0.4461  0.9908
 3904SOL    HW223346   4.698   1.914   1.377  0.9982 -1.5587  0.1927
 3905SOL     OW23347   4.254   4.146  16.965 -0.5765  0.3370  0.0118
 3905SOL    HW123348   4.183   4.188  17.014 -1.9281 -0.8165 -0.9636
 3905SOL    HW223349   4.209   4.099  16.895  2.3995 -1.9990 -0.3258
 3906SOL     OW23350   3.178   4.583   7.892  0.2090 -0.3552 -0.0321
 3906SOL    HW123351   3.269   4.572   7.863  0.0694  0.3408 -0.7267
 3906SOL    HW223352   3.172   4.513   7.956  0.9204  0.2068  0.6469
 3907SOL     OW23353   1.861   3.925   8.151  0.1619  0.4237  0.7479
 3907SOL    HW123354   1.926   3.885   8.093  0.6494  0.1723  1.4625
 3907SOL    HW223355   1.880   4.013   8.119  1.5875  0.2415  1.0614
 3908SOL     OW23356   1.391   2.535   8.969 -0.4804  0.0461  0.4771
 3908SOL    HW123357   1.382   2.582   8.885 -0.2363  1.1388  1.0653
 3908SOL    HW223358   1.410   2.606   9.030 -2.2523 -0.2861  1.4136
 3909SOL     OW23359   3.578   2.112   3.718  0.1994 -0.4549 -0.3564
 3909SOL    HW123360   3.601   2.139   3.807 -1.6744  0.6211 -0.1979
 3909SOL    HW223361   3.495   2.160   3.718  0.8645  0.7122  1.5445
 3910SOL     OW23362   3.549   1.368  10.364  0.3481 -0.3783  0.2969
 3910SOL    HW123363   3.627   1.424  10.357 -0.0714  0.1371 -0.2321
 3910SOL    HW223364   3.579   1.295  10.417  1.7964 -0.4223 -0.5806
 3911SOL     OW23365   4.382   2.772   0.625 -0.2696  0.7503 -0.0982
 3911SOL    HW123366   4.456   2.803   0.678 -0.3464 -0.8155  0.9197
 3911SOL    HW223367   4.306   2.821   0.657  0.3836  0.4644  1.8903
 3912SOL     OW23368   3.256   0.090   9.523 -0.3967 -0.2522  0.1681
 3912SOL    HW123369   3.213   0.156   9.577  1.0298  1.4783 -0.8338
 3912SOL    HW223370   3.227   0.134   9.443  0.9968 -1.4830 -1.0162
 3913SOL     OW23371   0.707   1.214   4.052  0.4177  0.7694 -0.1226
 3913SOL    HW123372   0.652   1.266   3.993  1.8834  2.1044 -0.3277
 3913SOL    HW223373   0.798   1.241   4.039 -0.0774  2.9150  0.7077
 3914SOL     OW23374   1.711   0.713  10.242  0.1952  0.7056 -0.4321
 3914SOL    HW123375   1.708   0.696  10.336 -4.2966 -1.0070 -0.9183
 3914SOL    HW223376   1.672   0.800  10.235  0.3910  0.9751  1.8841
 3915SOL     OW23377   4.123   4.711   6.748 -0.0187  0.0961  0.3077
 3915SOL    HW123378   4.034   4.680   6.730  0.4437 -0.9970 -0.0452
 3915SOL    HW223379   4.150   0.012   6.665 -1.0525 -1.6157 -0.8469
 3916SOL     OW23380   2.560   0.278   9.166 -0.0366 -0.1718  0.0421
 3916SOL    HW123381   2.631   0.260   9.105 -1.0867  0.1724 -1.2596
 3916SOL    HW223382   2.481   0.265   9.114 -0.0839  0.0360  0.0614
 3917SOL     OW23383   1.436   1.631  16.539  0.2921  0.0129  0.0632
 3917SOL    HW123384   1.431   1.541  16.571  2.3349 -0.5474 -1.1905
 3917SOL    HW223385   1.342   1.645  16.531  0.5455  1.3955 -0.4312
 3918SOL     OW23386   2.812   0.335  15.008 -0.5115 -0.0056  0.1143
 3918SOL    HW123387   2.744   0.387  14.965 -1.1594 -0.7847  0.1890
 3918SOL    HW223388   2.808   0.246  14.974 -1.6031  0.9432 -2.2323
 3919SOL     OW23389   0.328   1.902   2.290  0.5266  0.4039 -0.0128
 3919SOL    HW123390   0.293   1.894   2.379 -0.0719 -0.9287 -0.3646
 3919SOL    HW223391   0.246   1.896   2.241  2.5067  1.5097 -3.4307
 3920SOL     OW23392   3.719   1.690   3.237 -0.9320  0.4344 -0.4525
 3920SOL    HW123393   3.693   1.598   3.240 -0.6141  0.3454 -0.4033
 3920SOL    HW223394   3.682   1.708   3.151 -1.6867 -0.0867 -0.2366
 3921SOL     OW23395   3.874   2.313  14.548 -0.2930  0.8883  0.5997
 3921SOL    HW123396   3.896   2.360  14.629  0.9376  1.5845 -0.1304
 3921SOL    HW223397   3.925   2.350  14.476 -1.2127 -1.7347 -1.4009
 3922SOL     OW23398   3.857   1.701   3.474  0.4602  0.3645 -0.3235
 3922SOL    HW123399   3.806   1.702   3.393 -0.3194 -0.5304  0.1571
 3922SOL    HW223400   3.846   1.794   3.493  1.4348  0.1941  1.0666
 3923SOL     OW23401   3.395   4.517   7.674 -0.5101  0.6078 -0.1468
 3923SOL    HW123402   3.450   4.577   7.625 -2.0308  1.6490 -0.5809
 3923SOL    HW223403   3.420   4.433   7.634 -1.5927 -0.2556  0.9892
 3924SOL     OW23404   3.642   2.738   3.245 -0.2911 -0.0581  0.5256
 3924SOL    HW123405   3.614   2.674   3.180  0.4567 -1.4300  1.5473
 3924SOL    HW223406   3.735   2.715   3.238 -0.2972 -0.2922  1.2053
 3925SOL     OW23407   3.781   4.151  16.296 -0.5672 -0.4923 -0.3822
 3925SOL    HW123408   3.727   4.155  16.217  2.4990  0.9739 -2.4077
 3925SOL    HW223409   3.837   4.074  16.284 -1.9168 -1.4621 -0.4272
 3926SOL     OW23410   0.237   2.490   9.703  1.0056 -0.0270  0.6466
 3926SOL    HW123411   0.278   2.406   9.682  0.3059 -0.5790  1.4718
 3926SOL    HW223412   0.305   2.552   9.728  1.1113 -0.0430  0.3952
 3927SOL     OW23413   2.080   2.602   7.149  0.3961 -0.4157  0.5916
 3927SOL    HW123414   2.041   2.676   7.103 -1.4197 -2.1521 -0.6864
 3927SOL    HW223415   2.103   2.640   7.234 -0.6506 -0.2234  0.7917
 3928SOL     OW23416   0.331   4.592   5.348  0.7669  0.4194 -0.4375
 3928SOL    HW123417   0.412   4.575   5.397  1.4841  0.6773 -1.5184
 3928SOL    HW223418   0.273   4.540   5.402 -1.1847  0.7427 -2.2216
 3929SOL     OW23419   3.027   2.218   6.106 -0.0111 -0.5422  0.4876
 3929SOL    HW123420   3.032   2.313   6.118 -0.1882 -0.1679 -2.3212
 3929SOL    HW223421   2.938   2.206   6.073 -0.8205  2.3713  1.6285
 3930SOL     OW23422   1.395   0.686   7.428 -0.7659  0.4204  0.0120
 3930SOL    HW123423   1.459   0.751   7.400 -1.0484  0.0954 -1.3654
 3930SOL    HW223424   1.458   0.650   7.491  0.5950 -0.4920 -1.8692
 3931SOL     OW23425   3.731   3.669   9.160 -0.3087 -0.2038  0.7700
 3931SOL    HW123426   3.713   3.624   9.243 -0.1400 -1.5611  0.0639
 3931SOL    HW223427   3.819   3.701   9.179  0.3811 -1.9346  0.3980
 3932SOL     OW23428   0.925   0.563   3.730 -0.0304  0.2348  0.4373
 3932SOL    HW123429   0.962   0.603   3.809  0.2588  0.0346  0.4017
 3932SOL    HW223430   0.978   0.484   3.721  2.0559  1.4441  2.1609
 3933SOL     OW23431   3.096   3.783   7.735 -0.0760  0.2411 -0.3421
 3933SOL    HW123432   3.042   3.704   7.725  0.7746 -0.4051  0.1631
 3933SOL    HW223433   3.169   3.765   7.794 -0.6107 -0.2617  0.1807
 3934SOL     OW23434   3.728   2.032   4.292 -0.3674 -0.0108 -0.3952
 3934SOL    HW123435   3.671   2.077   4.230  0.1677  1.2401  0.0349
 3934SOL    HW223436   3.742   2.104   4.354  2.4677  0.4797 -1.5807
 3935SOL     OW23437   3.196   2.627   2.164  0.9614 -0.0491  0.3561
 3935SOL    HW123438   3.274   2.625   2.221  0.2610  0.2901  1.3284
 3935SOL    HW223439   3.149   2.552   2.200 -3.3971  2.6862  0.2789
 3936SOL     OW23440   2.977   2.613   5.938 -0.0652  0.2247  0.4230
 3936SOL    HW123441   3.042   2.682   5.929  0.9749 -0.7245  0.6030
 3936SOL    HW223442   2.989   2.583   5.848  1.1533  1.7643  0.0699
 3937SOL     OW23443   1.539   1.676  11.898  0.1557  0.2390  0.2347
 3937SOL    HW123444   1.582   1.752  11.860 -0.2943  0.7771  0.7881
 3937SOL    HW223445   1.535   1.615  11.824 -0.8444  1.5086 -0.7490
 3938SOL     OW23446   1.117   0.535   4.821  0.3849  0.5560  0.2379
 3938SOL    HW123447   1.072   0.544   4.737 -0.3124 -3.2168  0.2183
 3938SOL    HW223448   1.204   0.561   4.791 -0.9003  1.0778 -3.0169
 3939SOL     OW23449   0.667   2.272  15.782 -0.2798 -0.9549  0.0032
 3939SOL    HW123450   0.577   2.268  15.815 -0.6183  3.4399 -0.3055
 3939SOL    HW223451   0.715   2.211  15.838 -0.8572 -0.6355  0.8436
 3940SOL     OW23452   3.702   3.528   5.484  0.1384  0.2143  0.4032
 3940SOL    HW123453   3.631   3.592   5.482  0.5934  0.7103  0.0885
 3940SOL    HW223454   3.675   3.463   5.549  0.5036  1.7049  2.0149
 3941SOL     OW23455   3.381   2.941   3.064  0.3898  0.3849 -0.0797
 3941SOL    HW123456   3.335   2.933   3.148 -0.6306  0.3042 -0.6537
 3941SOL    HW223457   3.384   2.850   3.035 -1.5228 -0.6712  2.9889
 3942SOL     OW23458   1.649   4.568   7.924  0.2394 -0.2301  0.2190
 3942SOL    HW123459   1.607   4.611   7.850  0.4794  1.1821  0.9001
 3942SOL    HW223460   1.665   4.478   7.896  1.4037  0.7386 -2.1979
 3943SOL     OW23461   1.077   1.349   8.022  0.2339  0.3236 -0.8567
 3943SOL    HW123462   1.058   1.291   7.947 -0.4280 -1.0933  0.4169
 3943SOL    HW223463   1.048   1.303   8.101  0.6562  0.8743 -0.3852
 3944SOL     OW23464   2.894   3.012   3.721  0.2396 -0.0364  0.2779
 3944SOL    HW123465   2.847   3.028   3.639  1.9232  1.0680 -0.5070
 3944SOL    HW223466   2.917   2.919   3.715  0.4124  0.0072  0.2381
 3945SOL     OW23467   2.341   1.060   9.047  0.4208 -0.0375 -0.2294
 3945SOL    HW123468   2.301   1.050   8.961 -0.6904 -0.8078  0.3907
 3945SOL    HW223469   2.433   1.037   9.033  0.2592 -0.5681 -0.4124
 3946SOL     OW23470   3.650   3.458   6.817 -0.3648 -0.0921  0.2706
 3946SOL    HW123471   3.566   3.427   6.785 -0.7659  2.3061 -0.9772
 3946SOL    HW223472   3.692   3.455   6.731  1.4641 -1.9650  1.2257
 3947SOL     OW23473   1.544   2.008   5.459 -0.7687 -0.5285 -0.6171
 3947SOL    HW123474   1.463   1.973   5.495 -0.4109  0.3226  1.0112
 3947SOL    HW223475   1.511   2.040   5.375  0.4591 -0.1044 -0.9399
 3948SOL     OW23476   2.769   1.299  17.220 -0.1501  0.1527  0.1661
 3948SOL    HW123477   2.813   1.278  17.137 -0.0785  0.0959  0.2184
 3948SOL    HW223478   2.682   1.260  17.207 -0.0484  0.1334 -0.4659
 3949SOL     OW23479   0.203   3.669   0.255 -0.0550 -0.4714 -0.3735
 3949SOL    HW123480   0.168   3.751   0.289  2.8740  0.3693  0.6542
 3949SOL    HW223481   0.203   3.689   0.161 -0.8893 -0.3302 -0.3414
 3950SOL     OW23482   0.287   2.422   8.677  0.1425 -0.3851  0.7657
 3950SOL    HW123483   0.301   2.451   8.767  3.3087  0.1791  0.1048
 3950SOL    HW223484   0.227   2.349   8.694 -1.5946  1.2686  1.7733
 3951SOL     OW23485   4.528   3.399   4.575 -0.4523  0.3292  0.8687
 3951SOL    HW123486   4.537   3.419   4.668 -0.3400 -1.7056  1.2915
 3951SOL    HW223487   4.435   3.382   4.558 -0.0433 -0.1109 -0.9256
 3952SOL     OW23488   3.874   1.520   4.784 -0.4134 -0.0585 -0.1953
 3952SOL    HW123489   3.786   1.499   4.816 -0.3627 -2.1867 -1.4909
 3952SOL    HW223490   3.843   1.598   4.739  0.0376 -0.1174 -0.6016
 3953SOL     OW23491   1.443   2.099  14.635  0.1279  0.0755  0.6684
 3953SOL    HW123492   1.419   2.178  14.684 -0.0842 -0.5267  1.5346
 3953SOL    HW223493   1.536   2.097  14.657  0.4126 -0.9762 -0.5914
 3954SOL     OW23494   2.607   0.002   5.489  0.1369 -0.0738  0.2779
 3954SOL    HW123495   2.667   0.062   5.445  0.5861 -0.8443 -0.1465
 3954SOL    HW223496   2.603   4.668   5.428  2.3273 -0.2338  0.3319
 3955SOL     OW23497   0.270   1.994   3.956  0.2443 -0.3549  0.0326
 3955SOL    HW123498   0.252   1.943   4.035 -0.3094 -0.3217 -0.0673
 3955SOL    HW223499   0.178   2.017   3.938 -0.1613 -0.9127  1.3740
 3956SOL     OW23500   2.370   2.918  10.163 -0.6536 -0.3706  0.2482
 3956SOL    HW123501   2.329   2.987  10.111 -1.1740  0.7483  2.1162
 3956SOL    HW223502   2.447   2.895  10.111  0.2626 -2.6642  2.6494
 3957SOL     OW23503   3.597   3.611   4.986  0.3130  0.2365  0.1692
 3957SOL    HW123504   3.614   3.520   4.962 -0.8769 -0.0356  0.3357
 3957SOL    HW223505   3.672   3.627   5.043  0.8864 -0.3539 -0.4304
 3958SOL     OW23506   3.598   1.284  12.229 -0.3856 -0.7183  0.4059
 3958SOL    HW123507   3.594   1.190  12.247  0.0101 -1.0911 -1.4642
 3958SOL    HW223508   3.636   1.287  12.142 -0.2228  1.3515  0.5562
 3959SOL     OW23509   0.879   4.443   3.965  0.3786  0.2407 -0.1260
 3959SOL    HW123510   0.815   4.514   3.960 -0.8095 -0.7871  0.5930
 3959SOL    HW223511   0.958   4.493   3.944  0.8439 -1.4505 -2.4193
 3960SOL     OW23512   3.370   1.579   6.039  0.0406  0.0817 -0.2634
 3960SOL    HW123513   3.336   1.602   6.126  0.4773 -3.0950  0.7671
 3960SOL    HW223514   3.461   1.549   6.040 -0.4760 -1.4391  1.6405
 3961SOL     OW23515   0.539   0.851   0.114  0.1016 -0.3722  0.1381
 3961SOL    HW123516   0.506   0.927   0.067  2.6947  0.7252  0.0981
 3961SOL    HW223517   0.625   0.880   0.143 -1.2644  2.8105  1.0160
 3962SOL     OW23518   3.562   1.589   2.589 -0.1863  0.4199  0.2201
 3962SOL    HW123519   3.512   1.670   2.602 -2.3993 -0.5267 -2.3419
 3962SOL    HW223520   3.545   1.575   2.496  0.1643 -0.8669  0.3454
 3963SOL     OW23521   1.564   4.636   7.380 -0.0829  0.2907  0.0021
 3963SOL    HW123522   1.511   4.560   7.406 -0.9130  1.0727  0.6033
 3963SOL    HW223523   1.517   4.711   7.415 -0.1586  0.0434  0.4361
 3964SOL     OW23524   0.238   0.565   4.281  0.3483  0.1761 -0.5803
 3964SOL    HW123525   0.216   0.528   4.196 -3.7835 -0.3290  0.7005
 3964SOL    HW223526   0.326   0.599   4.262  0.6144 -0.7945 -1.1180
 3965SOL     OW23527   3.882   3.285   8.961 -0.2659  0.8031  0.3866
 3965SOL    HW123528   3.818   3.232   9.009 -0.5806  1.6844  0.9300
 3965SOL    HW223529   3.909   3.216   8.900 -3.2863  0.1010 -0.1543
 3966SOL     OW23530   1.106   1.132   4.780 -0.3225  0.0588 -0.0591
 3966SOL    HW123531   1.018   1.094   4.779  1.9431 -5.1149  1.3430
 3966SOL    HW223532   1.116   1.183   4.699  0.6849  1.4646  0.9521
 3967SOL     OW23533   4.481   2.116   8.378 -0.0630 -0.3228 -0.6162
 3967SOL    HW123534   4.534   2.100   8.300  0.0554 -0.1362 -0.5742
 3967SOL    HW223535   4.413   2.162   8.329 -0.4955 -0.3793 -0.0729
 3968SOL     OW23536   1.488   4.344   6.499  0.1783  0.2245 -0.2976
 3968SOL    HW123537   1.517   4.428   6.533  0.1985 -0.1779  0.6813
 3968SOL    HW223538   1.482   4.358   6.404 -1.9254  0.6468 -0.0947
 3969SOL     OW23539   2.622   3.735  14.312  0.4717  0.4012  0.2082
 3969SOL    HW123540   2.663   3.814  14.348  0.1288  0.8707 -0.4500
 3969SOL    HW223541   2.653   3.733  14.222  1.2330  1.4201  0.4434
 3970SOL     OW23542   0.759   3.805   4.667 -0.0288  0.0624 -0.0829
 3970SOL    HW123543   0.724   3.754   4.740 -0.3077  1.0605  0.4794
 3970SOL    HW223544   0.681   3.822   4.614  0.7057  0.6123 -0.9944
 3971SOL     OW23545   1.207   0.338  15.047 -0.2807  0.1497 -0.7297
 3971SOL    HW123546   1.258   0.402  15.097  1.4617 -0.8480 -1.2380
 3971SOL    HW223547   1.265   0.312  14.975  0.1525  0.5277 -0.5132
 3972SOL     OW23548   0.394   0.409   2.574  0.2668 -0.8184  0.8349
 3972SOL    HW123549   0.398   0.315   2.590  2.6852 -0.2627  3.4726
 3972SOL    HW223550   0.361   0.427   2.662 -2.4079  1.3497 -0.5690
 3973SOL     OW23551   3.629   3.975  13.460 -0.4265  0.4959 -0.4549
 3973SOL    HW123552   3.668   4.049  13.507  1.7019 -0.2506 -1.0514
 3973SOL    HW223553   3.703   3.967  13.400 -3.5625 -1.6651 -4.0162
 3974SOL     OW23554   3.487   2.854   6.669  0.2304  0.1967 -0.5697
 3974SOL    HW123555   3.444   2.830   6.751  1.2758  2.0956  0.5222
 3974SOL    HW223556   3.571   2.808   6.668  0.1795  0.0607  1.4652
 3975SOL     OW23557   2.080   4.269   3.646 -0.2805  0.7352 -0.1767
 3975SOL    HW123558   2.108   4.179   3.629 -2.0766  0.3555 -1.0384
 3975SOL    HW223559   2.161   4.315   3.668  0.1699 -0.5678  0.8753
 3976SOL     OW23560   4.306   0.772   2.342 -0.2632 -0.3743 -0.1381
 3976SOL    HW123561   4.379   0.710   2.339 -0.2497 -0.3616 -0.0698
 3976SOL    HW223562   4.339   0.845   2.394 -2.5181  1.0615 -0.7624
 3977SOL     OW23563   2.354   0.815  13.621  0.5227  0.2751 -0.0713
 3977SOL    HW123564   2.389   0.865  13.694  1.4292  4.4532 -3.3413
 3977SOL    HW223565   2.396   0.730  13.632 -1.4768 -0.5464  1.2043
 3978SOL     OW23566   2.717   3.153   2.169 -0.1092  0.1638 -0.2258
 3978SOL    HW123567   2.732   3.211   2.244  0.9315 -1.6419  0.9629
 3978SOL    HW223568   2.648   3.103   2.212 -1.3847  0.9445 -1.3450
 3979SOL     OW23569   0.212   1.493   4.416 -0.6438  0.3763  0.1310
 3979SOL    HW123570   0.228   1.568   4.359  3.0599  0.0867  0.7998
 3979SOL    HW223571   0.203   1.427   4.348 -0.7963  1.7155 -1.1484
 3980SOL     OW23572   2.278   2.562   8.174  0.2924 -0.2136  0.1315
 3980SOL    HW123573   2.320   2.638   8.134 -2.9728  2.4641  1.7772
 3980SOL    HW223574   2.351   2.520   8.221 -0.3889  0.9839  2.2663
 3981SOL     OW23575   1.799   3.616   3.622 -0.0011 -0.3665  0.7344
 3981SOL    HW123576   1.880   3.565   3.615  1.0012  1.2434  0.5702
 3981SOL    HW223577   1.778   3.648   3.535  3.4863  1.7713  0.6829
 3982SOL     OW23578   3.847   4.291   2.943  0.2758 -0.8327  0.2870
 3982SOL    HW123579   3.775   4.232   2.965  0.0958 -0.7506 -0.0720
 3982SOL    HW223580   3.824   4.356   3.009  0.0081  0.2946 -0.9090
 3983SOL     OW23581   2.219   0.880  17.697  0.0818 -0.1091 -0.3729
 3983SOL    HW123582   2.166   0.874  17.618  0.8293 -3.2851 -0.6091
 3983SOL    HW223583   2.287   0.943  17.672 -0.5154  0.9849  0.7097
 3984SOL     OW23584   1.091   1.452  14.396 -0.2540  0.4849  0.2631
 3984SOL    HW123585   1.164   1.514  14.386  0.2206 -0.1653 -0.2723
 3984SOL    HW223586   1.013   1.508  14.402 -1.7521 -1.5225 -0.3391
 3985SOL     OW23587   4.667   1.230   1.694  0.6633 -0.5722  0.2470
 3985SOL    HW123588   0.014   1.188   1.699  2.3941  3.0193  0.2314
 3985SOL    HW223589   4.696   1.310   1.651  2.1156 -0.3486  1.6441
 3986SOL     OW23590   0.187   3.222   9.393  0.4273  0.4223 -0.5020
 3986SOL    HW123591   0.229   3.137   9.379  0.2279  0.1359  0.6883
 3986SOL    HW223592   0.246   3.277   9.342 -1.1560  1.0503 -1.6464
 3987SOL     OW23593   3.869   1.944   3.200 -0.7762 -0.4439 -0.2121
 3987SOL    HW123594   3.815   1.869   3.176 -0.4929 -0.3446 -1.1435
 3987SOL    HW223595   3.852   1.940   3.294  0.4205  0.5398  0.0511
 3988SOL     OW23596   4.370   0.179  11.031  0.1408  0.2703 -0.3178
 3988SOL    HW123597   4.365   0.175  10.935 -0.4179  0.9907 -0.3216
 3988SOL    HW223598   4.441   0.239  11.055  0.7378 -1.0956  1.3438
 3989SOL     OW23599   4.289   1.036  10.964  0.2193  0.3400 -0.0387
 3989SOL    HW123600   4.369   1.069  11.005  1.2287 -1.4043 -0.5819
 3989SOL    HW223601   4.213   1.079  11.004  0.3014  0.9307 -0.5108
 3990SOL     OW23602   0.460   1.030  13.046  0.1857  0.3733  0.2763
 3990SOL    HW123603   0.533   0.994  12.996  0.6927  1.3600  0.3137
 3990SOL    HW223604   0.442   1.108  12.995 -1.1566 -0.3695 -0.3797
 3991SOL     OW23605   4.153   2.832  14.571 -0.1577  0.5255 -0.4661
 3991SOL    HW123606   4.165   2.759  14.511  1.4662  0.3842  0.0291
 3991SOL    HW223607   4.066   2.867  14.551  0.5619  3.1220  0.8785
 3992SOL     OW23608   1.570   0.262  10.820 -0.6705 -0.0063 -0.0054
 3992SOL    HW123609   1.489   0.213  10.831 -0.4058 -0.5809 -0.6098
 3992SOL    HW223610   1.541   0.334  10.765 -1.0030  0.2110  0.4565
 3993SOL     OW23611   2.785   1.698   1.961  0.0580  0.0698 -0.0708
 3993SOL    HW123612   2.706   1.704   1.908 -0.2816  0.8132  0.5204
 3993SOL    HW223613   2.786   1.607   1.988  0.3458 -0.0275 -0.3980
 3994SOL     OW23614   0.229   2.197   6.731 -0.7909  0.0884  0.1343
 3994SOL    HW123615   0.191   2.245   6.805 -0.0361  1.1615 -0.1652
 3994SOL    HW223616   0.157   2.136   6.716 -2.0900  1.1015  2.3840
 3995SOL     OW23617   4.108   2.949   8.152 -0.0172  0.7353  0.3243
 3995SOL    HW123618   4.153   3.025   8.188 -1.2909  0.3512  2.8015
 3995SOL    HW223619   4.057   2.916   8.227 -0.9158  0.2556 -0.4929
 3996SOL     OW23620   4.050   1.458   8.348  0.4801 -0.1057  0.3120
 3996SOL    HW123621   4.089   1.401   8.414  1.4256  0.5028  0.2799
 3996SOL    HW223622   4.129   1.493   8.307  0.3041 -0.3657 -0.2493
 3997SOL     OW23623   4.287   2.330   3.618 -0.5914  0.0955 -0.4904
 3997SOL    HW123624   4.345   2.266   3.575 -1.2779 -0.7509 -0.1591
 3997SOL    HW223625   4.334   2.343   3.701  0.5470 -0.9314 -0.9646
 3998SOL     OW23626   4.095   4.235   9.399 -0.0652 -0.1938  0.5107
 3998SOL    HW123627   4.102   4.192   9.484  0.1304  0.0631  0.6245
 3998SOL    HW223628   4.010   4.278   9.404 -0.3726 -0.6848 -0.5626
 3999SOL     OW23629   0.261   3.827   8.125 -0.0478  0.5183  0.6335
 3999SOL    HW123630   0.192   3.826   8.192 -0.8421  3.4421 -0.1296
 3999SOL    HW223631   0.222   3.778   8.053 -0.2520  1.4035  0.1347
 4000SOL     OW23632   2.667   1.612  13.562  0.0039 -0.4922  0.4608
 4000SOL    HW123633   2.635   1.655  13.483 -0.6484  1.2352  1.6479
 4000SOL    HW223634   2.613   1.665  13.621 -1.2135 -2.4748  1.1138
 4001SOL     OW23635   3.133   1.100   8.923 -0.8153  0.4375  0.8402
 4001SOL    HW123636   3.225   1.083   8.907 -0.9596  0.5208 -0.0683
 4001SOL    HW223637   3.095   1.026   8.877 -0.7654  0.4005  0.8596
 4002SOL     OW23638   0.638   1.168  17.543 -0.2966  0.0861  0.0169
 4002SOL    HW123639   0.557   1.135  17.583  1.9341 -2.1083  2.8136
 4002SOL    HW223640   0.691   1.191  17.620  1.2437 -1.0732 -0.7014
 4003SOL     OW23641   0.539   3.503   8.788  0.1721 -0.0764 -0.0686
 4003SOL    HW123642   0.507   3.557   8.716 -1.8176  0.5755  1.3082
 4003SOL    HW223643   0.512   3.417   8.756 -1.7286  0.5350 -0.0933
 4004SOL     OW23644   0.551   0.818   8.312  0.1682 -0.4270 -0.0369
 4004SOL    HW123645   0.571   0.898   8.361 -0.3378 -0.3914  0.1117
 4004SOL    HW223646   0.633   0.770   8.320  0.1344 -0.6716 -1.1930
 4005SOL     OW23647   0.806   2.202   2.671  0.3883  0.1087  0.1540
 4005SOL    HW123648   0.832   2.171   2.584 -0.1484  1.6103 -0.5396
 4005SOL    HW223649   0.723   2.157   2.689  0.4309 -0.1838 -0.3880
 4006SOL     OW23650   0.684   1.197   4.894  0.0083  0.1464  0.4404
 4006SOL    HW123651   0.604   1.246   4.874  1.0816  0.9993 -1.7917
 4006SOL    HW223652   0.685   1.196   4.990 -0.5332  0.1382  0.4473
 4007SOL     OW23653   4.619   3.707  15.849 -0.2018  0.0794  0.3745
 4007SOL    HW123654   4.628   3.618  15.884 -0.3644 -0.3979 -0.7903
 4007SOL    HW223655   4.567   3.696  15.770  0.6996  0.6005 -0.2812
 4008SOL     OW23656   2.443   0.546  13.616  0.1836 -0.2379 -0.8023
 4008SOL    HW123657   2.483   0.468  13.578  1.1989 -0.4032  0.5845
 4008SOL    HW223658   2.412   0.521  13.703  0.9592  0.3699 -0.3533
 4009SOL     OW23659   2.912   0.142   6.829  0.0788 -0.1844 -0.1988
 4009SOL    HW123660   3.007   0.145   6.847  0.2410  0.4253 -1.1634
 4009SOL    HW223661   2.882   0.080   6.895 -0.4644 -0.8381 -1.0741
 4010SOL     OW23662   0.984   2.675   4.578  0.5054 -0.3086  0.3621
 4010SOL    HW123663   1.071   2.635   4.573  1.4913  1.9087 -0.5893
 4010SOL    HW223664   0.935   2.595   4.595 -1.0971  0.3364 -1.2941
 4011SOL     OW23665   2.138   0.196  14.946  0.3594  0.2326  0.8795
 4011SOL    HW123666   2.156   0.156  14.861 -2.2911  1.3588 -0.2272
 4011SOL    HW223667   2.047   0.174  14.966  0.1129 -1.0881 -1.7635
 4012SOL     OW23668   3.767   0.727   9.526 -0.0547 -0.0696 -0.0116
 4012SOL    HW123669   3.740   0.745   9.616  0.1052  0.7464 -0.1305
 4012SOL    HW223670   3.826   0.653   9.542  2.7399  2.6055  1.8926
 4013SOL     OW23671   2.871   4.414   1.378 -0.0749  1.0345 -0.4533
 4013SOL    HW123672   2.887   4.421   1.472 -0.6673 -0.6798 -0.2303
 4013SOL    HW223673   2.946   4.457   1.338  1.9282 -1.4936  0.5760
 4014SOL     OW23674   0.885   2.011   5.005 -0.4178 -0.0838  0.0558
 4014SOL    HW123675   0.803   1.985   5.047 -0.6929  1.0254  0.2131
 4014SOL    HW223676   0.853   2.094   4.969  0.3235  0.1676 -0.0069
 4015SOL     OW23677   2.984   1.685   7.126  0.0790  0.1774 -0.0548
 4015SOL    HW123678   2.966   1.595   7.149 -0.2053  0.0278 -0.8523
 4015SOL    HW223679   3.079   1.683   7.139  0.0401 -0.5202  0.0775
 4016SOL     OW23680   1.576   3.716  15.251  0.9420 -0.1280  0.0190
 4016SOL    HW123681   1.554   3.626  15.226 -1.6110  1.2228 -2.5982
 4016SOL    HW223682   1.561   3.752  15.163  0.6256  1.6693  0.8012
 4017SOL     OW23683   1.404   1.281   2.065  0.4097  0.0729  0.5135
 4017SOL    HW123684   1.371   1.191   2.054  0.3604  0.0577  0.7803
 4017SOL    HW223685   1.484   1.269   2.013  0.3046  0.4984  0.2567
 4018SOL     OW23686   1.132   2.419  11.102  0.6378 -0.0286 -0.1943
 4018SOL    HW123687   1.155   2.383  11.016  2.7218  2.3406 -0.6129
 4018SOL    HW223688   1.213   2.398  11.149  0.4433 -0.5924 -0.1043
 4019SOL     OW23689   1.356   4.625   5.343 -0.0932  0.2334 -0.2976
 4019SOL    HW123690   1.351   4.675   5.261 -1.0665 -0.0698 -0.4280
 4019SOL    HW223691   1.277   4.570   5.344 -1.5960  2.4174 -0.3339
 4020SOL     OW23692   0.907   2.568  12.645 -0.1896  0.1210 -0.4652
 4020SOL    HW123693   0.973   2.573  12.577 -0.5917 -1.3396 -0.9652
 4020SOL    HW223694   0.824   2.589  12.601  0.2385  3.3773  0.3003
 4021SOL     OW23695   2.288   0.433   2.506 -0.1765  0.0287  0.4566
 4021SOL    HW123696   2.274   0.360   2.567  1.2549 -2.0541 -1.6932
 4021SOL    HW223697   2.366   0.477   2.540  0.0367 -0.3303  0.4339
 4022SOL     OW23698   1.167   0.182   8.967 -0.3928  0.4476  0.0535
 4022SOL    HW123699   1.171   0.168   9.061  0.4567  0.1702 -0.0242
 4022SOL    HW223700   1.226   0.111   8.942  0.8702  1.2648  0.7438
 4023SOL     OW23701   0.703   2.451   2.858 -0.2289 -0.0216 -0.1030
 4023SOL    HW123702   0.728   2.376   2.804 -1.6223  0.3655 -1.3105
 4023SOL    HW223703   0.630   2.426   2.914 -0.3567 -2.0327 -1.1675
 4024SOL     OW23704   4.507   0.205   8.180 -0.0615  0.0247 -0.1997
 4024SOL    HW123705   4.418   0.239   8.180  0.3250  1.0211 -0.7244
 4024SOL    HW223706   4.537   0.193   8.089 -0.8075 -1.0901 -0.3049
 4025SOL     OW23707   0.502   0.240  11.251  0.3162  0.2718 -0.1048
 4025SOL    HW123708   0.485   0.156  11.295  0.8317 -0.1352 -0.6910
 4025SOL    HW223709   0.579   0.233  11.194  1.0330 -0.9067  0.9956
 4026SOL     OW23710   1.329   1.866   6.299  0.4170 -0.1033  0.0563
 4026SOL    HW123711   1.369   1.894   6.217 -0.8907  1.4588 -0.0441
 4026SOL    HW223712   1.337   1.771   6.293 -2.3922 -0.3710  0.6056
 4027SOL     OW23713   1.451   4.526   5.563 -0.4836 -0.2776 -0.3525
 4027SOL    HW123714   1.413   4.568   5.640 -0.4556  0.3251 -0.6666
 4027SOL    HW223715   1.414   4.573   5.488  0.4605  0.4399 -0.3725
 4028SOL     OW23716   1.346   1.366   4.946  0.3205  0.4996  0.3884
 4028SOL    HW123717   1.305   1.408   4.870  4.0845 -2.2215 -3.1407
 4028SOL    HW223718   1.326   1.426   5.018 -2.6371 -0.5650  0.4613
 4029SOL     OW23719   1.374   3.271   4.163 -0.3996  0.6801  0.3510
 4029SOL    HW123720   1.385   3.333   4.091 -3.7849 -1.1528 -1.7807
 4029SOL    HW223721   1.316   3.204   4.127 -0.5253 -0.1949  2.1893
 4030SOL     OW23722   2.895   2.495   8.792  0.1787  0.2716  0.0862
 4030SOL    HW123723   2.930   2.520   8.706  2.0167 -1.8321  0.2226
 4030SOL    HW223724   2.927   2.405   8.798  1.4464  0.4251 -4.5271
 4031SOL     OW23725   3.777   4.590   7.534 -0.0085  0.4428 -0.0189
 4031SOL    HW123726   3.828   4.612   7.613 -2.1195  1.6035  1.0231
 4031SOL    HW223727   3.778   4.495   7.533 -1.8479  0.4339  0.3713
 4032SOL     OW23728   4.318   3.327   3.487  0.1226  0.2413  0.0287
 4032SOL    HW123729   4.404   3.361   3.464  1.5261 -2.4089  1.3102
 4032SOL    HW223730   4.339   3.317   3.580 -1.2986 -4.3639 -0.1593
 4033SOL     OW23731   4.157   3.965  16.778 -0.1972  0.5961  0.1864
 4033SOL    HW123732   4.181   3.880  16.741 -1.8779  0.4608 -0.5614
 4033SOL    HW223733   4.086   3.944  16.838 -0.2657  1.7845  0.5144
 4034SOL     OW23734   4.703   0.322   7.932 -0.2937 -0.5915  0.0279
 4034SOL    HW123735   4.691   0.349   7.841  1.4693  2.2873  0.6424
 4034SOL    HW223736   4.698   0.227   7.922 -0.4560 -0.5774 -0.0257
 4035SOL     OW23737   1.037   2.275   1.354 -0.2133 -0.1853  0.4100
 4035SOL    HW123738   0.990   2.238   1.279  0.7695  2.6334 -1.6174
 4035SOL    HW223739   1.028   2.209   1.422 -1.7518  0.2776  0.6633
 4036SOL     OW23740   3.740   2.199   5.251  0.3536 -0.4805 -0.2140
 4036SOL    HW123741   3.710   2.142   5.322  0.8728 -0.8167 -0.2638
 4036SOL    HW223742   3.766   2.283   5.289 -0.0373 -0.6360  0.4021
 4037SOL     OW23743   2.099   3.013   3.137  0.0863  0.7115 -0.3388
 4037SOL    HW123744   2.049   3.064   3.201  2.4617  2.7481 -0.1055
 4037SOL    HW223745   2.069   2.924   3.158  0.6042  0.7069  0.4061
 4038SOL     OW23746   0.716   2.310   8.552  0.6336 -0.1061  0.3774
 4038SOL    HW123747   0.666   2.270   8.481 -0.7210  0.0298  1.2530
 4038SOL    HW223748   0.769   2.374   8.505 -1.1948 -0.7741 -2.5909
 4039SOL     OW23749   3.322   3.901  15.705  0.3691  0.2329 -0.4714
 4039SOL    HW123750   3.258   3.893  15.776  0.9465 -1.5560 -0.1404
 4039SOL    HW223751   3.279   3.866  15.628  0.8610 -0.3284 -0.4961
 4040SOL     OW23752   3.099   3.123  10.309 -0.2846  0.4020  0.1941
 4040SOL    HW123753   3.062   3.170  10.384  1.8964  1.6871  0.4669
 4040SOL    HW223754   3.090   3.188  10.240 -1.0864  1.3090  1.1439
 4041SOL     OW23755   3.922   3.633   7.293 -0.8217 -0.1857  0.0083
 4041SOL    HW123756   3.999   3.612   7.347 -1.1888  0.4742  0.7896
 4041SOL    HW223757   3.898   3.542   7.273  1.3990 -0.9737  0.8393
 4042SOL     OW23758   2.851   3.488   1.806  0.3073 -1.1925  0.1977
 4042SOL    HW123759   2.864   3.397   1.831  0.9412 -0.6017  2.0100
 4042SOL    HW223760   2.915   3.526   1.866  0.0694 -2.4377  1.2487
 4043SOL     OW23761   2.815   3.043   7.419 -0.4528  0.1110  0.1473
 4043SOL    HW123762   2.749   3.110   7.433 -0.2992  0.1582  0.6338
 4043SOL    HW223763   2.826   3.043   7.323  0.8746  1.9688  0.2949
 4044SOL     OW23764   4.109   1.164   2.382  0.3771 -0.2061 -0.2190
 4044SOL    HW123765   4.072   1.200   2.463  4.4397  0.4653  1.3090
 4044SOL    HW223766   4.032   1.117   2.349  0.4036 -0.5700  0.2364
 4045SOL     OW23767   4.498   4.360   4.168  0.9035 -0.1945 -0.5851
 4045SOL    HW123768   4.517   4.276   4.211  0.1101 -1.2381 -2.2828
 4045SOL    HW223769   4.412   4.376   4.209  0.9900  2.5047 -1.4592
 4046SOL     OW23770   4.288   0.615   3.786  0.1248 -0.0740  0.6678
 4046SOL    HW123771   4.282   0.683   3.853  0.1076 -0.1145  0.7073
 4046SOL    HW223772   4.214   0.558   3.809  0.0135  0.8297  2.5403
 4047SOL     OW23773   1.115   0.485   4.503 -0.5226 -0.2877  0.4917
 4047SOL    HW123774   1.189   0.540   4.477 -0.7945  0.4956  1.3448
 4047SOL    HW223775   1.057   0.491   4.427  0.5040  1.8011 -0.1416
 4048SOL     OW23776   3.125   3.789   6.672 -0.6014 -0.4983 -0.3004
 4048SOL    HW123777   3.155   3.878   6.655 -1.3870 -0.1241  0.3018
 4048SOL    HW223778   3.168   3.736   6.605 -0.5860  0.5726 -1.1247
 4049SOL     OW23779   1.339   1.745   7.328  0.0660 -0.0424 -0.7635
 4049SOL    HW123780   1.318   1.653   7.308 -0.5977 -0.2118  0.6810
 4049SOL    HW223781   1.331   1.747   7.424  0.3733  1.4238 -0.7745
 4050SOL     OW23782   3.375   0.580   2.210  0.0827  0.4701  0.0819
 4050SOL    HW123783   3.284   0.583   2.237 -0.0603  3.6630 -0.7268
 4050SOL    HW223784   3.379   0.504   2.152  1.1787  0.6939 -0.1436
 4051SOL     OW23785   1.279   2.757  14.778 -0.5106  0.4708  0.1315
 4051SOL    HW123786   1.188   2.784  14.791 -0.3434  1.2885 -0.4036
 4051SOL    HW223787   1.276   2.665  14.804 -0.3169  0.5156  0.3130
 4052SOL     OW23788   1.681   1.350  15.730 -0.1206 -0.1633 -0.3394
 4052SOL    HW123789   1.743   1.277  15.735  1.1531  1.0282  1.0298
 4052SOL    HW223790   1.747   1.413  15.704 -1.2527  0.9101 -0.5926
 4053SOL     OW23791   2.591   2.143  14.627 -0.2576  0.1182 -0.7475
 4053SOL    HW123792   2.515   2.107  14.581  0.3767 -2.5386  0.2727
 4053SOL    HW223793   2.637   2.194  14.559 -1.1276  1.7977 -0.0739
 4054SOL     OW23794   0.893   2.934   6.437 -0.0261 -0.5680 -0.1386
 4054SOL    HW123795   0.887   2.901   6.526 -0.4786  1.0033  0.4155
 4054SOL    HW223796   0.854   2.862   6.387  1.6941 -0.7523 -1.2294
 4055SOL     OW23797   2.015   0.418   4.046 -0.8051  0.1505 -0.2608
 4055SOL    HW123798   2.070   0.369   3.985 -3.3057  0.0528 -2.4719
 4055SOL    HW223799   2.079   0.463   4.101  1.8754  1.2566 -4.2856
 4056SOL     OW23800   2.426   0.452   3.296  0.2243 -0.7784  0.3435
 4056SOL    HW123801   2.361   0.470   3.229  1.2703 -0.7504 -0.6491
 4056SOL    HW223802   2.507   0.492   3.264 -0.7736  0.2719 -0.8544
 4057SOL     OW23803   3.314   2.288   9.922 -0.1101 -0.4750 -0.2198
 4057SOL    HW123804   3.370   2.223   9.964 -2.8225 -1.8667  1.2021
 4057SOL    HW223805   3.333   2.361   9.980  2.6226 -0.4534 -1.1203
 4058SOL     OW23806   3.904   3.082   2.832 -0.1655 -0.0749  0.2191
 4058SOL    HW123807   3.989   3.103   2.871  0.1615 -0.3379 -0.3580
 4058SOL    HW223808   3.910   2.987   2.843  0.7765 -0.0433  0.0507
 4059SOL     OW23809   0.395   3.639   9.363  0.4090  0.4716  0.4765
 4059SOL    HW123810   0.311   3.674   9.333 -0.3715 -0.7281  1.2590
 4059SOL    HW223811   0.402   3.683   9.447  0.2479 -0.4252  0.9572
 4060SOL     OW23812   1.586   2.977   3.781  0.6519  0.1535 -0.0923
 4060SOL    HW123813   1.503   3.025   3.789  0.3702 -0.5919  1.4257
 4060SOL    HW223814   1.636   3.053   3.810 -0.3767  0.3576  1.1345
 4061SOL     OW23815   3.845   4.693  10.625  0.2138  0.2880 -0.3664
 4061SOL    HW123816   3.894   4.718  10.547  0.2938 -1.9512 -1.0430
 4061SOL    HW223817   3.909   4.644  10.677  0.0415 -0.1101 -0.5307
 4062SOL     OW23818   2.476   2.028   3.371 -0.6028  0.1544  0.4361
 4062SOL    HW123819   2.503   2.002   3.459 -1.9869 -3.9596 -0.3558
 4062SOL    HW223820   2.384   2.005   3.383 -0.4429 -1.5414 -1.6085
 4063SOL     OW23821   0.388   0.122   8.240  0.2700  0.1474 -0.6530
 4063SOL    HW123822   0.397   0.213   8.266  0.7296 -0.2748  0.6279
 4063SOL    HW223823   0.292   0.121   8.239  0.2540  1.1261  0.6492
 4064SOL     OW23824   3.249   0.389   5.762 -0.0541 -0.3040  0.0376
 4064SOL    HW123825   3.162   0.355   5.743  0.2210 -1.3999  0.7862
 4064SOL    HW223826   3.297   0.325   5.709  1.2684  1.4830 -0.9737
 4065SOL     OW23827   0.794   1.946   1.793  0.4298  0.5728 -0.8251
 4065SOL    HW123828   0.862   1.915   1.733 -2.4574 -2.1113 -2.6948
 4065SOL    HW223829   0.789   1.872   1.853  0.9001  2.1170  1.1004
 4066SOL     OW23830   1.924   2.217  14.255  0.6892 -1.0515  0.4891
 4066SOL    HW123831   1.884   2.176  14.178 -0.0447  1.2980 -0.3646
 4066SOL    HW223832   1.846   2.261  14.290  0.4134 -0.4272 -0.9414
 4067SOL     OW23833   2.638   1.759   2.992  0.5350  0.2995  0.0524
 4067SOL    HW123834   2.611   1.742   2.902 -0.2441 -3.2847  0.9164
 4067SOL    HW223835   2.727   1.787   2.973  0.2439  0.3605 -1.1984
 4068SOL     OW23836   1.059   2.298   8.714  0.3543 -0.5542  0.1383
 4068SOL    HW123837   1.074   2.214   8.670 -1.9982  0.8114 -3.3184
 4068SOL    HW223838   1.055   2.273   8.806  1.4255  0.1376  0.3836
 4069SOL     OW23839   0.429   2.152   4.429  0.1121 -0.1646 -0.2884
 4069SOL    HW123840   0.356   2.211   4.412 -0.3183 -1.0705 -1.5927
 4069SOL    HW223841   0.397   2.121   4.514 -0.3476 -0.6619 -0.6386
 4070SOL     OW23842   0.744   2.140   0.104  0.0820  0.3456  0.3134
 4070SOL    HW123843   0.820   2.094   0.140  0.0816 -1.5426 -2.1322
 4070SOL    HW223844   0.669   2.091   0.136 -0.1310  1.4330  1.4852
 4071SOL     OW23845   1.478   1.907  12.332 -0.2061  0.5524  0.0089
 4071SOL    HW123846   1.517   1.923  12.246 -1.1536  0.4074 -0.4490
 4071SOL    HW223847   1.494   1.813  12.342  3.4337  0.6480 -4.8162
 4072SOL     OW23848   3.906   3.772   6.033  0.2573  0.4860  0.3836
 4072SOL    HW123849   3.968   3.700   6.046  0.0512  0.2130 -0.1201
 4072SOL    HW223850   3.826   3.729   6.003  1.7420 -2.3588  0.5632
 4073SOL     OW23851   2.381   3.092   5.163  0.4389 -0.2300  0.0381
 4073SOL    HW123852   2.390   3.126   5.074 -0.0905  0.9863  0.4484
 4073SOL    HW223853   2.426   3.008   5.162  1.0569  0.1059 -0.8734
 4074SOL     OW23854   4.013   2.921   9.464  0.0407  0.3815  0.3865
 4074SOL    HW123855   4.066   2.998   9.444  1.1096 -0.1041  1.3735
 4074SOL    HW223856   3.994   2.881   9.379 -3.2294  0.0598  1.3113
 4075SOL     OW23857   1.791   3.116   0.260 -0.2991  0.4091  0.2646
 4075SOL    HW123858   1.757   3.181   0.200 -0.3391  2.6910  2.7423
 4075SOL    HW223859   1.815   3.049   0.196 -1.8537  0.2408 -0.1556
 4076SOL     OW23860   2.327   2.056   2.745 -0.3562  0.5854  0.0904
 4076SOL    HW123861   2.362   2.088   2.828  0.4908 -0.7391  0.2461
 4076SOL    HW223862   2.323   2.131   2.685 -2.7454  0.7751  0.4873
 4077SOL     OW23863   2.532   1.849   1.424  0.2159 -0.0607  0.8028
 4077SOL    HW123864   2.484   1.854   1.342 -0.3331 -0.6784  1.0888
 4077SOL    HW223865   2.463   1.807   1.476 -0.7878  0.8038  0.1634
 4078SOL     OW23866   2.609   2.676  11.093  0.1884 -0.2718  0.0077
 4078SOL    HW123867   2.624   2.693  11.000 -1.4661 -0.2508 -0.2466
 4078SOL    HW223868   2.689   2.701  11.140  0.2023 -1.3257  0.5461
 4079SOL     OW23869   0.966   4.448  11.871  0.6732 -0.5248  0.2391
 4079SOL    HW123870   1.003   4.507  11.805 -1.0444 -1.5059 -1.6131
 4079SOL    HW223871   0.907   4.402  11.811 -0.1222  0.5712  0.1586
 4080SOL     OW23872   3.493   0.228   6.670  0.3216  0.1181  0.4614
 4080SOL    HW123873   3.495   0.307   6.615 -2.6404 -0.1802 -0.0902
 4080SOL    HW223874   3.496   0.264   6.758  0.0385 -0.1244  0.5701
 4081SOL     OW23875   3.067   0.807   0.675 -0.0776  0.5955  0.2406
 4081SOL    HW123876   3.158   0.830   0.692 -0.3320  0.4462  1.7436
 4081SOL    HW223877   3.068   0.747   0.600  3.7557  0.4401  0.4526
 4082SOL     OW23878   3.986   1.747   0.404  0.9582 -0.5959 -0.4455
 4082SOL    HW123879   3.940   1.663   0.402 -1.2251  0.6188 -0.7344
 4082SOL    HW223880   3.923   1.803   0.361  1.8101  1.3971  0.9201
 4083SOL     OW23881   3.449   3.986   7.062 -0.1066 -0.9158 -0.5579
 4083SOL    HW123882   3.375   3.957   7.008 -0.8581  0.8019 -0.4353
 4083SOL    HW223883   3.419   4.074   7.082 -2.4841 -1.3633 -2.1375
 4084SOL     OW23884   3.838   2.064   6.345 -0.0953  0.2041  0.2447
 4084SOL    HW123885   3.801   2.002   6.408 -1.2601  0.6878  0.0346
 4084SOL    HW223886   3.923   2.093   6.377  0.2986  2.0668 -2.4667
 4085SOL     OW23887   3.598   2.759   9.238 -0.2030 -0.3730  0.2833
 4085SOL    HW123888   3.558   2.812   9.308  0.4456  0.7627 -0.2085
 4085SOL    HW223889   3.689   2.761   9.266 -0.0976  0.8509 -0.1831
 4086SOL     OW23890   1.227   3.239   9.193 -0.1389  0.0700 -0.0700
 4086SOL    HW123891   1.191   3.172   9.136  1.1518 -1.2764  0.6877
 4086SOL    HW223892   1.306   3.262   9.145 -0.6450  2.4195  0.2254
 4087SOL     OW23893   2.943   3.862   2.585 -0.2147  0.3574 -0.4164
 4087SOL    HW123894   3.007   3.807   2.539 -0.5600 -0.9064  0.6078
 4087SOL    HW223895   2.867   3.807   2.566 -0.3537  0.9186 -1.4790
 4088SOL     OW23896   2.661   1.965  16.668  0.3734  0.7344 -0.4969
 4088SOL    HW123897   2.650   2.055  16.638 -0.9229  1.2231  1.5101
 4088SOL    HW223898   2.664   1.993  16.759  2.5220 -1.7251  0.2150
 4089SOL     OW23899   4.646   3.411   9.803 -0.4287  0.2544  0.0951
 4089SOL    HW123900   4.738   3.431   9.785 -0.4759  0.1202 -0.2892
 4089SOL    HW223901   4.628   3.359   9.724 -0.4353  1.5631 -0.7725
 4090SOL     OW23902   1.843   3.257   9.689  0.3435 -0.1231 -0.2433
 4090SOL    HW123903   1.774   3.261   9.756  0.2710 -1.1473 -0.2584
 4090SOL    HW223904   1.848   3.349   9.663 -0.1726 -0.2220 -0.6712
 4091SOL     OW23905   4.224   2.069   2.690 -0.1822  0.2413 -0.3178
 4091SOL    HW123906   4.220   1.980   2.725  0.4543  0.2815 -0.1469
 4091SOL    HW223907   4.155   2.074   2.624  1.2940 -0.6017 -1.9320
 4092SOL     OW23908   2.625   2.190  12.946 -0.0102  0.2930  0.5073
 4092SOL    HW123909   2.585   2.121  12.999 -0.7225  0.1040 -0.2930
 4092SOL    HW223910   2.544   2.218  12.903  1.0582  0.6234 -1.2831
 4093SOL     OW23911   3.355   1.834   9.753  0.1649 -0.3934 -0.5590
 4093SOL    HW123912   3.437   1.841   9.704  1.6554  0.9096  2.1335
 4093SOL    HW223913   3.317   1.757   9.711  2.1910 -1.5553 -0.2115
 4094SOL     OW23914   0.386   4.077   5.225  0.8412  0.1253 -0.1198
 4094SOL    HW123915   0.310   4.023   5.203  0.2445  1.3396 -1.0351
 4094SOL    HW223916   0.354   4.166   5.208  1.1268  0.2251 -0.1264
 4095SOL     OW23917   0.801   3.784   3.862 -0.1909 -0.0219  0.2735
 4095SOL    HW123918   0.720   3.755   3.819 -0.9349 -0.2217  1.8116
 4095SOL    HW223919   0.836   3.697   3.881  0.7271  0.5690  1.2877
 4096SOL     OW23920   0.610   4.550  12.014  0.3386  0.1407 -0.1336
 4096SOL    HW123921   0.540   4.531  11.951 -3.3815 -2.4610  4.7698
 4096SOL    HW223922   0.591   4.495  12.090 -3.1805  0.9643 -0.3955
 4097SOL     OW23923   3.513   1.207   5.795  0.4688 -0.0930  0.0695
 4097SOL    HW123924   3.464   1.153   5.858 -1.8128  1.0431 -0.7231
 4097SOL    HW223925   3.587   1.147   5.794 -1.0661 -2.0607  2.5443
 4098SOL     OW23926   3.562   2.965  15.091 -0.2141 -0.5835  0.4481
 4098SOL    HW123927   3.560   2.870  15.101 -3.6764 -0.5832 -0.0049
 4098SOL    HW223928   3.533   2.988  15.179 -0.8962  0.2846 -0.0001
 4099SOL     OW23929   3.873   4.701   7.785 -0.2806 -0.2285  0.2568
 4099SOL    HW123930   3.924   4.673   7.862 -0.3941 -0.2106  0.3376
 4099SOL    HW223931   3.787   4.697   7.825 -0.4633  3.0140  0.1485
 4100SOL     OW23932   2.637   3.510   7.098 -0.2247  0.0653  0.1961
 4100SOL    HW123933   2.700   3.489   7.168 -1.0648  0.8277  1.1790
 4100SOL    HW223934   2.671   3.587   7.051  1.5484 -0.2590  0.9350
 4101SOL     OW23935   0.145   0.366   4.022 -0.0292 -0.1025  0.4886
 4101SOL    HW123936   0.223   0.406   3.984  0.0803  0.1492  0.9809
 4101SOL    HW223937   0.178   0.277   4.039 -0.6897 -0.1464  1.5420
 4102SOL     OW23938   1.102   3.257   5.354  0.4116 -0.0019  0.7408
 4102SOL    HW123939   1.190   3.293   5.367  0.7245 -0.5623  0.1251
 4102SOL    HW223940   1.053   3.337   5.374  0.7285  0.1815  0.7813
 4103SOL     OW23941   2.946   1.722  14.398  0.0732 -0.1363 -0.1672
 4103SOL    HW123942   2.892   1.784  14.447  2.7995  3.1815 -1.4078
 4103SOL    HW223943   2.928   1.645  14.453  2.9909 -1.4545 -1.0531
 4104SOL     OW23944   2.991   2.331   9.811 -0.4798 -0.2832 -0.2948
 4104SOL    HW123945   3.037   2.394   9.867 -0.9166 -2.7720  2.8787
 4104SOL    HW223946   3.021   2.247   9.845 -2.2792 -1.0827 -0.6770
 4105SOL     OW23947   1.556   4.687   2.532 -0.2213 -0.0699  0.0976
 4105SOL    HW123948   1.578   0.024   2.586 -1.3082  0.2606  0.0561
 4105SOL    HW223949   1.466   4.670   2.558 -0.2814 -0.5883 -0.4579
 4106SOL     OW23950   2.694   3.182   7.129 -0.2528  0.2084 -0.0398
 4106SOL    HW123951   2.624   3.223   7.180  0.3018  0.9368  0.1359
 4106SOL    HW223952   2.734   3.263   7.096  2.1667 -0.9993 -0.1091
 4107SOL     OW23953   1.499   4.513  11.202  0.0713 -1.0798 -0.1752
 4107SOL    HW123954   1.458   4.556  11.127 -1.6937 -2.6766 -0.1237
 4107SOL    HW223955   1.441   4.522  11.278 -2.6451  2.3597 -2.6744
 4108SOL     OW23956   0.338   2.768   2.361  0.0215 -0.7860 -0.4444
 4108SOL    HW123957   0.332   2.721   2.277  0.4031  0.7513 -1.3349
 4108SOL    HW223958   0.390   2.704   2.410  1.8135  0.0054 -1.2752
 4109SOL     OW23959   3.218   4.677   6.054 -0.2131 -0.0900  0.4793
 4109SOL    HW123960   3.158   0.008   6.030 -0.1228 -0.4159 -0.7150
 4109SOL    HW223961   3.166   4.597   6.049 -1.6073  0.9447 -1.3824
 4110SOL     OW23962   0.856   1.241   1.984  0.9426  0.0643  0.2358
 4110SOL    HW123963   0.772   1.285   1.971  0.5398 -0.9003 -0.4116
 4110SOL    HW223964   0.852   1.207   2.074 -1.3351 -0.8474 -0.2161
 4111SOL     OW23965   2.462   0.206   7.320  0.4372 -0.2724  0.2471
 4111SOL    HW123966   2.526   0.173   7.383  0.8766 -2.8268 -1.5533
 4111SOL    HW223967   2.434   0.289   7.358  1.3134 -0.6083  1.6203
 4112SOL     OW23968   3.934   4.672  12.727  0.2248  0.1591 -0.1098
 4112SOL    HW123969   3.911   4.624  12.806 -2.6521 -0.9985 -1.6435
 4112SOL    HW223970   4.016   4.636  12.694  0.1728  0.4273 -0.5396
 4113SOL     OW23971   4.542   3.576   4.339 -0.2865  0.2490  0.1322
 4113SOL    HW123972   4.513   3.515   4.407  1.7570 -0.0118  0.7594
 4113SOL    HW223973   4.454   3.595   4.307  0.2507  2.0618 -0.2456
 4114SOL     OW23974   1.682   3.194  10.313  0.1953 -0.2658  0.3259
 4114SOL    HW123975   1.760   3.156  10.352  1.6535  2.7065  0.3303
 4114SOL    HW223976   1.611   3.141  10.349  0.0556 -0.7102 -0.6115
 4115SOL     OW23977   1.104   1.479   6.477  0.0320 -0.2765  0.3142
 4115SOL    HW123978   1.027   1.436   6.515  0.7615 -1.6082  0.2756
 4115SOL    HW223979   1.119   1.447   6.388 -0.4079 -0.0935  0.1742
 4116SOL     OW23980   4.038   1.753  13.908 -0.7506  0.0194  0.4428
 4116SOL    HW123981   3.966   1.693  13.890  1.0677 -1.4292 -2.0392
 4116SOL    HW223982   4.088   1.738  13.828 -0.6878 -1.1803  0.7086
 4117SOL     OW23983   4.697   2.911  12.593 -0.0746  0.3819 -0.6898
 4117SOL    HW123984   0.027   2.946  12.538  0.4541 -0.2019 -0.3914
 4117SOL    HW223985   4.693   2.821  12.561 -0.9864  0.2618 -0.2572
 4118SOL     OW23986   3.286   4.659  12.169  0.1337 -0.3024 -0.3164
 4118SOL    HW123987   3.366   4.638  12.120 -0.0818 -3.3522  0.6362
 4118SOL    HW223988   3.310   4.659  12.262  2.9959  1.0990 -1.0510
 4119SOL     OW23989   0.935   1.817   7.560 -0.0650 -0.5128  0.1596
 4119SOL    HW123990   0.964   1.877   7.628 -1.7014 -0.0510  0.4597
 4119SOL    HW223991   0.989   1.834   7.483 -0.5230  0.3012  0.0175
 4120SOL     OW23992   0.517   0.415   2.329 -0.3475  0.2115 -0.1545
 4120SOL    HW123993   0.481   0.334   2.292 -1.9373  0.4443  0.8685
 4120SOL    HW223994   0.476   0.400   2.414 -1.2996 -0.4087 -0.7133
 4121SOL     OW23995   2.493   3.144   4.470 -0.2216  0.0405 -0.0674
 4121SOL    HW123996   2.563   3.192   4.425  0.8156 -1.2114  0.2216
 4121SOL    HW223997   2.545   3.087   4.527  1.2335 -0.2274 -1.6480
 4122SOL     OW23998   0.295   1.506   0.596 -0.3512  0.3711 -0.2483
 4122SOL    HW123999   0.373   1.466   0.635 -1.8327 -1.6785  0.6473
 4122SOL    HW224000   0.254   1.423   0.572 -2.6881  0.7156  2.4522
 4123SOL     OW24001   2.812   2.467  12.255 -0.2133  0.0873  0.3088
 4123SOL    HW124002   2.825   2.456  12.349  3.0383 -1.0932 -0.2872
 4123SOL    HW224003   2.899   2.480  12.219 -0.6766  0.3304 -0.7361
 4124SOL     OW24004   4.476   3.500   2.886 -0.5524  0.1844 -0.4711
 4124SOL    HW124005   4.448   3.591   2.878  0.1158  0.4290 -0.0064
 4124SOL    HW224006   4.396   3.456   2.857 -1.3404  1.1060  0.2689
 4125SOL     OW24007   2.252   1.680   4.194  0.3051 -0.2907 -0.2857
 4125SOL    HW124008   2.222   1.696   4.284  2.2293  2.1506 -0.0873
 4125SOL    HW224009   2.164   1.651   4.168 -0.0430  2.4265 -2.1206
 4126SOL     OW24010   1.190   2.890   7.411 -0.4608 -0.4865 -0.0417
 4126SOL    HW124011   1.236   2.918   7.333 -0.4663  1.5804  0.6897
 4126SOL    HW224012   1.172   2.972   7.457 -1.5523 -0.2980 -0.7960
 4127SOL     OW24013   3.661   2.342   0.467 -0.3972  0.9449 -0.2304
 4127SOL    HW124014   3.575   2.300   0.473 -0.7872  1.4609 -2.1701
 4127SOL    HW224015   3.638   2.414   0.527 -0.7646  0.8529 -0.2601
 4128SOL     OW24016   0.249   4.023  12.344 -0.5228  0.4898 -0.1812
 4128SOL    HW124017   0.204   4.018  12.428 -1.3521 -0.4432 -0.6920
 4128SOL    HW224018   0.333   4.057  12.375 -0.8674  0.1556  1.1284
 4129SOL     OW24019   2.028   3.314   0.333 -0.4742 -0.1281  0.1509
 4129SOL    HW124020   2.087   3.266   0.275 -0.6382 -0.0846 -0.0531
 4129SOL    HW224021   1.944   3.283   0.298 -0.1477 -0.7682 -0.0605
 4130SOL     OW24022   1.210   4.056   5.037  0.0664  0.7647  0.3441
 4130SOL    HW124023   1.281   4.087   4.982  1.2138  1.0074  1.9778
 4130SOL    HW224024   1.175   3.976   4.997 -0.1012  1.3084 -0.5993
 4131SOL     OW24025   0.972   1.467   9.306  0.6126 -0.7075  0.5006
 4131SOL    HW124026   0.986   1.506   9.392 -0.8249 -0.9689  0.8468
 4131SOL    HW224027   1.055   1.423   9.285  0.6833 -0.3144 -0.0346
 4132SOL     OW24028   2.464   1.638   3.430 -0.0397  0.3720  0.2276
 4132SOL    HW124029   2.483   1.640   3.336  1.8722 -2.6356  0.5261
 4132SOL    HW224030   2.525   1.571   3.460  1.3870  1.6384  0.1576
 4133SOL     OW24031   1.383   4.375  16.880 -0.2529  0.2446  0.6612
 4133SOL    HW124032   1.430   4.378  16.798 -0.5986  2.5093  0.5529
 4133SOL    HW224033   1.448   4.343  16.942 -1.6722 -2.8070  0.5924
 4134SOL     OW24034   1.100   2.950  14.513 -0.3868 -0.3982 -0.2140
 4134SOL    HW124035   1.075   2.912  14.597  1.3451  0.3668  0.6462
 4134SOL    HW224036   1.051   2.891  14.455  0.6290 -1.5294  0.0785
 4135SOL     OW24037   3.762   4.310   7.601  0.2706  0.3578 -0.0179
 4135SOL    HW124038   3.832   4.245   7.586  1.5220  1.6553  0.2156
 4135SOL    HW224039   3.682   4.261   7.583  0.8124 -0.2908 -0.6557
 4136SOL     OW24040   4.294   1.088  15.942  0.3469 -0.2752  0.4095
 4136SOL    HW124041   4.218   1.136  15.910 -0.5106 -1.3069  0.8944
 4136SOL    HW224042   4.281   1.084  16.037 -1.6172  0.4381  0.1793
 4137SOL     OW24043   3.840   0.227   4.734  0.5779  0.2014  0.0724
 4137SOL    HW124044   3.888   0.151   4.699  1.3160 -0.2259  2.0118
 4137SOL    HW224045   3.909   0.267   4.786  0.3541 -0.6287  1.0213
 4138SOL     OW24046   3.242   0.737   6.932  0.2318  0.4567 -0.6002
 4138SOL    HW124047   3.275   0.826   6.935  0.8674  0.1668  1.2641
 4138SOL    HW224048   3.164   0.753   6.880 -0.9820  1.5566  1.5517
 4139SOL     OW24049   3.339   2.815  16.556  0.2553 -0.2298 -0.4445
 4139SOL    HW124050   3.397   2.881  16.595 -0.4654  1.2535 -1.8650
 4139SOL    HW224051   3.295   2.860  16.484 -0.6590  0.2587  0.4229
 4140SOL     OW24052   4.492   3.069   6.572  0.2461 -0.4170 -0.3498
 4140SOL    HW124053   4.447   3.069   6.488  1.0706 -0.8149 -0.7903
 4140SOL    HW224054   4.582   3.089   6.546  0.8854 -2.1978  0.4689
 4141SOL     OW24055   1.571   2.822   7.475 -0.4025 -0.0497 -0.2409
 4141SOL    HW124056   1.605   2.749   7.424  0.6867  1.0429 -1.0724
 4141SOL    HW224057   1.587   2.903   7.427 -0.4024  0.8911  1.3355
 4142SOL     OW24058   0.563   4.620   2.112  0.0633  0.0379  0.1463
 4142SOL    HW124059   0.522   4.554   2.056  0.6157 -0.9988  0.9592
 4142SOL    HW224060   0.650   4.580   2.107  0.1075 -0.2681  3.5960
 4143SOL     OW24061   2.571   2.559   4.789 -0.1383  0.3224  0.1510
 4143SOL    HW124062   2.560   2.464   4.798  2.4151  0.0211  0.0285
 4143SOL    HW224063   2.665   2.573   4.799  0.3949 -0.7928 -3.4124
 4144SOL     OW24064   0.522   4.044   3.341 -0.4012  0.3274  0.2465
 4144SOL    HW124065   0.498   3.997   3.261  0.4364 -1.0372  0.7973
 4144SOL    HW224066   0.606   4.077   3.309 -0.0892  0.7175  1.4889
 4145SOL     OW24067   2.456   4.009   2.618  0.1823  0.1353  0.7089
 4145SOL    HW124068   2.486   4.099   2.631 -0.3862  0.0899  2.3063
 4145SOL    HW224069   2.414   3.989   2.701  1.5371 -1.4244  1.0168
 4146SOL     OW24070   0.709   2.551   7.568  0.1219 -0.1766  0.2402
 4146SOL    HW124071   0.743   2.550   7.657  0.6418 -1.7445  0.0179
 4146SOL    HW224072   0.622   2.513   7.581 -0.4916  0.2810 -2.4540
 4147SOL     OW24073   2.283   1.645   4.687 -0.0107  0.2835  0.6877
 4147SOL    HW124074   2.258   1.613   4.600 -0.0506  2.8801 -0.2709
 4147SOL    HW224075   2.367   1.601   4.697 -0.7267 -0.6432  2.7032
 4148SOL     OW24076   0.736   1.667   6.900 -0.2586  0.5471 -0.0693
 4148SOL    HW124077   0.683   1.746   6.908 -1.9967 -0.8005  1.8477
 4148SOL    HW224078   0.810   1.710   6.945  1.3323 -3.5335  1.1767
 4149SOL     OW24079   1.375   4.596   5.805  0.1830 -0.3202  1.1368
 4149SOL    HW124080   1.425   4.555   5.876  2.1701  0.5129  0.2269
 4149SOL    HW224081   1.331   4.664   5.855 -0.4992 -0.0638  0.1811
 4150SOL     OW24082   4.221   2.324  10.016  0.0051 -0.2875 -0.3386
 4150SOL    HW124083   4.241   2.409  10.054 -0.6891  0.3166 -1.3026
 4150SOL    HW224084   4.170   2.353   9.940 -1.0837  1.0667  0.9079
 4151SOL     OW24085   4.024   1.911   8.548  0.2253 -0.9416 -0.0804
 4151SOL    HW124086   3.978   1.840   8.504 -1.7986  0.5069 -0.3109
 4151SOL    HW224087   3.978   1.980   8.499 -1.9187 -1.7186  0.8379
 4152SOL     OW24088   2.589   3.408  17.280 -0.2438 -0.7494  0.0153
 4152SOL    HW124089   2.512   3.453  17.315 -0.8466 -0.7415 -1.3281
 4152SOL    HW224090   2.582   3.319  17.313  0.1267 -1.6742 -2.4175
 4153SOL     OW24091   0.074   0.080   7.801 -0.1194  0.0267 -0.7223
 4153SOL    HW124092   0.148   0.053   7.855  1.2867  0.3584 -2.5100
 4153SOL    HW224093   0.024   4.738   7.803  1.2773 -0.8540 -2.7724
 4154SOL     OW24094   2.676   1.767   9.039 -0.8233 -0.3727 -0.2484
 4154SOL    HW124095   2.706   1.756   9.130 -0.5727  1.9263 -0.0556
 4154SOL    HW224096   2.598   1.821   9.046 -0.6307 -0.2038  0.6021
 4155SOL     OW24097   1.522   1.841  16.377 -0.3749  0.2519 -0.2490
 4155SOL    HW124098   1.475   1.815  16.298 -2.4997 -1.9785  1.7789
 4155SOL    HW224099   1.479   1.777  16.434 -0.3162  0.0172 -0.4704
 4156SOL     OW24100   2.479   4.374  12.216  0.3772 -0.5992 -0.0758
 4156SOL    HW124101   2.514   4.461  12.199 -2.9120  0.5754 -0.8556
 4156SOL    HW224102   2.532   4.335  12.146  1.0269  3.2046 -1.7239
 4157SOL     OW24103   2.129   4.699  14.240 -0.1906 -0.5753 -0.4366
 4157SOL    HW124104   2.152   4.713  14.332  0.6876  0.6216 -0.8366
 4157SOL    HW224105   2.063   0.029  14.238 -1.1636 -1.5359 -1.5312
 4158SOL     OW24106   1.952   3.174   8.789 -0.3179  0.0542 -0.3132
 4158SOL    HW124107   1.982   3.084   8.781  0.4092  0.1629  1.1892
 4158SOL    HW224108   1.878   3.170   8.850  0.4636 -0.2341  0.6128
 4159SOL     OW24109   2.132   4.678   8.654 -0.2076  0.3389  0.5316
 4159SOL    HW124110   2.073   4.604   8.654  0.4786 -0.2078  0.5196
 4159SOL    HW224111   2.077   4.730   8.712 -0.6323 -1.0334  1.3431
 4160SOL     OW24112   0.631   3.726   1.898  0.5903  0.6873  0.1758
 4160SOL    HW124113   0.716   3.721   1.855  0.7987 -0.4803  0.7201
 4160SOL    HW224114   0.611   3.633   1.907  0.0921  0.6978 -0.8848
 4161SOL     OW24115   3.594   2.718  13.734  0.0806 -0.4741 -0.0167
 4161SOL    HW124116   3.662   2.732  13.667  1.3200  1.7420  1.6981
 4161SOL    HW224117   3.658   2.715  13.805 -2.0207  4.2711  2.0464
 4162SOL     OW24118   2.473   3.821  16.839  0.2790 -0.5295  0.3924
 4162SOL    HW124119   2.493   3.812  16.932 -0.7630  1.9769  0.8618
 4162SOL    HW224120   2.449   3.730  16.821 -0.3995 -0.3128  0.2210
 4163SOL     OW24121   2.493   1.452   7.682 -0.2997  0.7937  0.3198
 4163SOL    HW124122   2.564   1.509   7.652  1.6247 -1.1803  1.0615
 4163SOL    HW224123   2.537   1.370   7.656  0.0092  1.5617 -1.5984
 4164SOL     OW24124   3.507   2.887   5.952 -0.2991 -0.4005  1.1223
 4164SOL    HW124125   3.565   2.832   5.898  1.0409  0.7410  1.3991
 4164SOL    HW224126   3.519   2.852   6.041  1.7485 -0.1727  0.9280
 4165SOL     OW24127   4.325   0.341   7.764 -0.2439  0.0181  0.2787
 4165SOL    HW124128   4.238   0.308   7.787 -0.3232  0.9128  1.2397
 4165SOL    HW224129   4.312   0.371   7.674  3.5059  2.0791  0.4203
 4166SOL     OW24130   3.845   2.842  13.061  0.1135  0.1551 -0.9667
 4166SOL    HW124131   3.810   2.801  13.140  0.5524 -0.6932 -1.2099
 4166SOL    HW224132   3.935   2.809  13.049  0.0098  0.4714 -2.5780
 4167SOL     OW24133   0.229   0.763   7.211 -0.1984 -0.3277 -0.0950
 4167SOL    HW124134   0.293   0.730   7.148  0.1575 -2.2841  1.3017
 4167SOL    HW224135   0.202   0.847   7.173  0.7111  0.3916  0.8241
 4168SOL     OW24136   4.659   3.027   9.231  0.0982  0.2620  0.4175
 4168SOL    HW124137   4.690   2.937   9.241 -0.3861 -0.1891 -2.0498
 4168SOL    HW224138   4.565   3.012   9.218  0.6388 -0.7412 -2.4761
 4169SOL     OW24139   1.132   2.240  14.726 -0.5215  0.1068 -0.2373
 4169SOL    HW124140   1.090   2.307  14.780 -0.6383  0.2919 -0.5596
 4169SOL    HW224141   1.167   2.178  14.791 -1.2196 -1.0685 -0.9937
 4170SOL     OW24142   4.290   1.924  15.361 -0.0743  0.3880 -0.4618
 4170SOL    HW124143   4.199   1.907  15.339  0.2105  0.7293 -1.8946
 4170SOL    HW224144   4.297   2.012  15.326  1.1682  0.2988 -0.4457
 4171SOL     OW24145   0.607   4.459   2.476 -0.2903 -0.0903  0.4621
 4171SOL    HW124146   0.681   4.398   2.477 -0.9126 -0.8567 -1.0181
 4171SOL    HW224147   0.543   4.411   2.424  2.0721 -0.1322 -2.3974
 4172SOL     OW24148   4.158   3.912   3.143 -0.3137 -0.2343  0.2360
 4172SOL    HW124149   4.069   3.943   3.132 -0.3692 -0.0941  1.1402
 4172SOL    HW224150   4.171   3.851   3.070  0.9288  1.3367 -0.8571
 4173SOL     OW24151   0.345   3.573   2.547  0.2735  0.7349  0.3555
 4173SOL    HW124152   0.266   3.604   2.504  0.1799 -1.8117 -1.3151
 4173SOL    HW224153   0.308   3.527   2.621 -1.8047  2.4727  0.3910
 4174SOL     OW24154   3.595   4.234   8.402 -0.1364 -0.3395  0.0218
 4174SOL    HW124155   3.666   4.210   8.343 -1.3054 -0.5703 -1.2728
 4174SOL    HW224156   3.522   4.187   8.363 -1.3750  1.0881  0.6277
 4175SOL     OW24157   1.952   0.946   4.079  0.0905  0.6001  0.5136
 4175SOL    HW124158   1.995   0.999   4.012  0.1117  0.3408  0.3266
 4175SOL    HW224159   1.905   0.881   4.027  0.4596 -0.5297  1.5897
 4176SOL     OW24160   3.416   3.427   3.344  0.1559 -0.1989  0.7824
 4176SOL    HW124161   3.441   3.337   3.365 -0.3603 -0.6959 -0.8150
 4176SOL    HW224162   3.341   3.406   3.289  0.2397 -2.9740  1.7263
 4177SOL     OW24163   0.883   3.283  13.823 -0.1130  0.1869  0.1641
 4177SOL    HW124164   0.974   3.308  13.843 -1.0272  2.1706  1.7914
 4177SOL    HW224165   0.847   3.335  13.895  1.7672 -0.1207  1.3356
 4178SOL     OW24166   2.132   0.568   6.793 -0.1600 -0.9287  0.0757
 4178SOL    HW124167   2.169   0.515   6.863  1.6941 -0.3750 -0.4854
 4178SOL    HW224168   2.196   0.640   6.793 -1.6734  0.4140  0.3900
 4179SOL     OW24169   4.575   0.846   7.853  0.0555 -0.1869  0.2960
 4179SOL    HW124170   4.499   0.837   7.911  1.6124  0.3127  2.4105
 4179SOL    HW224171   4.538   0.891   7.778  0.7824 -0.3966 -0.1876
 4180SOL     OW24172   4.511   0.929  14.262  0.2137  0.1245  0.5100
 4180SOL    HW124173   4.477   0.871  14.194  0.0031  2.0979 -1.0612
 4180SOL    HW224174   4.535   0.864  14.328  1.2057 -0.9657 -0.9357
 4181SOL     OW24175   3.029   2.203   5.208 -0.2840 -0.2266  0.1679
 4181SOL    HW124176   2.961   2.270   5.203  0.0241 -0.0141 -1.3326
 4181SOL    HW224177   3.001   2.175   5.295  0.1904 -1.5300 -0.1079
 4182SOL     OW24178   2.619   2.732   2.800 -0.0087  0.7836  0.1468
 4182SOL    HW124179   2.643   2.824   2.804  0.0411  0.7443  0.8645
 4182SOL    HW224180   2.691   2.696   2.749  0.5735  1.3169  0.5913
 4183SOL     OW24181   1.235   1.512   3.962 -0.1112  0.2331  0.4196
 4183SOL    HW124182   1.256   1.425   3.929 -1.7091 -0.4216  1.1426
 4183SOL    HW224183   1.320   1.557   3.963  0.7219 -1.3483  1.3586
 4184SOL     OW24184   4.507   1.243   7.510 -0.2093  0.4303  0.5843
 4184SOL    HW124185   4.428   1.250   7.563 -0.4205 -0.5826  0.3887
 4184SOL    HW224186   4.469   1.229   7.423  1.2714 -0.0536  0.0250
 4185SOL     OW24187   2.211   1.850   8.330  0.2936  0.8652 -0.0124
 4185SOL    HW124188   2.210   1.939   8.364 -1.9859  1.1802 -0.8799
 4185SOL    HW224189   2.293   1.809   8.357  0.7196  0.2808 -2.2065
 4186SOL     OW24190   3.958   2.654   2.355  0.2883  0.2207  0.0991
 4186SOL    HW124191   4.046   2.624   2.376 -0.4654 -1.3886  0.9411
 4186SOL    HW224192   3.917   2.654   2.441  2.3265 -0.9293  1.0712
 4187SOL     OW24193   0.843   2.108   9.140 -0.5021 -0.3474  0.0908
 4187SOL    HW124194   0.892   2.066   9.069 -1.0774  1.2222 -1.2389
 4187SOL    HW224195   0.816   2.181   9.084 -0.3661  1.2280  2.0914
 4188SOL     OW24196   2.221   1.794   5.233  0.7923 -0.1997  0.3763
 4188SOL    HW124197   2.223   1.859   5.163 -2.1117 -0.7134 -0.1663
 4188SOL    HW224198   2.190   1.715   5.189  0.3701  1.0395 -1.5485
 4189SOL     OW24199   2.357   2.729  13.688 -0.3413 -0.0651  0.2347
 4189SOL    HW124200   2.307   2.809  13.706  0.3959  1.0893 -2.8502
 4189SOL    HW224201   2.333   2.713  13.596 -0.5509 -1.9984  0.6318
 4190SOL     OW24202   3.163   2.691   3.859  0.1232 -0.1721  0.3179
 4190SOL    HW124203   3.124   2.705   3.773 -2.5639 -0.0149  1.5829
 4190SOL    HW224204   3.088   2.645   3.897  0.2274  0.8778  1.7555
 4191SOL     OW24205   3.660   0.536   9.108 -0.5332 -0.4372  0.2303
 4191SOL    HW124206   3.722   0.601   9.075 -2.2558  0.8119 -0.5479
 4191SOL    HW224207   3.628   0.577   9.188 -1.4798  2.1789 -1.5158
 4192SOL     OW24208   3.526   0.373   4.075  0.3775 -0.3191  0.2897
 4192SOL    HW124209   3.494   0.381   4.165 -0.3003  1.4478 -0.1299
 4192SOL    HW224210   3.615   0.408   4.081  1.3004 -2.0805 -3.1038
 4193SOL     OW24211   1.099   1.736   2.839  0.2400  0.0659 -0.0474
 4193SOL    HW124212   1.038   1.795   2.795  1.5677  1.7254  0.3280
 4193SOL    HW224213   1.031   1.689   2.886 -0.5822  0.3928 -0.9061
 4194SOL     OW24214   1.450   2.248   4.165 -0.2820 -0.2842  0.0066
 4194SOL    HW124215   1.465   2.341   4.177  0.5936 -0.6790  1.9894
 4194SOL    HW224216   1.419   2.244   4.075  2.9096  1.6300 -1.1678
 4195SOL     OW24217   4.312   4.262   6.891 -0.7927  0.1351  0.4908
 4195SOL    HW124218   4.219   4.241   6.878  0.3867 -3.7517 -1.4782
 4195SOL    HW224219   4.309   4.307   6.976 -1.6317  1.8981 -0.4710
 4196SOL     OW24220   0.672   0.187   8.288  0.5317  0.5788  0.0121
 4196SOL    HW124221   0.595   0.171   8.232  1.1107  1.4142 -1.0041
 4196SOL    HW224222   0.650   0.273   8.323 -0.6070  1.1609 -2.1290
 4197SOL     OW24223   3.210   4.383  12.941  0.7529 -0.2072  0.0740
 4197SOL    HW124224   3.281   4.376  13.005  1.6345  2.3725 -0.6358
 4197SOL    HW224225   3.132   4.380  12.996  0.0947 -2.1472 -0.9464
 4198SOL     OW24226   4.212   3.690   8.369 -0.5425  0.6828  0.3249
 4198SOL    HW124227   4.146   3.696   8.300 -1.5297  2.7913  1.4287
 4198SOL    HW224228   4.264   3.616   8.338 -1.4451 -0.1480  0.7804
 4199SOL     OW24229   2.764   3.199   3.132 -0.5864 -0.2116  0.0861
 4199SOL    HW124230   2.808   3.221   3.051  0.5320  1.1451  1.0576
 4199SOL    HW224231   2.772   3.104   3.129 -0.6155 -0.2683  1.7656
 4200SOL     OW24232   1.212   2.585   5.490  0.1042 -0.2934 -0.4895
 4200SOL    HW124233   1.128   2.538   5.496 -1.3073  2.4265  1.0067
 4200SOL    HW224234   1.198   2.676   5.464 -1.3438 -0.6293 -0.9061
 4201SOL     OW24235   1.129   2.951   2.337  0.3488  0.2263 -0.4016
 4201SOL    HW124236   1.064   2.965   2.268  0.5083  0.8203 -0.4357
 4201SOL    HW224237   1.183   3.030   2.329  0.6195 -0.1874 -2.5916
 4202SOL     OW24238   2.644   2.323  12.548  0.1988 -0.4134 -0.2349
 4202SOL    HW124239   2.590   2.333  12.626  1.1024 -0.9108  0.4501
 4202SOL    HW224240   2.638   2.227  12.552 -0.2635 -0.4356 -1.4225
 4203SOL     OW24241   0.544   1.012   4.003 -0.5704  0.1316  0.8256
 4203SOL    HW124242   0.462   1.011   4.053 -1.9729  1.3403 -1.4305
 4203SOL    HW224243   0.595   1.078   4.051 -0.7006  1.6588 -1.1553
 4204SOL     OW24244   1.091   1.198  11.365  0.0785  0.0447 -0.3797
 4204SOL    HW124245   1.044   1.185  11.283 -0.1963 -2.0227  0.1065
 4204SOL    HW224246   1.171   1.147  11.354  0.3781  0.2170  0.9599
 4205SOL     OW24247   4.156   1.556  12.968  0.2264 -0.3451 -0.2262
 4205SOL    HW124248   4.147   1.506  12.887 -0.7425  0.4417 -0.6109
 4205SOL    HW224249   4.152   1.486  13.033  0.5906 -1.9846 -1.9593
 4206SOL     OW24250   4.642   0.939   8.226  0.6650 -0.4045  0.7952
 4206SOL    HW124251   4.563   0.887   8.216  0.7967 -0.3146 -0.6431
 4206SOL    HW224252   4.691   0.904   8.152 -1.1181 -3.4635  1.0888
 4207SOL     OW24253   0.095   3.202  16.272  0.3438 -0.4029 -0.0166
 4207SOL    HW124254   0.145   3.284  16.275 -0.3717  0.1059 -1.9673
 4207SOL    HW224255   0.133   3.161  16.194 -1.6518 -0.2571 -1.0652
 4208SOL     OW24256   4.588   0.966  13.813 -0.1385  0.0413  0.0320
 4208SOL    HW124257   4.654   1.030  13.839  1.2899 -1.7250  0.7320
 4208SOL    HW224258   4.611   0.948  13.721  2.2755 -1.6412  0.9372
 4209SOL     OW24259   3.090   3.863   5.626  0.5569 -0.1301 -0.6853
 4209SOL    HW124260   3.165   3.862   5.686 -1.5058  4.6447  1.9206
 4209SOL    HW224261   3.139   3.884   5.546 -1.3787  1.2848 -1.4918
 4210SOL     OW24262   0.426   0.019  11.393  0.0417  0.1319  0.0376
 4210SOL    HW124263   0.394   4.736  11.480 -2.7916 -2.2616 -1.6454
 4210SOL    HW224264   0.370   4.706  11.337  1.3190 -0.7127 -0.4503
 4211SOL     OW24265   4.136   1.188   5.867 -0.5546 -0.1433  0.3476
 4211SOL    HW124266   4.135   1.215   5.959 -0.4765  1.1155 -0.0211
 4211SOL    HW224267   4.083   1.108   5.875 -1.7006  0.3940 -1.8720
 4212SOL     OW24268   4.113   0.426  17.681 -0.2352  0.3627  0.3275
 4212SOL    HW124269   4.096   0.515  17.712 -0.4666  0.1985  0.6731
 4212SOL    HW224270   4.052   0.427  17.608 -1.5583 -1.7289  1.4156
 4213SOL     OW24271   0.933   0.904   7.385 -0.6088  0.2818 -0.1468
 4213SOL    HW124272   1.013   0.858   7.357 -2.3751 -2.7846 -0.1252
 4213SOL    HW224273   0.918   0.943   7.298 -1.6717 -0.8796 -0.4723
 4214SOL     OW24274   3.709   2.400   7.970 -0.8452 -0.3833  0.2106
 4214SOL    HW124275   3.702   2.388   7.876 -0.7574 -2.4216  0.4545
 4214SOL    HW224276   3.669   2.321   8.006  0.6784 -0.6961  1.2427
 4215SOL     OW24277   2.245   1.371   2.976  0.3418 -0.4867  0.5106
 4215SOL    HW124278   2.311   1.318   3.024 -0.5826 -0.1610  2.1448
 4215SOL    HW224279   2.278   1.347   2.889  0.3906  0.1025  0.3728
 4216SOL     OW24280   3.272   3.306   3.137 -0.2211 -0.1304 -0.4338
 4216SOL    HW124281   3.233   3.239   3.079 -0.0662 -1.0630  0.5463
 4216SOL    HW224282   3.193   3.360   3.140 -0.9323 -1.2513  0.9832
 4217SOL     OW24283   0.819   2.185   4.107 -0.0133  0.4450  0.1564
 4217SOL    HW124284   0.913   2.170   4.105  0.3746  2.7277  1.4795
 4217SOL    HW224285   0.792   2.169   4.017  0.8050  0.2898 -0.0555
 4218SOL     OW24286   3.091   1.931   4.433 -0.1151 -0.1911 -0.3224
 4218SOL    HW124287   3.142   2.009   4.458  0.4661 -0.2598 -1.2628
 4218SOL    HW224288   3.135   1.910   4.350 -0.3816  1.4090 -0.8808
 4219SOL     OW24289   0.638   1.673  16.223  0.2247  0.0569  0.2852
 4219SOL    HW124290   0.593   1.649  16.304  1.6495  0.8910  1.3335
 4219SOL    HW224291   0.723   1.654  16.262 -0.1963  0.2475  1.2913
 4220SOL     OW24292   2.717   2.142   6.364  0.4339 -0.4442 -0.3269
 4220SOL    HW124293   2.696   2.089   6.441  0.8659 -0.9152 -0.5252
 4220SOL    HW224294   2.745   2.225   6.401 -1.0074 -0.3078  0.4440
 4221SOL     OW24295   1.351   0.871  15.410  0.0762  0.1528 -0.3839
 4221SOL    HW124296   1.446   0.871  15.420  0.1156  2.3293 -0.8924
 4221SOL    HW224297   1.348   0.847  15.317  1.5005 -1.8552  0.0685
 4222SOL     OW24298   3.364   0.675  10.043 -0.0232 -0.0174 -0.3899
 4222SOL    HW124299   3.381   0.767  10.065  2.8393 -0.5301 -0.3723
 4222SOL    HW224300   3.271   0.673  10.023 -0.0521  0.4938 -0.3148
 4223SOL     OW24301   3.242   3.078   4.730 -0.0742  0.4962  0.2118
 4223SOL    HW124302   3.201   3.081   4.643 -2.6920  2.0948  1.4858
 4223SOL    HW224303   3.328   3.043   4.708 -0.3086 -0.5078  0.8444
 4224SOL     OW24304   0.098   3.107   4.747 -0.2160  0.3048 -0.1141
 4224SOL    HW124305   0.081   3.041   4.814  1.2926 -1.1163 -1.1154
 4224SOL    HW224306   0.192   3.091   4.740  0.0452  2.0411 -0.5413
 4225SOL     OW24307   0.189   2.416   7.521 -0.6799 -0.3216 -0.2050
 4225SOL    HW124308   0.242   2.345   7.485 -1.8522 -2.0960  1.5448
 4225SOL    HW224309   0.108   2.404   7.471  0.4387 -3.0739 -1.4138
 4226SOL     OW24310   3.751   2.996  12.403 -0.4592  0.4610  0.0529
 4226SOL    HW124311   3.822   2.983  12.340 -0.8951 -0.8550 -0.1624
 4226SOL    HW224312   3.685   2.938  12.366 -0.9925  1.3181 -0.3362
 4227SOL     OW24313   1.081   4.197   7.943  0.0753  0.0718  1.1497
 4227SOL    HW124314   0.994   4.156   7.947  0.5525 -1.2665 -2.4607
 4227SOL    HW224315   1.103   4.180   8.035 -0.6161 -0.9212  1.1290
 4228SOL     OW24316   0.245   0.330  15.568 -0.1374  0.3930  0.0573
 4228SOL    HW124317   0.276   0.242  15.585 -0.9463 -0.0788 -0.9281
 4228SOL    HW224318   0.325   0.383  15.571 -1.9963  3.2698 -0.1407
 4229SOL     OW24319   2.855   0.723   6.939  0.5305  0.2785 -0.3557
 4229SOL    HW124320   2.815   0.670   6.869 -1.0943 -1.6903  2.0552
 4229SOL    HW224321   2.910   0.780   6.886 -0.4636  1.0504 -0.5626
 4230SOL     OW24322   1.560   3.339  17.368  0.2824  0.0876 -0.5339
 4230SOL    HW124323   1.492   3.367  17.430 -0.0976 -0.1497 -0.8516
 4230SOL    HW224324   1.550   3.403  17.298  2.4918  0.8104 -0.1995
 4231SOL     OW24325   1.178   1.380   5.327 -0.4224 -0.0714 -0.4865
 4231SOL    HW124326   1.176   1.394   5.422 -2.2920  1.8591 -0.7986
 4231SOL    HW224327   1.173   1.470   5.296  0.1146 -0.1010 -0.6577
 4232SOL     OW24328   1.557   4.448  16.672 -0.2193  0.2837  0.5891
 4232SOL    HW124329   1.625   4.384  16.696  0.9804  1.2175 -0.3618
 4232SOL    HW224330   1.610   4.523  16.645 -1.2673  0.6714 -0.3826
 4233SOL     OW24331   0.839   4.243   4.153  0.0539  1.1761  0.5017
 4233SOL    HW124332   0.744   4.236   4.162  0.3884 -0.7293  2.6070
 4233SOL    HW224333   0.847   4.319   4.095 -1.4985  0.2530 -0.9008
 4234SOL     OW24334   4.469   2.974   5.817 -0.5060 -0.0732  0.0933
 4234SOL    HW124335   4.376   2.958   5.800  0.1919 -2.4884 -1.4897
 4234SOL    HW224336   4.468   3.052   5.872 -0.6813  0.4540 -0.6546
 4235SOL     OW24337   2.706   3.706  14.018  0.0766  0.3105  0.2556
 4235SOL    HW124338   2.646   3.758  13.964 -0.1844 -0.5087 -0.2410
 4235SOL    HW224339   2.785   3.712  13.963 -0.6401  0.3469 -0.7670
 4236SOL     OW24340   2.866   3.258   6.798 -0.2241 -0.3385  0.1492
 4236SOL    HW124341   2.802   3.329   6.791  1.1811  0.8734 -0.3990
 4236SOL    HW224342   2.893   3.255   6.706 -0.9159 -0.4794 -0.0473
 4237SOL     OW24343   2.677   2.697   8.321 -0.1003  0.7404 -0.0240
 4237SOL    HW124344   2.620   2.623   8.339 -0.3256  1.2827  1.5085
 4237SOL    HW224345   2.756   2.682   8.374  1.0258  0.8113 -1.6581
 4238SOL     OW24346   4.305   1.006  10.678  0.1481 -0.8672  0.1584
 4238SOL    HW124347   4.290   1.007  10.773 -1.3743 -1.6732 -0.0967
 4238SOL    HW224348   4.318   1.100  10.664 -0.3242 -0.8607 -0.2132
 4239SOL     OW24349   4.084   3.018  17.346  0.1478 -0.0743 -0.8540
 4239SOL    HW124350   4.157   3.074  17.320  0.4347  0.7304  1.6856
 4239SOL    HW224351   4.120   2.993  17.431 -1.4543  0.7762  0.0663
 4240SOL     OW24352   0.193   3.418   2.736  0.1274 -0.0283 -0.4176
 4240SOL    HW124353   0.178   3.343   2.679  0.5715  1.1563 -2.1071
 4240SOL    HW224354   0.128   3.403   2.804 -0.5170 -0.8833 -1.2282
 4241SOL     OW24355   4.234   2.815   2.844  0.1530 -0.4424 -0.1330
 4241SOL    HW124356   4.184   2.845   2.768  0.8507 -0.7046 -0.6957
 4241SOL    HW224357   4.213   2.722   2.850  0.4909 -0.5229 -0.2023
 4242SOL     OW24358   3.324   4.349   6.349 -0.1566 -0.0252  0.4704
 4242SOL    HW124359   3.359   4.318   6.266  3.3403 -2.3581  2.8327
 4242SOL    HW224360   3.385   4.311   6.412  0.3769  0.1531  0.0537
 4243SOL     OW24361   3.783   0.434   4.144  0.8077  0.2539  0.6136
 4243SOL    HW124362   3.863   0.464   4.189  1.0712 -0.1308  0.4022
 4243SOL    HW224363   3.779   0.497   4.072 -1.0736 -1.2634 -0.6071
 4244SOL     OW24364   0.795   2.931   3.857  0.3333  0.6839  0.1288
 4244SOL    HW124365   0.795   3.021   3.823 -1.3709  0.9864  0.9660
 4244SOL    HW224366   0.782   2.876   3.780 -0.7720 -0.5022  1.1867
 4245SOL     OW24367   3.114   2.635  15.512 -0.1889 -0.0875  0.0611
 4245SOL    HW124368   3.164   2.681  15.579  1.0451 -1.9594  0.4192
 4245SOL    HW224369   3.183   2.586  15.467  0.0298  1.1808 -0.9570
 4246SOL     OW24370   1.399   1.995   7.242  0.0892 -0.3507  0.2286
 4246SOL    HW124371   1.385   1.905   7.269  0.9956 -0.2416  1.0596
 4246SOL    HW224372   1.353   1.990   7.158  0.1077  3.5833 -0.0378
 4247SOL     OW24373   3.519   0.424   2.401 -0.0176  0.2493  0.0972
 4247SOL    HW124374   3.614   0.432   2.391 -0.0575  0.5063 -0.0771
 4247SOL    HW224375   3.481   0.475   2.330  1.2998  0.0904 -0.7119
 4248SOL     OW24376   3.060   2.530  12.145 -0.3699  0.1451 -0.1114
 4248SOL    HW124377   3.127   2.571  12.090  0.0905 -0.0500  0.3087
 4248SOL    HW224378   3.098   2.542  12.232  0.2122 -0.2484 -0.3131
 4249SOL     OW24379   0.837   1.327  13.066 -0.3760 -0.6499  0.1724
 4249SOL    HW124380   0.881   1.383  13.130  0.5487 -1.5831  0.3463
 4249SOL    HW224381   0.778   1.385  13.019 -0.7980  0.1029  1.6263
 4250SOL     OW24382   2.898   3.705   0.882  0.3173 -0.6508  0.4879
 4250SOL    HW124383   2.807   3.682   0.901 -0.7200  1.8886 -1.3579
 4250SOL    HW224384   2.893   3.800   0.894  0.5084 -0.4149 -1.3125
 4251SOL     OW24385   3.230   4.081   3.615 -0.2540  0.1633  0.6703
 4251SOL    HW124386   3.195   4.091   3.704  0.4805 -0.4517  1.0335
 4251SOL    HW224387   3.153   4.100   3.561 -0.5266 -0.0534  0.9822
 4252SOL     OW24388   4.421   4.223  16.565  0.0789  0.4282 -0.2688
 4252SOL    HW124389   4.394   4.282  16.495 -1.2012  0.5224  0.3191
 4252SOL    HW224390   4.406   4.137  16.525  0.4467  0.2896 -0.1108
 4253SOL     OW24391   1.451   0.562   6.035 -0.4211 -0.0794 -0.2092
 4253SOL    HW124392   1.418   0.630   5.977 -0.2462 -0.5075 -0.8105
 4253SOL    HW224393   1.500   0.601   6.107 -0.9212  2.4259 -1.2476
 4254SOL     OW24394   2.733   3.444  13.979  0.0263 -0.2612  0.2160
 4254SOL    HW124395   2.715   3.535  14.002  2.7255  0.0212  1.1726
 4254SOL    HW224396   2.686   3.402  14.051 -0.2290 -2.6387 -1.3048
 4255SOL     OW24397   2.773   3.684   9.570 -0.2386  0.7569  0.6800
 4255SOL    HW124398   2.735   3.765   9.535  0.5213  0.8889  0.1645
 4255SOL    HW224399   2.863   3.715   9.585  0.2787 -0.6215  0.3870
 4256SOL     OW24400   0.491   3.374   4.300  0.2556  0.4311  0.6392
 4256SOL    HW124401   0.577   3.390   4.259 -0.2131  0.6129 -0.2751
 4256SOL    HW224402   0.521   3.357   4.389  2.2623 -1.9152 -0.5057
 4257SOL     OW24403   4.233   0.671   7.286 -0.2696  0.1325  0.2974
 4257SOL    HW124404   4.142   0.657   7.311 -0.0851 -0.5664  0.5519
 4257SOL    HW224405   4.241   0.608   7.215  0.1863  1.8175 -1.1548
 4258SOL     OW24406   2.771   2.787  15.640 -0.1654 -0.4078  0.1828
 4258SOL    HW124407   2.792   2.819  15.552  0.4881  0.3435  0.6152
 4258SOL    HW224408   2.698   2.840  15.671 -1.8348 -0.5970 -3.3382
 4259SOL     OW24409   4.490   0.267   9.463 -0.2564  0.3109  0.5187
 4259SOL    HW124410   4.505   0.225   9.548  0.5604  0.7932  0.6134
 4259SOL    HW224411   4.487   0.358   9.493 -0.2638  0.2983  0.5558
 4260SOL     OW24412   3.549   3.877   5.051  0.3160 -0.2885  0.9129
 4260SOL    HW124413   3.545   3.788   5.015  1.3495  0.2164 -0.4864
 4260SOL    HW224414   3.627   3.911   5.007 -0.3579  0.7969  0.5596
 4261SOL     OW24415   0.970   1.470   8.865 -0.0105 -0.1611  0.4123
 4261SOL    HW124416   1.024   1.522   8.925 -0.7208 -0.2806  1.1626
 4261SOL    HW224417   1.020   1.394   8.839  0.1115 -0.0811  0.4142
 4262SOL     OW24418   0.631   0.605   9.275 -0.0960 -0.3203  0.5596
 4262SOL    HW124419   0.605   0.620   9.184  0.2291 -0.1353  0.4986
 4262SOL    HW224420   0.709   0.551   9.259  0.8442  1.0870  0.4591
 4263SOL     OW24421   4.166   0.215   2.918  0.2764 -0.6879 -0.2145
 4263SOL    HW124422   4.138   0.214   2.826 -0.3631 -1.4575 -0.0157
 4263SOL    HW224423   4.153   0.122   2.937  1.2050 -1.0832 -1.5311
 4264SOL     OW24424   2.339   3.570   2.667  0.1198 -0.6255 -0.0735
 4264SOL    HW124425   2.360   3.483   2.702  2.0516 -0.0417  0.1984
 4264SOL    HW224426   2.280   3.604   2.734 -0.3106 -2.3012  0.4077
 4265SOL     OW24427   0.296   2.225   4.173 -0.2902  0.2618  1.0152
 4265SOL    HW124428   0.311   2.234   4.079 -3.2873 -0.3357  0.4714
 4265SOL    HW224429   0.320   2.313   4.202 -0.4544  1.6467 -3.0442
 4266SOL     OW24430   1.748   2.022   8.783 -0.1283 -0.5311 -0.2942
 4266SOL    HW124431   1.688   1.969   8.731  0.3722 -0.3845 -1.0149
 4266SOL    HW224432   1.716   2.100   8.739  0.1920 -0.7688 -0.9452
 4267SOL     OW24433   1.760   2.345   7.951  0.0701  0.4271 -0.0025
 4267SOL    HW124434   1.687   2.406   7.965 -1.6584 -1.0874 -2.3818
 4267SOL    HW224435   1.838   2.400   7.942 -0.6197  1.2060 -1.2382
 4268SOL     OW24436   2.537   3.336  14.143 -0.3660  0.0712  0.0269
 4268SOL    HW124437   2.469   3.362  14.205  0.2042 -0.9133  1.0681
 4268SOL    HW224438   2.554   3.253  14.189 -0.8980  1.4147  2.6833
 4269SOL     OW24439   1.012   1.298  11.608  0.5104 -0.0678  0.1257
 4269SOL    HW124440   1.082   1.245  11.646  1.5068  1.3372  0.2422
 4269SOL    HW224441   1.054   1.305  11.522 -1.8380  1.6201 -0.8757
 4270SOL     OW24442   2.467   2.309  11.909 -0.1048 -0.4619 -0.2632
 4270SOL    HW124443   2.549   2.261  11.909  0.1571 -0.0101 -0.1029
 4270SOL    HW224444   2.474   2.363  11.988  0.2402  1.7309 -1.8117
 4271SOL     OW24445   4.096   2.916   2.487 -0.1104 -0.5859  0.3468
 4271SOL    HW124446   4.005   2.915   2.459  0.9058  2.6586 -3.1451
 4271SOL    HW224447   4.132   2.890   2.402  0.3562  1.1346  0.0155
 4272SOL     OW24448   2.897   3.158  16.937  0.5246  0.0058 -0.0320
 4272SOL    HW124449   2.898   3.090  17.004  1.7690  0.2784  0.2436
 4272SOL    HW224450   2.838   3.216  16.986  1.0768  0.9354 -0.4680
 4273SOL     OW24451   1.944   0.352  16.946  0.2747  0.0576  0.3254
 4273SOL    HW124452   1.918   0.330  16.857 -1.1076  0.6580  0.5695
 4273SOL    HW224453   2.039   0.347  16.943  0.2188 -1.5684  1.5388
 4274SOL     OW24454   0.563   0.152   7.183  0.2617  0.1016 -0.0077
 4274SOL    HW124455   0.484   0.203   7.168 -1.2779 -1.7535  1.9010
 4274SOL    HW224456   0.566   0.108   7.098 -0.8491 -0.7694  0.4050
 4275SOL     OW24457   0.383   1.411  16.920  0.1642  0.4178  0.6581
 4275SOL    HW124458   0.415   1.346  16.857  0.2316  0.0291  1.0988
 4275SOL    HW224459   0.441   1.385  16.992  1.6488  1.6609 -0.0829
 4276SOL     OW24460   0.393   2.345   7.136 -0.1054  0.5638  0.6540
 4276SOL    HW124461   0.424   2.429   7.103 -1.3374  0.1640 -1.5146
 4276SOL    HW224462   0.417   2.277   7.073 -0.7872  1.0130 -0.0939
 4277SOL     OW24463   3.767   0.845   2.501  0.1992  0.1408  0.1546
 4277SOL    HW124464   3.851   0.846   2.456  1.5254 -1.8945  2.6311
 4277SOL    HW224465   3.742   0.754   2.491  1.7993 -0.3657  0.7909
 4278SOL     OW24466   2.356   1.573  15.889  0.4932  0.8283  0.2594
 4278SOL    HW124467   2.263   1.553  15.877  0.9203 -0.4876 -0.8571
 4278SOL    HW224468   2.394   1.491  15.858  0.1012  0.0212  1.8659
 4279SOL     OW24469   2.905   2.329   2.013  0.0859 -0.0805  0.5155
 4279SOL    HW124470   2.919   2.239   1.983  0.6667 -0.2837  1.3945
 4279SOL    HW224471   2.990   2.365   1.987 -0.3429  0.5064 -0.0889
 4280SOL     OW24472   2.389   2.203  12.448  0.2064 -0.0489  0.1197
 4280SOL    HW124473   2.482   2.183  12.456  0.3457  1.3702  1.8960
 4280SOL    HW224474   2.344   2.156  12.518 -0.1302 -1.0539 -0.7760
 4281SOL     OW24475   3.219   2.662   4.589 -0.8492  0.8378 -0.2000
 4281SOL    HW124476   3.306   2.666   4.549 -1.5247  0.5246 -1.6962
 4281SOL    HW224477   3.168   2.614   4.524  1.3921  1.3188 -2.3296
 4282SOL     OW24478   1.623   2.965  13.648 -0.4772 -0.3053  0.3571
 4282SOL    HW124479   1.597   2.891  13.594  1.2706 -0.9564  0.4041
 4282SOL    HW224480   1.717   2.970  13.628 -0.5366  0.6844  0.3019
 4283SOL     OW24481   3.326   3.293   6.575 -0.2542 -0.2976  0.6986
 4283SOL    HW124482   3.408   3.251   6.601 -0.3086 -1.1767 -0.5386
 4283SOL    HW224483   3.272   3.214   6.568  1.1729 -1.1945 -0.0349
 4284SOL     OW24484   4.646   1.951  11.903  0.1891  0.2143  0.4441
 4284SOL    HW124485   4.574   1.985  11.849 -1.2620 -0.2561  2.0880
 4284SOL    HW224486   4.632   1.857  11.891 -1.7580  0.5058  0.4980
 4285SOL     OW24487   2.116   4.544   5.864 -0.2162  0.1168 -0.4293
 4285SOL    HW124488   2.158   4.614   5.914 -2.5596  0.2142  1.4003
 4285SOL    HW224489   2.194   4.514   5.817 -0.8820 -0.5411 -1.0970
 4286SOL     OW24490   2.206   0.271  13.468 -0.6296  0.1192 -0.1315
 4286SOL    HW124491   2.228   0.337  13.403  3.5235 -2.6261 -1.5492
 4286SOL    HW224492   2.287   0.276  13.519  0.7528 -0.8930 -2.2040
 4287SOL     OW24493   4.405   4.268   2.374 -0.3584  0.1502  0.0733
 4287SOL    HW124494   4.328   4.310   2.411 -0.1940 -0.6928  1.3354
 4287SOL    HW224495   4.413   4.329   2.300  1.9235  0.1813  0.3248
 4288SOL     OW24496   4.046   0.067   7.507 -0.3833 -0.0988  0.5730
 4288SOL    HW124497   3.955   0.096   7.502 -0.7653 -1.1309  1.5901
 4288SOL    HW224498   4.036   4.716   7.478  0.0534  0.8680 -2.4920
 4289SOL     OW24499   2.532   2.136   6.896 -0.2524 -0.4916 -0.0257
 4289SOL    HW124500   2.549   2.223   6.860 -0.5825 -0.7280 -0.7584
 4289SOL    HW224501   2.491   2.102   6.816  0.7022 -2.4009  0.3113
 4290SOL     OW24502   0.407   0.995   2.796 -0.5421  0.0746  0.2504
 4290SOL    HW124503   0.355   0.919   2.822  2.3048 -1.7467  0.6491
 4290SOL    HW224504   0.454   0.960   2.721  0.1532  1.4946  0.0223
 4291SOL     OW24505   4.450   1.865   7.015  0.2808 -0.4265 -0.0584
 4291SOL    HW124506   4.523   1.850   7.075  0.0162  1.9743  0.8874
 4291SOL    HW224507   4.391   1.796   7.046  0.1413 -1.0532 -1.7418
 4292SOL     OW24508   0.252   4.592   8.447  0.2519  0.7927  0.4520
 4292SOL    HW124509   0.195   4.537   8.500  2.2082  0.6108  2.3150
 4292SOL    HW224510   0.196   4.670   8.441  0.0308  0.5603 -0.5419
 4293SOL     OW24511   3.794   2.188   1.814 -0.8176 -0.0487 -0.1977
 4293SOL    HW124512   3.824   2.218   1.900 -3.2986  2.0473 -0.0732
 4293SOL    HW224513   3.871   2.167   1.761  0.0405 -1.2777  1.5204
 4294SOL     OW24514   3.383   3.935   3.259 -0.2736  0.2967  0.2947
 4294SOL    HW124515   3.330   3.881   3.201  1.1792  1.5811 -2.2028
 4294SOL    HW224516   3.349   4.024   3.248 -0.2938  0.7335  3.8767
 4295SOL     OW24517   3.162   4.155   7.776 -0.2250 -0.2771  0.0633
 4295SOL    HW124518   3.087   4.155   7.716  0.5555  1.3059 -0.9135
 4295SOL    HW224519   3.119   4.156   7.861 -2.2232  0.2229 -0.9570
 4296SOL     OW24520   4.264   1.048  15.589  0.1431 -0.1227  0.5013
 4296SOL    HW124521   4.244   1.141  15.602 -2.4926 -0.6824  0.3050
 4296SOL    HW224522   4.197   1.015  15.648 -0.4762 -1.2139 -0.8309
 4297SOL     OW24523   0.122   1.917  11.709  0.6716  0.5411 -0.6359
 4297SOL    HW124524   0.048   1.976  11.700  1.6542  1.5944 -1.6977
 4297SOL    HW224525   0.103   1.852  11.641  2.1606 -0.3529 -0.2182
 4298SOL     OW24526   4.510   0.580  15.992  0.1818 -0.2286 -0.1632
 4298SOL    HW124527   4.599   0.610  16.012 -0.3058  1.8735 -1.1555
 4298SOL    HW224528   4.468   0.663  15.971 -0.7329 -1.2174 -2.1503
 4299SOL     OW24529   1.202   3.003   6.752  0.8356 -0.0644 -0.0906
 4299SOL    HW124530   1.195   2.909   6.764 -0.6093 -0.2320 -2.0973
 4299SOL    HW224531   1.183   3.012   6.658  3.5338 -0.6124 -0.6665
 4300SOL     OW24532   3.965   4.545   5.436 -0.0362  0.1563 -0.2211
 4300SOL    HW124533   3.910   4.597   5.378  2.4668  0.9701 -1.8780
 4300SOL    HW224534   3.923   4.460   5.424  0.4618 -0.0908 -0.2295
 4301SOL     OW24535   4.636   1.407   9.895  0.1642  0.0181 -0.2172
 4301SOL    HW124536   4.586   1.414   9.814  0.3037  1.0956 -0.2092
 4301SOL    HW224537   4.704   1.472   9.877 -1.0327  1.0612 -0.9380
 4302SOL     OW24538   3.602   0.228   5.462 -0.0348 -0.5404 -0.7367
 4302SOL    HW124539   3.675   0.174   5.492  0.2789  0.6156  0.5244
 4302SOL    HW224540   3.528   0.209   5.520 -0.4147 -0.5011 -1.2039
 4303SOL     OW24541   0.656   1.074   7.646  0.4657 -0.6489 -0.5385
 4303SOL    HW124542   0.589   1.074   7.578  0.3702  1.5773 -0.4166
 4303SOL    HW224543   0.592   1.050   7.714 -0.4209  3.7323  0.1480
 4304SOL     OW24544   0.100   1.553   7.902 -0.1565 -0.2010  0.4870
 4304SOL    HW124545   0.145   1.471   7.884  1.4997  1.1552 -1.5820
 4304SOL    HW224546   0.066   1.572   7.815 -2.1301 -0.8555  1.1133
 4305SOL     OW24547   0.798   1.845  12.464 -0.0060  0.2105 -0.2151
 4305SOL    HW124548   0.766   1.871  12.378  0.2911  1.2265 -0.0193
 4305SOL    HW224549   0.718   1.806  12.498  0.1640 -0.4750 -0.6012
 4306SOL     OW24550   4.413   1.370   3.029 -0.4221 -0.1244 -0.2151
 4306SOL    HW124551   4.351   1.364   3.101 -0.5261 -0.0672 -0.3003
 4306SOL    HW224552   4.404   1.284   2.988 -0.0271 -1.2584  2.1090
 4307SOL     OW24553   2.316   4.113  15.053 -0.4253 -0.2914 -0.3161
 4307SOL    HW124554   2.222   4.101  15.070 -0.4510  1.2731  0.6171
 4307SOL    HW224555   2.357   4.032  15.023  0.9591 -0.3029  1.6322
 4308SOL     OW24556   1.328   1.615   6.190 -0.4144 -0.0141  0.2656
 4308SOL    HW124557   1.323   1.610   6.095  0.0855  1.9913  0.1248
 4308SOL    HW224558   1.236   1.605   6.214 -0.4608 -0.0169  0.0843
 4309SOL     OW24559   4.274   4.037   3.972 -0.0435 -0.1034 -0.1783
 4309SOL    HW124560   4.195   3.989   3.999  0.1293  1.1239  2.5797
 4309SOL    HW224561   4.293   4.074   4.059  4.7700 -2.2886 -0.3568
 4310SOL     OW24562   3.924   0.128  16.187  0.4262  0.1551 -0.4757
 4310SOL    HW124563   3.945   0.221  16.195  1.2653  0.0197 -1.1375
 4310SOL    HW224564   3.951   0.095  16.273 -2.1933 -1.0498 -0.1263
 4311SOL     OW24565   3.759   0.189  15.203 -0.1291  0.9658 -0.3388
 4311SOL    HW124566   3.698   0.131  15.156 -2.5618  1.9102  1.6515
 4311SOL    HW224567   3.834   0.175  15.145  0.4240  0.4171  0.5054
 4312SOL     OW24568   0.169   2.312  11.194 -0.6505 -0.1023 -0.3493
 4312SOL    HW124569   0.226   2.380  11.230  0.0257  0.3492 -2.2558
 4312SOL    HW224570   0.185   2.244  11.259 -1.0007  1.4207  1.3601
 4313SOL     OW24571   2.518   0.329   5.995  0.0669 -0.6396  0.0031
 4313SOL    HW124572   2.456   0.275   5.945  2.2256  0.4081 -3.8538
 4313SOL    HW224573   2.472   0.412   5.981  0.6404 -0.6052 -1.7440
 4314SOL     OW24574   1.807   2.300   2.065 -0.0069 -0.2572 -0.2177
 4314SOL    HW124575   1.809   2.205   2.077 -0.1669 -0.4063 -1.3550
 4314SOL    HW224576   1.714   2.304   2.042  0.3277 -1.5310 -1.7307
 4315SOL     OW24577   2.676   0.763   8.890  0.2310 -0.8620  0.3022
 4315SOL    HW124578   2.732   0.716   8.829 -1.1836 -1.9385 -0.1549
 4315SOL    HW224579   2.591   0.724   8.871  0.1754 -0.3226 -0.5417
 4316SOL     OW24580   3.240   4.271  11.959 -0.2388  0.3844 -0.5766
 4316SOL    HW124581   3.229   4.353  12.008  1.7986  0.8658 -0.9204
 4316SOL    HW224582   3.313   4.229  12.005  1.1302 -0.1039 -3.1779
 4317SOL     OW24583   3.216   2.310   5.735  0.6169  0.6479  0.4979
 4317SOL    HW124584   3.269   2.369   5.682  4.0638 -1.6141  1.4647
 4317SOL    HW224585   3.294   2.266   5.769 -0.0613  0.2667  1.5840
 4318SOL     OW24586   0.313   4.644   1.174  0.1320 -0.0963  0.7720
 4318SOL    HW124587   0.218   4.651   1.175 -0.0026 -1.6164 -0.9672
 4318SOL    HW224588   0.340   4.735   1.161 -1.5066  0.3999  0.8190
 4319SOL     OW24589   4.316   3.654   3.732 -0.2738  0.8791 -0.1010
 4319SOL    HW124590   4.268   3.731   3.701  2.2080  2.5830  0.3069
 4319SOL    HW224591   4.399   3.655   3.683 -0.1174  1.0032  0.1662
 4320SOL     OW24592   2.546   3.269  16.270 -0.1856 -0.9704  0.2481
 4320SOL    HW124593   2.511   3.305  16.188 -0.5319 -2.0963 -0.0978
 4320SOL    HW224594   2.498   3.187  16.275 -0.3526 -0.8647  0.3728
 4321SOL     OW24595   4.577   1.824   8.763  0.2133  0.2085 -0.0855
 4321SOL    HW124596   4.656   1.845   8.812 -0.8158  0.4548  1.4806
 4321SOL    HW224597   4.579   1.900   8.704 -1.5750  2.2227  2.4010
 4322SOL     OW24598   3.890   0.132   7.256  0.2533 -0.1455 -0.0115
 4322SOL    HW124599   3.975   0.109   7.218 -0.1189  0.6720 -1.3526
 4322SOL    HW224600   3.845   0.160   7.176  3.3621  1.6568 -1.1350
 4323SOL     OW24601   2.163   1.982  15.010  0.1531 -0.5324 -0.1210
 4323SOL    HW124602   2.232   1.920  14.989  0.5422  0.0020 -0.4207
 4323SOL    HW224603   2.208   2.014  15.088 -0.1593 -1.3971  0.4136
 4324SOL     OW24604   3.514   0.873   7.310  0.5355  0.0191  0.8113
 4324SOL    HW124605   3.577   0.937   7.346  0.5655  0.7211 -0.4996
 4324SOL    HW224606   3.474   0.837   7.389 -0.4825 -2.2168 -0.7485
 4325SOL     OW24607   1.411   0.034   4.240  0.2531  0.3114 -0.1176
 4325SOL    HW124608   1.334   0.079   4.275  1.1622  2.2545 -0.6578
 4325SOL    HW224609   1.477   0.100   4.261 -0.1710  0.3442  1.0901
 4326SOL     OW24610   3.478   3.264   0.230  0.0199  0.3785  0.0022
 4326SOL    HW124611   3.408   3.326   0.210  0.4404  0.6573 -0.5850
 4326SOL    HW224612   3.454   3.231   0.317 -1.0401 -0.1295 -0.4819
 4327SOL     OW24613   4.504   1.426   9.157  0.4043 -0.0041  0.1105
 4327SOL    HW124614   4.593   1.417   9.124  0.5951 -0.3333  0.7115
 4327SOL    HW224615   4.480   1.333   9.163 -1.7497  0.5432  0.0386
 4328SOL     OW24616   2.820   1.027   4.023  0.4295  0.2362 -0.1051
 4328SOL    HW124617   2.861   1.072   3.949  0.1046 -0.6761 -0.8369
 4328SOL    HW224618   2.865   1.073   4.094  1.7895 -1.4986  0.1728
 4329SOL     OW24619   2.187   2.174  12.639  0.0680 -0.5954 -0.0349
 4329SOL    HW124620   2.141   2.096  12.607 -1.1806 -0.4601  1.4296
 4329SOL    HW224621   2.144   2.229  12.573 -1.1424  0.9599  2.0479
 4330SOL     OW24622   3.992   2.872  14.838  0.0730  0.8420 -0.2575
 4330SOL    HW124623   3.990   2.935  14.766 -1.4076  0.9929 -0.0713
 4330SOL    HW224624   3.900   2.860  14.860  0.5397 -0.6505  0.9219
 4331SOL     OW24625   4.120   0.066   3.498 -0.6361 -0.2126  0.0137
 4331SOL    HW124626   4.160   4.730   3.453 -0.2171  0.6194 -1.0253
 4331SOL    HW224627   4.028   0.053   3.476 -0.8020  0.1466  0.5083
 4332SOL     OW24628   3.955   2.238   4.712 -0.2179 -0.9811  0.4380
 4332SOL    HW124629   3.964   2.144   4.727  4.0558 -0.9546 -1.8855
 4332SOL    HW224630   3.973   2.255   4.805 -0.1833  2.1677 -0.1268
 4333SOL     OW24631   1.610   3.219   0.087 -0.2438 -0.4254 -0.5596
 4333SOL    HW124632   1.577   3.201  17.755  0.9327 -1.0752 -0.8706
 4333SOL    HW224633   1.698   3.253   0.068 -0.6784  0.0924 -1.6820
 4334SOL     OW24634   4.343   2.083  12.019 -0.7269 -0.1191 -0.5668
 4334SOL    HW124635   4.270   2.107  11.962 -1.6152  0.4477  0.8127
 4334SOL    HW224636   4.353   1.993  11.988 -0.7736 -0.4788  0.4759
 4335SOL     OW24637   2.347   2.609   9.119  0.0949  0.1870 -0.1369
 4335SOL    HW124638   2.360   2.566   9.204 -1.2052 -1.9220 -1.0160
 4335SOL    HW224639   2.276   2.553   9.086  3.6907 -2.5918 -3.0626
 4336SOL     OW24640   0.766   1.900   8.459  0.0414 -0.0320 -0.6796
 4336SOL    HW124641   0.831   1.920   8.391 -0.2529 -2.0211 -1.5383
 4336SOL    HW224642   0.707   1.848   8.405  1.1386 -1.5672 -0.4039
 4337SOL     OW24643   1.157   3.633   5.536 -0.0610  0.1323 -0.1649
 4337SOL    HW124644   1.232   3.669   5.488 -0.4839 -1.4922 -2.0167
 4337SOL    HW224645   1.184   3.628   5.628  0.6312  0.0625 -0.3705
 4338SOL     OW24646   4.697   3.650  12.896  0.4759  0.0721 -0.5944
 4338SOL    HW124647   0.033   3.638  12.954  0.5605 -1.6838 -1.0665
 4338SOL    HW224648   4.665   3.560  12.888  0.7883  0.1481 -2.5648
 4339SOL     OW24649   0.795   2.893   8.069 -1.2123 -0.2167  0.6314
 4339SOL    HW124650   0.830   2.961   8.126 -0.7461 -0.1686  0.2967
 4339SOL    HW224651   0.712   2.929   8.039 -1.1541  0.7979  1.7008
 4340SOL     OW24652   0.271   1.603   9.688 -0.0881  0.2030  0.2823
 4340SOL    HW124653   0.362   1.575   9.700 -0.1613  0.7490  2.1379
 4340SOL    HW224654   0.231   1.566   9.766  1.1233 -1.2603  0.2077
 4341SOL     OW24655   0.121   2.614   3.100 -0.6557  0.4428  0.1217
 4341SOL    HW124656   0.037   2.568   3.104 -0.0579 -0.6172  0.3079
 4341SOL    HW224657   0.158   2.581   3.018 -1.3752 -1.3561  0.5421
 4342SOL     OW24658   4.627   2.782   3.028 -0.3313 -0.2684 -0.0475
 4342SOL    HW124659   4.638   2.756   2.937 -1.6598  0.8471 -0.5188
 4342SOL    HW224660   4.580   2.711   3.073 -0.1990 -0.1958  0.2080
 4343SOL     OW24661   1.476   1.493   7.452  0.3859 -0.0132  0.4984
 4343SOL    HW124662   1.411   1.492   7.383  1.4699  1.4289 -0.5410
 4343SOL    HW224663   1.509   1.403   7.453 -1.5810 -0.7193  1.4579
 4344SOL     OW24664   3.973   1.878  17.532 -0.1074 -0.4997  0.1363
 4344SOL    HW124665   3.927   1.957  17.503 -1.3921 -1.1935  0.2937
 4344SOL    HW224666   4.005   1.834  17.454 -0.2026  2.0253 -1.3255
 4345SOL     OW24667   4.144   4.195   6.210  0.2561 -0.3135 -0.0588
 4345SOL    HW124668   4.160   4.207   6.117 -2.9761 -0.9073 -0.6953
 4345SOL    HW224669   4.068   4.138   6.205 -0.9443  1.2381  0.3678
 4346SOL     OW24670   1.594   3.689   2.444  0.7236 -0.0167 -0.0856
 4346SOL    HW124671   1.665   3.626   2.460 -2.2961 -3.0620  1.3014
 4346SOL    HW224672   1.533   3.638   2.496  3.3556 -2.8290  0.2676
 4347SOL     OW24673   4.288   0.895   7.454  0.3738 -0.5607  0.2230
 4347SOL    HW124674   4.297   0.810   7.412 -0.7727  0.1471 -1.4703
 4347SOL    HW224675   4.205   0.887   7.500  1.1028  1.7321  1.9319
 4348SOL     OW24676   2.675   3.344   0.318 -0.0485  0.2660  0.1224
 4348SOL    HW124677   2.755   3.294   0.333  0.4125  0.6419 -1.1031
 4348SOL    HW224678   2.632   3.323   0.401 -0.2742 -0.1176 -0.0884
 4349SOL     OW24679   3.271   3.462  16.975  0.1427  0.1956  0.3949
 4349SOL    HW124680   3.354   3.444  16.929 -1.3817  0.9367 -2.6799
 4349SOL    HW224681   3.264   3.384  17.029  0.1336 -1.2492 -1.6814
 4350SOL     OW24682   2.712   4.217   5.020 -0.0031 -0.7558  0.0184
 4350SOL    HW124683   2.674   4.195   4.935  0.2486 -0.3324 -0.2048
 4350SOL    HW224684   2.770   4.283   4.982  0.7009 -0.9790  0.7026
 4351SOL     OW24685   4.537   4.435   6.262 -0.1155  0.4660  0.3312
 4351SOL    HW124686   4.460   4.396   6.303  0.7924 -1.5149  0.1247
 4351SOL    HW224687   4.501   4.478   6.184 -1.6110 -2.0129 -0.3411
 4352SOL     OW24688   1.641   2.833  11.793  0.4273 -0.1659 -0.4647
 4352SOL    HW124689   1.685   2.898  11.739  0.8586  0.9718  1.2716
 4352SOL    HW224690   1.617   2.887  11.868  2.6287  2.6416 -1.7869
 4353SOL     OW24691   1.771   1.913   3.481  0.4233  0.9077  0.0081
 4353SOL    HW124692   1.730   1.944   3.400  0.9076  0.6708 -0.3246
 4353SOL    HW224693   1.863   1.914   3.458  0.9612 -0.6406  2.1809
 4354SOL     OW24694   2.753   0.076   4.528  0.3364  0.1938 -0.2843
 4354SOL    HW124695   2.689   0.102   4.593  0.5212 -3.0937  1.2002
 4354SOL    HW224696   2.710   0.067   4.443 -0.9276 -1.1369  0.5174
 4355SOL     OW24697   4.332   0.539   1.089 -0.5235 -0.2289  0.2889
 4355SOL    HW124698   4.251   0.490   1.101 -0.3135 -0.1851  1.8492
 4355SOL    HW224699   4.406   0.481   1.108 -0.9481 -0.9017 -0.1071
 4356SOL     OW24700   1.094   3.944   9.373  0.4812 -0.7152  0.0674
 4356SOL    HW124701   1.026   3.934   9.306  0.5277 -0.9875  0.0627
 4356SOL    HW224702   1.153   4.005   9.330  0.8288 -0.8865  0.3041
 4357SOL     OW24703   1.238   2.423   5.238 -0.3572 -0.2721  0.4650
 4357SOL    HW124704   1.153   2.397   5.203 -0.8509  0.4997  1.1078
 4357SOL    HW224705   1.215   2.460   5.323 -2.3075 -0.0735 -0.1568
 4358SOL     OW24706   4.521   2.639   7.656  0.2488 -0.0513  0.3002
 4358SOL    HW124707   4.561   2.665   7.573  0.2732  2.1211  0.9885
 4358SOL    HW224708   4.602   2.628   7.706  0.4124 -1.5078 -0.2858
 4359SOL     OW24709   2.033   3.236  15.511 -0.2777 -0.2716 -0.4437
 4359SOL    HW124710   2.082   3.308  15.550  0.8287 -2.0213  1.4248
 4359SOL    HW224711   2.088   3.171  15.554 -0.0887  0.8059  0.9361
 4360SOL     OW24712   0.108   1.272   5.572 -0.3749 -0.4462  0.4731
 4360SOL    HW124713   0.173   1.233   5.513  0.9204  0.8039  1.0683
 4360SOL    HW224714   0.034   1.212   5.569 -0.5889  0.0573 -3.9889
 4361SOL     OW24715   4.251   2.659   7.699 -0.1593 -0.1464  0.1735
 4361SOL    HW124716   4.294   2.708   7.768 -0.7048 -0.9819  1.1104
 4361SOL    HW224717   4.332   2.650   7.649 -0.7432 -2.1406 -0.4074
 4362SOL     OW24718   0.240   0.042   9.114 -0.3914  0.1608  0.1163
 4362SOL    HW124719   0.278   0.127   9.138  0.8668  0.1689 -1.9523
 4362SOL    HW224720   0.150   0.053   9.145  0.5387  1.3874  2.3660
 4363SOL     OW24721   2.922   1.165   0.772 -0.0593  0.3671 -0.1652
 4363SOL    HW124722   2.960   1.182   0.686  0.4524 -0.9869 -0.2164
 4363SOL    HW224723   2.972   1.228   0.823 -0.3856 -0.4334  1.1342
 4364SOL     OW24724   4.197   1.032   3.068  0.2684 -0.1311  0.2234
 4364SOL    HW124725   4.249   1.073   2.999  0.5319  2.6528  2.0639
 4364SOL    HW224726   4.265   0.988   3.119 -0.0938 -1.3131 -0.3158
 4365SOL     OW24727   1.076   4.061   2.745 -0.0878  0.4117 -0.1230
 4365SOL    HW124728   1.095   4.049   2.838  2.4561  2.3122 -0.4125
 4365SOL    HW224729   1.151   4.099   2.700  0.7781 -0.4715  0.5622
 4366SOL     OW24730   2.601   1.954   3.604  0.0711 -0.7586 -0.5418
 4366SOL    HW124731   2.625   1.949   3.696 -0.0140 -0.7884 -0.5219
 4366SOL    HW224732   2.597   1.859   3.587 -2.0838 -0.7806  0.2176
 4367SOL     OW24733   2.921   2.868   9.564  0.2864 -0.7642  0.3611
 4367SOL    HW124734   2.937   2.843   9.655  0.2389 -1.3235  0.2161
 4367SOL    HW224735   2.930   2.959   9.591  3.3773 -1.1527  0.6529
 4368SOL     OW24736   0.387   1.985   7.209 -0.4838 -0.5236  0.2398
 4368SOL    HW124737   0.419   1.899   7.181 -0.8801 -0.1499 -1.3682
 4368SOL    HW224738   0.459   2.039   7.175 -1.7044  2.1750  1.9015
 4369SOL     OW24739   2.882   2.694   0.049  0.0427  0.1493 -0.0073
 4369SOL    HW124740   2.820   2.637   0.004 -2.3133  2.5972  0.1418
 4369SOL    HW224741   2.958   2.690  17.747 -0.0424 -2.6014  0.0599
 4370SOL     OW24742   3.656   0.726   4.461  1.1980 -0.6247 -0.1454
 4370SOL    HW124743   3.730   0.701   4.516  1.1797  1.2467  0.7488
 4370SOL    HW224744   3.589   0.699   4.524 -0.5054 -0.7880 -1.9986
 4371SOL     OW24745   2.167   0.941  15.431  0.4339 -0.2513 -0.0334
 4371SOL    HW124746   2.118   0.980  15.358 -3.8710 -3.5280  1.1292
 4371SOL    HW224747   2.197   0.871  15.373  0.8802 -0.1333  0.0488
 4372SOL     OW24748   2.138   1.756   4.430  0.2657  0.1849  0.2439
 4372SOL    HW124749   2.108   1.691   4.494  2.7894 -4.3985 -3.2467
 4372SOL    HW224750   2.053   1.786   4.398  0.3029  0.8445  0.7734
 4373SOL     OW24751   4.384   0.982   2.046  0.3622  0.4141 -0.0456
 4373SOL    HW124752   4.302   1.019   2.014 -0.3740 -0.1653  1.1405
 4373SOL    HW224753   4.381   1.016   2.135  1.5758  0.9759 -0.2299
 4374SOL     OW24754   2.402   3.734  16.541  0.4455 -0.1846 -0.7636
 4374SOL    HW124755   2.429   3.809  16.489  1.8042  0.5952  1.0825
 4374SOL    HW224756   2.399   3.672  16.468  1.1797 -0.2698 -0.7213
 4375SOL     OW24757   4.070   3.362   5.670 -0.0477 -0.8042 -0.5433
 4375SOL    HW124758   4.037   3.445   5.635  0.3614 -0.4138 -0.0053
 4375SOL    HW224759   4.163   3.377   5.683 -0.3881  1.0082 -0.2079
 4376SOL     OW24760   3.220   0.609   8.030 -0.3713 -0.7085 -0.0720
 4376SOL    HW124761   3.233   0.565   8.114  1.6036  0.1379  0.0650
 4376SOL    HW224762   3.157   0.553   7.984 -0.7136  0.2180 -0.7294
 4377SOL     OW24763   4.140   4.237   2.560  0.2256 -0.4723 -0.0128
 4377SOL    HW124764   4.103   4.306   2.504  0.7810 -0.2165 -0.0689
 4377SOL    HW224765   4.065   4.235   2.619 -1.6178  1.3495 -2.3270
 4378SOL     OW24766   1.707   3.244   3.540 -0.2658  0.5098  0.8467
 4378SOL    HW124767   1.661   3.319   3.504  3.4144  1.3065 -2.1257
 4378SOL    HW224768   1.788   3.278   3.578 -0.2142  0.7161  0.5516
 4379SOL     OW24769   0.627   2.917   5.233  0.2304  0.7076  0.2934
 4379SOL    HW124770   0.643   2.967   5.312  0.8395 -0.9426  1.2081
 4379SOL    HW224771   0.533   2.931   5.217  0.5220  0.9311 -1.2104
 4380SOL     OW24772   1.736   0.697  10.512  0.1312  0.7541 -0.0886
 4380SOL    HW124773   1.811   0.755  10.524  0.1857  0.3307  1.7619
 4380SOL    HW224774   1.712   0.664  10.599  1.5809  0.9564  0.3843
 4381SOL     OW24775   2.107   2.552   4.748 -0.5014 -0.4009  0.1281
 4381SOL    HW124776   2.177   2.529   4.809 -0.4126  0.0366  0.1876
 4381SOL    HW224777   2.053   2.474   4.733 -0.1260 -0.6983  0.3143
 4382SOL     OW24778   2.391   2.896   1.200 -0.3598 -0.0290 -0.5499
 4382SOL    HW124779   2.447   2.900   1.277 -0.4386  0.7967 -0.5383
 4382SOL    HW224780   2.342   2.817   1.222  1.9012 -0.9954  0.9825
 4383SOL     OW24781   0.340   1.970   4.257  0.3025 -0.5950  0.1549
 4383SOL    HW124782   0.311   2.049   4.212  0.1381  0.4950  2.1866
 4383SOL    HW224783   0.362   2.021   4.335 -0.6471  1.2042 -0.7575
 4384SOL     OW24784   1.116   2.239   3.272 -0.2541  0.1200  0.4375
 4384SOL    HW124785   1.176   2.273   3.340  0.4897  1.4850 -0.8982
 4384SOL    HW224786   1.066   2.190   3.337 -2.1207  1.2814 -0.1274
 4385SOL     OW24787   3.797   2.075   2.694  0.2091 -0.6144  0.1047
 4385SOL    HW124788   3.770   2.059   2.604 -0.1075 -0.6453  0.2046
 4385SOL    HW224789   3.784   1.985   2.723 -0.0765  0.5017  3.5364
 4386SOL     OW24790   2.853   4.563   9.531  0.4182  0.7190  0.2914
 4386SOL    HW124791   2.835   4.570   9.437 -0.4794  0.9455  0.4846
 4386SOL    HW224792   2.943   4.594   9.533  0.2829  1.2094 -0.9862
 4387SOL     OW24793   4.270   3.749  10.293  0.1429  0.0294 -0.1157
 4387SOL    HW124794   4.254   3.659  10.267 -0.1510  0.2501 -0.7087
 4387SOL    HW224795   4.184   3.772  10.329  0.8439 -0.0110  1.5835
 4388SOL     OW24796   2.274   2.120  12.900  0.1206  0.1229 -0.1446
 4388SOL    HW124797   2.183   2.124  12.930  0.1594  2.3583 -0.2927
 4388SOL    HW224798   2.273   2.128  12.804 -1.2258  1.7297 -0.0036
 4389SOL     OW24799   3.991   3.489   8.070 -0.2806 -0.4897 -0.1152
 4389SOL    HW124800   4.006   3.555   8.138 -1.6535  0.8418 -1.0937
 4389SOL    HW224801   4.027   3.532   7.992  0.2262  0.5329  0.6685
 4390SOL     OW24802   3.635   0.063   5.984  0.3888  0.0597 -0.1369
 4390SOL    HW124803   3.591   0.033   6.064  1.8199 -0.2402  0.5253
 4390SOL    HW224804   3.724   0.029   5.991  0.3144  0.1143  1.0106
 4391SOL     OW24805   2.857   3.971   0.950  0.1237  0.1384 -0.4391
 4391SOL    HW124806   2.938   4.007   0.984  0.3990 -0.8371 -0.0638
 4391SOL    HW224807   2.826   4.034   0.884 -2.3906  0.8008  1.3971
 4392SOL     OW24808   4.314   0.464   8.326  0.0648  0.4138 -0.2873
 4392SOL    HW124809   4.308   0.370   8.341 -1.2329  0.0814 -2.9153
 4392SOL    HW224810   4.323   0.480   8.420  1.9355  0.4421 -0.4850
 4393SOL     OW24811   1.413   0.585   7.932  0.3580  0.6546  0.0239
 4393SOL    HW124812   1.490   0.570   7.877  0.4115  1.2887 -0.0684
 4393SOL    HW224813   1.414   0.680   7.924  1.0614  0.6071 -0.4782
 4394SOL     OW24814   1.430   3.839  15.447 -0.5327 -0.0786 -0.7296
 4394SOL    HW124815   1.487   3.822  15.372 -0.5562  0.0318 -0.7722
 4394SOL    HW224816   1.496   3.801  15.504  0.2471  0.0281 -1.5648
 4395SOL     OW24817   2.722   1.898   5.860 -0.0081  0.0942 -0.4393
 4395SOL    HW124818   2.692   1.817   5.900 -1.6831  1.2720  0.6502
 4395SOL    HW224819   2.709   1.880   5.767  1.5729  0.0117 -0.6435
 4396SOL     OW24820   0.104   4.145   1.638 -0.3550  0.6064 -0.6615
 4396SOL    HW124821   0.172   4.141   1.705 -0.6388  2.5120 -0.2748
 4396SOL    HW224822   0.024   4.110   1.678 -1.5231  2.1991 -1.6065
 4397SOL     OW24823   0.301   2.219   7.354  0.2062 -0.0467  0.5471
 4397SOL    HW124824   0.332   2.266   7.277 -1.4070  1.4158  0.7878
 4397SOL    HW224825   0.327   2.132   7.323  2.2491  0.5446  0.6706
 4398SOL     OW24826   3.850   1.640  11.453  0.2326 -0.3705  0.0459
 4398SOL    HW124827   3.809   1.628  11.368 -1.1988  0.5034  0.6057
 4398SOL    HW224828   3.773   1.666  11.504  0.3739  0.0475  0.0381
 4399SOL     OW24829   0.633   0.461   4.350 -0.4525 -0.6427  0.0593
 4399SOL    HW124830   0.593   0.374   4.348 -0.3183 -0.7012 -0.0263
 4399SOL    HW224831   0.706   0.435   4.295  2.8046  3.3234  2.5662
 4400SOL     OW24832   0.679   4.101   7.553  0.0774 -0.3334  0.3505
 4400SOL    HW124833   0.674   4.024   7.610 -3.5709 -0.7198 -0.4396
 4400SOL    HW224834   0.664   4.171   7.616 -1.6541 -1.0430  0.7511
 4401SOL     OW24835   2.042   3.315   4.935 -0.2805  0.2744  0.1530
 4401SOL    HW124836   2.030   3.221   4.945 -0.8598  0.5038  1.6056
 4401SOL    HW224837   2.007   3.354   5.015 -0.6952 -2.9244  1.5250
 4402SOL     OW24838   4.440   3.642   2.395 -0.0981 -0.2690 -0.1055
 4402SOL    HW124839   4.515   3.655   2.453  0.6600  0.0419 -1.1594
 4402SOL    HW224840   4.368   3.689   2.438  0.7865 -0.2115  1.3175
 4403SOL     OW24841   3.134   1.383   3.211  0.1095  0.4503  0.4164
 4403SOL    HW124842   3.064   1.403   3.149 -0.9055 -4.6340 -0.0660
 4403SOL    HW224843   3.077   1.350   3.280  1.8503  1.9078  2.5461
 4404SOL     OW24844   3.712   0.038   9.447 -0.4942 -0.2576  0.1011
 4404SOL    HW124845   3.631   0.087   9.429  0.5144  1.6818  0.8498
 4404SOL    HW224846   3.709   0.014   9.540  3.5909 -2.2972 -0.3361
 4405SOL     OW24847   0.721   0.411   6.823 -0.2253  0.3401  0.4860
 4405SOL    HW124848   0.715   0.328   6.870  2.2825 -0.7877 -1.2337
 4405SOL    HW224849   0.802   0.403   6.773  0.5071  0.6350  1.6119
 4406SOL     OW24850   0.933   0.475   6.410  0.4364 -0.2839 -0.2194
 4406SOL    HW124851   1.019   0.465   6.369  0.4411  1.0487 -0.5261
 4406SOL    HW224852   0.954   0.416   6.483 -0.8225 -0.7885 -0.2672
 4407SOL     OW24853   4.261   1.197  16.200 -0.4160  0.6066 -0.2653
 4407SOL    HW124854   4.202   1.256  16.153 -1.7338 -0.8112 -0.4022
 4407SOL    HW224855   4.309   1.251  16.263 -2.7142 -0.0979  2.0503
 4408SOL     OW24856   2.099   2.059   4.890 -0.4603 -0.1075  0.4941
 4408SOL    HW124857   2.057   2.047   4.975  0.4587  0.2193  0.9994
 4408SOL    HW224858   2.161   1.986   4.894 -1.2538 -0.7294  1.6387
 4409SOL     OW24859   1.271   3.860  15.693 -0.0208 -0.1003 -0.0046
 4409SOL    HW124860   1.287   3.833  15.602 -1.9289  0.6616 -0.5558
 4409SOL    HW224861   1.178   3.880  15.703  0.6710  1.4671  3.2847
 4410SOL     OW24862   0.690   0.302   9.806  0.1861 -0.2984  0.6902
 4410SOL    HW124863   0.632   0.372   9.777 -1.4647 -1.0382  2.1227
 4410SOL    HW224864   0.626   0.231   9.821  1.4015 -1.5548 -0.0953
 4411SOL     OW24865   0.358   4.039  12.736  0.5107 -0.0871 -0.2417
 4411SOL    HW124866   0.401   4.039  12.821  1.2548  0.6252 -0.6147
 4411SOL    HW224867   0.400   3.959  12.702  0.8353 -1.4300  3.3011
 4412SOL     OW24868   1.710   4.491   7.608  0.4277  0.2727 -0.2673
 4412SOL    HW124869   1.616   4.491   7.623  0.3904 -1.3034 -0.5002
 4412SOL    HW224870   1.716   4.444   7.525  0.1089 -1.3797  0.6318
 4413SOL     OW24871   1.987   2.742  16.956  0.1933 -0.0107  0.1049
 4413SOL    HW124872   2.029   2.672  17.006  0.3343 -0.1842 -0.2618
 4413SOL    HW224873   1.937   2.697  16.889 -0.4408 -1.8883  1.8322
 4414SOL     OW24874   1.840   4.381   3.607  0.4094 -0.1847  0.5873
 4414SOL    HW124875   1.924   4.335   3.610 -0.4336 -1.5965  2.3329
 4414SOL    HW224876   1.843   4.442   3.533  0.7167 -1.0066 -0.0817
 4415SOL     OW24877   2.938   2.128  15.014 -0.1127  0.1145 -0.5209
 4415SOL    HW124878   2.930   2.044  15.060  2.6331 -0.8572 -1.7767
 4415SOL    HW224879   2.853   2.135  14.970 -1.1029  1.0663  1.5498
 4416SOL     OW24880   2.659   4.231   9.279  0.9925  0.5803 -0.3993
 4416SOL    HW124881   2.614   4.243   9.363 -1.7462 -0.1940 -1.7789
 4416SOL    HW224882   2.593   4.250   9.212  0.3093 -2.5305 -0.6104
 4417SOL     OW24883   4.539   1.561   6.409 -0.3846  0.2330  0.1237
 4417SOL    HW124884   4.590   1.620   6.465 -1.1651  2.0254 -1.0471
 4417SOL    HW224885   4.606   1.498   6.383 -2.2394 -0.8792 -1.9222
 4418SOL     OW24886   3.890   4.236   4.835  0.4553 -0.3369 -0.2947
 4418SOL    HW124887   3.829   4.240   4.908  0.5296  0.7318 -0.2982
 4418SOL    HW224888   3.837   4.186   4.773  0.6291 -0.0550 -0.6731
 4419SOL     OW24889   2.563   3.108   8.429 -0.7117  0.5878  0.4275
 4419SOL    HW124890   2.578   3.099   8.335  1.1398 -5.6294  1.3380
 4419SOL    HW224891   2.523   3.025   8.455  1.0292 -0.4493 -0.2220
 4420SOL     OW24892   2.113   3.480   7.616  0.4301 -0.0309  0.1773
 4420SOL    HW124893   2.084   3.391   7.638  0.5750 -0.3797 -1.0562
 4420SOL    HW224894   2.206   3.468   7.600  0.5510  0.7696  0.2853
 4421SOL     OW24895   4.623   2.084   8.159  0.9526 -0.3000 -0.4070
 4421SOL    HW124896   4.718   2.096   8.151  0.9006  0.1130 -0.3678
 4421SOL    HW224897   4.602   2.142   8.087  0.2421  1.3487  1.1211
 4422SOL     OW24898   2.347   3.275   6.263  0.8121 -0.1821  0.1173
 4422SOL    HW124899   2.342   3.257   6.169 -0.6009 -0.6689  0.2847
 4422SOL    HW224900   2.280   3.342   6.276  1.7427  0.6591  0.5259
 4423SOL     OW24901   2.896   0.151   3.142 -0.6072  0.1489  0.5374
 4423SOL    HW124902   2.940   0.083   3.091 -1.0969  1.4797 -1.6519
 4423SOL    HW224903   2.805   0.142   3.116 -0.9181  1.4683  1.1527
 4424SOL     OW24904   4.735   3.061   5.408  0.0664 -0.3454 -0.1679
 4424SOL    HW124905   4.678   3.132   5.379  1.2784  0.1757 -1.2778
 4424SOL    HW224906   4.684   3.017   5.475  1.3985  0.0114  1.0793
 4425SOL     OW24907   0.041   4.739   4.844  0.0848  0.2031  0.2940
 4425SOL    HW124908   0.075   0.047   4.768  1.7920  0.6263  1.3324
 4425SOL    HW224909   4.689   4.721   4.820 -0.5780  2.1715  1.3907
 4426SOL     OW24910   0.930   0.790   8.115 -1.0426  0.6668  0.1905
 4426SOL    HW124911   0.997   0.854   8.090 -1.4399  0.7214 -0.7263
 4426SOL    HW224912   0.881   0.788   8.033 -2.9206  0.7763  1.2878
 4427SOL     OW24913   4.259   3.204   9.737 -0.5230 -0.0461  0.3030
 4427SOL    HW124914   4.331   3.146   9.760 -1.0055 -0.0374  1.9004
 4427SOL    HW224915   4.297   3.232   9.654  0.5331 -0.6588  0.5804
 4428SOL     OW24916   1.118   1.694   6.949  0.3928  0.3631  0.4150
 4428SOL    HW124917   1.040   1.719   6.998  0.6910 -1.6565  1.9525
 4428SOL    HW224918   1.182   1.752   6.989  0.6023  0.1839  0.3439
 4429SOL     OW24919   2.255   1.195  17.171 -0.7143 -0.4437 -0.6365
 4429SOL    HW124920   2.256   1.184  17.076 -1.5980  1.8715 -0.8871
 4429SOL    HW224921   2.170   1.238  17.171 -0.8697 -0.7457 -0.1527
 4430SOL     OW24922   1.409   0.526  14.816  0.0711  0.8938  0.2588
 4430SOL    HW124923   1.368   0.613  14.821  0.8330  1.1819  1.4211
 4430SOL    HW224924   1.425   0.517  14.722 -0.1566 -0.5238  0.3522
 4431SOL     OW24925   3.937   3.037   2.187 -0.4189  0.2098  0.5824
 4431SOL    HW124926   3.994   2.960   2.194 -2.3440 -1.0750  2.3187
 4431SOL    HW224927   3.919   3.039   2.093 -1.6858 -0.6082  0.7979
 4432SOL     OW24928   2.214   3.479   4.353 -0.2714 -0.4049 -0.2396
 4432SOL    HW124929   2.239   3.428   4.430  1.8484  1.4834  0.3287
 4432SOL    HW224930   2.125   3.445   4.343  0.3778 -1.9633 -0.7674
 4433SOL     OW24931   0.153   2.382   8.414  0.0965 -0.0230 -0.1327
 4433SOL    HW124932   0.178   2.295   8.446  0.8811 -0.2309 -1.3197
 4433SOL    HW224933   0.185   2.438   8.485  2.3295  0.2095 -1.3329
 4434SOL     OW24934   1.421   2.050  14.370  0.0612  0.1360  0.0014
 4434SOL    HW124935   1.454   1.960  14.366 -0.1457  0.1280 -1.2386
 4434SOL    HW224936   1.413   2.065  14.465  1.6682  1.4642 -0.0555
 4435SOL     OW24937   4.707   3.274   9.203 -0.1739  0.4655  0.0760
 4435SOL    HW124938   0.020   3.269   9.283  2.7936  0.0767 -1.9172
 4435SOL    HW224939   4.690   3.180   9.192  1.1540  0.4619 -1.9068
 4436SOL     OW24940   3.351   3.025  10.236 -0.2243  0.1331 -0.0436
 4436SOL    HW124941   3.396   3.103  10.268 -0.2954 -0.1357  0.6910
 4436SOL    HW224942   3.263   3.048  10.264 -0.3351 -0.6594  0.2456
 4437SOL     OW24943   0.285   4.162  17.167  0.2343 -0.0659 -0.2147
 4437SOL    HW124944   0.283   4.097  17.097 -0.2788 -0.0456 -0.2154
 4437SOL    HW224945   0.196   4.178  17.196  1.3117  0.1286  2.9967
 4438SOL     OW24946   1.776   3.748   3.356  0.0847 -0.0119 -0.3933
 4438SOL    HW124947   1.686   3.745   3.386 -0.1247 -0.5640 -1.0740
 4438SOL    HW224948   1.767   3.827   3.304 -0.5734  0.8350  1.0284
 4439SOL     OW24949   0.434   1.199   9.878  0.0468  1.0423 -0.1719
 4439SOL    HW124950   0.419   1.120   9.930  1.3370  0.1466 -1.1672
 4439SOL    HW224951   0.349   1.205   9.836 -0.1088  1.1808  0.1553
 4440SOL     OW24952   3.748   3.627  12.013 -0.1074  0.2944 -0.0427
 4440SOL    HW124953   3.689   3.699  12.036 -1.2344 -1.2269  1.8334
 4440SOL    HW224954   3.714   3.607  11.925 -0.3959  2.8464 -0.5132
 4441SOL     OW24955   0.183   1.399   3.430  0.3116 -0.5174 -0.3645
 4441SOL    HW124956   0.261   1.390   3.375  1.5640  0.3475  1.2799
 4441SOL    HW224957   0.202   1.489   3.457  1.5689 -1.2598  1.2275
 4442SOL     OW24958   1.948   4.158   8.036  0.1639  0.1876  0.1771
 4442SOL    HW124959   1.887   4.226   8.066 -0.3383  0.0293 -0.4665
 4442SOL    HW224960   2.024   4.178   8.089  1.0353 -0.0978 -0.9744
 4443SOL     OW24961   1.043   0.181  10.594 -0.2927  0.1783  0.5883
 4443SOL    HW124962   1.031   0.140  10.508 -1.8211 -1.4434  1.5775
 4443SOL    HW224963   1.138   0.197  10.598 -0.1921 -0.0693 -0.8042
 4444SOL     OW24964   2.634   2.221   5.636  0.4333  0.4993 -0.0322
 4444SOL    HW124965   2.690   2.298   5.635  1.3131 -0.1254  1.5951
 4444SOL    HW224966   2.649   2.186   5.724  0.8165 -0.1794 -0.3636
 4445SOL     OW24967   0.577   3.124   5.518 -0.6323 -0.0081  0.1266
 4445SOL    HW124968   0.592   3.201   5.573 -2.8505  0.6754 -0.2161
 4445SOL    HW224969   0.484   3.140   5.507 -0.2582  1.1045 -1.3420
 4446SOL     OW24970   2.593   4.462   1.452  0.1089  0.2442 -0.6229
 4446SOL    HW124971   2.632   4.423   1.374  0.9325  1.5491 -0.8538
 4446SOL    HW224972   2.659   4.516   1.494  0.5362 -0.4360 -0.4069
 4447SOL     OW24973   2.492   3.348   4.006 -0.2029  0.7481 -0.3319
 4447SOL    HW124974   2.487   3.444   4.016 -3.6926  0.3554  1.9971
 4447SOL    HW224975   2.398   3.338   4.023 -0.3043  0.1227 -1.2814
 4448SOL     OW24976   0.506   2.605   6.010  0.5678 -0.2751  0.2216
 4448SOL    HW124977   0.513   2.529   6.068  1.7408  0.3990  0.9658
 4448SOL    HW224978   0.411   2.615   6.004  0.3632 -2.4784 -0.1639
 4449SOL     OW24979   2.936   0.417   4.685  0.5190 -0.0366 -0.2320
 4449SOL    HW124980   2.952   0.438   4.593  0.9247  0.9881  0.0647
 4449SOL    HW224981   2.853   0.461   4.703 -0.3561 -1.5287 -0.6510
 4450SOL     OW24982   2.451   0.430   9.416  0.0807  0.4502 -0.2657
 4450SOL    HW124983   2.479   0.409   9.327  0.2081 -1.0656  0.1242
 4450SOL    HW224984   2.418   0.346   9.449  1.0577  0.3575  0.5045
 4451SOL     OW24985   2.776   2.054  15.660 -0.1199 -0.0913 -0.0330
 4451SOL    HW124986   2.764   2.037  15.754 -1.8527 -1.0475 -0.4107
 4451SOL    HW224987   2.820   1.973  15.632  1.0694 -0.2256  2.2117
 4452SOL     OW24988   0.474   4.140   3.790 -0.2414  0.1960 -0.6380
 4452SOL    HW124989   0.418   4.098   3.855 -2.0405  0.3474 -2.0595
 4452SOL    HW224990   0.480   4.073   3.722  2.5232 -1.1000  0.9067
 4453SOL     OW24991   4.049   2.779  11.443 -0.1237  0.4928 -0.3649
 4453SOL    HW124992   4.034   2.733  11.360  0.3948 -1.0708  0.4056
 4453SOL    HW224993   4.036   2.713  11.512  3.2588  1.9736  1.6589
 4454SOL     OW24994   2.868   1.788   8.316 -0.0138  0.0244 -0.0673
 4454SOL    HW124995   2.888   1.725   8.385 -1.0711  0.4557  0.6491
 4454SOL    HW224996   2.859   1.867   8.368 -1.2163  1.9903 -3.2252
 4455SOL     OW24997   0.237   0.395   8.722  0.3763 -0.1328 -0.2833
 4455SOL    HW124998   0.277   0.396   8.636 -1.2192  1.4432 -1.0226
 4455SOL    HW224999   0.151   0.430   8.696  0.1599 -0.9348 -0.6471
 4456SOL     OW25000   1.419   0.230   1.664 -1.2062 -0.7735 -0.3213
 4456SOL    HW125001   1.331   0.267   1.670 -1.5265 -1.7827  1.1877
 4456SOL    HW225002   1.428   0.209   1.756 -1.4717  1.0952  0.1338
 4457SOL     OW25003   0.651   2.861   9.457 -0.3160  0.2796  0.4617
 4457SOL    HW125004   0.699   2.812   9.390  2.9543  1.4525  1.9506
 4457SOL    HW225005   0.722   2.909   9.501 -0.8906  0.8611  0.7518
 4458SOL     OW25006   3.835   2.436  13.114 -0.3182  0.8414 -0.0823
 4458SOL    HW125007   3.772   2.428  13.042 -0.6160 -0.3129  0.2981
 4458SOL    HW225008   3.905   2.386  13.073 -0.5753  0.4005  0.0089
 4459SOL     OW25009   2.703   4.059   5.710  0.0928  0.0266  0.0007
 4459SOL    HW125010   2.793   4.082   5.732  0.6673 -1.3819 -0.8856
 4459SOL    HW225011   2.651   4.087   5.786  0.7890  1.6760 -0.1318
 4460SOL     OW25012   0.368   0.242   6.933 -0.0058 -0.0099 -0.2268
 4460SOL    HW125013   0.278   0.274   6.939 -0.1594 -0.8063  1.9131
 4460SOL    HW225014   0.359   0.150   6.908 -2.0379  0.3953 -1.0107
 4461SOL     OW25015   1.594   0.966   1.683  0.1294 -0.2948  0.6203
 4461SOL    HW125016   1.635   0.916   1.612 -0.5051  0.1708 -0.0828
 4461SOL    HW225017   1.512   0.991   1.640  1.7237  1.4554 -1.4035
 4462SOL     OW25018   0.030   3.061   6.523  0.4978 -0.4743 -0.2978
 4462SOL    HW125019   0.058   2.991   6.582  0.2553 -0.3233 -0.0093
 4462SOL    HW225020   0.112   3.062   6.473  0.9586 -0.1917  0.4599
 4463SOL     OW25021   4.242   3.844   4.916 -0.3346 -0.3865  0.0457
 4463SOL    HW125022   4.165   3.797   4.883 -1.5360 -0.2499  2.6540
 4463SOL    HW225023   4.255   3.790   4.994  3.1582  0.4041  0.0213
 4464SOL     OW25024   2.952   3.320   4.481 -0.3744 -0.1906 -0.6944
 4464SOL    HW125025   2.963   3.302   4.574  3.2636  1.6078 -0.7827
 4464SOL    HW225026   2.904   3.403   4.484  2.0098  1.1340  0.6940
 4465SOL     OW25027   2.313   0.029   0.756  0.8104 -0.9293  0.0170
 4465SOL    HW125028   2.254   4.706   0.798  0.3644 -0.2593  0.3880
 4465SOL    HW225029   2.321   4.721   0.673 -1.0889  0.6385 -1.0893
 4466SOL     OW25030   4.049   4.519   8.865 -0.4085  0.1124  0.2276
 4466SOL    HW125031   3.999   4.450   8.907  1.3180 -0.3732  1.4582
 4466SOL    HW225032   3.975   4.571   8.832  0.1305  1.1146  0.6066
 4467SOL     OW25033   0.677   2.522   5.780 -0.1119 -0.1009  0.5591
 4467SOL    HW125034   0.648   2.578   5.708  1.5263  2.0146  1.5217
 4467SOL    HW225035   0.664   2.576   5.858 -1.1777  0.2648  0.1215
 4468SOL     OW25036   3.460   3.149   3.386  0.3699 -0.2764  0.1222
 4468SOL    HW125037   3.382   3.106   3.352  0.0124  0.7252 -0.3209
 4468SOL    HW225038   3.520   3.128   3.315  0.2720  0.8686 -0.3014
 4469SOL     OW25039   0.404   1.374   6.058  0.1623 -0.9603 -0.2369
 4469SOL    HW125040   0.369   1.435   5.994  0.0037 -0.3993  0.3879
 4469SOL    HW225041   0.330   1.385   6.117  0.8456  0.0311  0.4338
 4470SOL     OW25042   3.699   3.138   3.921  0.0017  0.1291  0.5998
 4470SOL    HW125043   3.740   3.222   3.900 -0.2601  0.3587  1.0262
 4470SOL    HW225044   3.612   3.146   3.884 -0.3772 -1.3720  1.1567
 4471SOL     OW25045   2.818   1.860   7.827  0.3540  0.0275 -0.1299
 4471SOL    HW125046   2.778   1.846   7.913 -0.9207 -0.0374 -0.7356
 4471SOL    HW225047   2.910   1.860   7.853  0.0066  0.6635  1.1134
 4472SOL     OW25048   1.698   4.129  12.500  0.3520 -0.2650  0.5897
 4472SOL    HW125049   1.708   4.182  12.421 -0.2283 -0.0720  0.6414
 4472SOL    HW225050   1.760   4.057  12.490  2.0538  1.1633  0.9691
 4473SOL     OW25051   0.026   1.316   4.052 -0.3093 -0.5650 -0.6354
 4473SOL    HW125052   0.009   1.223   4.066 -2.2304 -0.1639 -0.3707
 4473SOL    HW225053   0.105   1.335   4.103 -0.1144 -0.9618 -0.7922
 4474SOL     OW25054   2.199   2.715   2.696  0.1124  0.4540 -0.2872
 4474SOL    HW125055   2.278   2.687   2.651 -0.2987 -2.2229  0.6563
 4474SOL    HW225056   2.168   2.629   2.725  2.2452 -0.0145  0.5983
 4475SOL     OW25057   1.928   4.012   7.576  0.2276 -1.0014 -0.2648
 4475SOL    HW125058   1.982   4.041   7.650 -1.1551  0.6106  0.1193
 4475SOL    HW225059   1.918   4.089   7.520 -2.3177 -1.8386 -0.9379
 4476SOL     OW25060   3.626   1.432   5.409  0.3374 -0.6789  0.4524
 4476SOL    HW125061   3.564   1.438   5.337  0.8440  0.2583  0.0970
 4476SOL    HW225062   3.682   1.504   5.379  1.8061 -1.6832  0.8087
 4477SOL     OW25063   2.483   0.936   4.952  0.0143  0.0854 -0.0942
 4477SOL    HW125064   2.419   1.002   4.926 -1.0479 -0.6047  0.8083
 4477SOL    HW225065   2.542   0.981   5.012  2.3606 -2.6320 -0.3649
 4478SOL     OW25066   2.489   4.135   6.456  0.1873  0.3526 -0.5205
 4478SOL    HW125067   2.477   4.097   6.543 -0.1568  1.7988  0.0653
 4478SOL    HW225068   2.448   4.218   6.480  0.3314  0.3913 -0.4102
 4479SOL     OW25069   0.045   4.610   2.392 -0.3948 -0.0898  0.0945
 4479SOL    HW125070   0.012   4.521   2.384 -0.0762 -0.1746 -0.2373
 4479SOL    HW225071   4.719   4.639   2.455 -0.7298 -2.7261  0.9538
 4480SOL     OW25072   1.460   0.752   8.394 -0.4952 -0.3378 -0.2304
 4480SOL    HW125073   1.538   0.807   8.409  0.3002 -1.2737 -0.9242
 4480SOL    HW225074   1.439   0.729   8.484  0.3015 -2.4364 -0.5800
 4481SOL     OW25075   3.439   2.136  15.099  0.6882  0.0450 -0.5259
 4481SOL    HW125076   3.411   2.045  15.094  2.1841 -0.4541  0.3613
 4481SOL    HW225077   3.353   2.177  15.106 -0.5355 -2.7165  0.2501
 4482SOL     OW25078   2.661   0.418   1.581 -0.0228 -0.0105 -0.3135
 4482SOL    HW125079   2.651   0.507   1.614  1.9544  0.2184 -0.3458
 4482SOL    HW225080   2.677   0.375   1.665 -1.2489  2.2554  1.0746
 4483SOL     OW25081   2.696   0.737   5.703 -0.0043 -0.1396 -0.2971
 4483SOL    HW125082   2.728   0.808   5.647  0.3385  0.2784  0.4216
 4483SOL    HW225083   2.725   0.770   5.788 -0.6014 -1.2131  0.3211
 4484SOL     OW25084   2.772   0.784  15.183  0.1148 -0.5736 -0.3838
 4484SOL    HW125085   2.691   0.780  15.132  0.3796 -1.3348 -0.7425
 4484SOL    HW225086   2.740   0.746  15.265 -0.7893  0.0823 -0.4272
 4485SOL     OW25087   0.935   3.188   0.332 -0.8607  0.1059 -0.5651
 4485SOL    HW125088   1.008   3.172   0.273 -0.1982  2.0248 -0.2489
 4485SOL    HW225089   0.972   3.248   0.396  1.3355 -1.5925 -0.2433
 4486SOL     OW25090   3.141   4.377  12.406  0.1865  0.5337 -0.3320
 4486SOL    HW125091   3.127   4.283  12.409  0.0580  0.5707  0.3506
 4486SOL    HW225092   3.218   4.387  12.463 -0.2318  1.3673  0.0945
 4487SOL     OW25093   0.325   2.016  11.072 -0.4151  0.4321 -0.3607
 4487SOL    HW125094   0.316   2.056  11.159  1.9738  0.2457 -0.0037
 4487SOL    HW225095   0.363   2.090  11.024 -0.0963  0.7108  0.3066
 4488SOL     OW25096   1.690   3.571   2.811  0.1631  0.0765 -0.0931
 4488SOL    HW125097   1.627   3.637   2.782  0.0205 -0.6532 -1.4532
 4488SOL    HW225098   1.627   3.510   2.849  1.4995 -2.2807 -1.6408
 4489SOL     OW25099   2.955   2.523  13.387  0.0478 -0.1684  0.4554
 4489SOL    HW125100   2.947   2.595  13.325  0.7013  2.1504  3.0159
 4489SOL    HW225101   3.005   2.572  13.453 -0.8729  1.8437 -0.3385
 4490SOL     OW25102   4.687   2.976   9.511  0.4224 -0.4790 -0.2916
 4490SOL    HW125103   4.735   2.905   9.555  0.9427 -0.3412 -0.6322
 4490SOL    HW225104   4.678   2.947   9.420  0.3476  0.3732 -0.5537
 4491SOL     OW25105   2.925   3.560  14.468  0.0171 -0.1532  0.0859
 4491SOL    HW125106   2.954   3.647  14.494  0.5560  0.4975 -2.7560
 4491SOL    HW225107   2.902   3.569  14.376 -1.6820  2.0672  0.7261
 4492SOL     OW25108   3.113   1.352   0.907 -0.0986  0.3813  0.1625
 4492SOL    HW125109   3.170   1.419   0.945  1.9053  0.6680 -3.3110
 4492SOL    HW225110   3.152   1.273   0.943 -1.6168 -0.9300 -1.1050
 4493SOL     OW25111   0.096   1.142   7.924  0.1760 -0.5586  0.4731
 4493SOL    HW125112   0.060   1.075   7.982  2.6716  0.7407  3.5369
 4493SOL    HW225113   0.059   1.119   7.839  0.4895  3.0247 -0.6595
 4494SOL     OW25114   4.244   1.478   5.474 -0.0444 -0.3832  0.1980
 4494SOL    HW125115   4.182   1.449   5.541 -0.9726  0.4552 -0.2989
 4494SOL    HW225116   4.226   1.568   5.449 -0.4894 -0.7445 -0.7719
 4495SOL     OW25117   3.426   0.979  11.574 -0.5190  0.0067 -0.2400
 4495SOL    HW125118   3.389   1.033  11.644 -0.7236  2.0757 -1.9111
 4495SOL    HW225119   3.352   0.946  11.523 -0.5491 -0.1337 -0.1044
 4496SOL     OW25120   2.729   2.772   5.067 -0.0209  0.0635 -0.0582
 4496SOL    HW125121   2.819   2.789   5.093 -0.8240  2.1500  1.3645
 4496SOL    HW225122   2.735   2.759   4.973 -1.5543  2.7667 -0.5381
 4497SOL     OW25123   3.370   4.288   5.544 -0.7609 -0.3774 -0.4438
 4497SOL    HW125124   3.395   4.252   5.459  0.5993  3.5481 -1.7146
 4497SOL    HW225125   3.280   4.258   5.531 -0.8344 -0.8251  1.1294
 4498SOL     OW25126   0.932   2.940   2.880  0.4387  0.1806  0.0948
 4498SOL    HW125127   0.879   2.861   2.887  1.6906 -0.6638 -0.1057
 4498SOL    HW225128   0.866   3.008   2.867 -1.4701 -1.2799  2.0071
 4499SOL     OW25129   3.299   0.180   0.930 -0.4986 -0.5988 -0.2216
 4499SOL    HW125130   3.211   0.212   0.949 -0.1864  0.1830 -0.0828
 4499SOL    HW225131   3.323   0.133   1.009 -1.0640 -0.0204  0.2860
 4500SOL     OW25132   1.690   3.259   7.682 -0.1814  0.2330 -0.4217
 4500SOL    HW125133   1.712   3.227   7.769 -0.8566  0.8475 -0.0245
 4500SOL    HW225134   1.746   3.200   7.632 -0.3381 -1.2776  1.1901
 4501SOL     OW25135   3.642   3.507   7.527 -0.0479  0.4635 -0.7047
 4501SOL    HW125136   3.680   3.557   7.599  0.3958 -2.0266  0.7694
 4501SOL    HW225137   3.646   3.562   7.448 -0.0421 -0.6303 -1.4678
 4502SOL     OW25138   2.386   0.048   2.546 -0.0838  0.5223  0.3448
 4502SOL    HW125139   2.368   0.028   2.454  0.2175  3.7716 -0.4130
 4502SOL    HW225140   2.442   0.125   2.545 -3.4779  2.9376 -1.1361
 4503SOL     OW25141   0.879   2.614   6.055  0.4603  0.2827  0.2753
 4503SOL    HW125142   0.965   2.655   6.058  0.6520 -0.1379  0.5581
 4503SOL    HW225143   0.832   2.673   5.996 -1.0221 -0.5116  0.6538
 4504SOL     OW25144   4.379   2.247   9.097  0.2827 -0.3153 -0.2288
 4504SOL    HW125145   4.327   2.183   9.146 -0.1627  1.1452  1.1835
 4504SOL    HW225146   4.416   2.294   9.171  4.0999 -1.2660 -1.5133
 4505SOL     OW25147   2.956   0.069  17.181  0.1074 -0.4336  0.1909
 4505SOL    HW125148   3.022   0.071  17.112 -2.9273  0.0299 -2.6805
 4505SOL    HW225149   2.938   4.714  17.184  1.5948 -0.7173  0.2906
 4506SOL     OW25150   4.404   1.421   2.753 -0.1672 -0.3262  0.0515
 4506SOL    HW125151   4.326   1.477   2.742 -0.4940 -0.2306  2.9236
 4506SOL    HW225152   4.423   1.432   2.846  1.5477 -1.7110 -0.1529
 4507SOL     OW25153   2.811   3.019   3.463 -0.0982 -0.2012  0.5798
 4507SOL    HW125154   2.839   2.928   3.459 -1.7572 -0.7917  2.4897
 4507SOL    HW225155   2.719   3.009   3.438  0.5309 -0.5563 -1.6743
 4508SOL     OW25156   0.354   0.723   9.892 -0.0966 -0.3895 -0.3122
 4508SOL    HW125157   0.429   0.682   9.848  0.1408  0.6169 -0.8435
 4508SOL    HW225158   0.279   0.680   9.851  0.0302 -1.2072  0.3110
 4509SOL     OW25159   2.752   1.729   8.783  0.1783 -0.0941 -0.5989
 4509SOL    HW125160   2.735   1.749   8.875  1.1273 -1.6226 -0.0875
 4509SOL    HW225161   2.734   1.634   8.782 -2.8969  0.4743 -0.1822
 4510SOL     OW25162   0.968   2.495   5.439 -0.1103 -0.0092  0.1021
 4510SOL    HW125163   0.913   2.460   5.369  0.4727 -2.1959  0.7534
 4510SOL    HW225164   0.937   2.586   5.433  0.1072  0.1621  1.4919
 4511SOL     OW25165   2.837   3.564  16.598  0.0356 -0.1721 -0.2108
 4511SOL    HW125166   2.890   3.496  16.639  0.7298  1.7071  2.0389
 4511SOL    HW225167   2.798   3.517  16.525  2.0294 -1.0744 -0.6865
 4512SOL     OW25168   0.264   4.254   4.288 -0.0939 -0.4405 -0.0014
 4512SOL    HW125169   0.230   4.247   4.377 -0.1612 -2.2468 -0.1741
 4512SOL    HW225170   0.184   4.240   4.237 -0.5728  0.5955  0.4574
 4513SOL     OW25171   2.840   1.265   7.832  0.7092 -0.3477 -0.3923
 4513SOL    HW125172   2.802   1.272   7.744  0.8373 -1.6253 -0.5493
 4513SOL    HW225173   2.780   1.204   7.875 -0.7317  0.0830 -1.7921
 4514SOL     OW25174   1.618   3.265   6.526 -0.0230  0.1624 -0.5230
 4514SOL    HW125175   1.564   3.244   6.602  0.9413  2.8731  0.8986
 4514SOL    HW225176   1.568   3.231   6.451 -2.8575  0.1433  1.3586
 4515SOL     OW25177   4.713   1.610   9.591 -0.3124 -0.3668 -0.3948
 4515SOL    HW125178   4.666   1.532   9.564 -2.3547  0.5311  0.5194
 4515SOL    HW225179   0.051   1.613   9.535 -0.3777  1.1600 -0.4081
 4516SOL     OW25180   1.475   0.159  15.456 -0.3020 -0.3780  0.2753
 4516SOL    HW125181   1.517   0.161  15.369 -0.8965 -2.7524 -0.0759
 4516SOL    HW225182   1.418   0.235  15.449 -1.1851 -0.8960  1.8575
 4517SOL     OW25183   2.916   2.725  10.097 -0.3091 -0.0329  0.7162
 4517SOL    HW125184   2.964   2.740  10.179 -0.9532  0.2957  1.0320
 4517SOL    HW225185   2.829   2.762  10.110 -0.6032 -0.2670 -0.6474
 4518SOL     OW25186   1.620   4.399   8.627  0.5744  0.3346 -0.2920
 4518SOL    HW125187   1.612   4.329   8.562 -0.5220 -0.8979  1.1431
 4518SOL    HW225188   1.714   4.409   8.639  0.5510 -0.1185  0.3012
 4519SOL     OW25189   0.679   3.549   4.171 -0.0707  0.1604  0.1748
 4519SOL    HW125190   0.666   3.631   4.125 -0.5273  0.2543  0.4762
 4519SOL    HW225191   0.703   3.584   4.257 -1.1573  0.8806  0.1706
 4520SOL     OW25192   1.906   3.157   6.771 -0.0000 -0.3679  0.2924
 4520SOL    HW125193   1.898   3.247   6.803  0.1348 -0.8249  1.6114
 4520SOL    HW225194   1.824   3.114   6.795  0.2825 -0.6828  0.7012
 4521SOL     OW25195   0.298   4.334  10.923  0.4503  0.3740 -0.4605
 4521SOL    HW125196   0.266   4.245  10.905  1.1807 -0.2238  1.2122
 4521SOL    HW225197   0.238   4.376  10.861 -1.2730 -2.3499 -0.6740
 4522SOL     OW25198   1.873   3.906   9.393  0.6602 -0.1188 -0.0374
 4522SOL    HW125199   1.948   3.960   9.418  0.2580  0.6559 -0.5139
 4522SOL    HW225200   1.830   3.892   9.478 -0.3686  1.1602 -0.3477
 4523SOL     OW25201   2.442   0.855   3.476 -0.6421  0.0679  0.0627
 4523SOL    HW125202   2.379   0.837   3.406 -2.4049  2.7988  0.9226
 4523SOL    HW225203   2.426   0.780   3.534  1.0187  0.7684  1.4357
 4524SOL     OW25204   0.693   3.124   6.401  0.0250  0.1636 -0.4674
 4524SOL    HW125205   0.730   3.041   6.432 -0.7785  1.2224  3.3884
 4524SOL    HW225206   0.738   3.176   6.467  1.1104 -0.1485 -0.9538
 4525SOL     OW25207   2.924   0.241   4.292  0.5421 -0.2296 -0.2637
 4525SOL    HW125208   2.853   0.228   4.229  0.1093 -0.0199  0.1769
 4525SOL    HW225209   2.942   0.334   4.278 -1.3831  0.0110 -1.2249
 4526SOL     OW25210   0.193   3.469   6.002 -0.5896 -0.1482 -0.0608
 4526SOL    HW125211   0.207   3.480   6.096 -2.4099 -0.5126  0.2564
 4526SOL    HW225212   0.110   3.517   6.003 -0.9207 -0.7224  0.2861
 4527SOL     OW25213   3.908   2.817   2.833  0.0698  0.0159 -0.0227
 4527SOL    HW125214   3.958   2.760   2.775 -0.5081 -0.0433 -0.4695
 4527SOL    HW225215   3.837   2.763   2.867  1.9148 -2.1128  0.4313
 4528SOL     OW25216   3.881   2.324   2.036  0.4059  0.1342  0.1399
 4528SOL    HW125217   3.876   2.409   1.992  0.1048 -0.2319 -0.5296
 4528SOL    HW225218   3.972   2.299   2.019  0.2627 -1.4523  1.6017
 4529SOL     OW25219   3.488   4.552   4.761  0.1624 -0.6924 -0.4904
 4529SOL    HW125220   3.528   4.590   4.683 -0.7471  0.6987 -0.2711
 4529SOL    HW225221   3.453   4.634   4.794  0.3868 -0.1654 -1.5877
 4530SOL     OW25222   2.459   4.035  16.661  0.0451 -0.0976  1.3248
 4530SOL    HW125223   2.554   4.040  16.649 -0.5911  1.7628 -2.9806
 4530SOL    HW225224   2.476   3.984  16.740  0.6757 -2.1312 -0.1179
 4531SOL     OW25225   0.106   2.017   6.262 -0.2542 -0.0093 -0.2375
 4531SOL    HW125226   0.173   2.084   6.275 -0.3437  0.1474 -0.6016
 4531SOL    HW225227   0.134   1.956   6.330 -0.1162  1.1535  0.7623
 4532SOL     OW25228   0.299   4.533   6.217  0.4216  0.3699  0.1909
 4532SOL    HW125229   0.370   4.479   6.181  2.3451  0.9034  3.1497
 4532SOL    HW225230   0.333   4.622   6.209  1.6335  0.0243  1.5302
 4533SOL     OW25231   0.673   1.941   6.870  0.5054 -0.1467 -0.0615
 4533SOL    HW125232   0.611   1.990   6.816  0.3695 -0.4935 -0.2200
 4533SOL    HW225233   0.754   1.990   6.854  1.0413 -0.4281  1.7329
 4534SOL     OW25234   0.409   1.035   6.316  0.2995 -0.5755 -0.1789
 4534SOL    HW125235   0.490   0.985   6.307  1.8611  1.4851  2.5641
 4534SOL    HW225236   0.410   1.100   6.246  0.1094 -0.7205 -0.3194
 4535SOL     OW25237   1.258   1.721   7.610  0.2211  0.5135  0.6770
 4535SOL    HW125238   1.317   1.724   7.685 -1.3647 -3.7179  2.0579
 4535SOL    HW225239   1.180   1.678   7.644  0.1829 -0.2328 -0.3713
 4536SOL     OW25240   0.011   0.112   0.201  0.1005  0.0524 -0.2065
 4536SOL    HW125241   0.024   0.107   0.296 -1.0583 -2.0817 -0.1660
 4536SOL    HW225242   4.708   0.027   0.186  1.5287 -0.5794 -0.7091
 4537SOL     OW25243   2.451   2.192   9.255 -0.0509  0.0209 -0.0442
 4537SOL    HW125244   2.489   2.251   9.191 -0.9959  0.9710  0.2703
 4537SOL    HW225245   2.364   2.223   9.280 -1.5062 -3.1952 -1.1476
 4538SOL     OW25246   2.041   0.621   1.772  0.0164 -0.3918  0.3355
 4538SOL    HW125247   1.952   0.633   1.803 -0.2203  2.0546 -1.2377
 4538SOL    HW225248   2.043   0.689   1.705 -3.6391  2.6911  3.3519
 4539SOL     OW25249   0.993   2.180   7.834  0.8364 -0.4619 -0.3060
 4539SOL    HW125250   1.051   2.207   7.763  2.5942 -1.6809  0.6658
 4539SOL    HW225251   0.991   2.253   7.896  1.8707 -1.0114  0.3709
 4540SOL     OW25252   3.697   0.569   8.073 -0.3351  0.3721 -0.0288
 4540SOL    HW125253   3.758   0.506   8.110 -0.7613  1.5236  2.6601
 4540SOL    HW225254   3.714   0.642   8.133 -1.0416  0.6842 -0.2063
 4541SOL     OW25255   2.861   4.299   3.773  0.2854  0.7016 -0.4268
 4541SOL    HW125256   2.804   4.375   3.764 -0.6110  0.1870  1.0552
 4541SOL    HW225257   2.823   4.249   3.701 -0.3776 -0.8881  1.0287
 4542SOL     OW25258   3.052   3.647  14.009 -0.0147 -0.2819 -0.5389
 4542SOL    HW125259   2.988   3.684  13.948 -0.5035  0.7437  0.6077
 4542SOL    HW225260   3.052   3.556  13.979  0.7956 -0.1490 -0.9467
 4543SOL     OW25261   3.011   3.744  16.722  0.2490  0.1408 -0.0598
 4543SOL    HW125262   3.082   3.679  16.714  0.9790  0.8115  1.0685
 4543SOL    HW225263   2.928   3.701  16.702  1.5674 -1.2979 -2.5086
 4544SOL     OW25264   2.719   1.232   9.229 -0.3329  0.1308 -0.2272
 4544SOL    HW125265   2.744   1.305   9.173 -2.1006  1.3946  0.6291
 4544SOL    HW225266   2.625   1.252   9.228 -0.9095 -2.5275  2.9848
 4545SOL     OW25267   0.355   3.296   0.913 -0.0347  0.4598 -0.1088
 4545SOL    HW125268   0.441   3.276   0.875 -0.0208 -0.8033  0.5658
 4545SOL    HW225269   0.335   3.370   0.856  0.7353 -0.9898 -2.2704
 4546SOL     OW25270   0.050   1.631   4.862 -0.1163 -0.1880 -0.3329
 4546SOL    HW125271   0.024   1.599   4.776  0.0943 -2.0631  0.3027
 4546SOL    HW225272   0.096   1.549   4.878  1.8054  0.8992 -0.2555
 4547SOL     OW25273   0.651   1.043  10.215 -0.2541  0.8210  0.1999
 4547SOL    HW125274   0.573   1.002  10.177  0.7984 -1.7914  0.8218
 4547SOL    HW225275   0.618   1.037  10.305 -0.9961  0.8748 -0.0716
 4548SOL     OW25276   1.439   3.087   8.971  0.1374  0.4819 -0.2888
 4548SOL    HW125277   1.483   3.157   8.922 -2.2606  0.3930 -2.5622
 4548SOL    HW225278   1.365   3.070   8.913 -0.1142 -0.0161  0.1816
 4549SOL     OW25279   3.430   4.421   2.770  0.5483 -0.2086  0.0485
 4549SOL    HW125280   3.510   4.460   2.803  1.5190 -1.3078 -0.9892
 4549SOL    HW225281   3.362   4.488   2.772  2.3735  1.6479 -0.4686
 4550SOL     OW25282   4.092   3.813   3.887 -0.0298 -0.0347 -0.2418
 4550SOL    HW125283   4.074   3.886   3.947  1.9690 -0.1157  0.4484
 4550SOL    HW225284   4.155   3.856   3.828  0.5791 -2.8477 -1.6425
 4551SOL     OW25285   3.611   4.475   5.924  0.5600 -0.0873 -0.0235
 4551SOL    HW125286   3.635   4.536   5.854 -4.6186  2.5893  0.5528
 4551SOL    HW225287   3.618   4.386   5.889  0.6378  0.0522 -0.3585
 4552SOL     OW25288   2.355   2.142  17.520  0.3007  0.2056 -0.1933
 4552SOL    HW125289   2.291   2.148  17.591 -0.7718  0.7260 -1.1978
 4552SOL    HW225290   2.425   2.083  17.550 -0.2827  0.5365  1.7715
 4553SOL     OW25291   4.087   2.812   3.863  0.1134 -0.1482  0.6990
 4553SOL    HW125292   4.001   2.849   3.884 -0.4887 -0.8747 -0.4709
 4553SOL    HW225293   4.077   2.794   3.769  0.3602 -0.6219  0.7599
 4554SOL     OW25294   0.483   2.326   3.545  0.1671  0.4171 -0.1926
 4554SOL    HW125295   0.416   2.316   3.613 -0.1775  2.4375 -0.2272
 4554SOL    HW225296   0.427   2.336   3.468 -0.4558 -0.4844  0.1463
 4555SOL     OW25297   1.962   1.063  11.131 -0.2160  0.8801  0.0331
 4555SOL    HW125298   2.025   1.007  11.177 -2.4248 -0.5049  1.3336
 4555SOL    HW225299   2.018   1.140  11.118 -0.1086  1.4354  3.7087
 4556SOL     OW25300   4.414   2.954   8.447 -0.2175 -0.3423 -0.1978
 4556SOL    HW125301   4.345   2.889   8.462  0.4417 -1.2527 -1.1010
 4556SOL    HW225302   4.473   2.905   8.389  2.0099  0.9555  1.0007
 4557SOL     OW25303   2.681   3.508  10.035 -0.0159 -0.0642 -0.6300
 4557SOL    HW125304   2.618   3.578  10.053 -0.2911 -0.6993  0.9025
 4557SOL    HW225305   2.618   3.435  10.038  0.3630 -0.2599  2.3954
 4558SOL     OW25306   4.568   2.921   5.095 -0.4173 -0.2508 -0.4081
 4558SOL    HW125307   4.523   2.864   5.157 -1.5751  0.2341 -0.7974
 4558SOL    HW225308   4.494   2.961   5.049  0.6440  2.2247  0.0936
 4559SOL     OW25309   2.542   3.944  11.986  0.5316 -0.3895  0.1684
 4559SOL    HW125310   2.472   3.931  11.922  1.2893  0.6459 -0.8871
 4559SOL    HW225311   2.489   3.950  12.065  0.3739 -2.3439  0.2008
 4560SOL     OW25312   1.748   0.357   1.707  0.1378 -0.0545  0.1788
 4560SOL    HW125313   1.833   0.317   1.688  1.3540  1.7338  1.8515
 4560SOL    HW225314   1.717   0.401   1.628  0.6419  0.8214  0.4705
 4561SOL     OW25315   2.421   0.677   1.667  0.0906 -0.1079 -0.2890
 4561SOL    HW125316   2.346   0.730   1.640  0.4338  1.2360  1.3896
 4561SOL    HW225317   2.380   0.624   1.736  2.4621 -1.9521 -0.3016
 4562SOL     OW25318   1.997   1.430   4.202  0.0171  0.4489  0.8111
 4562SOL    HW125319   1.973   1.376   4.277 -0.6048  1.3394  1.2548
 4562SOL    HW225320   2.082   1.393   4.177 -0.1138  0.5990  0.1397
 4563SOL     OW25321   1.693   3.206   1.484 -0.1566 -0.1775 -0.8101
 4563SOL    HW125322   1.734   3.287   1.454  0.8588 -0.5618 -0.4929
 4563SOL    HW225323   1.660   3.232   1.570 -2.2965 -1.3056 -1.2876
 4564SOL     OW25324   1.218   0.151   0.329 -0.7833  0.9263 -0.0674
 4564SOL    HW125325   1.311   0.155   0.309 -1.2476 -0.7585 -2.4922
 4564SOL    HW225326   1.210   0.099   0.409 -0.7271  0.6067 -0.2717
 4565SOL     OW25327   3.435   3.968  14.171  0.4699 -0.8189  0.1996
 4565SOL    HW125328   3.509   3.916  14.200  1.1245 -1.0792 -1.9190
 4565SOL    HW225329   3.366   3.933  14.228 -0.8466 -0.1948 -0.9953
 4566SOL     OW25330   2.155   2.956   7.627 -0.3965 -0.3567  0.4000
 4566SOL    HW125331   2.190   2.939   7.541 -2.4540 -0.2600 -0.4670
 4566SOL    HW225332   2.230   2.914   7.669 -0.7107 -0.0657  1.2598
 4567SOL     OW25333   2.822   1.253   4.531  0.2933 -0.5562  0.1584
 4567SOL    HW125334   2.819   1.174   4.584 -1.0915 -0.1616  0.6720
 4567SOL    HW225335   2.898   1.227   4.479 -0.0036  1.1622 -1.1620
 4568SOL     OW25336   2.249   2.786  11.959  0.8359 -0.3008 -0.1623
 4568SOL    HW125337   2.157   2.760  11.953  0.2487  1.5087  1.0156
 4568SOL    HW225338   2.293   2.727  11.897 -0.2991 -1.9560  0.6189
 4569SOL     OW25339   0.019   2.033   1.668 -0.1427 -0.2883  0.5113
 4569SOL    HW125340   0.093   2.093   1.658 -2.2871  2.1699 -0.8023
 4569SOL    HW225341   0.055   1.985   1.742  0.5401 -0.0413  0.3369
 4570SOL     OW25342   2.710   2.081   4.877 -0.4242  0.1129 -0.4444
 4570SOL    HW125343   2.706   2.090   4.972  1.3582 -1.2259 -0.2494
 4570SOL    HW225344   2.620   2.108   4.857 -0.8750 -1.8069 -0.9890
 4571SOL     OW25345   0.592   4.107   1.619  0.1040  0.5076 -0.6741
 4571SOL    HW125346   0.531   4.106   1.544  0.6073 -2.5630 -1.0284
 4571SOL    HW225347   0.657   4.040   1.598 -1.0288 -1.0557  0.8741
 4572SOL     OW25348   1.526   4.700   7.095 -0.1438  0.1625  0.5131
 4572SOL    HW125349   1.432   4.718   7.098 -0.4483 -1.8116  2.1798
 4572SOL    HW225350   1.538   4.663   7.182 -1.3274 -1.0996  0.1318
 4573SOL     OW25351   0.228   3.662  13.101 -1.0350  0.1790 -0.7607
 4573SOL    HW125352   0.225   3.754  13.126 -0.5083 -0.5842  2.1083
 4573SOL    HW225353   0.218   3.617  13.185  1.8974 -0.9568 -1.0212
 4574SOL     OW25354   4.329   2.229   8.172 -0.1912  0.3717  0.2667
 4574SOL    HW125355   4.275   2.305   8.194 -0.1287  0.6021 -0.3769
 4574SOL    HW225356   4.337   2.239   8.077  0.1383 -1.4194  0.1131
 4575SOL     OW25357   0.557   4.058   4.739  0.0732  0.1296  0.3275
 4575SOL    HW125358   0.509   4.132   4.778  0.9408  0.6012  0.4961
 4575SOL    HW225359   0.526   3.983   4.791 -1.5881 -0.0320 -0.8888
 4576SOL     OW25360   0.109   2.820  15.269  0.0203  0.1884 -0.2552
 4576SOL    HW125361   0.083   2.813  15.177 -0.0970 -0.6936 -0.1514
 4576SOL    HW225362   0.202   2.840  15.258 -0.1419  0.7287 -0.6247
 4577SOL     OW25363   2.774   1.019   3.234  0.1395  0.8277 -0.1550
 4577SOL    HW125364   2.733   1.045   3.152 -1.3967 -0.8742  0.0884
 4577SOL    HW225365   2.862   1.000   3.199 -0.2546 -2.9415  0.8592
 4578SOL     OW25366   2.519   0.361   5.230  0.7853  0.3250  0.1655
 4578SOL    HW125367   2.569   0.434   5.265  0.2061  0.5512  0.5211
 4578SOL    HW225368   2.450   0.356   5.297 -0.8120 -2.8330 -1.6859
 4579SOL     OW25369   4.624   1.218   2.687  0.2202  0.1651  0.1569
 4579SOL    HW125370   4.665   1.254   2.608  0.5309 -1.5224 -0.4573
 4579SOL    HW225371   4.547   1.274   2.699  1.2048  1.6561 -0.5143
 4580SOL     OW25372   0.243   0.172   0.077  0.0330  0.2293 -0.4332
 4580SOL    HW125373   0.158   0.169   0.120 -0.8320  0.2133 -2.1513
 4580SOL    HW225374   0.294   0.248   0.106 -2.0662  1.6891 -0.4988
 4581SOL     OW25375   3.009   4.487   6.044 -0.1452 -0.5128  0.0641
 4581SOL    HW125376   3.023   4.463   5.952 -1.2612  0.6321 -0.4130
 4581SOL    HW225377   2.933   4.545   6.033 -0.2468 -0.9699 -1.6948
 4582SOL     OW25378   3.349   2.296   3.680  0.2512  0.5199 -0.4355
 4582SOL    HW125379   3.267   2.276   3.725  0.3196  1.3383  0.0459
 4582SOL    HW225380   3.374   2.376   3.726 -0.3449 -0.4295  1.5288
 4583SOL     OW25381   0.460   2.704   0.186 -0.0254 -0.0045 -0.2406
 4583SOL    HW125382   0.440   2.698   0.092  1.6828  0.3612 -0.6363
 4583SOL    HW225383   0.375   2.737   0.214 -1.4412 -2.9829 -1.1097
 4584SOL     OW25384   3.852   3.808  15.279  0.0093  0.4235  0.0672
 4584SOL    HW125385   3.864   3.716  15.255  0.8866  0.7821 -0.8599
 4584SOL    HW225386   3.918   3.846  15.222 -0.2360 -0.3809 -0.7560
 4585SOL     OW25387   0.047   0.108   4.175  0.2687  0.1765 -0.0865
 4585SOL    HW125388   0.121   0.063   4.215 -0.4615 -0.1858  0.8761
 4585SOL    HW225389   4.721   0.039   4.164  1.3605 -0.3246 -3.2510
 4586SOL     OW25390   0.941   3.005  12.039  0.1210  0.2458  0.0858
 4586SOL    HW125391   0.853   2.967  12.041 -0.0598  0.6890  0.4434
 4586SOL    HW225392   0.927   3.097  12.062 -1.0262  0.1173 -0.1005
 4587SOL     OW25393   2.360   2.840   5.385 -0.1798  0.3724 -0.2301
 4587SOL    HW125394   2.405   2.842   5.300  1.1727  0.5010  0.4854
 4587SOL    HW225395   2.433   2.842   5.447  2.1247 -3.3701 -2.8121
 4588SOL     OW25396   4.473   1.688   9.064 -0.1452  0.2970  0.0093
 4588SOL    HW125397   4.543   1.721   9.121 -0.4336  1.9102 -0.5799
 4588SOL    HW225398   4.490   1.595   9.078  1.6105  0.8285  1.4245
 4589SOL     OW25399   0.234   1.852  15.255  0.5996 -0.0622 -0.1270
 4589SOL    HW125400   0.224   1.898  15.172  2.2326  0.4058 -0.0730
 4589SOL    HW225401   0.280   1.780  15.213  1.2348 -0.5065  1.3119
 4590SOL     OW25402   0.019   2.346  14.076 -0.2789 -0.3758 -0.1276
 4590SOL    HW125403   4.705   2.310  14.147  0.1707 -0.6242  0.0891
 4590SOL    HW225404   0.103   2.379  14.109  0.0756  0.2939 -1.7249
 4591SOL     OW25405   1.314   4.110   3.951 -0.2012 -0.3901 -0.0067
 4591SOL    HW125406   1.311   4.034   3.893 -1.8734 -0.4104  0.1072
 4591SOL    HW225407   1.377   4.084   4.017  0.4204 -2.1900 -1.2956
 4592SOL     OW25408   0.768   1.206   7.879  0.1711 -0.3908  0.1644
 4592SOL    HW125409   0.729   1.190   7.793 -1.5354 -1.6898  1.1790
 4592SOL    HW225410   0.859   1.209   7.852 -0.2451  1.6627 -1.0088
 4593SOL     OW25411   2.728   2.421   3.135 -0.3554  0.5665 -0.0579
 4593SOL    HW125412   2.685   2.504   3.113  0.4217  1.2123  0.8092
 4593SOL    HW225413   2.677   2.389   3.209  1.0712  1.6044  1.3822
 4594SOL     OW25414   1.121   3.241   3.779 -0.4883 -0.5083 -0.1177
 4594SOL    HW125415   1.143   3.326   3.817  0.2544 -0.0959 -1.4847
 4594SOL    HW225416   1.055   3.260   3.713  1.7048 -0.6812 -2.4038
 4595SOL     OW25417   4.016   2.170   6.745  0.0793 -0.0192 -0.2880
 4595SOL    HW125418   4.008   2.090   6.796  0.7523  1.7236  2.5427
 4595SOL    HW225419   4.099   2.160   6.698 -0.3038 -1.0316 -0.7399
 4596SOL     OW25420   2.912   1.574   3.512  0.0036 -0.1586  0.1650
 4596SOL    HW125421   2.958   1.498   3.476  1.4429 -0.2988  2.3586
 4596SOL    HW225422   2.863   1.552   3.590  0.3448 -2.0734 -0.1591
 4597SOL     OW25423   4.593   3.017  16.808 -0.1037  0.2197 -0.3933
 4597SOL    HW125424   4.528   2.962  16.765 -3.0692  0.4361  3.7448
 4597SOL    HW225425   4.535   3.091  16.828  0.0809  0.2234  0.1528
 4598SOL     OW25426   1.805   3.026  11.667  0.1258  0.0400 -0.1068
 4598SOL    HW125427   1.785   3.106  11.618 -0.4395 -0.7536 -1.1820
 4598SOL    HW225428   1.900   3.034  11.664  0.0990 -0.4512 -2.2744
 4599SOL     OW25429   3.739   3.694   7.746  0.0849 -0.3401  0.4370
 4599SOL    HW125430   3.644   3.695   7.739  0.2937 -2.4872 -2.7634
 4599SOL    HW225431   3.739   3.697   7.842  0.9377  2.0168  0.3620
 4600SOL     OW25432   2.845   1.535   6.082 -0.0370  0.4419 -0.3553
 4600SOL    HW125433   2.882   1.553   5.996  0.8315 -0.2915 -0.1335
 4600SOL    HW225434   2.920   1.503   6.131  0.1493  1.6995  0.1595
 4601SOL     OW25435   0.252   1.856   2.593 -0.5885 -0.1996  0.0123
 4601SOL    HW125436   0.236   1.908   2.672  0.7326 -0.7214  0.6121
 4601SOL    HW225437   0.173   1.801   2.598  0.3389 -1.4056  1.2618
 4602SOL     OW25438   4.205   2.632  14.369  0.1635 -0.3458 -0.0064
 4602SOL    HW125439   4.296   2.612  14.389  0.3947  1.4276  0.7038
 4602SOL    HW225440   4.223   2.687  14.293 -2.7003 -0.6693 -0.9144
 4603SOL     OW25441   2.775   0.957   2.307 -0.1209 -0.3424  0.0543
 4603SOL    HW125442   2.725   0.880   2.280  0.1706 -0.5992  0.2447
 4603SOL    HW225443   2.787   1.002   2.224  0.1718 -0.3968  0.0680
 4604SOL     OW25444   3.253   0.276   6.036 -0.4346 -0.4811  0.3050
 4604SOL    HW125445   3.303   0.303   5.959 -1.4535 -3.6250 -1.4630
 4604SOL    HW225446   3.175   0.229   6.006 -2.3329  1.7831  1.7030
 4605SOL     OW25447   3.328   3.804   0.318 -0.3599  0.5894 -0.3702
 4605SOL    HW125448   3.373   3.752   0.252 -0.1604  1.9506 -1.3097
 4605SOL    HW225449   3.407   3.816   0.371 -0.3167  2.5693 -0.8931
 4606SOL     OW25450   0.221   0.015  14.109  0.6116  0.8859 -0.4038
 4606SOL    HW125451   0.157   4.684  14.118  0.9061  0.8678  1.6099
 4606SOL    HW225452   0.187   0.093  14.151  1.2258  1.5295 -1.1033
 4607SOL     OW25453   2.618   1.555   6.685 -0.6340 -0.3537  0.3261
 4607SOL    HW125454   2.585   1.585   6.600 -0.8840  1.0997  0.9464
 4607SOL    HW225455   2.608   1.635   6.736  3.5119 -1.0778  2.2779
 4608SOL     OW25456   0.842   2.430   2.423  0.0033 -0.0622 -0.0131
 4608SOL    HW125457   0.759   2.432   2.374 -0.1070  2.9779  0.2958
 4608SOL    HW225458   0.860   2.336   2.427 -2.7396 -0.6843 -1.4736
 4609SOL     OW25459   3.924   1.320   8.684 -0.1917 -0.0563  0.1315
 4609SOL    HW125460   3.933   1.324   8.779 -3.2738 -2.4875  0.5346
 4609SOL    HW225461   3.835   1.356   8.682  0.6559  2.0293 -0.0864
 4610SOL     OW25462   4.154   2.625   5.963 -0.4746 -0.0845  0.3326
 4610SOL    HW125463   4.163   2.533   5.987 -1.6552 -0.0809  0.8139
 4610SOL    HW225464   4.098   2.635   5.886 -1.4391 -0.5779  0.9657
 4611SOL     OW25465   2.437   0.925  15.187  0.1416  0.0658  0.7316
 4611SOL    HW125466   2.499   0.891  15.123  1.5394  0.0052  2.1188
 4611SOL    HW225467   2.464   1.014  15.211  0.7817  0.7568 -2.5651
 4612SOL     OW25468   4.651   3.848   5.666 -0.1142  0.6564 -0.0958
 4612SOL    HW125469   4.602   3.792   5.606 -1.4365  1.0868  0.5858
 4612SOL    HW225470   4.579   3.895   5.708 -1.1016  0.1795 -1.2644
 4613SOL     OW25471   1.396   2.286   4.704  0.3267 -0.3634  0.0537
 4613SOL    HW125472   1.443   2.348   4.648 -2.1380  0.6471 -0.8904
 4613SOL    HW225473   1.339   2.250   4.636  0.9058  0.7182 -1.0050
 4614SOL     OW25474   2.412   2.963   7.726  0.0072  0.0832  0.3376
 4614SOL    HW125475   2.463   3.044   7.736 -0.1596  0.1095  0.9832
 4614SOL    HW225476   2.473   2.893   7.704 -0.1262  1.0598 -3.0912
 4615SOL     OW25477   0.037   2.946   7.594 -0.2422  0.1128  0.3154
 4615SOL    HW125478   4.730   2.877   7.547  0.6565 -0.9147  0.9675
 4615SOL    HW225479   0.119   2.901   7.615  0.5655  0.7816 -1.3221
 4616SOL     OW25480   1.628   4.548   4.113  0.1914  0.2829  0.1402
 4616SOL    HW125481   1.586   4.577   4.194  1.7713  0.4564  0.8948
 4616SOL    HW225482   1.557   4.548   4.048 -1.4832 -0.0333  1.9436
 4617SOL     OW25483   1.855   1.497   9.727  0.0326  0.0901 -0.0276
 4617SOL    HW125484   1.915   1.483   9.800  0.4998  1.7512 -0.0939
 4617SOL    HW225485   1.856   1.592   9.715  0.7058  0.0614 -0.1478
 4618SOL     OW25486   0.614   2.679   5.583  0.0168 -0.2956  0.0128
 4618SOL    HW125487   0.529   2.711   5.553  0.8327  1.2585 -0.5943
 4618SOL    HW225488   0.655   2.765   5.575 -1.7521  0.5365 -0.0392
 4619SOL     OW25489   3.566   3.052   4.311 -0.3390 -0.3332  0.6174
 4619SOL    HW125490   3.650   3.097   4.298  0.4126 -1.6649  0.8771
 4619SOL    HW225491   3.573   2.981   4.247  1.4951 -0.3508  0.8447
 4620SOL     OW25492   1.303   2.631   7.027  0.6827  0.6410  0.1493
 4620SOL    HW125493   1.346   2.679   7.098  0.0358  0.3831  0.7158
 4620SOL    HW225494   1.325   2.542   7.055 -2.3242 -0.2508 -0.3182
 4621SOL     OW25495   4.286   0.285   9.090 -0.3222 -0.2542 -0.0054
 4621SOL    HW125496   4.209   0.311   9.039 -0.5121 -0.3626  0.2309
 4621SOL    HW225497   4.261   0.276   9.182  0.9726  1.9601  0.5812
 4622SOL     OW25498   1.067   3.290   4.351 -0.7808 -0.6672 -0.4516
 4622SOL    HW125499   1.041   3.331   4.269 -1.7308  1.0021  0.6929
 4622SOL    HW225500   1.066   3.363   4.412  0.1472 -0.3945 -0.7645
 4623SOL     OW25501   4.233   3.229  15.750  0.0076  0.2952  0.5346
 4623SOL    HW125502   4.271   3.313  15.776  2.7340 -1.2440  1.5552
 4623SOL    HW225503   4.227   3.194  15.839 -0.8228  0.1794  0.4327
 4624SOL     OW25504   3.607   2.252   9.261  0.1634  0.1161  0.8341
 4624SOL    HW125505   3.564   2.337   9.254  2.0887  1.1158  1.0775
 4624SOL    HW225506   3.574   2.211   9.341 -1.6885 -0.3019 -0.1453
 4625SOL     OW25507   2.175   3.947  13.869  0.3084  0.0526 -0.4515
 4625SOL    HW125508   2.214   3.860  13.870  0.2284  0.0233  0.0010
 4625SOL    HW225509   2.196   3.970  13.959  2.5686 -0.4564 -0.8407
 4626SOL     OW25510   1.471   3.912   3.680  0.5606  0.3558 -0.1378
 4626SOL    HW125511   1.528   3.978   3.718  0.7436  1.0963 -1.6928
 4626SOL    HW225512   1.404   3.898   3.747  0.9381  0.0383  0.1732
 4627SOL     OW25513   2.351   3.267  13.964  0.0585 -0.7357  0.2214
 4627SOL    HW125514   2.285   3.336  13.954  1.9347  1.2619  1.3654
 4627SOL    HW225515   2.417   3.312  14.018 -0.3814  1.1710 -0.8100
 4628SOL     OW25516   2.211   2.498   4.352 -0.6333 -0.0658 -0.0717
 4628SOL    HW125517   2.232   2.467   4.263  2.0735 -1.0944  0.9292
 4628SOL    HW225518   2.296   2.506   4.396  1.1629  0.1065 -3.5483
 4629SOL     OW25519   0.588   0.908   5.792 -0.5671  0.2791  0.2792
 4629SOL    HW125520   0.633   0.993   5.786 -0.7825  0.3929  0.2852
 4629SOL    HW225521   0.617   0.876   5.877 -0.2025  2.4334  0.9684
 4630SOL     OW25522   2.942   3.715  12.326 -0.2364 -0.4368  0.4556
 4630SOL    HW125523   2.850   3.691  12.311 -0.3401  0.8116 -0.8941
 4630SOL    HW225524   2.959   3.693  12.418  0.7123  1.9810  0.8674
 4631SOL     OW25525   0.445   2.886   3.666 -0.5714  0.0845  0.2850
 4631SOL    HW125526   0.356   2.918   3.657 -0.0837  1.5217  0.5774
 4631SOL    HW225527   0.465   2.888   3.760  1.0138  3.6921 -0.1464
 4632SOL     OW25528   4.311   1.326  11.903 -0.5472  0.4713 -0.1702
 4632SOL    HW125529   4.305   1.387  11.829 -4.9952 -0.6543 -0.7659
 4632SOL    HW225530   4.261   1.378  11.966  0.3729  0.9600  0.1466
 4633SOL     OW25531   3.505   0.425   3.624  0.2429 -0.1012 -0.2184
 4633SOL    HW125532   3.544   0.512   3.614  0.1847  0.1385  1.6140
 4633SOL    HW225533   3.441   0.410   3.554  2.5233  2.5369 -2.8750
 4634SOL     OW25534   2.620   2.767  10.140  0.0559 -0.9378 -0.3602
 4634SOL    HW125535   2.659   2.816  10.213  3.6107 -1.8201 -1.6720
 4634SOL    HW225536   2.593   2.680  10.169  2.9021 -1.7947 -0.2807
 4635SOL     OW25537   3.573   0.082   8.177 -0.1469  0.4956  0.1926
 4635SOL    HW125538   3.580   0.171   8.211 -1.4689  1.0954 -1.1011
 4635SOL    HW225539   3.495   0.047   8.220 -1.1537  1.1216 -1.1374
 4636SOL     OW25540   2.221   4.632  14.798  0.2158 -0.1216  0.2093
 4636SOL    HW125541   2.202   4.578  14.874 -1.3977  0.9739  0.5621
 4636SOL    HW225542   2.301   4.682  14.816 -0.5375  0.7938  1.0194
 4637SOL     OW25543   3.618   1.207   6.574 -0.7115  0.6955  0.4348
 4637SOL    HW125544   3.523   1.213   6.589 -0.2917  0.0798  3.3749
 4637SOL    HW225545   3.617   1.127   6.520  0.9871  0.2670  1.0532
 4638SOL     OW25546   2.069   4.412   8.406 -0.5945 -0.0124 -0.2878
 4638SOL    HW125547   2.012   4.413   8.483 -0.0769 -0.2601  0.0971
 4638SOL    HW225548   2.119   4.492   8.420 -0.3857 -0.1257 -0.3792
 4639SOL     OW25549   1.443   1.003   6.171 -0.2556 -0.4918  0.6294
 4639SOL    HW125550   1.515   1.016   6.109 -0.4669  2.3771  1.0066
 4639SOL    HW225551   1.381   0.946   6.125  0.4785 -0.8732  0.1008
 4640SOL     OW25552   0.876   3.567   8.575 -0.1392  0.6190  0.1517
 4640SOL    HW125553   0.828   3.643   8.545 -1.6367 -0.3263  0.1835
 4640SOL    HW225554   0.858   3.562   8.669  0.3682  2.9973  0.3642
 4641SOL     OW25555   3.715   3.142   7.542 -0.0881  0.8409  0.1579
 4641SOL    HW125556   3.689   3.055   7.511 -0.8057  2.1130 -2.8059
 4641SOL    HW225557   3.683   3.141   7.632 -1.5790 -1.0168 -0.3877
 4642SOL     OW25558   2.653   0.557  13.945 -0.5907 -0.1911 -0.6987
 4642SOL    HW125559   2.695   0.541  13.861 -1.3216 -0.0971 -1.0808
 4642SOL    HW225560   2.579   0.612  13.920 -1.6913 -1.9334 -1.2685
 4643SOL     OW25561   2.539   0.904   5.493 -0.3155  0.3592  0.0519
 4643SOL    HW125562   2.518   0.985   5.446 -2.3478  0.1943  0.6840
 4643SOL    HW225563   2.464   0.846   5.483 -0.7689  1.2737 -1.9080
 4644SOL     OW25564   1.986   2.990   7.140  0.4138 -0.4808  0.6169
 4644SOL    HW125565   1.905   2.942   7.155  1.3533 -2.4631 -0.5690
 4644SOL    HW225566   1.970   3.082   7.164 -0.0847 -0.6041  0.7598
 4645SOL     OW25567   4.271   2.388   0.223  0.0407  0.0026  0.1270
 4645SOL    HW125568   4.212   2.320   0.257  0.4476 -0.4481 -0.0747
 4645SOL    HW225569   4.347   2.376   0.280  0.0753  1.8781  0.4711
 4646SOL     OW25570   1.217   1.104  10.276  0.9288  0.1284 -0.0701
 4646SOL    HW125571   1.147   1.136  10.218  1.3146  0.1516 -0.5233
 4646SOL    HW225572   1.281   1.093  10.205 -0.3560  1.9431 -1.5220
 4647SOL     OW25573   2.504   3.427   8.415 -0.6386 -0.0529  0.1104
 4647SOL    HW125574   2.532   3.407   8.326  0.7779  1.7583  0.1595
 4647SOL    HW225575   2.456   3.347   8.435 -1.6903  1.3485  3.2954
 4648SOL     OW25576   4.137   1.977   7.435  0.3015 -0.4545  0.2070
 4648SOL    HW125577   4.182   1.902   7.395  0.7913  0.4609 -0.9629
 4648SOL    HW225578   4.199   1.979   7.508  0.2272  0.9610  0.2235
 4649SOL     OW25579   3.881   3.462   4.446 -0.1226  0.2819 -0.8181
 4649SOL    HW125580   3.883   3.539   4.390  0.8021  0.9869  0.1921
 4649SOL    HW225581   3.788   3.450   4.462 -0.2914  1.1918 -1.1312
 4650SOL     OW25582   3.363   4.575  12.438  0.1953  0.0101 -0.4299
 4650SOL    HW125583   3.456   4.564  12.457 -0.2840 -1.4104  1.0728
 4650SOL    HW225584   3.332   4.550  12.525 -1.0034  1.3854 -0.4702
 4651SOL     OW25585   1.008   4.472   1.422 -0.3983  0.0926  0.1549
 4651SOL    HW125586   1.065   4.429   1.358  1.2013 -1.2296  2.4392
 4651SOL    HW225587   1.034   4.564   1.410 -0.5607 -0.0020 -0.9019
 4652SOL     OW25588   4.668   3.278   9.515 -0.2948 -0.3223 -0.4884
 4652SOL    HW125589   0.020   3.300   9.495  0.7105 -1.2935  3.0682
 4652SOL    HW225590   4.681   3.184   9.525 -0.1817 -0.0396  1.8750
 4653SOL     OW25591   1.182   2.486   4.486 -0.2264  0.2162  0.2409
 4653SOL    HW125592   1.273   2.459   4.490 -0.6215 -0.7527  2.4848
 4653SOL    HW225593   1.136   2.407   4.457 -0.9591  0.7855 -0.1513
 4654SOL     OW25594   3.204   0.332  12.832  0.4731 -0.2607 -0.2004
 4654SOL    HW125595   3.254   0.295  12.759  1.4230 -2.4593  1.5467
 4654SOL    HW225596   3.271   0.396  12.857  1.2280 -1.3309  0.4997
 4655SOL     OW25597   1.805   2.415   6.184 -0.1971 -0.0919 -0.2228
 4655SOL    HW125598   1.728   2.390   6.133 -0.3023 -2.3516  1.0114
 4655SOL    HW225599   1.874   2.442   6.123 -1.1984  1.3718 -0.7044
 4656SOL     OW25600   3.627   2.290   7.231 -0.1210  0.5374  0.0029
 4656SOL    HW125601   3.555   2.339   7.191  0.5435  0.9176 -0.7194
 4656SOL    HW225602   3.710   2.323   7.198 -0.1384 -0.2789 -0.8404
 4657SOL     OW25603   2.976   3.473   0.458  0.3047  0.2170 -0.0004
 4657SOL    HW125604   2.908   3.476   0.524 -0.8332 -0.9099 -1.1168
 4657SOL    HW225605   2.967   3.379   0.443  3.5655  0.0809 -1.2726
 4658SOL     OW25606   3.257   0.957   4.491 -0.5264 -0.6507  0.7705
 4658SOL    HW125607   3.318   1.024   4.522 -0.8858  0.2331 -0.4266
 4658SOL    HW225608   3.269   0.886   4.553 -1.9985 -0.0870  1.7074
 4659SOL     OW25609   2.972   0.481   8.030 -0.4553 -0.2552 -0.2445
 4659SOL    HW125610   2.906   0.454   8.095 -2.5555  2.5169 -1.1985
 4659SOL    HW225611   2.915   0.522   7.965 -1.9629 -0.3289  1.0001
 4660SOL     OW25612   4.661   2.563   4.028  0.1758 -0.3150  0.7241
 4660SOL    HW125613   4.636   2.471   4.025  0.1637 -0.3009  0.3336
 4660SOL    HW225614   4.597   2.602   4.088  1.2161  0.1467  1.5431
 4661SOL     OW25615   4.620   3.993   0.833  0.9207  0.4053  0.3383
 4661SOL    HW125616   4.555   3.929   0.859  1.5039 -0.4894 -0.4018
 4661SOL    HW225617   4.587   4.063   0.889  0.5986  1.6910 -1.4459
 4662SOL     OW25618   1.494   2.866   0.145 -0.4463 -0.0867  0.1910
 4662SOL    HW125619   1.470   2.932   0.080  1.5569 -0.3407 -0.8056
 4662SOL    HW225620   1.426   2.892   0.207  1.0081  0.5701  1.5117
 4663SOL     OW25621   3.295   1.362  17.371 -0.5254 -0.3235 -0.2758
 4663SOL    HW125622   3.387   1.336  17.365 -0.3197  0.4937 -0.6281
 4663SOL    HW225623   3.270   1.298  17.305  0.3939 -0.3941 -0.5577
 4664SOL     OW25624   0.682   3.574   1.300 -0.6936 -0.1771 -0.0194
 4664SOL    HW125625   0.682   3.555   1.206  0.3489 -1.5315  0.2405
 4664SOL    HW225626   0.642   3.499   1.345  2.0394  0.0969  2.9048
 4665SOL     OW25627   4.564   2.147  17.712 -0.0714  0.3970  0.0977
 4665SOL    HW125628   4.623   2.171   0.029 -0.3141  2.1600 -0.3036
 4665SOL    HW225629   4.487   2.202  17.724 -0.2106  0.4486 -1.0876
 4666SOL     OW25630   3.286   2.495  15.355  0.2825  0.2902  0.2741
 4666SOL    HW125631   3.206   2.443  15.344  0.2666  0.0739  1.4530
 4666SOL    HW225632   3.354   2.438  15.319 -0.3260 -0.1765 -0.1502
 4667SOL     OW25633   0.223   1.274   7.072 -0.6827 -0.0874 -0.1707
 4667SOL    HW125634   0.223   1.224   6.991  1.2189  2.3158 -1.6340
 4667SOL    HW225635   0.130   1.274   7.095 -0.8937 -4.0915 -1.0158
 4668SOL     OW25636   1.213   3.599  13.589 -0.1072  0.0079  0.3007
 4668SOL    HW125637   1.294   3.560  13.560  0.1885  0.7930  0.0682
 4668SOL    HW225638   1.232   3.607  13.683  1.2809  2.9686 -0.2368
 4669SOL     OW25639   3.910   0.001  11.667  0.0737  0.2668 -0.1858
 4669SOL    HW125640   3.888   0.020  11.758 -1.6548 -0.1256 -0.5340
 4669SOL    HW225641   3.836   4.685  11.642 -0.2404  0.5425  0.1474
 4670SOL     OW25642   0.344   3.440  12.944  0.0634 -0.4093 -0.0078
 4670SOL    HW125643   0.396   3.392  13.009  0.3767 -0.1530 -0.0678
 4670SOL    HW225644   0.280   3.486  12.998  0.4345  0.3389 -0.1960
 4671SOL     OW25645   1.799   2.190  15.069 -0.0452 -0.3047 -0.6264
 4671SOL    HW125646   1.747   2.139  15.131  2.6363 -1.6294  0.5271
 4671SOL    HW225647   1.804   2.135  14.991 -1.7090 -2.0444  0.4995
 4672SOL     OW25648   0.194   1.880  17.562 -0.6837 -0.3522 -0.1187
 4672SOL    HW125649   0.216   1.952  17.503 -0.6899  0.4621  0.8693
 4672SOL    HW225650   0.270   1.882  17.621 -0.5211 -1.3346 -0.2978
 4673SOL     OW25651   4.445   0.522   9.501 -0.0852  0.4144 -0.6274
 4673SOL    HW125652   4.458   0.613   9.475  1.0440  0.2683 -0.5583
 4673SOL    HW225653   4.382   0.543   9.571 -0.7519  0.8359 -1.3485
 4674SOL     OW25654   4.516   2.128   7.495  0.1980 -0.2810 -0.0614
 4674SOL    HW125655   4.541   2.156   7.407  1.1302  0.4781  0.4363
 4674SOL    HW225656   4.466   2.209   7.511 -0.8240 -0.6630 -1.3596
 4675SOL     OW25657   2.778   0.388   6.099 -0.2895 -0.2998 -0.8389
 4675SOL    HW125658   2.722   0.372   6.023  0.9047  1.1597 -2.0123
 4675SOL    HW225659   2.732   0.336   6.164  0.2112 -0.2194 -0.4233
 4676SOL     OW25660   1.486   2.616  17.129 -0.3567 -0.0071  0.0302
 4676SOL    HW125661   1.512   2.706  17.146  1.9371 -0.3003 -1.9161
 4676SOL    HW225662   1.405   2.629  17.078 -1.1079 -0.7471  1.0329
 4677SOL     OW25663   4.270   2.362   8.884  0.0673  0.8874 -0.1795
 4677SOL    HW125664   4.311   2.318   8.958 -1.7216  0.9473  0.8575
 4677SOL    HW225665   4.341   2.354   8.821  1.2784 -2.4959  1.6341
 4678SOL     OW25666   1.326   4.670   2.716 -0.0131 -0.5571 -0.1489
 4678SOL    HW125667   1.292   4.629   2.796  2.3608  1.4527  1.8742
 4678SOL    HW225668   1.298   0.021   2.723  1.0470 -0.3209  0.9958
 4679SOL     OW25669   2.269   0.717   2.057 -0.3373  0.2312  0.1363
 4679SOL    HW125670   2.296   0.656   1.989 -1.2325  0.8784 -0.8061
 4679SOL    HW225671   2.178   0.690   2.070 -0.5213  0.0435 -1.4755
 4680SOL     OW25672   0.235   3.465   7.133 -0.3487 -0.2367 -0.1940
 4680SOL    HW125673   0.181   3.445   7.056 -3.0871  2.1265  1.1352
 4680SOL    HW225674   0.166   3.494   7.193  0.8021  2.6819 -0.2580
 4681SOL     OW25675   1.921   4.463   0.550 -0.7500 -0.2685  0.2009
 4681SOL    HW125676   1.961   4.415   0.477  1.8438  2.4695 -0.2068
 4681SOL    HW225677   1.964   4.549   0.547 -0.3245 -0.4646  0.6423
 4682SOL     OW25678   3.122   4.438  14.724 -0.1003 -0.4916 -0.4853
 4682SOL    HW125679   3.093   4.370  14.785  1.8170 -1.2839 -0.4744
 4682SOL    HW225680   3.053   4.504  14.712 -2.1368 -2.5693 -0.2188
 4683SOL     OW25681   0.382   2.420   0.091 -0.1690  0.3371  0.2830
 4683SOL    HW125682   0.475   2.399   0.080 -0.3085 -0.7449  1.2723
 4683SOL    HW225683   0.374   2.412   0.186  2.8102 -0.5038  0.4601
 4684SOL     OW25684   3.006   3.437   3.183 -0.1249 -0.2760 -0.2604
 4684SOL    HW125685   2.918   3.466   3.207 -0.3872 -2.2275  1.1623
 4684SOL    HW225686   3.059   3.508   3.218  0.9601 -1.8300  1.2706
 4685SOL     OW25687   3.742   2.665  13.277 -0.0427 -0.2496 -0.0931
 4685SOL    HW125688   3.648   2.648  13.276 -0.0304 -0.3372  0.0834
 4685SOL    HW225689   3.774   2.577  13.258  0.1550  0.1407 -1.5699
 4686SOL     OW25690   3.193   0.456   1.329 -0.0442 -0.9770  0.8017
 4686SOL    HW125691   3.122   0.519   1.315  0.9150  0.2129  1.2206
 4686SOL    HW225692   3.245   0.466   1.248 -0.8320 -0.8790  0.3107
 4687SOL     OW25693   3.379   3.297  10.105 -0.5076 -0.4653 -0.5485
 4687SOL    HW125694   3.284   3.298  10.100 -0.5414  2.4421  0.8218
 4687SOL    HW225695   3.393   3.384  10.069  1.1169 -0.0073  1.1797
 4688SOL     OW25696   3.403   0.563  12.851  0.7006 -0.1426  1.0564
 4688SOL    HW125697   3.352   0.620  12.795  2.7821  1.1221  0.4384
 4688SOL    HW225698   3.489   0.576  12.810  0.0484  1.1547  0.1295
 4689SOL     OW25699   3.124   4.320   9.181  0.5654  0.5057  0.5643
 4689SOL    HW125700   3.071   4.247   9.149  0.6084  0.0917  1.4218
 4689SOL    HW225701   3.138   4.295   9.273  0.3121  1.1495  0.7779
 4690SOL     OW25702   1.979   3.708  16.826 -0.0163 -0.2597 -0.1169
 4690SOL    HW125703   2.036   3.696  16.750  0.9411  3.6611 -0.0419
 4690SOL    HW225704   1.933   3.790  16.805 -1.9884 -1.2864  0.1652
 4691SOL     OW25705   2.461   1.569   7.917  0.3228 -0.1797  0.7504
 4691SOL    HW125706   2.457   1.548   7.823  0.1221 -1.3585  1.0351
 4691SOL    HW225707   2.489   1.481   7.942 -0.1298 -0.1622  1.3203
 4692SOL     OW25708   1.835   3.547  16.999  0.2723 -0.6285  0.3454
 4692SOL    HW125709   1.774   3.584  16.935  1.0140  0.8218  0.4793
 4692SOL    HW225710   1.924   3.569  16.973 -0.3465  2.7188  1.0396
 4693SOL     OW25711   4.331   3.133  16.316 -0.0749  0.3008 -0.0686
 4693SOL    HW125712   4.388   3.193  16.269 -0.8246 -0.0359 -1.4148
 4693SOL    HW225713   4.399   3.068  16.331 -0.2041  0.2734  0.3834
 4694SOL     OW25714   0.026   3.574   5.695  0.2230  0.4383  0.1650
 4694SOL    HW125715   0.016   3.668   5.711  3.3460  0.2378  3.1608
 4694SOL    HW225716   0.117   3.559   5.721  0.5183  1.0159 -0.5418
 4695SOL     OW25717   2.995   2.188   7.182  0.3830 -0.5694 -0.6560
 4695SOL    HW125718   3.081   2.155   7.209  0.9770  0.1852 -1.6153
 4695SOL    HW225719   2.938   2.125   7.226  1.0175 -0.4167  0.3775
 4696SOL     OW25720   1.711   0.884   2.210  0.0504  0.1667  0.2477
 4696SOL    HW125721   1.701   0.882   2.115  0.8177 -2.4687  0.2419
 4696SOL    HW225722   1.772   0.812   2.220  0.0197  0.1276  0.1540
 4697SOL     OW25723   1.517   2.890  17.132  0.0937 -0.3012 -0.4323
 4697SOL    HW125724   1.501   2.898  17.038 -2.7592  0.4574  0.0988
 4697SOL    HW225725   1.458   2.953  17.173 -0.5060  0.2651 -2.1533
 4698SOL     OW25726   3.439   1.471  17.713 -0.2887 -0.7584  0.3930
 4698SOL    HW125727   3.417   1.387  17.754  0.7828 -0.8028  0.8643
 4698SOL    HW225728   3.502   1.439  17.649 -0.4793 -0.7121  0.1811
 4699SOL     OW25729   1.100   4.466   0.530  0.1070  0.5491  0.1838
 4699SOL    HW125730   1.069   4.399   0.591  0.2715  0.3323  0.0267
 4699SOL    HW225731   1.050   4.445   0.451  0.1945  1.3831 -0.0868
 4700SOL     OW25732   0.355   4.417   5.128  0.3286 -0.3361 -0.1780
 4700SOL    HW125733   0.331   4.463   5.208  0.6055  0.4507 -0.5409
 4700SOL    HW225734   0.295   4.454   5.063  0.6560 -1.3343 -1.0429
 4701SOL     OW25735   2.261   1.585   7.057 -0.1861  0.3356  0.3677
 4701SOL    HW125736   2.231   1.504   7.098  1.8877 -0.1328  0.9596
 4701SOL    HW225737   2.200   1.646   7.100 -0.7650 -1.2832  1.8333
 4702SOL     OW25738   0.522   3.276   5.887 -0.4444 -0.2373  0.1707
 4702SOL    HW125739   0.505   3.266   5.981  1.2308  0.6221  0.5664
 4702SOL    HW225740   0.615   3.294   5.875 -0.6641  0.4525 -0.4357
 4703SOL     OW25741   1.463   4.669   3.794  0.0529  0.4258  0.2398
 4703SOL    HW125742   1.542   4.623   3.823 -1.4839 -2.2023  0.3035
 4703SOL    HW225743   1.401   4.650   3.865  0.8741  0.1689  0.8908
 4704SOL     OW25744   2.415   2.535   5.232  0.5599 -0.3509 -0.6746
 4704SOL    HW125745   2.357   2.607   5.208  1.3408 -0.1469 -1.9126
 4704SOL    HW225746   2.394   2.535   5.326  1.5855  1.4985 -0.4244
 4705SOL     OW25747   2.848   2.706  16.678  0.1938  0.4920 -0.1939
 4705SOL    HW125748   2.777   2.769  16.684 -2.1354 -2.2751  1.3927
 4705SOL    HW225749   2.904   2.737  16.749 -1.6732 -0.3008  1.6375
 4706SOL     OW25750   4.256   3.120   9.037 -0.1790 -0.0820  0.2084
 4706SOL    HW125751   4.263   3.108   8.943  2.0188 -1.3459  0.5196
 4706SOL    HW225752   4.208   3.202   9.042  0.6652  0.2892  2.3557
 4707SOL     OW25753   0.975   2.630  11.119  0.7626 -0.4345 -0.4801
 4707SOL    HW125754   0.958   2.638  11.213  0.1451 -0.6113 -0.5790
 4707SOL    HW225755   1.031   2.552  11.115 -0.0268 -1.0425  0.3244
 4708SOL     OW25756   3.040   1.887   7.986  0.1417  0.8665  0.0548
 4708SOL    HW125757   3.135   1.890   7.971  0.1933  2.6803  0.7172
 4708SOL    HW225758   3.037   1.854   8.076 -0.0580  3.2654  0.9350
 4709SOL     OW25759   2.981   3.810  10.093 -0.2708  0.1471  0.3272
 4709SOL    HW125760   2.984   3.717  10.070  2.1729  0.1022  0.9066
 4709SOL    HW225761   2.911   3.843  10.035 -0.5582 -1.1612 -0.0609
 4710SOL     OW25762   0.014   2.261   2.083 -0.3301 -0.8043 -0.1594
 4710SOL    HW125763   4.738   2.317   2.007  0.9442 -1.3407 -0.8262
 4710SOL    HW225764   0.044   2.331   2.141 -0.1779  0.6718 -2.0269
 4711SOL     OW25765   2.075   3.982   5.751 -0.5661  0.2934  0.0469
 4711SOL    HW125766   2.112   3.894   5.742  2.8484  1.9120 -1.9372
 4711SOL    HW225767   1.986   3.959   5.777  0.2150 -1.3403  1.2755
 4712SOL     OW25768   2.385   2.526   9.369 -0.2570 -0.1865  0.1496
 4712SOL    HW125769   2.457   2.570   9.414 -1.7345  1.2826  1.0840
 4712SOL    HW225770   2.347   2.466   9.433  1.4902 -0.6938  0.7238
 4713SOL     OW25771   4.713   0.266   1.884 -0.1524 -0.1934 -0.5309
 4713SOL    HW125772   0.005   0.339   1.938 -2.5875  0.6672 -0.3090
 4713SOL    HW225773   0.061   0.229   1.873  0.5778  1.2471  0.4187
 4714SOL     OW25774   1.240   0.584  11.862  0.3517  0.2000  0.9087
 4714SOL    HW125775   1.182   0.597  11.788  3.5932 -0.3396 -1.7346
 4714SOL    HW225776   1.328   0.599  11.826  0.2571 -0.6566  0.3288
 4715SOL     OW25777   0.434   0.287   4.629  0.2471 -0.1301 -0.4239
 4715SOL    HW125778   0.396   0.374   4.619 -0.7306 -0.6057 -0.8215
 4715SOL    HW225779   0.464   0.271   4.540 -0.0814  2.2621 -0.9665
 4716SOL     OW25780   1.283   2.082   0.278  0.3861 -0.0903  0.7753
 4716SOL    HW125781   1.281   2.178   0.282 -1.5934 -0.1116  0.1132
 4716SOL    HW225782   1.291   2.065   0.372 -0.9741  1.0942  1.1002
 4717SOL     OW25783   1.332   0.642  12.131  0.3757 -0.5070  0.3135
 4717SOL    HW125784   1.365   0.730  12.113  0.2125 -0.2936  1.0430
 4717SOL    HW225785   1.281   0.612  12.056  1.3692  0.3695 -0.7243
 4718SOL     OW25786   3.612   1.751   1.947 -0.1182 -0.2261 -0.0113
 4718SOL    HW125787   3.525   1.713   1.935 -0.7605  0.4317  2.4951
 4718SOL    HW225788   3.592   1.800   2.027  1.1679  0.7335 -0.2783
 4719SOL     OW25789   3.499   1.572   0.819  0.5116 -0.0898 -0.8873
 4719SOL    HW125790   3.460   1.585   0.733 -0.5062  1.6072 -0.1772
 4719SOL    HW225791   3.591   1.559   0.795  0.8472  1.2499 -0.3314
 4720SOL     OW25792   0.641   2.884   4.807 -0.4612  0.2627 -0.0544
 4720SOL    HW125793   0.661   2.975   4.829  0.5077 -0.0518  0.3185
 4720SOL    HW225794   0.694   2.878   4.727  1.2597 -1.1970  1.1965
 4721SOL     OW25795   1.074   4.101   5.961  0.5732 -0.0880 -0.0850
 4721SOL    HW125796   1.150   4.053   5.992  0.2548  1.3780  2.9167
 4721SOL    HW225797   1.009   4.081   6.028  0.2594  0.3473 -0.2555
 4722SOL     OW25798   2.235   1.413   0.760 -0.4290  0.3764  0.6770
 4722SOL    HW125799   2.322   1.433   0.796 -0.1069 -1.0106  0.6946
 4722SOL    HW225800   2.192   1.353   0.821  1.4901 -0.6100  1.0774
 4723SOL     OW25801   1.939   4.158   4.676 -0.0678  0.9893 -0.8384
 4723SOL    HW125802   1.948   4.199   4.590 -3.0034 -0.5140 -1.8870
 4723SOL    HW225803   1.970   4.071   4.649  0.5049  1.7017 -2.4943
 4724SOL     OW25804   3.295   1.989   8.573  0.1052 -0.6471 -0.1521
 4724SOL    HW125805   3.294   2.026   8.660 -3.0589  0.5622 -0.7011
 4724SOL    HW225806   3.331   2.060   8.519 -0.1065 -1.9310 -2.0100
 4725SOL     OW25807   4.582   0.342   8.412 -0.3680  0.4198 -0.2958
 4725SOL    HW125808   4.551   0.285   8.342  0.6538  1.1105 -1.3066
 4725SOL    HW225809   4.610   0.416   8.359  3.3933 -0.2456  0.7229
 4726SOL     OW25810   4.624   1.574   7.215 -0.6754  0.0601 -0.3361
 4726SOL    HW125811   4.575   1.590   7.296 -0.3368  0.7927 -0.2704
 4726SOL    HW225812   4.643   1.663   7.183 -0.2639 -0.0470 -0.3886
 4727SOL     OW25813   4.060   4.185   6.617 -0.0846 -0.1842 -0.1945
 4727SOL    HW125814   4.127   4.230   6.565 -0.3859  0.1072 -0.3316
 4727SOL    HW225815   3.980   4.230   6.591  0.2917  0.6065 -0.0161
 4728SOL     OW25816   4.535   3.606  13.751 -0.4330 -0.5845  0.0639
 4728SOL    HW125817   4.528   3.631  13.844 -2.0977  0.9394 -0.4683
 4728SOL    HW225818   4.602   3.667  13.718 -1.2668  0.4261  0.2361
 4729SOL     OW25819   0.238   0.977  17.437  0.1186 -0.0517  0.5269
 4729SOL    HW125820   0.334   0.971  17.434  0.2795  2.5655  0.4099
 4729SOL    HW225821   0.221   1.063  17.400  1.0170  0.3459  1.0437
 4730SOL     OW25822   1.394   3.126  17.270  0.1535 -0.0708  0.2582
 4730SOL    HW125823   1.357   3.148  17.185 -0.6266 -1.3559  0.2841
 4730SOL    HW225824   1.449   3.198  17.302 -0.0532  0.2258 -0.0531
 4731SOL     OW25825   2.484   2.767   8.905 -0.0627 -0.2433  0.2132
 4731SOL    HW125826   2.419   2.724   8.961  1.2833 -4.1256 -1.1903
 4731SOL    HW225827   2.552   2.701   8.922  2.3226  2.0444 -0.4761
 4732SOL     OW25828   3.307   1.672   3.859 -0.0948  0.5310 -0.0905
 4732SOL    HW125829   3.288   1.740   3.795 -0.7181 -0.2165 -0.7066
 4732SOL    HW225830   3.403   1.670   3.852 -0.0954 -1.5205  0.5195
 4733SOL     OW25831   2.236   2.941   2.485  0.1229  0.3779  0.3758
 4733SOL    HW125832   2.319   2.894   2.489 -0.7263 -1.2480 -1.2359
 4733SOL    HW225833   2.252   3.032   2.509 -0.3568  0.5925 -0.1307
 4734SOL     OW25834   0.446   2.731   4.928  0.1326  0.1008 -0.1577
 4734SOL    HW125835   0.501   2.806   4.906  0.7562 -0.2366  0.2432
 4734SOL    HW225836   0.513   2.664   4.919  2.1543  1.8117  1.9101
 4735SOL     OW25837   3.216   3.946   6.921 -0.2842 -0.0572  0.3605
 4735SOL    HW125838   3.168   3.979   6.845  0.4503  0.1939  0.0077
 4735SOL    HW225839   3.163   3.866   6.927  0.8299 -0.7926  0.2371
 4736SOL     OW25840   0.916   0.755  15.335  0.5201 -0.1650  0.3447
 4736SOL    HW125841   0.840   0.715  15.291  0.5065  1.7050 -1.3174
 4736SOL    HW225842   0.966   0.673  15.333  0.1408 -0.4305  1.3787
 4737SOL     OW25843   3.448   0.670   2.526  0.1332 -0.2534 -0.5211
 4737SOL    HW125844   3.459   0.579   2.498 -0.9859 -0.3318 -0.6803
 4737SOL    HW225845   3.390   0.666   2.601 -0.1333  0.3052 -0.6973
 4738SOL     OW25846   3.828   0.301   7.689  0.6122 -0.2257 -0.0458
 4738SOL    HW125847   3.767   0.285   7.616 -0.7830 -0.0568  1.0746
 4738SOL    HW225848   3.775   0.273   7.763  1.2880 -1.1027  0.0987
 4739SOL     OW25849   0.505   4.523   8.873 -0.5708  0.6124 -0.0601
 4739SOL    HW125850   0.477   4.557   8.788  0.3433  3.0326  0.6110
 4739SOL    HW225851   0.590   4.482   8.854 -2.0922 -2.7292  0.4555
 4740SOL     OW25852   2.638   4.377   8.085  0.6026  0.3779 -0.3728
 4740SOL    HW125853   2.552   4.391   8.046 -0.0883 -1.4116  0.5469
 4740SOL    HW225854   2.640   4.282   8.097 -2.3906  0.4656  0.6229
 4741SOL     OW25855   2.924   0.706   1.058 -0.2995  0.2871 -0.0539
 4741SOL    HW125856   2.905   0.763   0.983 -0.5773  0.8052  0.4087
 4741SOL    HW225857   2.961   0.634   1.007  0.2453 -0.2108  1.0369
 4742SOL     OW25858   0.427   2.795   5.453  0.3624 -0.1064 -0.3596
 4742SOL    HW125859   0.389   2.823   5.370  0.5095  0.2218 -0.3192
 4742SOL    HW225860   0.349   2.793   5.508  0.9779  0.5331  0.5465
 4743SOL     OW25861   0.612   3.480   6.580  0.5445 -0.0962  0.0783
 4743SOL    HW125862   0.665   3.502   6.656  0.0111  1.0476  0.1145
 4743SOL    HW225863   0.679   3.457   6.515  1.8909  2.2953  0.6339
 4744SOL     OW25864   3.008   2.850   4.606 -0.2708  0.3623 -0.2595
 4744SOL    HW125865   3.076   2.785   4.625 -1.1624 -0.4205  0.2695
 4744SOL    HW225866   3.061   2.917   4.562 -0.4688  0.8414  0.2304
 4745SOL     OW25867   4.220   2.945   8.797 -0.3811 -0.4278  0.4250
 4745SOL    HW125868   4.204   2.851   8.807  0.1754 -0.3271  2.3536
 4745SOL    HW225869   4.294   2.947   8.737  0.6821  1.7698  1.7886
 4746SOL     OW25870   1.418   4.735  15.022  0.4334  0.4248  0.3075
 4746SOL    HW125871   1.381   4.646  15.015 -0.6090  0.9317 -0.6355
 4746SOL    HW225872   1.461   4.728  14.937  1.3267 -1.9324  0.9442
 4747SOL     OW25873   0.413   4.318   6.574 -0.0120  0.4704  0.3436
 4747SOL    HW125874   0.479   4.344   6.639 -2.4302  3.4573  1.5976
 4747SOL    HW225875   0.425   4.368   6.493  3.3533 -1.0317 -0.1020
 4748SOL     OW25876   2.095   1.857   9.094 -0.0244  0.1755 -0.2732
 4748SOL    HW125877   2.019   1.909   9.069 -1.3785 -0.2149  3.0141
 4748SOL    HW225878   2.098   1.863   9.189  0.5161  0.1456 -0.2858
 4749SOL     OW25879   3.296   3.378  17.489 -0.0183  0.1938  0.3820
 4749SOL    HW125880   3.211   3.412  17.460 -1.2780 -0.9966  2.6594
 4749SOL    HW225881   3.315   3.418  17.574 -0.9933 -2.2119  1.7198
 4750SOL     OW25882   2.469   1.043  14.754  0.1147 -0.2758 -0.5195
 4750SOL    HW125883   2.475   0.948  14.763  1.4863 -0.2977 -1.7215
 4750SOL    HW225884   2.557   1.074  14.770  0.3595 -1.6845  0.8701
 4751SOL     OW25885   4.474   0.653   7.613 -0.2763 -0.1527 -0.9807
 4751SOL    HW125886   4.457   0.604   7.532  2.8782 -0.4410 -1.4397
 4751SOL    HW225887   4.397   0.638   7.669  0.1489  0.7900 -0.1388
 4752SOL     OW25888   3.829   3.459  12.208 -0.3145 -0.1553  0.1634
 4752SOL    HW125889   3.743   3.472  12.247 -0.4297 -2.7068  0.7580
 4752SOL    HW225890   3.824   3.525  12.139  0.8374  1.6356  1.7978
 4753SOL     OW25891   2.811   3.707   5.111  0.5915 -0.0425  0.0973
 4753SOL    HW125892   2.789   3.716   5.204 -0.7433  2.7579 -0.5051
 4753SOL    HW225893   2.755   3.775   5.073  1.5447  0.3149 -0.6478
 4754SOL     OW25894   2.186   0.327   4.517 -0.2061 -0.1647 -0.6245
 4754SOL    HW125895   2.185   0.396   4.451  3.9662  1.5879  1.1523
 4754SOL    HW225896   2.219   0.254   4.465  3.3368  1.4341 -0.6318
 4755SOL     OW25897   2.866   3.036  11.598  0.0669 -0.1235  0.0565
 4755SOL    HW125898   2.894   3.098  11.666  2.1248  0.5169 -1.3830
 4755SOL    HW225899   2.885   2.951  11.639 -1.8539 -0.3266  0.5415
 4756SOL     OW25900   4.135   0.223  10.619 -0.1001  0.4417 -0.3009
 4756SOL    HW125901   4.167   0.263  10.701  0.4906 -1.7770  0.5530
 4756SOL    HW225902   4.137   0.131  10.646  2.2236  0.7731  0.6843
 4757SOL     OW25903   3.081   3.960   7.530  0.1559  0.0821  0.6207
 4757SOL    HW125904   3.011   4.020   7.556 -2.0674 -2.2324 -0.0600
 4757SOL    HW225905   3.076   3.897   7.601  1.2304 -0.6049  0.0904
 4758SOL     OW25906   0.873   4.382  13.385 -1.0143  0.4772 -0.2504
 4758SOL    HW125907   0.943   4.320  13.364 -1.2929  0.5416 -1.3429
 4758SOL    HW225908   0.815   4.365  13.311 -0.3950  1.6800 -1.0079
 4759SOL     OW25909   3.013   1.547   8.480 -0.4009 -0.1187 -0.4061
 4759SOL    HW125910   3.042   1.631   8.515 -0.4744 -0.5310  0.6507
 4759SOL    HW225911   3.052   1.553   8.393 -0.1545  1.6468 -0.1802
 4760SOL     OW25912   0.443   1.143   7.480  0.2343  0.2818  0.1142
 4760SOL    HW125913   0.450   1.227   7.437 -1.9261  0.8855  0.9552
 4760SOL    HW225914   0.380   1.162   7.550  0.6141  2.8625 -0.2420
 4761SOL     OW25915   1.437   3.435   1.101 -0.1664  0.1073 -0.4857
 4761SOL    HW125916   1.368   3.467   1.159  0.1636 -0.2069  0.0781
 4761SOL    HW225917   1.518   3.452   1.149 -0.7339 -0.4312  0.6798
 4762SOL     OW25918   1.224   2.224   2.258 -0.1119 -0.7359  0.4448
 4762SOL    HW125919   1.263   2.270   2.333  0.2764  0.7565 -0.6776
 4762SOL    HW225920   1.189   2.147   2.302 -0.0220 -0.2713  1.3373
 4763SOL     OW25921   3.266   3.213   6.973 -0.1068 -0.4630  0.5510
 4763SOL    HW125922   3.257   3.132   6.922  1.4575 -0.5845  0.4691
 4763SOL    HW225923   3.336   3.206   7.038 -0.3708 -0.9278  0.7915
 4764SOL     OW25924   2.679   1.809   4.723 -0.1837  0.1927 -0.1183
 4764SOL    HW125925   2.684   1.864   4.801  0.7346 -0.0075 -0.0417
 4764SOL    HW225926   2.766   1.832   4.691 -0.2422 -0.0165 -0.4238
 4765SOL     OW25927   3.447   3.887   1.276 -1.0090 -0.6214 -0.2217
 4765SOL    HW125928   3.380   3.892   1.208  0.9931  0.1962 -2.1446
 4765SOL    HW225929   3.399   3.921   1.352  0.4797  1.2846 -0.1362
 4766SOL     OW25930   0.518   3.495   8.449 -0.4297  0.3691  0.0839
 4766SOL    HW125931   0.434   3.452   8.461  0.9139 -2.2383  0.1791
 4766SOL    HW225932   0.510   3.571   8.506 -2.8267  0.8092 -0.8790
 4767SOL     OW25933   4.236   4.461   5.337 -0.0547  0.2446  0.2332
 4767SOL    HW125934   4.150   4.498   5.358  0.3287  0.4503  1.4641
 4767SOL    HW225935   4.298   4.528   5.367  2.2920 -1.0613 -1.7149
 4768SOL     OW25936   2.434   2.557   2.664  0.3043  0.1179 -0.0370
 4768SOL    HW125937   2.481   2.633   2.700  0.6521  0.5470 -1.4154
 4768SOL    HW225938   2.449   2.490   2.731 -2.6833 -1.5237 -1.0162
 4769SOL     OW25939   3.681   2.220   4.957 -0.1865 -0.4942  0.5832
 4769SOL    HW125940   3.676   2.130   4.925 -1.0155 -1.2066  2.7069
 4769SOL    HW225941   3.699   2.210   5.050 -1.7768  0.3155  0.9720
 4770SOL     OW25942   2.199   2.960  13.719  0.6926 -0.3777 -0.1318
 4770SOL    HW125943   2.229   3.039  13.674 -0.6045 -0.3216 -0.9238
 4770SOL    HW225944   2.110   2.987  13.741  2.1742  1.9857  2.8611
 4771SOL     OW25945   0.987   2.337  14.292 -0.4965 -0.0501 -0.2809
 4771SOL    HW125946   0.936   2.263  14.258  0.9223  0.0116 -2.5652
 4771SOL    HW225947   1.063   2.295  14.333 -0.4541  1.3491  1.0727
 4772SOL     OW25948   2.298   0.859   7.539  0.2874  0.0008  0.2990
 4772SOL    HW125949   2.264   0.899   7.619 -0.9412  0.5868 -0.5105
 4772SOL    HW225950   2.327   0.936   7.490 -0.1122  0.0586  0.1559
 4773SOL     OW25951   2.685   0.375   3.952 -0.5239  0.3168 -0.0952
 4773SOL    HW125952   2.667   0.357   3.860  2.5357 -0.0699 -0.5982
 4773SOL    HW225953   2.721   0.291   3.981  1.4142  1.2414  0.1387
 4774SOL     OW25954   2.216   3.403  16.605  0.4939  0.7314 -0.4577
 4774SOL    HW125955   2.241   3.342  16.675 -3.2681  0.8723  0.9931
 4774SOL    HW225956   2.299   3.412  16.558 -0.5824 -1.7315 -2.8125
 4775SOL     OW25957   0.392   1.638   2.484 -0.3834 -0.5199 -0.1851
 4775SOL    HW125958   0.374   1.718   2.532 -1.1775 -0.6902 -0.1984
 4775SOL    HW225959   0.393   1.572   2.554  0.5435  1.3215  1.5397
 4776SOL     OW25960   1.451   4.247   5.668  0.2319 -0.1114 -0.4325
 4776SOL    HW125961   1.372   4.215   5.624  0.9969 -3.4682  0.6619
 4776SOL    HW225962   1.481   4.323   5.617 -1.7335  1.5487  0.8920
 4777SOL     OW25963   2.830   3.400   8.662 -0.2630  0.1208  0.1940
 4777SOL    HW125964   2.885   3.336   8.708 -2.5831 -0.9395  1.4991
 4777SOL    HW225965   2.753   3.343   8.654  0.1107 -0.7163  2.4152
 4778SOL     OW25966   1.594   2.277   8.372 -0.0456  0.4257  0.2070
 4778SOL    HW125967   1.584   2.272   8.277 -0.0447 -2.2232  0.3504
 4778SOL    HW225968   1.682   2.240   8.369 -0.5113 -0.5459 -1.3065
 4779SOL     OW25969   2.169   1.072   8.814  0.0111  0.3447 -0.2218
 4779SOL    HW125970   2.091   1.112   8.852 -1.3277  0.4451 -3.0947
 4779SOL    HW225971   2.206   1.148   8.771  0.4453  0.3399  0.1439
 4780SOL     OW25972   4.548   2.746  16.233 -0.2662 -0.0685 -0.1993
 4780SOL    HW125973   4.643   2.737  16.222 -0.0269 -0.0229  1.8504
 4780SOL    HW225974   4.527   2.656  16.208  1.7709 -0.3272 -1.0232
 4781SOL     OW25975   3.546   4.479  14.850  0.1281 -0.5866  0.8969
 4781SOL    HW125976   3.572   4.434  14.931  0.6069 -0.0151  1.0626
 4781SOL    HW225977   3.485   4.416  14.812  0.5422 -0.7825  0.5669
 4782SOL     OW25978   4.729   4.124   8.418  0.5547 -0.2790 -0.2392
 4782SOL    HW125979   4.719   4.130   8.323 -0.0017  1.3578 -0.0685
 4782SOL    HW225980   4.659   4.063   8.441 -1.0341  0.8141 -2.2449
 4783SOL     OW25981   2.057   1.858  11.407 -0.4174 -0.2022 -0.1598
 4783SOL    HW125982   1.999   1.891  11.338  1.7457  2.8151 -0.5680
 4783SOL    HW225983   2.136   1.904  11.379  0.5112 -0.2588  2.4340
 4784SOL     OW25984   2.800   0.108   2.069  0.3550  0.3477 -0.3281
 4784SOL    HW125985   2.769   0.140   2.154  0.0438  1.9570 -1.0372
 4784SOL    HW225986   2.752   0.025   2.069  0.9190  0.0195  0.3508
 4785SOL     OW25987   0.876   4.733   3.108  0.2119  0.0466  0.1569
 4785SOL    HW125988   0.937   0.036   3.169  1.4305 -1.0558 -0.2954
 4785SOL    HW225989   0.797   4.735   3.163 -0.1752 -0.4695 -0.3848
 4786SOL     OW25990   0.894   2.813   4.095  0.1122  0.1647  0.2461
 4786SOL    HW125991   0.863   2.850   4.013 -0.1488  2.5344  1.3953
 4786SOL    HW225992   0.816   2.784   4.142 -0.0925  1.1615  0.5316
 4787SOL     OW25993   1.913   1.222   8.864  0.0040 -0.7741  0.3658
 4787SOL    HW125994   1.937   1.267   8.945 -0.2071 -1.1796  0.6538
 4787SOL    HW225995   1.928   1.289   8.797  0.6510 -1.4297 -0.1437
 4788SOL     OW25996   1.667   1.365   8.203 -0.0163  0.2091  0.2954
 4788SOL    HW125997   1.713   1.448   8.190  0.1433  0.1733  0.6384
 4788SOL    HW225998   1.709   1.345   8.286 -0.0342 -1.3318 -0.0517
 4789SOL     OW25999   1.261   0.906   4.555  0.1308  0.4714 -0.7791
 4789SOL    HW126000   1.171   0.893   4.587  0.9457 -2.1352  0.4424
 4789SOL    HW226001   1.252   0.995   4.522 -2.8091  1.0728  1.6044
 4790SOL     OW26002   3.716   1.090   0.976 -0.0881  0.5123  0.5019
 4790SOL    HW126003   3.670   1.021   1.023 -0.1357 -1.1421 -1.9995
 4790SOL    HW226004   3.664   1.164   1.006 -0.0010 -0.2539  2.5615
 4791SOL     OW26005   0.581   3.351   4.549  0.0291 -0.3009 -0.1065
 4791SOL    HW126006   0.525   3.339   4.625  0.8326 -0.3162  0.4797
 4791SOL    HW226007   0.667   3.372   4.583  0.3832  0.1960 -1.2890
 4792SOL     OW26008   1.480   3.471   8.330 -0.1936  0.1830  0.3774
 4792SOL    HW126009   1.548   3.438   8.389  1.0034 -0.4121 -1.3417
 4792SOL    HW226010   1.529   3.549   8.302 -1.9417  0.0578 -3.0751
 4793SOL     OW26011   2.561   2.984   8.755 -0.6539  0.1949 -0.0115
 4793SOL    HW126012   2.596   2.900   8.726  1.6879  1.1211  0.1324
 4793SOL    HW226013   2.488   2.953   8.810 -1.5487  1.4475 -0.5005
 4794SOL     OW26014   1.742   0.746   7.799  0.6025 -0.3605 -0.4097
 4794SOL    HW126015   1.734   0.832   7.840 -1.0802 -0.9653  0.5153
 4794SOL    HW226016   1.750   0.686   7.873  0.1946  0.6105  0.4247
 4795SOL     OW26017   2.596   0.884   7.364  0.4348 -0.1106  0.4407
 4795SOL    HW126018   2.657   0.891   7.291 -1.4129  2.1798 -0.8496
 4795SOL    HW226019   2.521   0.935   7.335 -0.0370 -1.9830 -1.6559
 4796SOL     OW26020   2.612   3.636   4.813 -0.8014 -0.1253 -0.2597
 4796SOL    HW126021   2.530   3.684   4.810 -0.8590 -0.2327 -0.3841
 4796SOL    HW226022   2.585   3.583   4.888  4.4815 -0.8656  1.1435
 4797SOL     OW26023   2.378   2.870   8.458  0.2487  0.0003  0.1244
 4797SOL    HW126024   2.421   2.813   8.395  0.6060  0.1922  0.1942
 4797SOL    HW226025   2.310   2.909   8.404 -1.7913 -1.5343  1.5611
 4798SOL     OW26026   0.990   1.621   5.201  0.3180  0.8421 -0.3763
 4798SOL    HW126027   0.938   1.575   5.266 -0.9561  1.7115 -0.7759
 4798SOL    HW226028   0.933   1.610   5.125 -0.4942 -0.9484  0.4927
 4799SOL     OW26029   2.357   0.042  15.371 -0.1686  0.0962 -0.1251
 4799SOL    HW126030   2.287   0.033  15.436 -0.6430  1.6444 -0.4311
 4799SOL    HW226031   2.390   4.693  15.352 -0.2127  0.3240 -1.2831
 4800SOL     OW26032   1.614   1.702   3.566  0.1773  0.0773 -0.2241
 4800SOL    HW126033   1.656   1.649   3.498 -1.1877  1.2424 -1.9906
 4800SOL    HW226034   1.680   1.772   3.560  0.5689 -0.3677 -1.0831
 4801SOL     OW26035   0.387   1.235   3.255 -0.4322 -0.2715  0.2299
 4801SOL    HW126036   0.445   1.311   3.259 -1.8453  0.7464  1.6238
 4801SOL    HW226037   0.450   1.167   3.276 -1.6974 -0.8649  2.0931
 4802SOL     OW26038   2.468   1.474   0.874 -0.2309 -0.1797  0.4109
 4802SOL    HW126039   2.450   1.505   0.963  1.7183 -0.5050  0.9285
 4802SOL    HW226040   2.563   1.469   0.878 -0.1033  2.0835  0.5756
 4803SOL     OW26041   3.624   1.172   8.852 -0.3339 -0.1405 -0.1443
 4803SOL    HW126042   3.627   1.105   8.784 -0.8269  0.9269 -1.2121
 4803SOL    HW226043   3.575   1.240   8.805 -0.7444  0.7040  1.5048
 4804SOL     OW26044   1.035   2.954   5.227 -0.0401  0.1518 -0.1404
 4804SOL    HW126045   0.989   2.930   5.147  1.6983  1.6951 -1.5980
 4804SOL    HW226046   1.042   3.047   5.206  1.0890  0.4973  1.7595
 4805SOL     OW26047   1.834   0.360   3.154  0.1070 -0.0072 -0.4373
 4805SOL    HW126048   1.886   0.363   3.074 -0.6915  0.3548 -0.9451
 4805SOL    HW226049   1.784   0.280   3.139 -1.7414  1.0476  0.0786
 4806SOL     OW26050   1.650   3.053   7.371 -0.1952 -0.0949  0.8363
 4806SOL    HW126051   1.731   3.044   7.422 -0.9730  0.8810  2.2332
 4806SOL    HW226052   1.626   3.142   7.398  1.6646  1.2071 -1.7621
 4807SOL     OW26053   0.555   0.140   8.549 -0.0501 -0.1444 -0.2190
 4807SOL    HW126054   0.627   0.145   8.486 -1.1305 -1.2172 -1.5408
 4807SOL    HW226055   0.587   0.171   8.634 -0.0211 -1.2601  0.1649
 4808SOL     OW26056   1.138   2.047   2.451  0.1055 -0.6605 -0.5184
 4808SOL    HW126057   1.136   2.089   2.538 -2.4857  0.9831 -1.3819
 4808SOL    HW226058   1.193   1.972   2.474 -0.6345 -1.2641 -0.7088
 4809SOL     OW26059   3.396   0.563   4.600  0.0531  0.2623 -0.4541
 4809SOL    HW126060   3.476   0.513   4.619  0.0218  0.7206  0.8872
 4809SOL    HW226061   3.345   0.542   4.678 -0.8446 -0.3369 -1.2036
 4810SOL     OW26062   4.479   2.146   6.983 -0.0930  0.5254 -0.3182
 4810SOL    HW126063   4.533   2.197   6.924 -0.5015  3.4305  1.8152
 4810SOL    HW226064   4.447   2.068   6.938 -0.3436 -0.0939  0.9259
 4811SOL     OW26065   0.891   0.089   5.676 -0.3705  0.4209 -0.4819
 4811SOL    HW126066   0.880   0.010   5.623 -0.2747 -0.9693  1.5404
 4811SOL    HW226067   0.835   0.146   5.623  0.9463 -0.4936 -2.8621
 4812SOL     OW26068   4.474   2.594   2.407  0.1710 -0.8161 -0.2348
 4812SOL    HW126069   4.502   2.682   2.384 -1.1017 -0.1507  0.7362
 4812SOL    HW226070   4.502   2.592   2.499  1.1902 -2.5358 -0.5664
 4813SOL     OW26071   1.200   3.161  17.525 -0.0363 -0.4929  0.5561
 4813SOL    HW126072   1.267   3.126  17.465 -1.0181  1.2142 -1.5421
 4813SOL    HW226073   1.143   3.202  17.460 -0.5315 -1.2698  0.5023
 4814SOL     OW26074   1.981   1.092  12.215 -0.2272  0.4173  0.7574
 4814SOL    HW126075   1.955   1.035  12.287  2.8115 -0.8680  0.8490
 4814SOL    HW226076   2.067   1.116  12.249  0.3786  1.9962 -1.9388
 4815SOL     OW26077   3.414   2.553  11.323 -0.0024 -0.1283 -0.3878
 4815SOL    HW126078   3.371   2.472  11.297  1.7478 -1.0076 -0.5560
 4815SOL    HW226079   3.379   2.632  11.281 -0.6188  0.2270  0.7962
 4816SOL     OW26080   3.576   0.998   5.388  0.2604  0.4948 -0.0609
 4816SOL    HW126081   3.618   0.937   5.449  0.5233 -0.0371 -0.7680
 4816SOL    HW226082   3.637   0.992   5.314 -0.9541  0.3500 -1.0539
 4817SOL     OW26083   3.881   1.277  17.677  0.2311 -0.1872 -0.1124
 4817SOL    HW126084   3.925   1.359  17.659  2.1098 -0.7449  1.9219
 4817SOL    HW226085   3.945   1.239  17.737  1.7824  1.2800 -0.8517
 4818SOL     OW26086   3.842   3.896   4.274  0.5370 -0.6792 -0.1891
 4818SOL    HW126087   3.760   3.936   4.301  0.7776  0.2144 -0.7960
 4818SOL    HW226088   3.834   3.808   4.310  0.4703 -0.7871 -0.4661
 4819SOL     OW26089   1.059   0.184   6.562  0.6969  0.2096  0.6281
 4819SOL    HW126090   1.110   0.246   6.510 -0.7988  0.0220 -1.0790
 4819SOL    HW226091   1.129   0.121   6.579  1.3350  1.4158  2.4186
 4820SOL     OW26092   2.425   3.351  16.046 -0.1863  0.6440  0.0372
 4820SOL    HW126093   2.332   3.374  16.044  0.0670  1.8285  1.4973
 4820SOL    HW226094   2.439   3.337  15.952  0.8906 -0.0270  0.2874
 4821SOL     OW26095   1.727   0.253   8.747 -0.0218  0.3803 -0.8695
 4821SOL    HW126096   1.640   0.281   8.717 -0.8111  0.9136  1.8703
 4821SOL    HW226097   1.781   0.319   8.703  0.8751  1.1361  1.3815
 4822SOL     OW26098   2.484   0.868   8.575  0.4118 -0.6192  0.4506
 4822SOL    HW126099   2.519   0.779   8.582  0.6959 -0.6987 -2.0605
 4822SOL    HW226100   2.394   0.851   8.601  1.1653 -2.7734  1.6770
 4823SOL     OW26101   0.312   4.012   9.910  0.1125  0.4515  0.0134
 4823SOL    HW126102   0.388   4.057   9.875  1.6932 -3.4944 -1.6196
 4823SOL    HW226103   0.306   4.053   9.996 -2.1340 -1.7187  0.8858
 4824SOL     OW26104   4.507   2.251   5.396  0.1710  0.4060 -0.0110
 4824SOL    HW126105   4.596   2.219   5.376 -0.5681 -1.7393  0.1534
 4824SOL    HW226106   4.487   2.291   5.312  0.4245 -0.4768 -0.4995
 4825SOL     OW26107   1.062   1.202  12.936  0.2434 -0.3417 -0.1236
 4825SOL    HW126108   1.052   1.265  12.864 -0.6210  0.9460  1.1031
 4825SOL    HW226109   0.993   1.229  12.997 -1.9714 -3.2440 -1.3633
 4826SOL     OW26110   3.526   2.201   8.631 -0.0230 -0.3989  0.3983
 4826SOL    HW126111   3.441   2.198   8.675 -0.7115 -1.6602 -0.9990
 4826SOL    HW226112   3.588   2.235   8.695  1.3259 -2.1988  0.0382
 4827SOL     OW26113   3.127   3.669   1.031 -0.3282 -0.2632 -0.0670
 4827SOL    HW126114   3.160   3.588   0.991 -2.6464 -0.4747 -1.5305
 4827SOL    HW226115   3.038   3.673   0.997 -0.1383  2.2775 -0.2809
 4828SOL     OW26116   0.522   2.379  11.853  0.1140  0.1393 -0.4842
 4828SOL    HW126117   0.550   2.334  11.773  2.4897  0.7922 -0.0136
 4828SOL    HW226118   0.562   2.334  11.927  3.1725  1.4642 -1.3151
 4829SOL     OW26119   0.483   2.435   7.665  0.3904 -0.1306  0.3870
 4829SOL    HW126120   0.390   2.457   7.667  0.4637  0.0770  1.4546
 4829SOL    HW226121   0.488   2.365   7.730 -0.9282  2.5922  3.3640
 4830SOL     OW26122   4.212   2.018  16.941 -0.0316  0.8931  0.3255
 4830SOL    HW126123   4.139   2.054  16.889 -0.3185 -0.2128 -0.0343
 4830SOL    HW226124   4.204   1.923  16.932  0.8251  1.1828 -3.5086
 4831SOL     OW26125   0.538   0.622   5.258  0.1985  0.6161 -0.9019
 4831SOL    HW126126   0.606   0.690   5.260  1.7485 -0.9449 -0.9969
 4831SOL    HW226127   0.574   0.564   5.192 -0.6590  0.5909 -1.3531
 4832SOL     OW26128   3.295   2.595   2.586  0.2825 -0.0250  0.3631
 4832SOL    HW126129   3.241   2.542   2.528  1.2766  0.7335 -1.3047
 4832SOL    HW226130   3.281   2.554   2.671 -1.0146  0.3737  0.3381
 4833SOL     OW26131   1.426   3.842   8.417  0.5349  0.0677  0.2585
 4833SOL    HW126132   1.375   3.762   8.434 -0.7111  0.3073 -2.2670
 4833SOL    HW226133   1.372   3.918   8.438 -1.6248 -1.3560 -0.1110
 4834SOL     OW26134   3.034   1.199   7.058  0.3385  0.1156 -0.4334
 4834SOL    HW126135   3.097   1.153   7.113  1.6003  1.7604 -0.4921
 4834SOL    HW226136   2.960   1.139   7.051  1.2692 -0.9059 -1.2962
 4835SOL     OW26137   2.089   3.259   5.801 -0.0520 -0.0254 -0.1063
 4835SOL    HW126138   2.124   3.278   5.713  1.3777  0.4622  0.5635
 4835SOL    HW226139   1.997   3.235   5.789 -0.3270  0.9860 -0.0035
 4836SOL     OW26140   2.215   0.950   9.320 -0.4378  0.1714  0.1006
 4836SOL    HW126141   2.238   0.866   9.361  3.6955  1.0474 -0.4490
 4836SOL    HW226142   2.274   1.009   9.367  0.9232 -0.7273 -0.4833
 4837SOL     OW26143   0.119   4.051   2.904 -0.1924 -0.0287 -0.4763
 4837SOL    HW126144   0.130   4.093   2.818  1.0615  0.4192 -0.0947
 4837SOL    HW226145   0.173   3.974   2.891  0.0355  0.4449 -2.3639
 4838SOL     OW26146   0.452   2.508   6.301  0.2720  0.1813 -0.3814
 4838SOL    HW126147   0.413   2.576   6.357  2.5915  0.3999  0.9772
 4838SOL    HW226148   0.407   2.432   6.338 -0.6402  1.0066  0.1982
 4839SOL     OW26149   4.634   0.358  14.906 -0.2482 -0.6146 -0.2183
 4839SOL    HW126150   4.688   0.433  14.931 -1.0173  0.0260 -0.4742
 4839SOL    HW226151   4.695   0.286  14.917  0.1775 -0.1339  0.5379
 4840SOL     OW26152   1.209   0.462   8.977  0.1993 -0.2981  0.3814
 4840SOL    HW126153   1.219   0.497   8.888  0.3645 -1.6112 -0.1094
 4840SOL    HW226154   1.172   0.375   8.965  2.2613 -1.0067 -0.9759
 4841SOL     OW26155   1.411   1.716   3.239  0.0160 -0.5793 -0.4965
 4841SOL    HW126156   1.386   1.758   3.321  0.4258 -2.0878  0.4055
 4841SOL    HW226157   1.413   1.622   3.260  2.6290 -1.2184 -3.5959
 4842SOL     OW26158   4.018   0.919   6.779  0.0286 -0.5228  0.0726
 4842SOL    HW126159   4.111   0.902   6.765  0.7039  0.6257  3.1640
 4842SOL    HW226160   3.981   0.839   6.741  0.5866 -0.7191 -0.0534
 4843SOL     OW26161   1.557   0.894   4.025 -0.1704 -0.3998 -0.4359
 4843SOL    HW126162   1.586   0.830   4.090 -0.8790  2.1397  2.3256
 4843SOL    HW226163   1.485   0.930   4.077 -1.6939  0.0703 -2.8685
 4844SOL     OW26164   2.850   2.375   6.716  0.2472 -0.2390 -0.4376
 4844SOL    HW126165   2.859   2.290   6.674 -1.0683 -0.3695 -0.4693
 4844SOL    HW226166   2.876   2.345   6.803  1.2604  0.2701 -0.5666
 4845SOL     OW26167   4.279   1.420   7.441  0.0303  0.1920 -0.5961
 4845SOL    HW126168   4.278   1.396   7.534 -1.0003 -0.0593 -0.6700
 4845SOL    HW226169   4.276   1.339   7.390  1.6570 -0.9931  1.1656
 4846SOL     OW26170   4.311   1.569   8.342 -0.0434  0.0408 -0.5452
 4846SOL    HW126171   4.354   1.599   8.262  1.2936  1.9024  0.8761
 4846SOL    HW226172   4.284   1.657   8.369 -0.0692 -0.1310 -0.0123
 4847SOL     OW26173   4.139   1.577  11.972 -0.1520 -0.6663 -0.1562
 4847SOL    HW126174   4.056   1.536  11.993 -1.1559  1.1862 -0.5585
 4847SOL    HW226175   4.129   1.595  11.879 -1.0137  1.9385  0.4434
 4848SOL     OW26176   3.157   2.490   6.216  0.3040  0.3528  0.0621
 4848SOL    HW126177   3.203   2.486   6.132 -2.3871 -2.5611 -1.2791
 4848SOL    HW226178   3.229   2.507   6.276 -0.8460 -0.3116  1.6347
 4849SOL     OW26179   1.926   0.648   4.275  0.4251 -0.4648  0.4933
 4849SOL    HW126180   1.994   0.714   4.279  1.5149 -1.5059 -0.8941
 4849SOL    HW226181   1.976   0.567   4.288 -2.3806 -2.4829 -1.3786
 4850SOL     OW26182   3.605   4.379  12.347 -0.4053 -0.0200  0.1349
 4850SOL    HW126183   3.581   4.388  12.439 -1.2806 -2.4960  0.1487
 4850SOL    HW226184   3.625   4.471  12.329 -0.0773 -0.1256 -0.0356
 4851SOL     OW26185   2.928   2.959  10.925  0.0867 -0.3676  0.2183
 4851SOL    HW126186   3.003   2.915  10.886  0.6543  0.2301  0.6308
 4851SOL    HW226187   2.867   2.963  10.851 -1.0045  1.8105  1.2224
 4852SOL     OW26188   0.070   0.005   3.128 -0.6279  0.1274 -0.2853
 4852SOL    HW126189   0.136   4.676   3.134 -1.9512 -1.0991  0.4826
 4852SOL    HW226190   0.121   0.071   3.175 -1.8009 -1.0547  2.6951
 4853SOL     OW26191   1.292   0.784  14.815  0.6384 -0.4155 -0.1357
 4853SOL    HW126192   1.309   0.856  14.876 -2.2528 -0.3145  0.5225
 4853SOL    HW226193   1.352   0.803  14.742  1.0920  0.4681  0.4618
 4854SOL     OW26194   0.533   4.373   7.634 -0.3456 -0.1377  0.3404
 4854SOL    HW126195   0.443   4.390   7.607 -0.0866  0.8719  0.1328
 4854SOL    HW226196   0.516   4.341   7.723 -1.3196 -0.0689  0.1853
 4855SOL     OW26197   4.636   3.985   5.951 -0.2046 -0.0010 -0.3543
 4855SOL    HW126198   4.585   4.066   5.944 -2.2391 -1.2983 -0.3401
 4855SOL    HW226199   4.698   4.019   6.016  0.1274 -1.4385  0.0808
 4856SOL     OW26200   1.990   0.003   7.877 -0.2395 -0.2754  0.2083
 4856SOL    HW126201   1.908   0.001   7.925 -1.0272 -2.6057 -1.2374
 4856SOL    HW226202   2.036   0.085   7.898 -0.1157 -1.0394  2.9038
 4857SOL     OW26203   1.454   1.752   8.131 -0.3077 -0.0097 -0.1889
 4857SOL    HW126204   1.425   1.664   8.153 -0.7018  0.8089  2.5646
 4857SOL    HW226205   1.391   1.791   8.071 -1.1035  1.2209  1.4692
 4858SOL     OW26206   0.192   2.791   6.149 -1.0377 -0.3567  0.2391
 4858SOL    HW126207   0.261   2.799   6.215 -1.0145  2.7063 -0.1392
 4858SOL    HW226208   0.225   2.865   6.098  0.7548 -1.6870 -0.5393
 4859SOL     OW26209   2.529   4.498   4.494  0.7328 -0.1726 -0.3616
 4859SOL    HW126210   2.442   4.533   4.512  0.5941 -1.4767  1.4423
 4859SOL    HW226211   2.504   4.428   4.433  0.0027 -1.7085  1.7297
 4860SOL     OW26212   3.511   4.576   1.990 -0.0203  0.6466  0.2495
 4860SOL    HW126213   3.557   4.570   2.074 -0.4784  0.1390  0.4667
 4860SOL    HW226214   3.492   4.484   1.976 -0.1600  0.3853  2.1658
 4861SOL     OW26215   2.688   2.642   7.308 -0.8588 -0.0338  0.4503
 4861SOL    HW126216   2.726   2.569   7.258  0.4895  1.0388 -0.1077
 4861SOL    HW226217   2.736   2.628   7.389 -3.2601  0.2588  1.9185
 4862SOL     OW26218   3.401   0.817   3.562  0.0240 -0.5273  0.1516
 4862SOL    HW126219   3.365   0.795   3.648 -2.0897 -1.0238 -0.8663
 4862SOL    HW226220   3.491   0.782   3.560  0.2387 -0.0215  1.1121
 4863SOL     OW26221   3.285   1.226  13.706  0.3390 -0.0243  0.1648
 4863SOL    HW126222   3.284   1.132  13.726 -3.1648  0.2499  1.2619
 4863SOL    HW226223   3.191   1.242  13.717 -0.1535  0.1860 -4.0273
 4864SOL     OW26224   3.840   1.039  17.471  0.4564  0.0078 -0.0942
 4864SOL    HW126225   3.759   1.014  17.516  0.9011 -0.9698  0.1656
 4864SOL    HW226226   3.838   1.129  17.440  0.4146  0.6852  1.8923
 4865SOL     OW26227   3.582   0.622   9.344 -0.5054 -0.0709  0.4490
 4865SOL    HW126228   3.616   0.644   9.430  1.8341  1.5827 -0.9089
 4865SOL    HW226229   3.520   0.551   9.361 -0.5802  0.2447  1.5105
 4866SOL     OW26230   0.871   0.332   4.876  0.2341 -0.2580 -0.6094
 4866SOL    HW126231   0.808   0.378   4.819  0.6727  0.8343 -0.2155
 4866SOL    HW226232   0.949   0.331   4.821 -0.1474  0.7995 -1.1681
 4867SOL     OW26233   1.718   3.210   7.948 -0.4053  0.3598  0.4593
 4867SOL    HW126234   1.648   3.244   8.003 -0.2440  4.4780 -1.8538
 4867SOL    HW226235   1.785   3.250   8.002 -1.5545  1.1958  1.2474
 4868SOL     OW26236   2.505   0.558   5.817 -0.5292 -0.3348 -0.4439
 4868SOL    HW126237   2.585   0.603   5.790 -0.4200 -0.2850 -0.0437
 4868SOL    HW226238   2.451   0.631   5.848 -0.0415  0.2191 -0.9158
 4869SOL     OW26239   0.323   0.129   5.369  0.1710 -0.0846  0.1211
 4869SOL    HW126240   0.329   0.103   5.461  1.8482  1.1553  0.3553
 4869SOL    HW226241   0.306   0.042   5.333  2.6435 -0.6960  0.4382
 4870SOL     OW26242   0.472   2.200  16.807  0.1216 -0.0778 -0.6130
 4870SOL    HW126243   0.385   2.216  16.843  0.9618 -0.6649  1.6492
 4870SOL    HW226244   0.513   2.141  16.870 -0.7299 -1.3179 -1.2029
 4871SOL     OW26245   1.440   4.302   8.127 -0.1338  0.2330  0.0501
 4871SOL    HW126246   1.478   4.215   8.131 -1.1914 -0.2149  0.5667
 4871SOL    HW226247   1.379   4.303   8.202  0.7975  0.1419  0.8037
 4872SOL     OW26248   2.040   0.705   7.575 -0.7822  0.2395 -0.4947
 4872SOL    HW126249   2.100   0.775   7.601  0.6643 -1.7558  1.5764
 4872SOL    HW226250   2.098   0.629   7.577  0.7148  1.4251  2.1628
 4873SOL     OW26251   3.498   4.606  15.266  0.0286  0.2702 -0.3027
 4873SOL    HW126252   3.577   4.646  15.303 -0.3028  0.7505 -0.1047
 4873SOL    HW226253   3.435   4.628  15.336  2.6546  2.5946  1.3554
 4874SOL     OW26254   3.898   1.146   6.522  0.4873  0.3518 -0.4395
 4874SOL    HW126255   3.903   1.052   6.534 -3.9175  0.2609  0.6139
 4874SOL    HW226256   3.809   1.172   6.546  0.3310 -0.4642 -0.1618
 4875SOL     OW26257   2.837   1.979  13.459  0.2452 -0.4194 -0.3044
 4875SOL    HW126258   2.846   2.002  13.552  1.8087 -0.4572 -0.4470
 4875SOL    HW226259   2.877   2.060  13.426  2.2429 -0.9599  0.7968
 4876SOL     OW26260   1.450   4.504   4.402  0.0535 -0.2192  0.8259
 4876SOL    HW126261   1.380   4.564   4.376  1.5742  1.6525  1.1001
 4876SOL    HW226262   1.395   4.431   4.430  0.1649 -0.5237  0.2423
 4877SOL     OW26263   4.459   2.121   2.893  0.3416 -0.5177  0.3839
 4877SOL    HW126264   4.487   2.038   2.932  0.2929  0.3788  2.3526
 4877SOL    HW226265   4.400   2.099   2.821 -1.5134  0.3630  1.6325
 4878SOL     OW26266   1.878   3.389   6.884  0.2767 -0.2901 -0.1634
 4878SOL    HW126267   1.942   3.458   6.870  1.1903 -0.6008  2.4900
 4878SOL    HW226268   1.796   3.436   6.902  1.5177  2.0436 -0.5742
 4879SOL     OW26269   4.229   3.860   1.864  0.3047  0.5549 -0.7926
 4879SOL    HW126270   4.188   3.804   1.797  0.3562  0.3453 -0.6508
 4879SOL    HW226271   4.200   3.946   1.835 -1.5201 -0.2841 -1.4838
 4880SOL     OW26272   1.498   1.849  11.679  0.4364 -0.2885 -0.6936
 4880SOL    HW126273   1.591   1.861  11.663  0.7363 -0.2964  1.0251
 4880SOL    HW226274   1.465   1.864  11.590  2.2622 -0.0817 -1.3182
 4881SOL     OW26275   0.384   2.642  17.342 -0.4795  0.3466 -0.4900
 4881SOL    HW126276   0.419   2.601  17.421 -0.6640  1.1013 -0.0210
 4881SOL    HW226277   0.355   2.726  17.378 -2.5143 -0.7872  0.5280
 4882SOL     OW26278   4.512   2.891  13.312  0.2890 -0.0595  0.4576
 4882SOL    HW126279   4.454   2.836  13.365 -0.8316 -1.3490 -2.1344
 4882SOL    HW226280   4.590   2.835  13.322  0.3087  0.0539  0.9553
 4883SOL     OW26281   2.529   1.871   7.002  0.1599 -0.3314  0.2480
 4883SOL    HW126282   2.508   1.894   7.092  1.4503  0.5656  0.3206
 4883SOL    HW226283   2.542   1.958   6.965 -2.0721 -0.0237  0.1749
 4884SOL     OW26284   3.459   0.085  10.395  0.8752  0.5523 -0.1458
 4884SOL    HW126285   3.490   0.147  10.329 -1.4084  0.6698 -1.1019
 4884SOL    HW226286   3.466   0.144  10.470  1.2260 -2.2212  1.9954
 4885SOL     OW26287   0.662   0.363   2.779 -0.2249 -0.1749  0.0457
 4885SOL    HW126288   0.586   0.336   2.831 -0.5127 -0.4488 -0.5111
 4885SOL    HW226289   0.692   0.422   2.848  0.8868 -1.1383  0.3785
 4886SOL     OW26290   0.207   3.871   4.705 -0.2597 -0.0410 -0.5838
 4886SOL    HW126291   0.280   3.809   4.711  0.0683  0.2803 -1.2556
 4886SOL    HW226292   0.158   3.852   4.625 -2.1195  0.1443  0.5176
 4887SOL     OW26293   3.672   2.780   1.596  0.3782  0.4926  0.0874
 4887SOL    HW126294   3.667   2.751   1.687 -0.5748  0.6575  0.0892
 4887SOL    HW226295   3.581   2.807   1.589  0.1363 -0.4254 -0.2166
 4888SOL     OW26296   1.525   3.297   9.707  0.3066  0.2461 -0.2793
 4888SOL    HW126297   1.441   3.343   9.712  0.4186  0.3715  0.4496
 4888SOL    HW226298   1.524   3.284   9.612  2.7546  0.7050 -0.3877
 4889SOL     OW26299   1.174   3.779   3.289 -0.0517 -0.2933  0.6593
 4889SOL    HW126300   1.192   3.794   3.382  2.0411 -1.0937  0.3945
 4889SOL    HW226301   1.124   3.859   3.271  3.1155  1.4475 -0.4074
 4890SOL     OW26302   4.166   1.962   0.445  0.5108 -0.4290 -0.6087
 4890SOL    HW126303   4.106   1.889   0.427 -2.9992  1.6890  2.5973
 4890SOL    HW226304   4.232   1.946   0.377 -1.2902 -2.6470 -1.8489
 4891SOL     OW26305   2.843   0.064  14.444  0.4993  0.6757 -0.7078
 4891SOL    HW126306   2.855   0.042  14.351 -4.1875 -0.7542 -0.9556
 4891SOL    HW226307   2.761   0.112  14.435  0.5993  0.9143 -0.3579
 4892SOL     OW26308   2.708   1.469   6.309  0.0597  0.3540 -0.3366
 4892SOL    HW126309   2.753   1.494   6.229  1.5032  1.0200  0.6747
 4892SOL    HW226310   2.652   1.402   6.271 -0.3329  0.2244  0.4586
 4893SOL     OW26311   0.614   2.135  15.416  0.0226 -0.4880  0.1926
 4893SOL    HW126312   0.587   2.204  15.476 -1.5409 -1.2890  0.3974
 4893SOL    HW226313   0.675   2.181  15.358  1.5671 -0.4867  1.8180
 4894SOL     OW26314   2.031   4.535   3.847 -0.5811  0.0879 -0.2320
 4894SOL    HW126315   1.987   4.501   3.769  2.3023  1.3238 -2.3755
 4894SOL    HW226316   1.965   4.511   3.913 -1.2162  0.6969 -0.6410
 4895SOL     OW26317   2.578   3.489  11.346 -0.4848 -0.7517 -0.3803
 4895SOL    HW126318   2.505   3.443  11.305 -1.7674  1.3595 -0.4921
 4895SOL    HW226319   2.530   3.556  11.394 -1.0456 -1.9331  0.7063
 4896SOL     OW26320   3.917   4.007   6.926  0.6431 -0.0999  0.1738
 4896SOL    HW126321   3.866   4.086   6.941  0.8566 -0.0324  0.5643
 4896SOL    HW226322   4.007   4.036   6.944  0.1102  2.1029 -0.8603
 4897SOL     OW26323   2.647   4.196   7.233 -0.1796  0.1995  0.1023
 4897SOL    HW126324   2.693   4.254   7.294 -0.8047  0.7846  0.0104
 4897SOL    HW226325   2.636   4.244   7.151  1.0687 -0.1565 -0.2789
 4898SOL     OW26326   2.026   2.956   6.184  0.1690 -0.1492  0.8859
 4898SOL    HW126327   1.938   2.932   6.155  0.8908 -2.4156  0.5646
 4898SOL    HW226328   2.030   3.050   6.164 -1.2444 -0.1888  0.4114
 4899SOL     OW26329   3.981   0.118   8.524  0.2887  0.2347 -0.0871
 4899SOL    HW126330   3.922   0.113   8.449  2.0736 -1.3258 -1.3819
 4899SOL    HW226331   3.970   0.030   8.560 -1.2039  0.5404  0.1926
 4900SOL     OW26332   0.639   2.495  12.702 -0.7142  0.3209 -0.1922
 4900SOL    HW126333   0.605   2.407  12.718 -0.0303  0.4089  1.7244
 4900SOL    HW226334   0.706   2.507  12.769 -1.2451 -3.2331  0.9644
 4901SOL     OW26335   1.281   4.103   6.663  0.2052  0.2309 -0.0989
 4901SOL    HW126336   1.351   4.163   6.687 -0.4809  1.5151 -1.3173
 4901SOL    HW226337   1.260   4.069   6.750  1.0352  1.2297  0.5001
 4902SOL     OW26338   2.477   3.774   5.659 -0.1774 -0.2154 -0.4601
 4902SOL    HW126339   2.515   3.830   5.592  0.3545 -2.4204 -2.0058
 4902SOL    HW226340   2.520   3.688   5.657  0.0575 -0.1841  2.3514
 4903SOL     OW26341   0.778   2.711   6.385 -0.3527 -0.3063  0.1928
 4903SOL    HW126342   0.722   2.658   6.442 -1.8688 -0.7003 -1.6580
 4903SOL    HW226343   0.863   2.683   6.419  1.8076  3.6521 -2.0323
 4904SOL     OW26344   0.666   3.868   4.123 -0.2512  0.0591 -0.1753
 4904SOL    HW126345   0.657   3.827   4.038 -0.7495  0.9286 -0.5416
 4904SOL    HW226346   0.749   3.913   4.104  0.4610 -1.2972 -0.2799
 4905SOL     OW26347   1.416   0.883  12.108 -0.0102 -0.1981 -0.3387
 4905SOL    HW126348   1.421   0.953  12.174  0.9130 -1.4305  0.9026
 4905SOL    HW226349   1.509   0.869  12.091  0.5083  1.1921  1.3145
 4906SOL     OW26350   2.270   3.284   8.899 -0.2968  0.3376  0.1350
 4906SOL    HW126351   2.201   3.293   8.833  2.5547 -1.1208 -3.0780
 4906SOL    HW226352   2.338   3.349   8.877 -1.0182  1.0559  0.0196
 4907SOL     OW26353   0.055   2.489   9.458  0.8399 -0.1981 -0.3828
 4907SOL    HW126354   0.095   2.442   9.385  2.0589  0.6520 -0.2626
 4907SOL    HW226355   0.116   2.471   9.530 -0.0749  1.4993  0.8341
 4908SOL     OW26356   4.216   1.721   7.416 -0.2805 -0.8329  0.3654
 4908SOL    HW126357   4.216   1.677   7.502  2.1500  0.1990  0.8931
 4908SOL    HW226358   4.174   1.662   7.353 -1.1401  0.3144 -0.1170
 4909SOL     OW26359   4.033   4.724   4.953 -0.0290 -0.1072 -0.3911
 4909SOL    HW126360   4.038   0.078   4.970 -0.6498 -0.0919 -0.2900
 4909SOL    HW226361   3.940   4.719   4.929 -0.4363 -1.0079  1.3941
 4910SOL     OW26362   0.581   3.430  11.153 -0.1039 -0.1350  0.2470
 4910SOL    HW126363   0.674   3.411  11.162 -0.2459 -0.1782  1.5400
 4910SOL    HW226364   0.571   3.515  11.111  0.4530 -1.3126 -2.3243
 4911SOL     OW26365   2.468   4.306  17.578 -0.3528  0.8475  0.6303
 4911SOL    HW126366   2.378   4.273  17.581  0.6510 -1.6807  2.6584
 4911SOL    HW226367   2.453   4.401  17.574  0.6470  1.0736  2.3550
 4912SOL     OW26368   0.502   2.766   1.750  0.1361  0.6581  0.6986
 4912SOL    HW126369   0.558   2.761   1.673 -0.9817  1.9948 -0.2066
 4912SOL    HW226370   0.564   2.742   1.819 -1.5397 -0.3106  1.8613
 4913SOL     OW26371   1.997   4.040  11.122  0.1999  0.3218  0.1229
 4913SOL    HW126372   2.031   3.954  11.096 -0.4986  0.2697 -0.6394
 4913SOL    HW226373   2.009   4.025  11.215  1.5790 -0.7362 -0.2154
 4914SOL     OW26374   1.951   0.821   3.636 -0.0483 -0.7957 -0.1459
 4914SOL    HW126375   1.911   0.829   3.722  0.0593 -1.7555 -0.0063
 4914SOL    HW226376   2.024   0.761   3.648  1.9609  1.7281  0.2547
 4915SOL     OW26377   2.544   3.830   7.784  0.6714  0.3652  0.1737
 4915SOL    HW126378   2.551   3.767   7.856 -1.1032 -2.3242 -2.0370
 4915SOL    HW226379   2.456   3.811   7.752  1.5966 -0.9188 -1.5619
 4916SOL     OW26380   0.911   0.778   4.995  0.4208  1.6452 -0.2241
 4916SOL    HW126381   0.817   0.774   4.981  0.3110  0.0847  0.9664
 4916SOL    HW226382   0.922   0.694   5.040 -1.2489  2.0561  0.9545
 4917SOL     OW26383   3.320   3.643  11.635  0.2520 -0.4005 -0.0227
 4917SOL    HW126384   3.392   3.633  11.572  1.1883  2.6329  0.6095
 4917SOL    HW226385   3.276   3.560  11.616  1.2243 -1.0705  0.6804
 4918SOL     OW26386   3.018   3.794  17.102 -0.3091  0.4085 -0.0234
 4918SOL    HW126387   2.974   3.710  17.103  0.2668  0.1042 -0.2428
 4918SOL    HW226388   3.112   3.783  17.113 -0.4615 -1.9698 -1.2699
 4919SOL     OW26389   0.037   2.600   6.447  0.2218 -0.0212  0.2490
 4919SOL    HW126390   4.695   2.640   6.417  0.1544 -0.7862 -0.5890
 4919SOL    HW226391   0.004   2.540   6.513  0.3340  0.4046  0.6876
 4920SOL     OW26392   1.679   4.266   7.847  0.0980 -0.0037 -0.5750
 4920SOL    HW126393   1.649   4.204   7.913 -1.2341 -0.8129 -1.9530
 4920SOL    HW226394   1.617   4.250   7.776 -0.9409 -0.9061  0.5474
 4921SOL     OW26395   2.678   4.352   8.385 -0.0442  0.3488 -0.3334
 4921SOL    HW126396   2.750   4.299   8.420 -0.2191  0.0880 -0.3656
 4921SOL    HW226397   2.691   4.344   8.290  1.7143  0.6595 -0.1337
 4922SOL     OW26398   2.862   3.751  14.872  0.0356 -0.5274  0.2602
 4922SOL    HW126399   2.879   3.764  14.965 -1.3042 -1.2434  0.6186
 4922SOL    HW226400   2.769   3.770  14.862  0.1921  0.2609  0.3319
 4923SOL     OW26401   3.619   0.924   6.422 -0.4433  0.2372  0.5469
 4923SOL    HW126402   3.570   0.873   6.487  1.1832 -1.4227  0.4625
 4923SOL    HW226403   3.701   0.876   6.412 -0.3110  0.3906  0.8784
 4924SOL     OW26404   2.246   4.011   8.630  0.7446  0.4667  0.1175
 4924SOL    HW126405   2.335   4.034   8.603  0.3493  0.4750 -1.1875
 4924SOL    HW226406   2.252   3.917   8.617 -0.4706  0.3885  0.1760
 4925SOL     OW26407   1.597   2.244   5.596 -0.4042  0.5607  0.3037
 4925SOL    HW126408   1.630   2.316   5.543  0.1202  1.5868  2.0329
 4925SOL    HW226409   1.605   2.172   5.534  0.8831 -0.4630  1.6838
 4926SOL     OW26410   4.471   3.813   0.982  0.2758 -0.3227  0.4058
 4926SOL    HW126411   4.401   3.791   1.044 -0.7607  0.3815 -0.5019
 4926SOL    HW226412   4.477   3.729   0.936 -0.4563 -1.2922  2.1048
 4927SOL     OW26413   2.543   3.053   3.388  0.0305  0.8510  0.1007
 4927SOL    HW126414   2.484   3.000   3.441 -0.5559  2.2918  0.8868
 4927SOL    HW226415   2.496   3.058   3.305  1.0476  2.5797 -0.3705
 4928SOL     OW26416   1.575   4.458   4.721 -0.1332  0.2001 -0.4174
 4928SOL    HW126417   1.591   4.525   4.654  0.3947  0.0594 -0.4291
 4928SOL    HW226418   1.624   4.498   4.793 -2.2740 -1.2131  1.8235
 4929SOL     OW26419   0.112   0.785  11.709 -0.5239 -0.3688  0.5796
 4929SOL    HW126420   0.103   0.800  11.803  3.4421  1.1787  0.7196
 4929SOL    HW226421   0.052   0.712  11.695 -0.2603 -0.1691 -1.6143
 4930SOL     OW26422   3.229   4.122  17.264  0.2707  0.5117 -0.4921
 4930SOL    HW126423   3.277   4.202  17.285  0.0330  0.5973 -0.2587
 4930SOL    HW226424   3.156   4.146  17.322  0.9004 -1.6073  1.1791
 4931SOL     OW26425   1.082   0.994   8.088 -0.4481  0.8202 -0.4279
 4931SOL    HW126426   1.167   0.989   8.132 -0.4928 -1.8577 -0.6680
 4931SOL    HW226427   1.043   1.068   8.134 -1.3171  0.3481 -0.4110
 4932SOL     OW26428   3.812   4.074   3.528 -0.9626 -0.0868  0.0721
 4932SOL    HW126429   3.849   4.006   3.584 -0.7935  0.5629  0.7414
 4932SOL    HW226430   3.754   4.021   3.473 -0.1932  0.3869 -1.2016
 4933SOL     OW26431   1.031   4.383  12.732  0.2844  0.1642 -0.3522
 4933SOL    HW126432   1.126   4.385  12.743  0.4762 -1.4216 -1.6727
 4933SOL    HW226433   0.998   4.350  12.816 -0.5677 -0.5395 -0.9656
 4934SOL     OW26434   0.696   0.948  11.878  0.5141 -0.2088 -0.3643
 4934SOL    HW126435   0.654   0.920  11.959  0.7709 -0.4249 -0.3049
 4934SOL    HW226436   0.686   1.042  11.889 -0.9831 -0.0383 -3.3021
 4935SOL     OW26437   0.041   2.001   9.671 -0.1876  0.2641  0.0010
 4935SOL    HW126438   0.018   2.056   9.746 -2.5084  0.2402 -0.6761
 4935SOL    HW226439   0.045   1.913   9.710 -2.0157 -0.2449 -0.9490
 4936SOL     OW26440   2.036   2.682   8.264 -0.0052  0.4878 -0.3515
 4936SOL    HW126441   2.113   2.627   8.251  0.0287  0.8921 -1.7685
 4936SOL    HW226442   1.971   2.642   8.206  1.4787  1.4080 -2.5947
 4937SOL     OW26443   4.719   2.462   1.877 -0.6463  0.0718  0.6155
 4937SOL    HW126444   4.625   2.452   1.859 -0.7843 -0.6245  1.7405
 4937SOL    HW226445   4.725   2.550   1.913 -0.9582 -0.1537  1.2161
 4938SOL     OW26446   1.957   0.288   7.598  0.4563  0.0738  0.3034
 4938SOL    HW126447   1.933   0.198   7.616  0.0791 -0.0884 -1.0483
 4938SOL    HW226448   1.997   0.282   7.511 -1.0959 -1.0548 -0.3148
 4939SOL     OW26449   3.475   3.400   2.198 -0.0084 -0.1640  0.1717
 4939SOL    HW126450   3.488   3.308   2.176  2.4286  0.4210 -0.8800
 4939SOL    HW226451   3.549   3.443   2.155  0.1218  1.0877  1.6313
 4940SOL     OW26452   0.441   1.826   6.582  0.8080 -0.3748  0.1367
 4940SOL    HW126453   0.483   1.740   6.589  1.9821  0.3584  1.8382
 4940SOL    HW226454   0.430   1.850   6.674  0.6971  0.8213 -0.1954
 4941SOL     OW26455   3.265   0.267   2.855 -0.0958 -0.0733  0.2600
 4941SOL    HW126456   3.260   0.305   2.943 -0.7532 -0.4293  0.3740
 4941SOL    HW226457   3.172   0.264   2.834  0.3029  0.9917 -1.6548
 4942SOL     OW26458   4.489   2.428   8.731 -0.6249  0.0996 -0.6590
 4942SOL    HW126459   4.549   2.499   8.755 -0.9694  0.4589 -0.8567
 4942SOL    HW226460   4.556   2.365   8.706 -1.1995 -0.9363  0.4116
 4943SOL     OW26461   0.319   2.244   5.297  0.1472  0.6665  0.4332
 4943SOL    HW126462   0.277   2.199   5.371 -0.9735  0.5596 -0.2673
 4943SOL    HW226463   0.367   2.167   5.266 -1.5367 -0.4863  0.7007
 4944SOL     OW26464   1.627   3.690   3.848  0.1527  0.4554  0.4085
 4944SOL    HW126465   1.714   3.699   3.810  0.2201  0.5220  0.5805
 4944SOL    HW226466   1.609   3.781   3.872  0.5566  0.9406 -1.1836
 4945SOL     OW26467   3.170   1.789   5.686  0.4028  0.3028 -0.0935
 4945SOL    HW126468   3.221   1.738   5.622 -0.3765  0.8550 -1.1578
 4945SOL    HW226469   3.172   1.715   5.746 -1.7920  0.5655  0.3040
 4946SOL     OW26470   4.232   0.142   8.431 -0.3714 -0.3757 -0.2186
 4946SOL    HW126471   4.301   0.106   8.487 -1.4026 -0.4097  1.0336
 4946SOL    HW226472   4.157   0.119   8.486  0.7871 -1.8721  0.7504
 4947SOL     OW26473   0.528   2.314  14.046  0.8074 -0.1696  0.4550
 4947SOL    HW126474   0.532   2.388  13.986  1.3632  0.2892  1.0719
 4947SOL    HW226475   0.539   2.358  14.130  2.7808  0.1428  0.0219
 4948SOL     OW26476   2.318   2.492   1.005 -0.2933  0.0496 -0.1873
 4948SOL    HW126477   2.309   2.485   0.910  2.1251 -0.2663 -0.4035
 4948SOL    HW226478   2.315   2.584   1.032  0.0555  0.0467 -0.1355
 4949SOL     OW26479   3.655   2.357   4.344 -0.8707 -0.2285  0.2628
 4949SOL    HW126480   3.737   2.315   4.369 -1.2732 -0.9830  0.3136
 4949SOL    HW226481   3.627   2.389   4.430 -1.0568  0.3143 -0.0007
 4950SOL     OW26482   1.187   3.663   4.094  0.0980 -0.0092  0.3780
 4950SOL    HW126483   1.269   3.653   4.142  0.5845  2.2709  0.0244
 4950SOL    HW226484   1.139   3.718   4.157 -1.3406  1.0951 -1.6630
 4951SOL     OW26485   3.124   4.603   9.560  0.0588  0.1929  0.4955
 4951SOL    HW126486   3.150   4.598   9.652 -0.9891 -3.4674  0.6097
 4951SOL    HW226487   3.177   4.678   9.535 -0.1227  0.6044  1.3269
 4952SOL     OW26488   3.310   2.184   4.283  0.4430 -0.2785 -0.3327
 4952SOL    HW126489   3.372   2.184   4.356  0.8856 -0.4220 -0.7102
 4952SOL    HW226490   3.223   2.191   4.322  0.0089 -0.8429 -1.1967
 4953SOL     OW26491   0.822   2.157   2.414 -0.0314 -0.1886  0.2872
 4953SOL    HW126492   0.894   2.122   2.362  0.6743 -0.3701  1.3840
 4953SOL    HW226493   0.744   2.129   2.367  1.2695  0.3890 -2.2092
 4954SOL     OW26494   3.171   2.508   7.006 -0.2037 -0.1836  0.1226
 4954SOL    HW126495   3.093   2.455   6.990  0.0441 -1.4344  3.0844
 4954SOL    HW226496   3.118   2.577   7.046  0.6051  0.2316  0.4610
 4955SOL     OW26497   1.088   2.834   5.991 -0.1092 -0.4880 -0.1041
 4955SOL    HW126498   1.169   2.808   6.034 -0.7815 -0.7696  1.0002
 4955SOL    HW226499   1.065   2.921   6.026 -0.2824 -0.0071 -1.4239
 4956SOL     OW26500   1.256   2.510  14.895 -0.0016  0.0284 -0.0696
 4956SOL    HW126501   1.194   2.457  14.945  1.2478 -0.8745  0.5252
 4956SOL    HW226502   1.290   2.453  14.826 -0.1341  0.4252 -0.4630
 4957SOL     OW26503   2.578   3.034   1.921  0.3326  0.1929 -0.3710
 4957SOL    HW126504   2.554   3.122   1.951 -1.6369 -0.6614  0.6100
 4957SOL    HW226505   2.671   3.027   1.943  0.6720 -0.6211 -2.0597
 4958SOL     OW26506   4.214   0.853   9.708 -0.2667 -0.1982 -0.1020
 4958SOL    HW126507   4.118   0.860   9.707 -0.1821  0.7474 -1.7650
 4958SOL    HW226508   4.228   0.785   9.774 -0.6201  0.5000  0.7128
 4959SOL     OW26509   3.239   3.793   9.413  0.1416 -0.0459 -0.4309
 4959SOL    HW126510   3.292   3.872   9.416  0.2967 -0.1852  0.4303
 4959SOL    HW226511   3.303   3.723   9.425  1.1829  0.4216 -3.3048
 4960SOL     OW26512   3.473   2.851   4.518  0.0107  0.0755 -0.4533
 4960SOL    HW126513   3.390   2.868   4.563  0.4391 -0.4791  0.5459
 4960SOL    HW226514   3.505   2.939   4.499 -1.7136  0.2602 -2.5673
 4961SOL     OW26515   1.875   2.699   6.926 -0.1270 -0.1695 -0.3983
 4961SOL    HW126516   1.954   2.752   6.913 -1.1320  1.3547 -0.2141
 4961SOL    HW226517   1.863   2.662   6.838  2.1853 -1.2187 -0.2811
 4962SOL     OW26518   3.019   3.086   3.297  0.3195 -0.7276 -0.2037
 4962SOL    HW126519   2.957   3.064   3.367 -0.1046  1.5393  0.1423
 4962SOL    HW226520   2.971   3.066   3.217 -2.6300 -0.1123  1.4382
 4963SOL     OW26521   4.112   1.195   3.680 -0.1474  0.3087  0.0745
 4963SOL    HW126522   4.157   1.279   3.683  0.0364  0.2372 -0.6393
 4963SOL    HW226523   4.169   1.153   3.616  1.4776  2.3715  0.1831
 4964SOL     OW26524   3.188   3.457   5.699  0.1990 -0.4175  0.5685
 4964SOL    HW126525   3.113   3.435   5.643  0.4709  1.1297 -0.4088
 4964SOL    HW226526   3.231   3.372   5.706 -3.4007 -2.1994  1.0693
 4965SOL     OW26527   1.452   2.518   8.363  0.1635  0.5309 -0.2624
 4965SOL    HW126528   1.503   2.447   8.401  0.7654  0.1484 -1.7768
 4965SOL    HW226529   1.389   2.464   8.315  1.0823  1.3741 -2.4176
 4966SOL     OW26530   4.526   1.296  16.344 -0.3820 -0.3841 -0.0553
 4966SOL    HW126531   4.490   1.236  16.410  1.9850  0.2450  1.8081
 4966SOL    HW226532   4.589   1.241  16.298 -0.7174 -1.1168  0.3555
 4967SOL     OW26533   3.186   0.537   9.436 -0.2305  0.3862  0.5270
 4967SOL    HW126534   3.121   0.495   9.380  1.9100 -1.1446 -0.8390
 4967SOL    HW226535   3.134   0.530   9.515  0.4075  0.7312  0.9805
 4968SOL     OW26536   0.986   3.972   7.278  0.3619  0.1467 -0.2504
 4968SOL    HW126537   0.917   3.922   7.234  1.1230  0.6519 -2.0147
 4968SOL    HW226538   0.942   4.049   7.315 -1.7850  0.0535 -2.5759
 4969SOL     OW26539   1.660   2.061   7.256 -0.3203  0.1715 -0.0354
 4969SOL    HW126540   1.568   2.036   7.249  0.5110 -3.3579  1.5930
 4969SOL    HW226541   1.709   1.988   7.218  0.5542 -0.7482  2.8556
 4970SOL     OW26542   3.909   3.723   4.965  0.4301  0.2257  0.5813
 4970SOL    HW126543   3.943   3.734   5.053 -1.1037 -1.3173  1.3696
 4970SOL    HW226544   3.964   3.658   4.922  2.1114  2.1082 -0.1228
 4971SOL     OW26545   0.066   4.068   5.661  0.2238 -0.3444  0.1082
 4971SOL    HW126546   0.051   4.094   5.752 -0.0336  3.7605 -1.1145
 4971SOL    HW226547   0.017   3.988   5.644 -1.7989  0.9188  0.0023
 4972SOL     OW26548   3.974   3.257   2.331  0.1057  0.2625 -0.3260
 4972SOL    HW126549   3.986   3.171   2.290  0.4002  0.3970 -0.5219
 4972SOL    HW226550   3.969   3.308   2.251  3.8894 -0.8770 -1.3002
 4973SOL     OW26551   1.662   2.638   2.174  0.9645 -0.0328 -0.4865
 4973SOL    HW126552   1.696   2.555   2.208 -0.5876 -0.3991  0.1729
 4973SOL    HW226553   1.595   2.664   2.238  0.9242 -0.8258 -0.2019
 4974SOL     OW26554   2.979   2.631   7.989 -0.0309 -0.3225  0.4934
 4974SOL    HW126555   3.051   2.687   8.019  1.0237 -1.4948  0.1640
 4974SOL    HW226556   3.012   2.618   7.900 -0.3484 -0.7048  0.4330
 4975SOL     OW26557   2.271   3.849   8.882 -0.0560  0.2217  0.2691
 4975SOL    HW126558   2.334   3.906   8.837  1.2997 -1.1512  0.4332
 4975SOL    HW226559   2.308   3.834   8.969  1.6297  0.8590 -0.3279
 4976SOL     OW26560   1.210   1.443   0.680  0.7154 -0.1412 -0.7006
 4976SOL    HW126561   1.140   1.379   0.688  0.7194 -0.1253 -0.5218
 4976SOL    HW226562   1.267   1.393   0.623 -0.0680 -0.3613 -1.2885
 4977SOL     OW26563   0.177   1.075   5.364  0.0241 -0.8600  0.3584
 4977SOL    HW126564   0.202   0.998   5.414  1.4522  0.2932  1.4412
 4977SOL    HW226565   0.116   1.047   5.296  1.4547 -0.5546 -1.0640
 4978SOL     OW26566   0.414   2.614   8.228  0.4472  0.4371 -0.1901
 4978SOL    HW126567   0.407   2.589   8.320 -1.2783  2.2792  0.1698
 4978SOL    HW226568   0.508   2.624   8.217  0.8753 -0.1658  2.7350
 4979SOL     OW26569   3.935   2.298   6.134  0.3842 -0.2147  0.2502
 4979SOL    HW126570   3.982   2.248   6.202  1.2018 -3.4278 -2.6801
 4979SOL    HW226571   3.875   2.355   6.181 -2.0844 -1.9715 -0.7839
 4980SOL     OW26572   1.252   3.978   7.180  0.6343  0.0351 -0.4345
 4980SOL    HW126573   1.298   3.951   7.260 -0.8986  0.7466  0.6943
 4980SOL    HW226574   1.162   3.956   7.206  0.2726  3.1752  0.9653
 4981SOL     OW26575   0.986   0.061  10.360  0.1226 -0.1150 -0.3036
 4981SOL    HW126576   1.049   4.732  10.335  0.7275  2.2043 -5.0626
 4981SOL    HW226577   0.964   0.096  10.273 -1.4488  2.9396  1.3409
 4982SOL     OW26578   2.231   2.285  15.020  0.0822  0.3161  0.9740
 4982SOL    HW126579   2.178   2.208  15.001 -0.8625  1.4745 -1.1951
 4982SOL    HW226580   2.299   2.277  14.953 -0.2446 -0.8414  0.7967
 4983SOL     OW26581   4.012   0.273   4.405  0.0626  0.1096  0.2287
 4983SOL    HW126582   4.027   0.345   4.344  0.1700 -1.0751 -1.1475
 4983SOL    HW226583   4.022   0.324   4.485  0.3412 -2.2073  1.6910
 4984SOL     OW26584   3.511   2.479   5.182 -0.2780 -0.0066  0.4332
 4984SOL    HW126585   3.511   2.451   5.091 -2.3068 -1.9529  1.0353
 4984SOL    HW226586   3.427   2.440   5.207 -0.0218 -0.1100  1.1303
 4985SOL     OW26587   1.055   3.837   8.720  0.7091  0.2873  0.2036
 4985SOL    HW126588   0.961   3.843   8.701  0.0320 -1.5556  2.9009
 4985SOL    HW226589   1.090   3.763   8.671 -1.5126 -1.8175  1.7952
 4986SOL     OW26590   2.283   1.930  15.433  0.0254  0.0962 -0.0247
 4986SOL    HW126591   2.225   1.966  15.367 -0.1072 -0.7658 -0.3811
 4986SOL    HW226592   2.247   1.976  15.509 -2.6636 -0.9408 -0.6711
 4987SOL     OW26593   0.997   0.467   7.547 -0.6805  0.0663  0.1178
 4987SOL    HW126594   1.068   0.477   7.483 -0.7545 -0.2756 -0.0213
 4987SOL    HW226595   0.948   0.399   7.500 -1.0807  1.4600 -1.4862
 4988SOL     OW26596   1.401   3.181   3.812  0.5941  0.3585 -0.2990
 4988SOL    HW126597   1.423   3.269   3.781 -0.3290  1.0440  1.0495
 4988SOL    HW226598   1.312   3.164   3.781 -0.0841  0.9303  1.3922
 4989SOL     OW26599   2.464   1.753   8.470  0.1700  0.4140 -0.9062
 4989SOL    HW126600   2.556   1.726   8.474  0.6200  2.1416  0.5376
 4989SOL    HW226601   2.460   1.846   8.494 -0.0494 -0.3681  2.1163
 4990SOL     OW26602   0.567   2.556   7.969 -0.0090  0.1850 -0.3144
 4990SOL    HW126603   0.486   2.601   7.993  0.2607  0.6259 -0.2370
 4990SOL    HW226604   0.629   2.574   8.040 -1.2035 -0.2677  0.8319
 4991SOL     OW26605   4.676   2.792  12.944  0.2373 -0.0750 -0.1488
 4991SOL    HW126606   4.729   2.872  12.940  0.2473  0.0653  2.2647
 4991SOL    HW226607   4.590   2.833  12.930  0.0721  0.4311  2.2617
 4992SOL     OW26608   0.465   3.145   3.841  0.3159 -0.1867  0.0391
 4992SOL    HW126609   0.373   3.162   3.861  0.7608  1.7268  0.4386
 4992SOL    HW226610   0.506   3.212   3.895  0.2324  0.2307 -0.4184
 4993SOL     OW26611   2.604   3.147  10.429 -0.0267  0.6991 -0.1112
 4993SOL    HW126612   2.550   3.145  10.508 -0.2012  1.3123 -0.2184
 4993SOL    HW226613   2.612   3.242  10.425 -1.4412  0.7617 -1.5755
 4994SOL     OW26614   2.427   3.127   8.157  0.2574 -0.0507 -0.1516
 4994SOL    HW126615   2.515   3.098   8.133 -0.3309 -2.0737  0.1164
 4994SOL    HW226616   2.381   3.056   8.113 -0.4041  0.0983  0.2977
 4995SOL     OW26617   2.617   2.253   9.055  0.0959 -0.2604 -0.4752
 4995SOL    HW126618   2.663   2.326   9.095 -1.3159 -0.5409  1.7167
 4995SOL    HW226619   2.685   2.198   9.018  1.5206  1.5719 -0.5518
 4996SOL     OW26620   4.067   3.896   7.767 -0.4488  0.0789  0.5728
 4996SOL    HW126621   4.049   3.988   7.787 -4.0511 -0.7392  0.9454
 4996SOL    HW226622   4.044   3.899   7.674 -1.7888 -1.4319  0.8571
 4997SOL     OW26623   3.249   4.555   5.756 -0.3815 -0.1389 -0.5981
 4997SOL    HW126624   3.164   4.513   5.745 -0.8911  0.8543 -0.3958
 4997SOL    HW226625   3.296   4.518   5.681  1.5040  0.6015  0.1941
 4998SOL     OW26626   0.329   1.013   1.125 -0.3693 -0.2088 -0.6905
 4998SOL    HW126627   0.260   1.077   1.144 -1.0214 -1.1290  0.0073
 4998SOL    HW226628   0.281   0.932   1.139  0.0509  0.0184  2.1069
 4999SOL     OW26629   1.538   0.589   5.103  0.1958  0.2063  0.0422
 4999SOL    HW126630   1.564   0.591   5.195  0.2460  0.2442  0.0264
 4999SOL    HW226631   1.533   0.494   5.092  1.6324  0.2312 -0.8133
 5000SOL     OW26632   3.984   4.369   5.950  0.2534  0.0385 -0.7046
 5000SOL    HW126633   3.936   4.349   5.870 -2.4590 -0.7336  1.1106
 5000SOL    HW226634   4.051   4.301   5.950 -0.2448 -0.4741  1.7901
 5001SOL     OW26635   2.988   4.315   2.002 -0.1305 -0.3801 -0.3452
 5001SOL    HW126636   2.908   4.261   2.008 -0.8818  0.5557 -1.7899
 5001SOL    HW226637   3.025   4.287   2.085  2.7838 -0.7876 -1.7835
 5002SOL     OW26638   1.157   4.269   2.529 -0.3848 -0.4809 -0.2302
 5002SOL    HW126639   1.122   4.298   2.445 -0.9619 -0.1478  0.1181
 5002SOL    HW226640   1.091   4.294   2.595  0.2933  0.8190 -0.0533
 5003SOL     OW26641   2.975   1.658   9.672  0.4999 -0.8202  0.1141
 5003SOL    HW126642   3.068   1.655   9.651  0.6183 -1.8084  0.7963
 5003SOL    HW226643   2.965   1.564   9.690 -2.8051 -0.5270 -0.1294
 5004SOL     OW26644   2.439   1.125   3.925 -0.0051  0.0472 -0.4796
 5004SOL    HW126645   2.515   1.153   3.874 -0.9894 -0.2343 -2.0973
 5004SOL    HW226646   2.415   1.050   3.871  1.1893 -1.2527  0.7939
 5005SOL     OW26647   2.291   1.386  10.498 -0.0560  0.3292 -0.2185
 5005SOL    HW126648   2.305   1.462  10.554  0.6554  1.1614 -1.5022
 5005SOL    HW226649   2.200   1.366  10.517 -0.3086 -1.4541 -3.3025
 5006SOL     OW26650   1.321   3.112   9.886 -0.0640  0.0105 -0.4062
 5006SOL    HW126651   1.365   3.153   9.960 -0.7479  1.4271 -0.7831
 5006SOL    HW226652   1.371   3.033   9.863 -3.9518 -2.5879 -0.0026
 5007SOL     OW26653   1.214   4.707   2.436 -0.0933 -0.3332  0.1752
 5007SOL    HW126654   1.213   4.658   2.519  0.4520 -0.8169 -0.1063
 5007SOL    HW226655   1.204   4.636   2.373  0.5333 -1.9625  1.9111
 5008SOL     OW26656   0.039   0.672   6.239 -0.1339  0.3679 -0.2869
 5008SOL    HW126657   0.012   0.637   6.154  1.2721 -0.1534 -0.5089
 5008SOL    HW226658   0.077   0.760   6.229 -0.3995  0.5379  0.1843
 5009SOL     OW26659   1.966   2.949  17.209  0.3807 -0.1144  0.5950
 5009SOL    HW126660   2.003   2.944  17.121  0.8956 -2.0031  0.9217
 5009SOL    HW226661   1.890   2.895  17.189  0.3297 -0.7721  2.5249
 5010SOL     OW26662   2.599   2.155  13.588 -0.4331 -0.2051  0.1648
 5010SOL    HW126663   2.648   2.092  13.640  0.4270  2.1532  2.2236
 5010SOL    HW226664   2.665   2.193  13.530  0.0979  0.2569  1.0729
 5011SOL     OW26665   3.317   3.744  13.898 -0.2091 -0.1414  0.3463
 5011SOL    HW126666   3.348   3.699  13.977  0.8476 -0.9257 -0.5284
 5011SOL    HW226667   3.224   3.720  13.899  0.5942 -3.3158  1.2247
 5012SOL     OW26668   0.606   3.452   1.829 -0.1611 -0.7749 -0.0056
 5012SOL    HW126669   0.540   3.413   1.886 -0.9009 -1.2584 -1.2021
 5012SOL    HW226670   0.592   3.402   1.749  0.7465 -1.3441  0.1841
 5013SOL     OW26671   3.451   2.126   5.753 -0.1278  0.7261 -0.7120
 5013SOL    HW126672   3.509   2.066   5.799  2.0354  1.5856 -2.2381
 5013SOL    HW226673   3.409   2.076   5.683 -1.9322  1.3142 -0.0384
 5014SOL     OW26674   0.295   0.713   3.663  0.4317 -0.7846 -0.1748
 5014SOL    HW126675   0.211   0.673   3.643  0.1690 -0.5554  0.5054
 5014SOL    HW226676   0.289   0.799   3.621  0.1182 -1.8851 -2.3813
 5015SOL     OW26677   3.042   2.395   8.373  0.2868  0.0582  0.4361
 5015SOL    HW126678   3.092   2.458   8.425 -1.7251  2.1944 -0.2096
 5015SOL    HW226679   2.973   2.456   8.347 -0.8508 -1.2507  0.4363
 5016SOL     OW26680   1.008   1.273   0.669  0.1529 -0.1846 -0.5148
 5016SOL    HW126681   1.000   1.252   0.576  0.2063  0.1003 -0.5847
 5016SOL    HW226682   1.013   1.186   0.709 -0.4477 -1.0050 -2.2057
 5017SOL     OW26683   2.695   4.173  14.812 -0.6126 -0.2352  0.2388
 5017SOL    HW126684   2.652   4.253  14.785  0.9206  0.9113  1.1979
 5017SOL    HW226685   2.770   4.175  14.752 -0.0349  0.0442  0.9646
 5018SOL     OW26686   2.661   0.036   3.678  0.9633 -0.3216  0.6577
 5018SOL    HW126687   2.624   0.124   3.672  2.8428  0.3859 -0.6781
 5018SOL    HW226688   2.662   0.014   3.585 -0.7442 -0.6890  0.7326
 5019SOL     OW26689   1.061   3.993  12.012 -0.6598  0.6659  0.4223
 5019SOL    HW126690   1.143   4.022  11.973  0.1202 -0.0473  1.5222
 5019SOL    HW226691   1.010   3.957  11.940  0.0201 -1.1870  0.8686
 5020SOL     OW26692   0.889   3.292   3.132 -0.2974 -0.1508 -0.2498
 5020SOL    HW126693   0.946   3.233   3.182 -0.4517  0.1664  0.2955
 5020SOL    HW226694   0.806   3.264   3.171  0.2161  1.0050  1.6780
 5021SOL     OW26695   3.799   2.614   8.145 -0.2326 -0.2758 -0.1790
 5021SOL    HW126696   3.852   2.660   8.079  0.6354 -0.2653  0.5210
 5021SOL    HW226697   3.754   2.551   8.088 -0.2308 -1.8070  1.5218
 5022SOL     OW26698   0.748   4.307   6.459  0.8291  0.1343 -0.2435
 5022SOL    HW126699   0.837   4.300   6.422  0.0573  1.5666 -2.3486
 5022SOL    HW226700   0.734   4.401   6.456 -0.4001 -0.0697 -0.9318
 5023SOL     OW26701   3.957   2.593   6.673  0.4998 -0.0589  0.2511
 5023SOL    HW126702   4.030   2.577   6.733  1.6485  0.0576 -1.1137
 5023SOL    HW226703   3.981   2.677   6.636 -0.2317  0.1092  0.1648
 5024SOL     OW26704   4.127   3.629  16.133  0.6029 -0.4427 -0.3181
 5024SOL    HW126705   4.079   3.547  16.121  0.1695  0.0026 -1.6182
 5024SOL    HW226706   4.072   3.664  16.204  0.2015  0.2452 -0.9645
 5025SOL     OW26707   1.250   4.609   3.220  0.5579 -0.0730  0.3293
 5025SOL    HW126708   1.270   4.693   3.260 -1.3729 -0.1164  1.3923
 5025SOL    HW226709   1.209   4.559   3.290 -2.7744  1.0875 -0.7978
 5026SOL     OW26710   4.656   0.680   5.969  0.4907  0.0492  0.5259
 5026SOL    HW126711   4.657   0.594   5.927 -0.4037  0.0096  0.5730
 5026SOL    HW226712   4.566   0.710   5.955  0.2605  0.0716  2.0179
 5027SOL     OW26713   2.651   1.597   7.040 -0.4978  0.5481 -0.3297
 5027SOL    HW126714   2.599   1.673   7.016 -0.7963  0.1462 -0.9430
 5027SOL    HW226715   2.684   1.619   7.127 -2.5755  1.8780  0.1100
 5028SOL     OW26716   1.470   2.347   9.314  0.2224  0.3306  0.2451
 5028SOL    HW126717   1.553   2.392   9.333 -0.6951  1.8702  0.5700
 5028SOL    HW226718   1.417   2.422   9.341  0.0765 -0.0392  0.9848
 5029SOL     OW26719   3.872   1.460   6.151 -0.0310 -0.2649  0.5325
 5029SOL    HW126720   3.852   1.485   6.241  0.4999  1.4005  0.1783
 5029SOL    HW226721   3.952   1.509   6.134  1.1844 -1.2582  3.3021
 5030SOL     OW26722   0.259   3.077   6.396 -0.1677 -0.1637  0.8491
 5030SOL    HW126723   0.308   2.998   6.373  0.3321  0.0042  1.3038
 5030SOL    HW226724   0.327   3.113   6.454  1.3748 -1.5731 -0.0688
 5031SOL     OW26725   4.441   3.263  15.487  0.4261  0.7057  0.2610
 5031SOL    HW126726   4.355   3.258  15.528  0.2679  0.3015 -0.1229
 5031SOL    HW226727   4.467   3.171  15.478 -0.4333  0.2563  2.3906
 5032SOL     OW26728   3.837   4.385   8.626 -0.1126  0.4616  0.3216
 5032SOL    HW126729   3.849   4.352   8.715 -0.2055  1.4847  0.7132
 5032SOL    HW226730   3.822   4.306   8.575  0.8933 -0.6626  1.7600
 5033SOL     OW26731   3.371   3.779   3.891 -0.0025 -0.2769  0.0437
 5033SOL    HW126732   3.320   3.701   3.871  0.6175 -0.6741  0.0263
 5033SOL    HW226733   3.460   3.745   3.876  0.2957  0.4239  0.2149
 5034SOL     OW26734   4.243   2.299  12.430 -0.7503  0.0621  0.8892
 5034SOL    HW126735   4.182   2.245  12.379 -0.1388  0.6043 -0.4093
 5034SOL    HW226736   4.323   2.250  12.413 -2.3406 -1.7612 -1.3022
 5035SOL     OW26737   0.281   4.699   4.635  0.0853 -0.0671 -0.3491
 5035SOL    HW126738   0.233   0.042   4.627  0.1112 -0.0546 -0.3761
 5035SOL    HW226739   0.203   4.644   4.637 -0.2157  0.4217  2.4110
 5036SOL     OW26740   3.001   2.412   9.274  0.3770 -0.5756 -0.2066
 5036SOL    HW126741   3.059   2.461   9.332  0.2754  0.6970 -1.1625
 5036SOL    HW226742   2.996   2.329   9.322  1.1925 -1.7791 -2.2423
 5037SOL     OW26743   4.650   1.905   5.660 -0.5967 -0.6106 -0.2687
 5037SOL    HW126744   4.734   1.878   5.696 -0.8003 -0.5634  0.2380
 5037SOL    HW226745   4.676   1.926   5.570 -0.0936  1.4670  0.3790
 5038SOL     OW26746   3.189   0.989   5.246  0.5897 -0.4601  0.1586
 5038SOL    HW126747   3.231   1.063   5.288 -1.0724  0.0294  0.9300
 5038SOL    HW226748   3.175   0.935   5.324  0.9295 -2.3492 -1.0652
 5039SOL     OW26749   3.212   3.955  10.127 -0.0013  0.1704  0.1517
 5039SOL    HW126750   3.135   3.898  10.128 -0.7160  1.1386  2.0672
 5039SOL    HW226751   3.237   3.928  10.039 -2.4078  3.5865 -1.5608
 5040SOL     OW26752   1.233   4.516   1.919  0.4085 -0.2894 -0.6528
 5040SOL    HW126753   1.212   4.527   1.826  2.4240  0.0289 -1.0556
 5040SOL    HW226754   1.209   4.425   1.932 -2.1128  0.2620 -1.4279
 5041SOL     OW26755   1.373   2.986   7.680  0.3358 -0.1243 -0.1752
 5041SOL    HW126756   1.332   2.903   7.659 -0.6069 -0.1853  1.8943
 5041SOL    HW226757   1.368   2.990   7.776 -3.5737 -1.6940 -0.3117
 5042SOL     OW26758   1.348   1.049   3.382 -0.0795  0.4085 -0.0190
 5042SOL    HW126759   1.441   1.036   3.365 -0.2930  0.1956 -1.0645
 5042SOL    HW226760   1.322   1.073   3.292  0.8898  2.4690  0.2633
 5043SOL     OW26761   0.165   0.463   8.292  0.2359  0.2668 -0.0888
 5043SOL    HW126762   0.208   0.434   8.373 -0.4959  0.8430  0.5142
 5043SOL    HW226763   0.216   0.406   8.235 -1.3275 -0.9528 -0.2503
 5044SOL     OW26764   3.507   0.942   2.567 -0.5854  0.2527 -0.0502
 5044SOL    HW126765   3.488   0.850   2.554  0.3443  0.0317  0.1083
 5044SOL    HW226766   3.599   0.939   2.539 -0.7969 -0.9361 -0.5718
 5045SOL     OW26767   2.429   0.756  14.780 -0.0558  0.4712 -0.3514
 5045SOL    HW126768   2.467   0.685  14.728 -2.8227 -0.0585 -1.6618
 5045SOL    HW226769   2.335   0.747  14.764  0.1027  0.4898 -1.2829
 5046SOL     OW26770   4.156   1.667   4.764  0.5665  0.2051  0.2688
 5046SOL    HW126771   4.182   1.754   4.733  1.0469 -0.2521 -0.6296
 5046SOL    HW226772   4.151   1.665   4.859  1.4110  2.4414  0.3681
 5047SOL     OW26773   1.032   4.404   6.968 -0.3316  0.1327  0.2785
 5047SOL    HW126774   1.010   4.366   6.883 -0.5939 -1.0595  0.8763
 5047SOL    HW226775   0.956   4.380   7.021 -0.7738  2.1212  0.5278
 5048SOL     OW26776   2.295   0.719  15.992  0.6576 -0.0732 -0.1803
 5048SOL    HW126777   2.232   0.696  16.060  1.3215 -1.5027 -0.0604
 5048SOL    HW226778   2.260   0.800  15.954  2.1246 -0.3175 -2.0395
 5049SOL     OW26779   3.056   3.925   8.061 -0.5897  0.2491  0.5366
 5049SOL    HW126780   3.054   4.020   8.050 -0.3209  0.3842  1.6093
 5049SOL    HW226781   2.979   3.901   8.010  0.9963 -2.5055 -0.5485
 5050SOL     OW26782   3.082   0.233   3.306 -0.2515 -0.3880 -0.1285
 5050SOL    HW126783   3.047   0.219   3.394 -0.9672  0.5736 -0.2587
 5050SOL    HW226784   3.001   0.241   3.256 -0.0713 -4.3278 -1.0795
 5051SOL     OW26785   2.421   2.072   4.878 -0.0463  0.5716  0.0233
 5051SOL    HW126786   2.416   2.112   4.965 -0.8841 -0.7304  0.5729
 5051SOL    HW226787   2.379   1.987   4.894  0.6237 -0.2057 -2.3639
 5052SOL     OW26788   1.809   0.714   6.439  0.2613 -0.5858  0.2419
 5052SOL    HW126789   1.818   0.675   6.526  0.3675 -1.5197 -0.1899
 5052SOL    HW226790   1.816   0.808   6.455  1.6241 -0.8953  1.4397
 5053SOL     OW26791   3.000   3.105   2.071  0.6974  0.1554  0.2422
 5053SOL    HW126792   2.967   3.020   2.042  1.7383 -0.3518  0.5228
 5053SOL    HW226793   2.921   3.143   2.108 -0.9348 -0.8361 -2.2744
 5054SOL     OW26794   2.630   2.808  10.580  0.0907 -0.1267  0.6452
 5054SOL    HW126795   2.584   2.885  10.545 -0.0985 -0.4765  0.1338
 5054SOL    HW226796   2.721   2.832  10.561  0.9724 -2.4205  2.0111
 5055SOL     OW26797   4.547   3.289   3.987 -0.0164  0.2394 -0.4514
 5055SOL    HW126798   4.599   3.211   4.008 -1.3045 -0.3613  0.5125
 5055SOL    HW226799   4.482   3.280   4.056 -0.6815  2.9991 -0.7466
 5056SOL     OW26800   1.751   0.591   2.972  0.4392 -0.6671 -0.5745
 5056SOL    HW126801   1.747   0.537   3.051 -2.0712 -0.6512 -0.7075
 5056SOL    HW226802   1.666   0.566   2.936 -0.0512 -1.2952  1.0569
 5057SOL     OW26803   1.409   0.958  16.204 -0.1358  0.0057  0.2627
 5057SOL    HW126804   1.465   0.989  16.275 -2.2404  1.2350  1.3787
 5057SOL    HW226805   1.387   1.038  16.157 -0.0987 -0.6272 -0.8264
 5058SOL     OW26806   1.965   3.535   5.652  0.1571 -0.1900  0.0266
 5058SOL    HW126807   2.041   3.529   5.709  0.2708 -0.3556 -0.1425
 5058SOL    HW226808   2.001   3.593   5.585  0.0433 -1.7817 -1.4230
 5059SOL     OW26809   2.754   0.356  17.503  0.0073  0.4814 -0.3377
 5059SOL    HW126810   2.705   0.423  17.457 -1.3541 -0.8494 -0.8163
 5059SOL    HW226811   2.727   0.368  17.594  3.9785 -0.5516  0.9742
 5060SOL     OW26812   2.804   3.520   1.314  0.4863  0.3871  0.6138
 5060SOL    HW126813   2.729   3.556   1.361 -0.1771  2.2416 -1.8434
 5060SOL    HW226814   2.876   3.531   1.376  0.4222  0.1402  0.7307
 5061SOL     OW26815   1.246   0.367   7.856  0.1859  0.2190  0.1047
 5061SOL    HW126816   1.303   0.445   7.854 -2.2600  1.9648 -0.8491
 5061SOL    HW226817   1.163   0.408   7.833 -0.6594 -1.9061 -0.5970
 5062SOL     OW26818   2.985   4.168   6.838 -0.3540  0.0178  0.0528
 5062SOL    HW126819   2.929   4.142   6.765  0.7205 -0.0447 -0.7489
 5062SOL    HW226820   3.005   4.255   6.805 -3.4258  0.7175  0.0382
 5063SOL     OW26821   3.408   2.506  10.096  0.0711  0.0176  0.7678
 5063SOL    HW126822   3.358   2.580  10.129 -0.0572 -0.1866  1.0383
 5063SOL    HW226823   3.467   2.562  10.045  0.6417 -0.1546  1.2343
 5064SOL     OW26824   2.600   3.692  14.592 -0.8527 -0.1150  0.3805
 5064SOL    HW126825   2.593   3.787  14.604  0.4856 -0.0039  0.3355
 5064SOL    HW226826   2.615   3.688  14.498  0.0560 -1.2148  0.5650
 5065SOL     OW26827   3.597   0.710   4.185 -0.0955 -0.2366  0.2044
 5065SOL    HW126828   3.623   0.669   4.267 -1.2730 -0.1972  0.6064
 5065SOL    HW226829   3.502   0.698   4.182 -0.5458  2.3739  3.4757
 5066SOL     OW26830   3.339   3.856   1.841  0.0772 -0.3822 -0.3058
 5066SOL    HW126831   3.283   3.929   1.870 -0.1001 -0.4894 -0.3789
 5066SOL    HW226832   3.409   3.862   1.907  0.5409 -0.1917 -0.8201
 5067SOL     OW26833   3.948   2.582  11.211 -0.4973 -0.1372 -0.2654
 5067SOL    HW126834   4.014   2.515  11.190  0.8868  1.5706 -1.3325
 5067SOL    HW226835   3.896   2.578  11.131 -1.1498  1.5226  0.0791
 5068SOL     OW26836   1.756   0.961   6.506 -0.3734 -0.1981  0.4259
 5068SOL    HW126837   1.664   0.963   6.482 -0.8517 -0.7879  2.1903
 5068SOL    HW226838   1.796   1.028   6.450  0.6535 -0.8890  0.3374
 5069SOL     OW26839   4.261   1.562   7.713 -0.0635 -0.5665  0.4773
 5069SOL    HW126840   4.304   1.644   7.737 -2.6651  0.9162  0.0708
 5069SOL    HW226841   4.170   1.579   7.737 -0.1212 -0.8173  0.4406
 5070SOL     OW26842   0.240   3.007   2.474  1.2128 -0.7575  0.1068
 5070SOL    HW126843   0.302   3.064   2.429  0.8309  0.4407  1.1229
 5070SOL    HW226844   0.248   2.925   2.424 -1.1857 -0.0775 -1.3587
 5071SOL     OW26845   2.975   0.713  15.331 -0.0208  0.1461  0.9748
 5071SOL    HW126846   2.922   0.765  15.271  0.3389 -0.0531  0.4830
 5071SOL    HW226847   3.066   0.736  15.309  0.4154 -1.3484  1.2149
 5072SOL     OW26848   2.894   0.060   8.523  0.0503  0.2370 -0.7149
 5072SOL    HW126849   2.841   4.725   8.553 -2.9303  2.4622 -0.5371
 5072SOL    HW226850   2.962   0.053   8.591  0.6827  1.2265 -1.2456
 5073SOL     OW26851   0.953   4.316   9.013  0.1110  0.0046  0.1902
 5073SOL    HW126852   1.011   4.389   9.035 -0.5009  1.4656 -2.9681
 5073SOL    HW226853   1.021   4.253   8.990  0.4949 -0.6024  2.9792
 5074SOL     OW26854   0.844   1.017   0.574 -0.4976 -0.9295 -0.2855
 5074SOL    HW126855   0.814   0.991   0.661 -0.6567 -0.2299 -0.1345
 5074SOL    HW226856   0.917   0.957   0.559  0.1825 -0.0389 -0.5227
 5075SOL     OW26857   2.256   2.492  15.701  0.2442  0.0576  0.0768
 5075SOL    HW126858   2.343   2.465  15.729 -0.0687 -0.4577  0.5536
 5075SOL    HW226859   2.265   2.483  15.606  0.2958  1.0341 -0.0126
 5076SOL     OW26860   3.948   0.545   6.367  0.5467 -0.4667  0.0724
 5076SOL    HW126861   3.969   0.540   6.274  2.2331  0.6120  0.3968
 5076SOL    HW226862   3.990   0.466   6.402 -0.0900  0.3783  2.7729
 5077SOL     OW26863   0.390   1.935  15.726 -0.1034 -0.3752 -0.1709
 5077SOL    HW126864   0.415   2.004  15.788 -1.3056 -0.1237  0.0235
 5077SOL    HW226865   0.385   1.992  15.649  1.4917 -2.3542 -1.7459
 5078SOL     OW26866   2.920   1.819  12.667  0.1094  0.5636  0.9409
 5078SOL    HW126867   2.902   1.859  12.752  0.6336  0.7118  0.9789
 5078SOL    HW226868   2.861   1.859  12.602  1.1688  1.8265  0.7637
 5079SOL     OW26869   3.379   0.008   3.017 -0.1999 -0.0178 -0.8232
 5079SOL    HW126870   3.418   0.088   2.981 -2.4346  0.4662 -2.1523
 5079SOL    HW226871   3.369   0.049   3.103  2.1450 -1.1901  0.0092
 5080SOL     OW26872   3.722   0.250   2.609  0.4055  0.0849  0.0535
 5080SOL    HW126873   3.678   0.240   2.525  2.6599  0.0013 -1.1243
 5080SOL    HW226874   3.651   0.263   2.672 -1.6233  0.4758 -2.2958
 5081SOL     OW26875   0.839   2.607   9.732 -0.2496 -0.8529 -0.4249
 5081SOL    HW126876   0.795   2.539   9.681  1.5416 -0.5857 -2.3543
 5081SOL    HW226877   0.900   2.634   9.663 -0.9053  1.5406 -0.0840
 5082SOL     OW26878   0.307   3.733   3.324 -0.4435  0.4401  0.1517
 5082SOL    HW126879   0.220   3.767   3.304 -0.8289  0.4780  1.8278
 5082SOL    HW226880   0.295   3.703   3.414  1.2805 -0.6988 -0.0097
 5083SOL     OW26881   4.270   3.361  16.088  0.0545 -0.1681 -0.1481
 5083SOL    HW126882   4.278   3.391  15.998  1.0614  2.6439  0.8898
 5083SOL    HW226883   4.248   3.268  16.081  0.4440 -0.1113 -2.1187
 5084SOL     OW26884   3.612   1.849  14.350 -0.2261  0.0185 -0.0308
 5084SOL    HW126885   3.650   1.916  14.407 -1.0577  1.5875 -1.3166
 5084SOL    HW226886   3.643   1.870  14.262  1.8562 -3.5726 -0.1507
 5085SOL     OW26887   3.794   1.473   4.153  0.0272  0.1528 -0.4546
 5085SOL    HW126888   3.860   1.541   4.141  0.5241 -0.1941  0.2976
 5085SOL    HW226889   3.832   1.411   4.091  0.4807 -1.1876  1.1678
 5086SOL     OW26890   1.806   4.525   6.402 -0.5586 -0.1728 -0.2459
 5086SOL    HW126891   1.803   4.430   6.415  0.4526  0.1205  2.2485
 5086SOL    HW226892   1.774   4.547   6.490 -1.7117  0.5085 -0.8353
 5087SOL     OW26893   0.975   0.053   8.589  0.3349 -0.0260 -0.3448
 5087SOL    HW126894   0.937   0.010   8.512 -2.3724  1.1749  0.3276
 5087SOL    HW226895   0.903   0.090   8.639 -0.8756 -1.9011 -0.6922
 5088SOL     OW26896   2.838   4.412   9.076  0.3985 -0.3486  0.1231
 5088SOL    HW126897   2.857   4.407   8.982  0.1223  0.2331  0.0323
 5088SOL    HW226898   2.865   4.326   9.106  1.0085  0.0227  0.6430
 5089SOL     OW26899   2.048   4.333   6.406 -0.1018 -0.1433  0.5020
 5089SOL    HW126900   2.085   4.390   6.474  1.2013 -1.2591  0.7266
 5089SOL    HW226901   1.973   4.302   6.458  0.3591 -2.4102 -0.2027
 5090SOL     OW26902   4.551   1.672  11.892  0.1376  0.0219  0.0215
 5090SOL    HW126903   4.592   1.620  11.961  2.0822  1.5111 -0.0119
 5090SOL    HW226904   4.592   1.626  11.819  3.0566  1.1029  1.0075
 5091SOL     OW26905   4.629   3.434  15.857 -0.2873  0.2098 -0.0074
 5091SOL    HW126906   4.641   3.344  15.889 -0.8469  0.7405  1.7015
 5091SOL    HW226907   4.633   3.409  15.765 -1.9800  0.2732 -0.1087
 5092SOL     OW26908   2.269   0.802   6.791  0.1288  0.0370  0.4322
 5092SOL    HW126909   2.179   0.832   6.804  0.5054  1.8442 -1.1774
 5092SOL    HW226910   2.283   0.832   6.701  0.5038 -1.7414 -0.1103
 5093SOL     OW26911   2.182   2.472   7.449  0.3170  0.5112  0.3894
 5093SOL    HW126912   2.238   2.471   7.527  0.5132 -0.0987  0.2423
 5093SOL    HW226913   2.188   2.564   7.425 -2.5271  0.9588  1.2919
 5094SOL     OW26914   4.387   2.180   1.994  0.0665 -0.5350 -0.2913
 5094SOL    HW126915   4.433   2.144   1.919 -0.4670 -0.1042 -0.8249
 5094SOL    HW226916   4.421   2.131   2.069 -0.1955 -0.0927  0.1181
 5095SOL     OW26917   3.599   1.217   7.217  0.5427  0.2310  0.4605
 5095SOL    HW126918   3.631   1.178   7.299 -0.6369  0.4862  1.0496
 5095SOL    HW226919   3.613   1.141   7.161 -1.8024  0.5306 -0.5537
 5096SOL     OW26920   2.300   2.364   9.591 -0.0459  0.0362  0.2910
 5096SOL    HW126921   2.380   2.415   9.603 -1.1896  2.0371 -0.5439
 5096SOL    HW226922   2.254   2.371   9.676 -2.0958 -0.1083 -0.7998
 5097SOL     OW26923   4.019   1.218   5.489  0.1116  0.0397 -0.3191
 5097SOL    HW126924   4.030   1.290   5.550 -0.8046  0.4763 -0.6648
 5097SOL    HW226925   3.924   1.214   5.478  0.5095 -2.4507 -2.8650
 5098SOL     OW26926   4.576   1.131   5.666 -0.0978 -0.2350  0.4918
 5098SOL    HW126927   4.487   1.101   5.652 -0.1352  0.9991 -1.9628
 5098SOL    HW226928   4.561   1.220   5.634  0.9816  0.1567  1.0768
 5099SOL     OW26929   1.288   1.896   5.523  0.2092  0.2480 -0.2898
 5099SOL    HW126930   1.245   1.869   5.442 -1.3406 -0.6379  0.8359
 5099SOL    HW226931   1.222   1.942   5.575  0.6605 -0.5739  1.0106
 5100SOL     OW26932   3.524   3.168   2.064  0.4427  0.6150  0.5737
 5100SOL    HW126933   3.430   3.166   2.049  0.3924  0.6432  0.8960
 5100SOL    HW226934   3.554   3.114   1.991 -3.3514  1.2736 -1.4682
 5101SOL     OW26935   0.928   0.657   9.023  0.1185  0.0215  0.3162
 5101SOL    HW126936   0.904   0.622   9.109  0.6800  1.9908  1.2871
 5101SOL    HW226937   0.860   0.724   9.020  0.8622  0.8606  1.8907
 5102SOL     OW26938   3.968   0.892   5.674 -0.7088 -0.0916 -0.3158
 5102SOL    HW126939   4.023   0.909   5.751  2.0577 -1.6705 -1.9253
 5102SOL    HW226940   3.884   0.885   5.718 -0.6076  1.1771  0.0730
 5103SOL     OW26941   3.298   1.843   3.651 -0.0486 -0.2853  0.5831
 5103SOL    HW126942   3.231   1.905   3.621  1.0843 -0.1309 -1.6367
 5103SOL    HW226943   3.308   1.793   3.569 -0.1683 -0.5745  0.7450
 5104SOL     OW26944   3.453   2.173   2.548 -0.2114  0.2167 -0.1450
 5104SOL    HW126945   3.475   2.229   2.622  2.0931 -2.3822  1.1456
 5104SOL    HW226946   3.536   2.131   2.527 -0.4412  1.0905 -2.8358
 5105SOL     OW26947   2.006   0.041  11.402 -0.0564  0.2406 -0.9382
 5105SOL    HW126948   2.029   0.096  11.327 -0.9985  1.4057 -0.3566
 5105SOL    HW226949   2.003   4.693  11.361  3.5120 -0.4214  0.1921
 5106SOL     OW26950   2.769   2.367  15.784  0.4917  0.3683 -0.2030
 5106SOL    HW126951   2.841   2.427  15.760  0.6327 -0.0452 -0.8069
 5106SOL    HW226952   2.808   2.321  15.858  2.7035  1.2110 -0.8153
 5107SOL     OW26953   3.364   4.229  14.231 -0.4573  0.0165  0.5013
 5107SOL    HW126954   3.424   4.192  14.296 -1.4220 -0.0712  1.3402
 5107SOL    HW226955   3.353   4.154  14.174  1.5514  0.5243 -0.5556
 5108SOL     OW26956   0.577   0.169  13.343 -0.3913 -0.2103  0.2496
 5108SOL    HW126957   0.649   0.105  13.334  0.6136  0.7282  1.5581
 5108SOL    HW226958   0.501   0.115  13.321  1.2301 -1.5882 -2.0333
 5109SOL     OW26959   1.978   1.473   7.502  0.5922  0.2673  0.6276
 5109SOL    HW126960   1.949   1.513   7.584  2.1518 -0.2007  1.4188
 5109SOL    HW226961   1.896   1.470   7.452 -0.1391 -0.4623  1.8640
 5110SOL     OW26962   1.908   0.540   5.704 -0.1844  0.4985  0.1050
 5110SOL    HW126963   1.907   0.527   5.799  1.0170  1.8342  0.2985
 5110SOL    HW226964   1.941   0.629   5.702  0.7995  0.0814 -2.0091
 5111SOL     OW26965   3.116   3.548  16.440 -0.0557 -0.0589 -0.0446
 5111SOL    HW126966   3.023   3.558  16.458  0.0417  1.2838 -0.3027
 5111SOL    HW226967   3.153   3.569  16.526 -1.5073  1.0716  0.3038
 5112SOL     OW26968   1.277   2.805   3.157 -0.7918 -0.1419 -0.1870
 5112SOL    HW126969   1.325   2.888   3.151  0.3412 -0.6636  1.4502
 5112SOL    HW226970   1.228   2.822   3.077  0.5316  1.4816 -0.6498
 5113SOL     OW26971   2.341   0.341   4.899 -0.1768 -0.0480 -0.3788
 5113SOL    HW126972   2.320   0.391   4.978  0.2400 -1.1719  0.4459
 5113SOL    HW226973   2.369   0.258   4.938 -0.8934  0.7764  1.9342
 5114SOL     OW26974   3.297   1.102   9.838 -0.3542 -0.2275 -0.0686
 5114SOL    HW126975   3.373   1.156   9.859  0.0575 -1.4042  1.4972
 5114SOL    HW226976   3.319   1.070   9.750 -0.5190 -1.6846  0.4113
 5115SOL     OW26977   2.474   3.511   9.002 -0.6260 -0.0081  0.4262
 5115SOL    HW126978   2.455   3.600   9.034 -1.3453 -1.0121  2.8011
 5115SOL    HW226979   2.536   3.475   9.065 -1.4375  0.1870  1.3401
 5116SOL     OW26980   4.013   0.965   5.411  0.3057 -0.0386  0.3141
 5116SOL    HW126981   4.005   1.060   5.420 -3.9128 -0.2742 -1.0229
 5116SOL    HW226982   4.002   0.948   5.505 -0.0990 -1.2097  0.0561
 5117SOL     OW26983   1.785   2.682  16.421  0.2223  0.5911 -0.2948
 5117SOL    HW126984   1.836   2.638  16.353  0.2702  1.6185 -0.9293
 5117SOL    HW226985   1.697   2.698  16.386 -0.7557 -2.7867  0.6195
 5118SOL     OW26986   2.523   1.135  17.210  0.0650 -0.0302 -0.3730
 5118SOL    HW126987   2.528   1.040  17.202 -0.9990 -0.2000  1.0249
 5118SOL    HW226988   2.432   1.156  17.191 -0.4556 -1.1058  0.8764
 5119SOL     OW26989   1.007   3.109   5.593  0.0184  0.0230 -0.0477
 5119SOL    HW126990   1.038   3.156   5.516  0.0516  0.5912  0.3144
 5119SOL    HW226991   0.974   3.187   5.637  0.4604  0.1620  0.0366
 5120SOL     OW26992   2.243   2.107   8.743 -0.9136  0.0488 -0.1375
 5120SOL    HW126993   2.320   2.163   8.732 -0.4016 -0.3535  1.4521
 5120SOL    HW226994   2.287   2.028   8.773 -1.7130 -1.0686 -1.9155
 5121SOL     OW26995   3.450   4.553  16.197  0.2892  0.5104 -0.4828
 5121SOL    HW126996   3.386   4.536  16.127 -0.8927 -1.2353  1.0128
 5121SOL    HW226997   3.465   4.646  16.181 -1.4523  0.8753 -0.0175
 5122SOL     OW26998   1.694   3.821   1.202 -0.5031 -0.2143 -0.1577
 5122SOL    HW126999   1.694   3.800   1.108  1.0862 -3.3387  0.5607
 5122SOL    HW227000   1.634   3.755   1.238 -0.8449  1.1099  1.6589
 5123SOL     OW27001   3.672   3.845  17.002  0.1486 -0.0632 -0.5786
 5123SOL    HW127002   3.584   3.873  17.027  1.1112  0.3952  2.3446
 5123SOL    HW227003   3.650   3.844  16.909 -1.4718  0.6599 -0.2152
 5124SOL     OW27004   2.892   4.331   4.859  0.1052  0.0326 -0.0992
 5124SOL    HW127005   2.973   4.367   4.823  0.4566  0.8086  1.4872
 5124SOL    HW227006   2.872   4.269   4.788 -1.1112 -0.6652  0.8673
 5125SOL     OW27007   1.993   1.718  11.635  0.0618 -0.0228  0.1954
 5125SOL    HW127008   2.027   1.770  11.562 -1.7254 -0.9237 -1.2816
 5125SOL    HW227009   2.047   1.640  11.622 -0.5775 -0.7960  2.1966
 5126SOL     OW27010   2.383   3.066   3.161  0.2750  0.3783  0.0158
 5126SOL    HW127011   2.377   2.993   3.100 -0.1615  0.7092 -0.3339
 5126SOL    HW227012   2.292   3.094   3.167  0.3529  0.9742 -1.7612
 5127SOL     OW27013   1.391   1.311   7.049 -0.1842  0.4312 -0.3708
 5127SOL    HW127014   1.462   1.355   7.002  0.2325 -0.4769 -0.5833
 5127SOL    HW227015   1.311   1.340   7.005 -1.4858 -1.6277  0.6631
 5128SOL     OW27016   4.246   3.139   7.246 -0.5428 -0.1090 -0.5820
 5128SOL    HW127017   4.229   3.190   7.326 -3.0739  1.8211 -2.3402
 5128SOL    HW227018   4.326   3.094   7.274 -1.2864 -0.8449  0.3846
 5129SOL     OW27019   4.718   4.436   6.006 -0.3711 -0.2946 -0.3608
 5129SOL    HW127020   4.738   4.392   6.088  1.7148 -2.0637 -1.8326
 5129SOL    HW227021   4.651   4.500   6.032 -0.7570 -0.9327  0.2132
 5130SOL     OW27022   3.211   1.039   4.050 -0.0329  0.0113 -0.6242
 5130SOL    HW127023   3.252   0.953   4.060 -0.0397  0.4029  2.5840
 5130SOL    HW227024   3.258   1.082   3.978 -1.7979 -0.5847 -2.1356
 5131SOL     OW27025   4.029   0.240   6.185 -0.0330  0.1673  0.3596
 5131SOL    HW127026   3.950   0.186   6.193  0.6612 -1.0214 -0.7179
 5131SOL    HW227027   4.059   0.251   6.275  1.0756 -0.9422  0.1257
 5132SOL     OW27028   3.864   2.599   0.526 -0.3103  0.4788 -0.2304
 5132SOL    HW127029   3.796   2.573   0.588 -2.3378  0.3519 -2.5354
 5132SOL    HW227030   3.833   2.567   0.442  1.9107 -0.1998 -0.8001
 5133SOL     OW27031   0.708   1.244   9.855  0.2119  0.1888 -0.3090
 5133SOL    HW127032   0.695   1.276   9.944  3.2470  3.7142 -1.1046
 5133SOL    HW227033   0.621   1.211   9.833  0.2580  0.3033 -0.6599
 5134SOL     OW27034   3.998   3.193   4.996 -0.6317  0.6641 -0.3758
 5134SOL    HW127035   4.015   3.139   4.919 -1.0320 -0.6286  0.4462
 5134SOL    HW227036   4.053   3.148   5.061 -1.3725 -0.5226 -0.5646
 5135SOL     OW27037   1.419   3.912   7.403 -0.0686  0.0820 -0.2098
 5135SOL    HW127038   1.507   3.874   7.405 -0.9715 -2.1136 -1.9869
 5135SOL    HW227039   1.416   3.931   7.497  1.7864 -0.6534  0.0059
 5136SOL     OW27040   3.030   0.921   3.219 -0.3534 -0.2071  0.0407
 5136SOL    HW127041   3.019   0.883   3.306 -0.3534 -0.7925 -0.2125
 5136SOL    HW227042   3.125   0.933   3.214 -0.3377 -0.7339 -1.0019
 5137SOL     OW27043   4.673   0.476   5.751  0.3247  0.3479 -0.4476
 5137SOL    HW127044   4.737   0.444   5.688  0.2818  1.9894 -1.3129
 5137SOL    HW227045   4.630   0.541   5.696 -0.2764  1.4364  1.2990
 5138SOL     OW27046   0.028   0.676   4.764  0.7433  0.0244 -0.1377
 5138SOL    HW127047   0.034   0.647   4.673  3.0238  1.3285 -0.3976
 5138SOL    HW227048   0.100   0.738   4.777  1.5109 -1.0949  0.9375
 5139SOL     OW27049   2.200   1.289   2.576  0.3555  0.3436  0.0198
 5139SOL    HW127050   2.172   1.197   2.573  0.3708  0.3835 -1.0621
 5139SOL    HW227051   2.175   1.322   2.490 -0.3540  0.0187  0.0999
 5140SOL     OW27052   3.703   3.789   1.945  0.5153  0.0330  0.2856
 5140SOL    HW127053   3.764   3.848   1.990 -0.3405  0.7403  0.5143
 5140SOL    HW227054   3.625   3.829   1.983 -0.3284 -0.9823 -0.3800
 5141SOL     OW27055   4.357   2.898  15.814  0.2650 -0.3080 -0.1554
 5141SOL    HW127056   4.282   2.939  15.771  0.4171 -1.0021 -1.0901
 5141SOL    HW227057   4.333   2.897  15.906 -0.5449  2.2809 -0.3239
 5142SOL     OW27058   3.759   1.825   2.634 -0.2296  0.5553 -0.3255
 5142SOL    HW127059   3.813   1.849   2.559 -1.3070 -2.2386 -2.0026
 5142SOL    HW227060   3.698   1.756   2.606  0.1287  0.4614 -0.8781
 5143SOL     OW27061   4.645   4.374   8.514 -0.0323  0.3475  0.0736
 5143SOL    HW127062   4.673   4.306   8.453 -2.2554  0.6193 -1.2499
 5143SOL    HW227063   4.719   4.381   8.575  0.1452 -1.3623  0.0436
 5144SOL     OW27064   0.290   2.114   5.873 -0.3882  0.1399  0.0693
 5144SOL    HW127065   0.210   2.104   5.925 -1.1173  1.8869 -0.7396
 5144SOL    HW227066   0.352   2.169   5.922 -0.5403  0.1165  0.2905
 5145SOL     OW27067   0.178   0.025   3.628 -0.3145  0.0451 -0.0257
 5145SOL    HW127068   0.158   0.059   3.715  0.0676  0.1911  0.0046
 5145SOL    HW227069   0.186   4.669   3.637  2.9642 -0.0365 -3.7692
 5146SOL     OW27070   3.068   1.219   3.629  0.0183 -0.8807  0.1099
 5146SOL    HW127071   3.109   1.134   3.644  1.1555  0.1562  2.6892
 5146SOL    HW227072   3.134   1.281   3.658  1.2054  0.6610 -5.8070
 5147SOL     OW27073   0.337   2.367   6.510 -0.5225  0.2180 -0.1936
 5147SOL    HW127074   0.355   2.402   6.597 -1.6422 -2.6985  1.2285
 5147SOL    HW227075   0.279   2.299   6.545  0.2344 -0.5790 -0.4834
 5148SOL     OW27076   4.125   2.506  13.279 -0.2434  0.3755 -0.2201
 5148SOL    HW127077   4.174   2.441  13.228  0.3684 -1.3779  2.6292
 5148SOL    HW227078   4.154   2.478  13.366 -0.4752 -2.2076 -0.9735
 5149SOL     OW27079   1.950   0.335  17.272  0.3773 -0.4338 -0.0934
 5149SOL    HW127080   1.919   0.258  17.225 -0.5346 -0.0718 -0.0810
 5149SOL    HW227081   1.990   0.300  17.352 -2.3447  1.6585  2.2135
 5150SOL     OW27082   3.799   2.856   8.750  0.7679  0.4472  0.4767
 5150SOL    HW127083   3.813   2.871   8.657 -1.6828 -0.8796 -0.0968
 5150SOL    HW227084   3.704   2.856   8.745  0.7587 -0.3433  0.6095
 5151SOL     OW27085   3.020   1.362  15.127 -0.2482  0.2561 -0.4264
 5151SOL    HW127086   3.019   1.332  15.218  0.6362  0.5150 -0.3337
 5151SOL    HW227087   3.039   1.280  15.081 -0.6955  0.9001 -1.7619
 5152SOL     OW27088   1.626   0.377   7.424 -0.0618 -0.5135 -1.1618
 5152SOL    HW127089   1.609   0.441   7.493  1.3627 -1.1125 -0.2695
 5152SOL    HW227090   1.533   0.373   7.402 -0.6243  1.8578  0.7410
 5153SOL     OW27091   0.665   0.359   7.727  0.2387  0.2738 -0.6158
 5153SOL    HW127092   0.663   0.269   7.695  3.6636 -0.4352  1.1926
 5153SOL    HW227093   0.758   0.379   7.733  0.0880  1.1276 -1.1029
 5154SOL     OW27094   3.883   4.010   3.201  0.1004 -0.1126 -0.7383
 5154SOL    HW127095   3.832   4.051   3.131 -3.0896 -2.0035  0.4633
 5154SOL    HW227096   3.814   3.973   3.257  0.7012 -0.7187 -0.3987
 5155SOL     OW27097   4.008   0.407   3.045  0.4120  0.6052  0.3936
 5155SOL    HW127098   4.061   0.339   3.002  1.1259  0.4457  1.5451
 5155SOL    HW227099   3.978   0.351   3.117  1.5451 -0.8356 -0.2440
 5156SOL     OW27100   2.733   3.887   2.951 -0.3205  0.0616 -0.7934
 5156SOL    HW127101   2.749   3.842   3.034 -1.1581  1.0822 -0.0795
 5156SOL    HW227102   2.818   3.915   2.918 -0.4833  0.1154 -1.1766
 5157SOL     OW27103   0.795   0.857   9.253  0.7797 -0.4545 -0.3604
 5157SOL    HW127104   0.768   0.935   9.204  1.4846 -0.4731 -0.7837
 5157SOL    HW227105   0.711   0.827   9.288  0.8873 -2.0505 -1.4718
 5158SOL     OW27106   2.576   3.705  17.083  0.2830 -0.3104 -0.6859
 5158SOL    HW127107   2.590   3.745  17.169 -1.8328  0.5064 -0.7213
 5158SOL    HW227108   2.649   3.642  17.086 -0.6155 -1.4084 -1.9956
 5159SOL     OW27109   1.852   1.087  10.422  0.0779 -0.1190  0.4389
 5159SOL    HW127110   1.833   1.177  10.450 -2.6798 -0.4576 -0.3703
 5159SOL    HW227111   1.777   1.075  10.364 -0.4266  0.0216  1.0589
 5160SOL     OW27112   4.230   2.570   3.921  0.2473 -0.0192 -0.2486
 5160SOL    HW127113   4.155   2.628   3.908  0.8322  0.5038 -1.2886
 5160SOL    HW227114   4.303   2.607   3.871  0.1275  0.4420 -0.0817
 5161SOL     OW27115   3.437   3.879   3.558 -0.1813 -0.0103 -0.4155
 5161SOL    HW127116   3.388   3.943   3.610 -3.0009 -0.6247 -2.3128
 5161SOL    HW227117   3.431   3.918   3.470  1.9374 -0.1534 -0.6427
 5162SOL     OW27118   1.346   3.762   5.350  0.0678 -0.2986 -0.2100
 5162SOL    HW127119   1.365   3.675   5.315 -0.5083 -1.3887  2.1707
 5162SOL    HW227120   1.428   3.780   5.396 -0.9972  0.6452  1.3602
 5163SOL     OW27121   2.796   2.732   2.155  0.5177 -0.0340 -0.3804
 5163SOL    HW127122   2.787   2.637   2.162 -2.7550  0.1674 -2.0572
 5163SOL    HW227123   2.839   2.756   2.237  0.2697  2.5855 -1.0023
 5164SOL     OW27124   2.144   4.195   7.231 -0.3473  0.2606 -0.3590
 5164SOL    HW127125   2.075   4.201   7.297  1.0804  0.9954  1.0792
 5164SOL    HW227126   2.152   4.290   7.228 -0.5160  0.3662  2.1487
 5165SOL     OW27127   1.060   2.413   4.730  0.3011  0.1319 -0.6268
 5165SOL    HW127128   1.100   2.350   4.789  0.4138  0.9045  0.1276
 5165SOL    HW227129   1.123   2.411   4.659  3.0272  0.0949  1.8142
 5166SOL     OW27130   3.868   1.390   2.538 -0.2947  0.6207  0.1501
 5166SOL    HW127131   3.853   1.296   2.532 -1.9401  0.8792 -0.0323
 5166SOL    HW227132   3.797   1.418   2.596  1.3502  1.2829  1.8162
 5167SOL     OW27133   1.568   0.144  15.201  0.1205 -0.6099  0.0415
 5167SOL    HW127134   1.655   0.107  15.183 -0.8650 -2.2837 -1.3000
 5167SOL    HW227135   1.514   0.077  15.160  1.8163 -0.6109 -2.2227
 5168SOL     OW27136   0.739   2.665   9.984 -0.2413 -0.1784 -0.5668
 5168SOL    HW127137   0.649   2.637   9.969 -0.6225  0.2083  1.0737
 5168SOL    HW227138   0.770   2.674   9.893 -1.1539  2.6271 -0.6137
 5169SOL     OW27139   3.101   2.997   8.054  0.4451 -0.3202  0.8108
 5169SOL    HW127140   3.119   2.908   8.086  1.2405  0.4641  2.5249
 5169SOL    HW227141   3.138   2.996   7.967 -1.7077 -1.6118 -0.1043
 5170SOL     OW27142   3.030   1.695   0.328  0.1387 -0.1705  0.4903
 5170SOL    HW127143   2.959   1.711   0.391  0.0631 -1.1329  0.6585
 5170SOL    HW227144   3.047   1.604   0.354  2.0616 -0.4270 -1.6966
 5171SOL     OW27145   3.996   2.675   6.367 -0.4936 -0.4626 -0.5541
 5171SOL    HW127146   4.019   2.742   6.432 -0.3129 -0.8859 -0.1811
 5171SOL    HW227147   4.074   2.668   6.311 -1.4604 -1.2736 -1.7724
 5172SOL     OW27148   2.924   2.962   8.846  0.6448  0.8995 -0.1998
 5172SOL    HW127149   2.932   2.870   8.872 -3.1930 -0.0369 -2.4097
 5172SOL    HW227150   2.919   3.020   8.922  0.0859  1.9840 -1.0775
 5173SOL     OW27151   0.511   2.514   1.391  0.2871 -0.2865  0.0466
 5173SOL    HW127152   0.544   2.449   1.453 -0.8699 -0.9019  0.0197
 5173SOL    HW227153   0.583   2.512   1.327 -0.0630  0.7320 -0.3784
 5174SOL     OW27154   2.987   4.707   1.760 -0.7731 -0.1005  0.3125
 5174SOL    HW127155   3.012   0.027   1.831  0.3697  0.6314 -0.7076
 5174SOL    HW227156   3.031   0.007   1.684 -0.9486 -0.8692 -0.1899
 5175SOL     OW27157   1.563   4.171  15.490 -0.4795 -0.2380 -0.2640
 5175SOL    HW127158   1.645   4.138  15.455  0.3969 -0.3633  1.9311
 5175SOL    HW227159   1.559   4.115  15.567 -0.7702 -0.4009 -0.3981
 5176SOL     OW27160   1.519   2.281   6.658 -0.1672  0.3659 -0.6227
 5176SOL    HW127161   1.507   2.190   6.686 -1.7865  0.4494 -1.0570
 5176SOL    HW227162   1.462   2.321   6.723  1.1355 -1.0179  1.3950
 5177SOL     OW27163   1.531   0.186   1.436  0.4892 -0.1075  0.4638
 5177SOL    HW127164   1.498   0.276   1.444 -1.0936 -0.6712  0.1040
 5177SOL    HW227165   1.491   0.161   1.519  1.2131  0.3492  0.9551
 5178SOL     OW27166   2.278   1.495  10.230  0.0566  0.7844 -0.4452
 5178SOL    HW127167   2.258   1.406  10.259  1.7532  0.6809  0.3932
 5178SOL    HW227168   2.217   1.547  10.283 -1.4394 -0.0698 -1.3513
 5179SOL     OW27169   3.260   0.417   7.495  0.2536 -0.2338  0.0323
 5179SOL    HW127170   3.177   0.441   7.536 -0.5970 -0.7191 -1.4396
 5179SOL    HW227171   3.289   0.347   7.554  0.6714 -0.9442 -1.0199
 5180SOL     OW27172   1.336   0.783  15.153 -0.4678  0.1643  0.4311
 5180SOL    HW127173   1.353   0.690  15.167  0.1483  0.4900  1.8270
 5180SOL    HW227174   1.251   0.771  15.111  0.0419  1.3253 -0.9484
 5181SOL     OW27175   4.325   4.116   4.230 -0.4308  0.6108  0.3775
 5181SOL    HW127176   4.414   4.082   4.238  0.2470  2.4321  0.5252
 5181SOL    HW227177   4.320   4.144   4.321  1.2115  1.2917  0.2522
 5182SOL     OW27178   4.122   4.063   1.315 -0.2523 -0.1576  0.2709
 5182SOL    HW127179   4.205   4.047   1.270 -0.4947  2.6312 -1.1553
 5182SOL    HW227180   4.143   4.072   1.408  0.8451 -0.0521  0.0098
 5183SOL     OW27181   3.985   1.156   9.887 -0.1499 -0.1507 -0.1230
 5183SOL    HW127182   3.923   1.216   9.845 -0.2125  0.0564  0.2631
 5183SOL    HW227183   3.962   1.066   9.864 -0.7984  0.0586 -0.2818
 5184SOL     OW27184   2.659   3.780   1.978  0.1409 -0.3655 -0.2692
 5184SOL    HW127185   2.616   3.759   1.895  0.8566  0.3509 -0.8268
 5184SOL    HW227186   2.616   3.862   2.002  1.3908  0.6688 -1.4787
 5185SOL     OW27187   0.978   1.573   3.010  0.1876  0.0550 -0.2661
 5185SOL    HW127188   0.974   1.613   3.097  2.9331  2.0423 -1.0521
 5185SOL    HW227189   1.033   1.498   3.035 -0.0772  0.6318  2.0502
 5186SOL     OW27190   4.507   1.090   6.171  0.1023 -0.0339 -0.3615
 5186SOL    HW127191   4.489   0.997   6.156  0.5738 -0.2055  0.1253
 5186SOL    HW227192   4.511   1.118   6.080 -0.3388  2.4101  0.3733
 5187SOL     OW27193   2.045   0.589   2.516 -0.2807  0.1891  0.0782
 5187SOL    HW127194   2.038   0.624   2.427 -0.5536  0.9667  0.4001
 5187SOL    HW227195   2.132   0.549   2.509 -0.3952  0.3180 -2.3298
 5188SOL     OW27196   0.527   1.201   8.623  0.3545  0.3812 -0.4381
 5188SOL    HW127197   0.538   1.291   8.594  1.3335  1.3887  3.0559
 5188SOL    HW227198   0.525   1.161   8.536 -0.1790 -0.5405 -0.0066
 5189SOL     OW27199   3.111   1.837   9.465  0.1923 -0.1717 -0.0995
 5189SOL    HW127200   3.159   1.905   9.513 -0.3200 -0.6294  1.0565
 5189SOL    HW227201   3.156   1.758   9.495 -0.6228 -0.8076 -0.5744
 5190SOL     OW27202   1.876   4.693   2.530 -0.0024  0.3147  0.0941
 5190SOL    HW127203   1.842   4.616   2.485 -0.3158  1.1679 -1.1155
 5190SOL    HW227204   1.893   0.011   2.455  0.6016 -2.8418 -2.1767
 5191SOL     OW27205   1.078   1.473   2.273 -0.8422 -0.7280 -0.2734
 5191SOL    HW127206   1.105   1.390   2.314  2.0335  0.2616 -0.1688
 5191SOL    HW227207   1.104   1.457   2.183 -0.3872  1.1255 -0.4722
 5192SOL     OW27208   2.584   3.309   9.463 -0.3478  0.4316 -0.1129
 5192SOL    HW127209   2.594   3.340   9.373 -1.4593  1.0270 -0.0263
 5192SOL    HW227210   2.628   3.224   9.467 -1.5731 -0.1868  0.0508
 5193SOL     OW27211   3.215   2.346   4.005 -0.1557 -0.4494  0.2252
 5193SOL    HW127212   3.182   2.343   4.094 -0.6442  1.1825  0.1074
 5193SOL    HW227213   3.310   2.353   4.014  0.0012  0.0527 -1.7623
 5194SOL     OW27214   2.634   2.807   3.813 -0.0018 -0.2193 -0.6168
 5194SOL    HW127215   2.672   2.849   3.890  1.5449 -1.3433 -0.7794
 5194SOL    HW227216   2.550   2.780   3.850 -0.0864 -0.4323 -0.9670
 5195SOL     OW27217   1.658   2.076   7.786 -0.2311  0.1070  0.4540
 5195SOL    HW127218   1.605   2.150   7.757  0.8622  0.7430  0.0879
 5195SOL    HW227219   1.702   2.107   7.865  0.5666  0.9478 -0.3342
 5196SOL     OW27220   0.216   3.536   6.713  0.2735  0.1542 -0.2549
 5196SOL    HW127221   0.294   3.568   6.668  0.1696 -2.2343 -2.0607
 5196SOL    HW227222   0.148   3.583   6.665 -0.3730  0.3110  0.8038
 5197SOL     OW27223   0.353   3.014   4.923  0.3201 -0.6368 -0.0115
 5197SOL    HW127224   0.349   3.078   4.994 -2.0396 -1.6605  0.7887
 5197SOL    HW227225   0.376   2.943   4.983 -0.6099 -1.3734 -0.5259
 5198SOL     OW27226   1.533   2.737   2.845 -0.3092  0.0985 -0.0869
 5198SOL    HW127227   1.604   2.704   2.789  0.0643  0.6886  0.0392
 5198SOL    HW227228   1.456   2.697   2.804 -0.5988  1.7334 -1.1359
 5199SOL     OW27229   1.868   4.729  17.326 -0.2368 -0.5955 -0.4229
 5199SOL    HW127230   1.879   0.023  17.238 -1.1482 -0.4421 -0.4755
 5199SOL    HW227231   1.954   4.724  17.368  0.0871  1.1470 -0.8791
 5200SOL     OW27232   1.232   0.011  15.299  0.0116 -0.2955 -0.2267
 5200SOL    HW127233   1.255   0.072  15.229 -0.2025  0.8777  0.7290
 5200SOL    HW227234   1.287   4.677  15.273  1.2216  0.2775  0.7300
 5201SOL     OW27235   1.333   3.508   3.371  0.6170  0.2238 -0.3011
 5201SOL    HW127236   1.382   3.445   3.318  0.6767 -0.1848  0.2466
 5201SOL    HW227237   1.245   3.511   3.333  0.7023  0.2502 -0.4986
 5202SOL     OW27238   2.503   3.517   5.173  0.0346  0.0385 -0.0496
 5202SOL    HW127239   2.548   3.593   5.211 -1.5938 -0.1981  2.3543
 5202SOL    HW227240   2.561   3.444   5.194 -1.5612 -0.9986  0.6963
 5203SOL     OW27241   3.997   1.197   6.122  0.0600 -0.1224 -0.2225
 5203SOL    HW127242   3.912   1.242   6.119 -0.2038 -0.5819  0.3736
 5203SOL    HW227243   4.036   1.214   6.207  0.0403  2.8496 -0.8226
 5204SOL     OW27244   3.310   0.405   8.226  0.0853  0.4724  0.3245
 5204SOL    HW127245   3.383   0.380   8.170  0.2291 -2.1330  1.6542
 5204SOL    HW227246   3.356   0.447   8.299 -1.2728  0.6497  1.0883
 5205SOL     OW27247   1.999   3.784   8.693 -0.1302 -0.3851 -0.1897
 5205SOL    HW127248   1.972   3.866   8.735  2.0562  0.5251 -0.5598
 5205SOL    HW227249   2.067   3.743   8.747  0.5319 -0.0964 -0.8015
 5206SOL     OW27250   4.464   1.934   4.980 -0.2222  0.2725  0.0745
 5206SOL    HW127251   4.407   1.929   5.057  0.3715 -0.5318  0.4660
 5206SOL    HW227252   4.470   1.847   4.943 -2.5836  0.2935 -0.3336
 5207SOL     OW27253   2.813   2.590   7.556 -0.3739  0.1871 -0.1040
 5207SOL    HW127254   2.878   2.599   7.626 -1.4835  2.5971  0.6163
 5207SOL    HW227255   2.798   2.496   7.546  0.4613  0.0071  0.3479
 5208SOL     OW27256   4.186   2.915   5.860  0.3089  0.4305 -0.5262
 5208SOL    HW127257   4.141   2.836   5.832  3.0955 -0.9102 -1.1142
 5208SOL    HW227258   4.112   2.975   5.849  0.3748  0.8033  1.0042
 5209SOL     OW27259   3.030   0.784   9.346 -0.2654  0.0534 -0.2713
 5209SOL    HW127260   2.981   0.815   9.270 -0.9802 -1.0156 -0.2509
 5209SOL    HW227261   3.101   0.736   9.303  0.5182 -1.2122  2.4219
 5210SOL     OW27262   2.476   2.105   0.070  0.2790  0.2140 -0.1979
 5210SOL    HW127263   2.421   2.170   0.025  0.6075  0.5371 -0.1285
 5210SOL    HW227264   2.486   2.051  17.747  1.4378  0.4689 -0.2199
 5211SOL     OW27265   3.714   0.555   8.440 -0.1626  0.1925 -0.5614
 5211SOL    HW127266   3.799   0.575   8.479 -0.7318 -1.3592  1.4166
 5211SOL    HW227267   3.743   0.524   8.354  1.3407  2.0448 -0.7158
 5212SOL     OW27268   1.805   3.533   2.454 -0.2662 -0.6532  0.3038
 5212SOL    HW127269   1.900   3.546   2.461 -0.3191  0.1726 -0.4858
 5212SOL    HW227270   1.805   3.445   2.415 -1.2017 -1.0979  1.2901
 5213SOL     OW27271   0.097   3.494  10.631  0.5293  0.6655  0.1482
 5213SOL    HW127272   0.056   3.448  10.558  1.4675 -0.2982  0.2378
 5213SOL    HW227273   0.166   3.543  10.587  0.4653  0.4421 -0.1971
 5214SOL     OW27274   0.128   4.411   8.691 -0.2773 -0.5306 -0.2408
 5214SOL    HW127275   0.125   4.502   8.722  0.1740 -0.6165  0.0624
 5214SOL    HW227276   0.193   4.372   8.749 -0.5512 -1.8402 -0.8343
 5215SOL     OW27277   2.890   0.516   7.192 -0.2938  0.1510 -0.2441
 5215SOL    HW127278   2.908   0.540   7.101 -0.2483  1.9608  0.2384
 5215SOL    HW227279   2.975   0.535   7.232 -0.5655 -1.7422  1.2271
 5216SOL     OW27280   0.432   3.483   0.726  0.1977 -0.3157  0.4324
 5216SOL    HW127281   0.519   3.499   0.690  0.0183 -2.2029 -0.8481
 5216SOL    HW227282   0.379   3.545   0.675 -0.0560 -1.1942 -0.3852
 5217SOL     OW27283   4.027   1.977   4.759  0.2378  0.3880 -0.0729
 5217SOL    HW127284   4.018   1.898   4.812  4.4721  0.2791  0.4851
 5217SOL    HW227285   4.047   1.940   4.672  0.4345  0.3016  0.0099
 5218SOL     OW27286   4.657   2.627   8.750  0.2904 -0.2463  0.2465
 5218SOL    HW127287   4.677   2.694   8.685  0.6846 -1.2299 -0.6663
 5218SOL    HW227288   0.002   2.606   8.789  0.8485  1.9260  0.1764
 5219SOL     OW27289   3.827   4.651  13.125  0.6274 -0.3715  0.4653
 5219SOL    HW127290   3.903   4.621  13.076 -0.2085 -2.2007  0.2849
 5219SOL    HW227291   3.764   4.642  13.053 -0.2944 -2.6815  1.5731
 5220SOL     OW27292   3.613   2.017   6.873 -0.4713 -0.5872  0.2709
 5220SOL    HW127293   3.599   2.004   6.966 -0.2267 -0.1066  0.3711
 5220SOL    HW227294   3.568   1.945   6.828 -0.5184 -0.4694  0.1303
 5221SOL     OW27295   4.013   4.371  12.150  0.7786  0.0746  0.2084
 5221SOL    HW127296   4.086   4.344  12.095  0.9008 -1.1237  0.9548
 5221SOL    HW227297   4.024   4.313  12.225  0.4448  2.9419  2.4872
 5222SOL     OW27298   0.294   1.635   3.472 -0.1253  0.4708 -0.9050
 5222SOL    HW127299   0.307   1.685   3.553 -0.1966  1.3911 -1.4625
 5222SOL    HW227300   0.383   1.613   3.445  0.0322 -0.4991  0.3931
 5223SOL     OW27301   3.106   2.794  15.115  0.3570 -0.2929  0.0382
 5223SOL    HW127302   3.136   2.751  15.035 -0.9603 -0.7682 -0.1977
 5223SOL    HW227303   3.034   2.733  15.131  1.6153 -1.5266  1.0369
 5224SOL     OW27304   2.878   1.099   9.385  0.2390 -0.4146 -0.4672
 5224SOL    HW127305   2.942   1.099   9.314 -0.8905  0.7306 -1.4798
 5224SOL    HW227306   2.819   1.160   9.339 -1.2826 -0.1226  1.9109
 5225SOL     OW27307   3.894   0.146   6.577  0.0296  0.3195 -0.4992
 5225SOL    HW127308   3.836   0.135   6.501  0.5067  1.6270 -1.0589
 5225SOL    HW227309   3.837   0.102   6.640  0.0925  1.6797  0.5180
 5226SOL     OW27310   1.982   3.407  15.728 -0.1523 -0.0133 -0.2901
 5226SOL    HW127311   1.949   3.318  15.738  1.9284 -0.6924  0.4140
 5226SOL    HW227312   2.070   3.399  15.765 -1.1626 -1.2906  1.8536
 5227SOL     OW27313   3.875   4.318   8.907 -0.0727 -0.4813  0.5060
 5227SOL    HW127314   3.786   4.306   8.938  0.3447  0.0012  1.9062
 5227SOL    HW227315   3.926   4.256   8.959 -1.2044  0.6111  2.9254
 5228SOL     OW27316   3.636   2.541   9.489 -0.2712  0.5826 -0.2137
 5228SOL    HW127317   3.683   2.458   9.492  1.1396  1.3029 -2.2234
 5228SOL    HW227318   3.707   2.594   9.526  0.3985 -0.4299 -0.0633
 5229SOL     OW27319   3.057   3.313   8.493 -0.5132 -0.2768 -0.1201
 5229SOL    HW127320   2.986   3.257   8.461 -0.8464  0.1463 -0.1209
 5229SOL    HW227321   3.070   3.269   8.577  2.1530 -0.4092 -0.6207
 5230SOL     OW27322   0.124   4.036  12.584  0.9285 -0.5323 -0.0553
 5230SOL    HW127323   0.097   3.949  12.615  1.6048 -0.0877  1.7983
 5230SOL    HW227324   0.197   4.048  12.645  0.9488 -2.2473  0.2523
 5231SOL     OW27325   1.694   0.171   4.741  0.2707 -0.0551  0.4619
 5231SOL    HW127326   1.692   0.264   4.720  0.4245 -0.2884 -0.5671
 5231SOL    HW227327   1.687   0.176   4.837  0.5964 -1.8684  0.5852
 5232SOL     OW27328   1.515   1.387   4.572  0.4475 -0.2106 -0.4738
 5232SOL    HW127329   1.596   1.377   4.623  1.0334  0.4309 -1.2850
 5232SOL    HW227330   1.519   1.481   4.555 -1.1100 -0.3399 -1.5094
 5233SOL     OW27331   4.434   1.161  14.560  0.0374  0.3703  0.2910
 5233SOL    HW127332   4.473   1.234  14.512  1.8088  0.1174  1.3087
 5233SOL    HW227333   4.341   1.169  14.541 -0.1397 -0.1679  0.9123
 5234SOL     OW27334   3.316   4.572  14.133 -0.2750 -0.3523 -0.2004
 5234SOL    HW127335   3.237   4.526  14.107  0.8693 -3.5347  1.9208
 5234SOL    HW227336   3.376   4.500  14.113 -2.1294 -1.8960 -0.2103
 5235SOL     OW27337   2.719   3.781  16.703 -0.3815  0.4767 -0.3610
 5235SOL    HW127338   2.627   3.803  16.687 -0.9369 -1.4687  0.1493
 5235SOL    HW227339   2.720   3.693  16.665  1.5738  0.4095 -0.1497
 5236SOL     OW27340   1.797   4.034   3.313  0.3997  0.7857  0.6441
 5236SOL    HW127341   1.773   4.087   3.237  0.9156  0.8251  0.5024
 5236SOL    HW227342   1.760   4.083   3.386 -0.0981  0.4182  0.6400
 5237SOL     OW27343   4.601   3.575   1.936 -0.0463  0.1046  0.1969
 5237SOL    HW127344   4.522   3.536   1.972 -0.3972 -0.1945 -0.8898
 5237SOL    HW227345   4.584   3.667   1.958 -0.7810 -0.6099  2.6152
 5238SOL     OW27346   1.976   2.723   2.483  0.2244 -0.0412  0.0347
 5238SOL    HW127347   2.036   2.750   2.552 -2.0513  0.7867  1.6895
 5238SOL    HW227348   1.992   2.792   2.419 -2.0356 -2.0791 -2.7600
 5239SOL     OW27349   2.432   4.484   7.695  0.4999 -0.5997 -0.1472
 5239SOL    HW127350   2.483   4.528   7.627  1.7842  1.0974  1.9151
 5239SOL    HW227351   2.467   4.395   7.702  1.2694 -0.2910 -0.0469
 5240SOL     OW27352   2.305   2.186   8.373  0.2371  0.0057 -0.7178
 5240SOL    HW127353   2.374   2.130   8.408 -0.0200 -1.2260 -2.1925
 5240SOL    HW227354   2.315   2.251   8.443  1.5739 -1.3392  0.3334
 5241SOL     OW27355   3.658   2.559  15.693 -0.0792 -0.7344  0.3601
 5241SOL    HW127356   3.661   2.529  15.602  0.2383  1.8574 -0.4729
 5241SOL    HW227357   3.565   2.583  15.689  0.6019  1.6975 -0.6551
 5242SOL     OW27358   0.071   3.803   6.319 -0.5614  0.0746 -0.3160
 5242SOL    HW127359   0.026   3.732   6.274 -0.3800 -0.0257 -0.3420
 5242SOL    HW227360   4.737   3.863   6.330  0.0831  0.5131  1.6474
 5243SOL     OW27361   1.136   1.317   6.267 -0.2398 -0.1686 -0.0249
 5243SOL    HW127362   1.072   1.324   6.195  1.8393  3.1195 -1.5719
 5243SOL    HW227363   1.130   1.226   6.293  0.5932 -1.0677 -2.9905
 5244SOL     OW27364   0.909   3.537   5.902 -0.2019  0.4163  0.2327
 5244SOL    HW127365   0.851   3.571   5.833  1.4631  0.5358 -1.1105
 5244SOL    HW227366   0.882   3.585   5.980 -0.2573  0.6742  0.0569
 5245SOL     OW27367   2.129   4.476  17.523  0.2089 -0.1168  0.2011
 5245SOL    HW127368   2.124   4.561  17.566 -0.8254 -0.9846  1.8026
 5245SOL    HW227369   2.034   4.466  17.514  0.4377 -1.5010 -0.6774
 5246SOL     OW27370   3.914   3.235   8.022  0.3316 -0.2126  0.1919
 5246SOL    HW127371   3.938   3.323   8.054 -1.8680  0.3833  0.1968
 5246SOL    HW227372   3.832   3.215   8.067 -2.0082  0.8873 -3.5475
 5247SOL     OW27373   0.651   0.490   8.660 -0.0848 -0.5457  0.2899
 5247SOL    HW127374   0.728   0.436   8.641  0.2676  0.5227 -1.3253
 5247SOL    HW227375   0.672   0.582   8.671  2.3820 -1.0704 -0.1464
 5248SOL     OW27376   2.783   4.567   1.633 -0.2965  0.2086  0.5463
 5248SOL    HW127377   2.849   4.628   1.669  1.1592 -1.0760  0.0380
 5248SOL    HW227378   2.811   4.481   1.665 -1.4951 -0.1049  0.7367
 5249SOL     OW27379   2.400   3.754   1.331 -0.8617  0.2257 -0.2566
 5249SOL    HW127380   2.388   3.840   1.370  0.3311  0.7714 -1.0571
 5249SOL    HW227381   2.401   3.783   1.239  1.3106  0.8588 -0.0291
 5250SOL     OW27382   1.494   2.592   5.476 -0.1981  0.0986  0.3869
 5250SOL    HW127383   1.399   2.604   5.483 -0.2581  0.1580 -0.5489
 5250SOL    HW227384   1.490   2.503   5.443  1.4620  0.2644 -0.2805
 5251SOL     OW27385   0.305   0.784   7.703 -0.6712  0.4235  0.3589
 5251SOL    HW127386   0.223   0.741   7.725 -0.5677  0.5705  1.0321
 5251SOL    HW227387   0.278   0.833   7.626 -0.6505  0.3011  0.2744
 5252SOL     OW27388   3.663   3.787  14.241 -0.0163  0.2849 -0.5192
 5252SOL    HW127389   3.748   3.745  14.227 -0.9507 -2.0574  0.8944
 5252SOL    HW227390   3.700   3.850  14.302  0.4976  0.8646 -1.4363
 5253SOL     OW27391   3.023   2.843  10.305  0.3324 -0.0969 -0.1848
 5253SOL    HW127392   3.062   2.930  10.309  0.8166 -0.2852 -0.8578
 5253SOL    HW227393   3.044   2.800  10.388  1.4206  2.0241  0.6381
 5254SOL     OW27394   0.496   3.178   9.918  0.4399  0.2017 -0.2068
 5254SOL    HW127395   0.485   3.166   9.824  3.8543  0.8661 -0.6870
 5254SOL    HW227396   0.559   3.111   9.944 -1.7698 -2.5935 -2.0764
 5255SOL     OW27397   4.093   0.244  14.867 -0.1270  0.3741  0.3082
 5255SOL    HW127398   4.184   0.268  14.884  1.4384 -4.2671 -1.3575
 5255SOL    HW227399   4.067   0.193  14.944  0.4116  0.5190  0.5846
 5256SOL     OW27400   4.173   2.532   2.900  0.4013 -0.8696  0.3030
 5256SOL    HW127401   4.128   2.525   2.984  0.9483  1.3143  0.7811
 5256SOL    HW227402   4.140   2.460   2.845  0.9007  0.4522 -1.7253
 5257SOL     OW27403   2.916   1.740   5.544  0.7260 -0.9115  0.3786
 5257SOL    HW127404   2.994   1.790   5.567 -1.4382  2.4208  0.5499
 5257SOL    HW227405   2.945   1.649   5.555  2.4440 -0.5147 -1.0387
 5258SOL     OW27406   3.322   1.393   2.012 -0.4835  0.7376  0.4220
 5258SOL    HW127407   3.325   1.299   2.027 -0.0471  0.7035  0.1157
 5258SOL    HW227408   3.248   1.409   2.071  0.1944  1.5821  1.0340
 5259SOL     OW27409   0.139   2.243   7.080 -0.3321  0.0052  0.3030
 5259SOL    HW127410   0.192   2.276   7.153  2.2361 -0.9678 -1.1537
 5259SOL    HW227411   0.113   2.328   7.044 -0.7584 -0.1611  0.2217
 5260SOL     OW27412   3.259   3.117   1.984 -0.4065  0.3844  0.2035
 5260SOL    HW127413   3.168   3.143   2.000  0.1305  2.0992  0.4113
 5260SOL    HW227414   3.250   3.022   1.972 -1.3365  0.4054  0.7015
 5261SOL     OW27415   0.131   3.410   4.836 -0.6435 -0.2565 -0.4829
 5261SOL    HW127416   0.116   3.318   4.813 -0.5578 -0.0314 -1.4360
 5261SOL    HW227417   0.104   3.449   4.754  2.7374  2.0033 -0.5271
 5262SOL     OW27418   0.756   0.857   2.307 -0.5304 -0.2175 -0.3850
 5262SOL    HW127419   0.824   0.825   2.365 -1.2467 -2.7126 -0.9054
 5262SOL    HW227420   0.682   0.819   2.354 -0.1814  0.9359  1.0870
 5263SOL     OW27421   1.170   0.512   8.701  0.1367 -0.1359 -0.3714
 5263SOL    HW127422   1.237   0.580   8.703  2.0311 -1.9957 -0.3439
 5263SOL    HW227423   1.200   0.463   8.624 -0.7979  0.0102 -0.8288
 5264SOL     OW27424   0.257   1.751  11.057 -0.3399  0.1465 -0.1370
 5264SOL    HW127425   0.292   1.834  11.026  0.6004 -0.5018 -0.7937
 5264SOL    HW227426   0.272   1.766  11.151 -1.6416  2.9357 -0.3801
 5265SOL     OW27427   1.345   0.790   0.433  0.2238  0.3811  0.4136
 5265SOL    HW127428   1.263   0.810   0.388  0.9156 -2.8416 -2.2762
 5265SOL    HW227429   1.404   0.842   0.378 -2.0733  3.4878  0.8761
 5266SOL     OW27430   2.689   1.229   7.603 -0.0435 -0.4637 -0.2389
 5266SOL    HW127431   2.707   1.135   7.598 -2.7491 -0.9422 -1.1197
 5266SOL    HW227432   2.708   1.260   7.514 -1.9516 -1.4522 -0.9742
 5267SOL     OW27433   0.804   1.560   9.095 -0.7110  0.6741 -0.2610
 5267SOL    HW127434   0.842   1.644   9.072 -3.5453  1.7126 -1.0984
 5267SOL    HW227435   0.849   1.528   9.173 -3.1279  2.0323  1.6744
 5268SOL     OW27436   0.267   3.696  16.975  0.3158 -0.1215  0.2354
 5268SOL    HW127437   0.256   3.652  17.059 -0.6069  1.1767  0.8082
 5268SOL    HW227438   0.362   3.692  16.959  0.2113 -1.9458  0.1413
 5269SOL     OW27439   4.415   2.505   8.468 -0.5410 -0.0610  0.2552
 5269SOL    HW127440   4.425   2.488   8.562  0.4773  1.4031  0.4134
 5269SOL    HW227441   4.454   2.592   8.461 -0.9694  0.0502 -0.7287
 5270SOL     OW27442   2.680   4.689  14.920 -0.0582  0.0229 -0.4107
 5270SOL    HW127443   2.693   4.692  15.015 -0.1979  0.3966 -0.4015
 5270SOL    HW227444   2.627   4.609  14.920 -1.5021  0.9794  1.4959
 5271SOL     OW27445   0.135   1.896  10.140 -0.1062 -0.1318  0.7941
 5271SOL    HW127446   0.045   1.923  10.125  0.5639  1.7304  0.1408
 5271SOL    HW227447   0.133   1.804  10.166 -0.4435 -0.9024 -1.9447
 5272SOL     OW27448   0.498   0.476  11.411  0.0738  0.1300  0.4872
 5272SOL    HW127449   0.560   0.439  11.473 -1.9180 -3.1879  0.5367
 5272SOL    HW227450   0.485   0.402  11.351  0.3217 -0.7029  1.4720
 5273SOL     OW27451   0.789   0.608   5.475 -0.2560 -1.0741 -0.3245
 5273SOL    HW127452   0.882   0.620   5.494  0.1739 -0.3001 -2.8926
 5273SOL    HW227453   0.781   0.682   5.415 -1.3521 -0.7253  0.2513
 5274SOL     OW27454   3.383   2.927   9.130 -0.3068  0.3628  0.5807
 5274SOL    HW127455   3.367   2.871   9.055  1.6160  0.4139  0.1210
 5274SOL    HW227456   3.438   2.868   9.182 -0.2159  1.8878  2.2541
 5275SOL     OW27457   2.746   4.698   8.845 -0.3660  0.3803  0.1615
 5275SOL    HW127458   2.817   4.645   8.880  0.5609  2.5014  1.4589
 5275SOL    HW227459   2.714   4.636   8.778 -1.2359 -0.6582  1.5322
 5276SOL     OW27460   2.201   3.361  13.399 -0.2604 -0.5171 -0.1870
 5276SOL    HW127461   2.197   3.451  13.431  0.6425 -1.3145  2.1292
 5276SOL    HW227462   2.280   3.364  13.346  1.3058  0.2136  2.2250
 5277SOL     OW27463   0.891   2.087   6.849  0.4391  0.7948 -0.2540
 5277SOL    HW127464   0.970   2.039   6.824  0.6443  1.0970 -0.1776
 5277SOL    HW227465   0.934   2.169   6.869  1.6599  0.1874 -0.4117
 5278SOL     OW27466   2.565   3.951  14.613  0.2176  0.8123  0.0276
 5278SOL    HW127467   2.501   4.021  14.618  1.5305  2.1047 -1.3759
 5278SOL    HW227468   2.590   3.966  14.522 -0.1388  0.7239 -0.0837
 5279SOL     OW27469   0.549   4.692   7.771 -0.8245  0.2355  0.3832
 5279SOL    HW127470   0.465   4.719   7.734 -1.3773 -2.1692 -0.0626
 5279SOL    HW227471   0.536   4.708   7.864  3.1171 -2.2521  1.3670
 5280SOL     OW27472   2.957   4.455  11.913 -0.0542 -0.2247  0.0232
 5280SOL    HW127473   2.892   4.386  11.899  0.1680 -0.6244  0.9507
 5280SOL    HW227474   3.004   4.424  11.990 -0.6426 -0.4142  0.3071
 5281SOL     OW27475   3.174   4.608   1.109  0.3594 -0.3376  0.1660
 5281SOL    HW127476   3.082   4.628   1.090  1.2145  1.0563 -2.5412
 5281SOL    HW227477   3.162   4.559   1.190  1.0755 -0.0820  0.4241
 5282SOL     OW27478   3.545   0.396   9.514  0.3106 -0.0231 -0.4202
 5282SOL    HW127479   3.522   0.310   9.478 -0.7772 -0.4160  1.2209
 5282SOL    HW227480   3.494   0.405   9.595  0.0184 -1.2370 -0.4669
 5283SOL     OW27481   3.863   1.131   9.232  0.5957 -0.4805 -0.0082
 5283SOL    HW127482   3.784   1.081   9.256 -0.0705  0.2569 -0.6639
 5283SOL    HW227483   3.869   1.120   9.138  0.8192  0.4753 -0.1041
 5284SOL     OW27484   3.487   2.018  12.876 -0.0342  0.3935 -0.2649
 5284SOL    HW127485   3.427   1.999  12.948  0.9879  1.8251  0.9593
 5284SOL    HW227486   3.467   1.940  12.824  0.4957 -0.1298  0.3056
 5285SOL     OW27487   3.230   3.140   9.714 -0.0926  0.1292 -0.1923
 5285SOL    HW127488   3.239   3.141   9.619 -0.2610 -1.2888 -0.2233
 5285SOL    HW227489   3.219   3.047   9.733 -0.1628  0.7209  2.6805
 5286SOL     OW27490   0.455   3.102   4.305 -0.2015 -0.4166 -0.1271
 5286SOL    HW127491   0.486   3.193   4.304 -0.0602 -0.4602  0.5564
 5286SOL    HW227492   0.477   3.065   4.390  0.5336 -1.5719 -0.8206
 5287SOL     OW27493   1.257   4.366   7.250 -0.1431  0.2273 -0.3619
 5287SOL    HW127494   1.191   4.364   7.320  1.4051  0.6746  1.0992
 5287SOL    HW227495   1.211   4.364   7.166  2.4390  1.0350 -1.7859
 5288SOL     OW27496   3.120   4.603  11.761  0.3214  0.1564  0.1425
 5288SOL    HW127497   3.070   4.539  11.812  1.1555 -0.0556  0.6938
 5288SOL    HW227498   3.204   4.583  11.801  1.4044 -0.9631 -2.6976
 5289SOL     OW27499   2.992   4.507   0.039  0.3531  0.1079 -0.3114
 5289SOL    HW127500   2.913   4.467   0.074 -0.6876  1.1191 -1.5452
 5289SOL    HW227501   3.021   4.565   0.109 -0.8102  1.7261 -1.2002
 5290SOL     OW27502   0.861   3.498  12.638  0.1082 -1.1129  0.0386
 5290SOL    HW127503   0.897   3.453  12.561  1.0082  0.1088 -0.2500
 5290SOL    HW227504   0.795   3.432  12.658  1.0296 -1.6959  1.2288
 5291SOL     OW27505   0.511   0.437   1.840  0.5366 -0.6181 -0.1191
 5291SOL    HW127506   0.476   0.511   1.890  2.1120  1.4142 -2.0092
 5291SOL    HW227507   0.440   0.373   1.845  0.0155  0.1496  2.4263
 5292SOL     OW27508   3.478   2.414   4.915 -0.1156  0.3630 -0.0002
 5292SOL    HW127509   3.553   2.355   4.902 -0.9416 -0.7490  0.2283
 5292SOL    HW227510   3.497   2.481   4.849 -2.0706 -0.6509 -1.5999
 5293SOL     OW27511   1.339   2.187   8.332  0.2686  0.1468 -0.7972
 5293SOL    HW127512   1.370   2.106   8.290 -2.3503 -0.7380 -1.0431
 5293SOL    HW227513   1.423   2.219   8.366  1.8159 -4.7085  0.0011
 5294SOL     OW27514   4.182   2.835   3.565 -0.2724 -0.1124  0.3019
 5294SOL    HW127515   4.267   2.791   3.554  0.7711  2.2738 -1.0912
 5294SOL    HW227516   4.132   2.753   3.577 -0.4636 -0.0135  0.1772
 5295SOL     OW27517   1.749   2.328   9.643  0.4484  0.0026  0.4710
 5295SOL    HW127518   1.840   2.301   9.626  0.5704 -0.0666  1.2412
 5295SOL    HW227519   1.706   2.306   9.561  0.3510  0.3861  0.4152
 5296SOL     OW27520   2.530   0.054   6.768 -0.4372  0.2212  0.3639
 5296SOL    HW127521   2.471   0.104   6.711 -1.0966 -0.8048  0.1532
 5296SOL    HW227522   2.589   0.006   6.710  0.4811 -1.4937  2.7195
 5297SOL     OW27523   2.202   3.088   5.376 -0.3996  0.4577  0.1882
 5297SOL    HW127524   2.250   3.095   5.293  3.2301 -1.3871  2.1081
 5297SOL    HW227525   2.238   3.008   5.414  0.4440  0.5642 -0.3684
 5298SOL     OW27526   1.497   4.192   8.965  0.1131  0.3325 -0.0892
 5298SOL    HW127527   1.575   4.152   8.928 -0.9158 -1.1478 -0.6895
 5298SOL    HW227528   1.524   4.267   9.017 -0.5067 -0.5442  1.5152
 5299SOL     OW27529   0.187   4.170   6.564  0.3408  0.6842  0.4679
 5299SOL    HW127530   0.196   4.105   6.494  1.7721  0.1518  1.1338
 5299SOL    HW227531   0.272   4.213   6.559  0.2592  0.7042 -0.7807
 5300SOL     OW27532   3.293   3.300   4.900 -0.2613  0.7901 -0.2204
 5300SOL    HW127533   3.244   3.228   4.862  1.4147 -2.0566  2.9511
 5300SOL    HW227534   3.313   3.279   4.991 -1.4774  2.8074  0.5086
 5301SOL     OW27535   1.680   4.050  15.095  0.0604  0.6701  0.4526
 5301SOL    HW127536   1.598   4.096  15.110  1.3234  2.7108  1.0776
 5301SOL    HW227537   1.700   4.067  15.003 -1.3425  1.5673  0.3233
 5302SOL     OW27538   4.140   1.688   5.020 -0.8585  0.4521  0.2245
 5302SOL    HW127539   4.097   1.620   5.072 -0.3525 -1.6126 -2.0651
 5302SOL    HW227540   4.217   1.717   5.070 -0.8622 -2.6451  2.0358
 5303SOL     OW27541   0.843   1.369   3.248 -0.2033  0.1687 -0.1358
 5303SOL    HW127542   0.868   1.455   3.214 -1.6073  0.8341  0.5117
 5303SOL    HW227543   0.821   1.387   3.339 -2.7029  0.6839 -0.8490
 5304SOL     OW27544   3.608   2.324   8.385  0.2741 -0.4032  0.0822
 5304SOL    HW127545   3.595   2.323   8.480 -0.4269 -2.5044 -0.0352
 5304SOL    HW227546   3.551   2.251   8.360 -0.8473  1.0391 -1.5811
 5305SOL     OW27547   3.782   2.815   9.858 -0.1900 -0.0403  0.7249
 5305SOL    HW127548   3.854   2.769   9.816 -0.7497  1.9222 -2.3412
 5305SOL    HW227549   3.823   2.851   9.937 -0.0264  2.2800 -0.4290
 5306SOL     OW27550   0.621   3.855   6.371  0.2647  0.1146 -0.3324
 5306SOL    HW127551   0.625   3.943   6.408  1.1749 -0.2795  0.5218
 5306SOL    HW227552   0.707   3.817   6.393  0.5141 -0.0059 -1.5058
 5307SOL     OW27553   1.605   1.938   5.828  0.2319 -0.7186  0.3687
 5307SOL    HW127554   1.542   1.877   5.790  0.4755 -1.1458  0.6526
 5307SOL    HW227555   1.584   1.918   5.920 -0.7253 -2.0223 -0.1361
 5308SOL     OW27556   3.008   2.991   2.856  0.1942  0.5661  0.4081
 5308SOL    HW127557   3.082   3.030   2.808  0.9327 -2.7912 -1.2262
 5308SOL    HW227558   3.002   3.062   2.919 -3.0558  0.4670  0.2038
 5309SOL     OW27559   0.156   0.306   6.285 -0.0419  0.6128 -0.5630
 5309SOL    HW127560   0.224   0.324   6.220  0.3917  2.1894  0.3228
 5309SOL    HW227561   0.200   0.247   6.346 -1.2950  0.9152  0.6379
 5310SOL     OW27562   4.373   2.173   4.440  0.1042 -0.7133  0.2883
 5310SOL    HW127563   4.314   2.173   4.516 -1.2875 -2.4416 -0.7977
 5310SOL    HW227564   4.448   2.214   4.484  1.1859 -0.7517 -1.5349
 5311SOL     OW27565   0.304   4.411   7.015 -0.0739 -1.0291 -0.0959
 5311SOL    HW127566   0.269   4.345   7.075  0.3594 -0.9968  0.1998
 5311SOL    HW227567   0.274   4.373   6.933  1.6739 -1.1907 -0.6673
 5312SOL     OW27568   2.048   3.649  12.262 -0.6400 -0.1399  0.2069
 5312SOL    HW127569   2.008   3.668  12.178 -2.2707 -2.5300  0.4468
 5312SOL    HW227570   1.976   3.607  12.308  0.3863 -0.0202  1.9577
 5313SOL     OW27571   0.631   1.932   2.136  0.2450  0.3036  0.2790
 5313SOL    HW127572   0.675   1.864   2.086 -1.6477 -0.4517 -0.3586
 5313SOL    HW227573   0.590   1.875   2.202  2.9423 -0.2793  1.4530
 5314SOL     OW27574   2.647   1.444   9.385 -0.1855  0.0223  0.0940
 5314SOL    HW127575   2.711   1.372   9.377 -1.7917 -1.4861  0.8677
 5314SOL    HW227576   2.598   1.417   9.462  2.5807 -2.7893  0.8698
 5315SOL     OW27577   3.649   3.696   3.873  0.5637 -0.5060 -0.3279
 5315SOL    HW127578   3.662   3.790   3.862 -0.9885 -0.3241 -0.6745
 5315SOL    HW227579   3.737   3.669   3.898  0.7082  0.8311  0.5401
 5316SOL     OW27580   1.972   0.298  13.644  0.3957 -0.5905  0.1279
 5316SOL    HW127581   1.924   0.357  13.586 -0.9922 -1.5713  0.2574
 5316SOL    HW227582   2.054   0.314  13.598 -0.2012 -2.0150 -1.4708
 5317SOL     OW27583   2.557   1.322   4.474 -0.2516 -0.2609  0.5077
 5317SOL    HW127584   2.648   1.295   4.486  0.0228  0.0041 -0.9047
 5317SOL    HW227585   2.552   1.333   4.379  2.2401 -1.1650  0.2581
 5318SOL     OW27586   2.774   4.468   2.217  1.3930 -0.0620 -0.3336
 5318SOL    HW127587   2.861   4.462   2.256  1.3057  2.6460  0.2551
 5318SOL    HW227588   2.789   4.482   2.124  0.1017 -0.4452 -0.5988
 5319SOL     OW27589   4.159   2.983  15.634  0.4734 -0.1214  0.4610
 5319SOL    HW127590   4.226   2.964  15.568 -0.5064 -0.4411 -0.4384
 5319SOL    HW227591   4.180   3.071  15.666 -1.0949 -0.4031  2.2916
 5320SOL     OW27592   0.556   1.399   6.933  0.2023  0.0558 -0.3705
 5320SOL    HW127593   0.550   1.438   6.846  2.3501 -0.1975 -0.6465
 5320SOL    HW227594   0.493   1.442   6.990  0.6006  1.2794 -0.8659
 5321SOL     OW27595   4.728   1.190  16.123  0.7746 -0.0245 -0.5522
 5321SOL    HW127596   0.008   1.206  16.031 -2.1366  1.3996 -0.9301
 5321SOL    HW227597   4.669   1.114  16.121  0.1578  0.4858 -2.0260
 5322SOL     OW27598   3.341   1.129  14.939  0.2916 -0.3171 -0.3980
 5322SOL    HW127599   3.255   1.171  14.942 -0.6824 -2.0005 -4.1404
 5322SOL    HW227600   3.360   1.141  14.846  0.9650 -0.3168 -0.2568
 5323SOL     OW27601   4.539   0.131   9.712  0.2984  0.1313 -0.3011
 5323SOL    HW127602   4.450   0.149   9.743 -0.1524 -1.4361 -0.6608
 5323SOL    HW227603   4.592   0.160   9.786 -0.1173 -0.0764  0.0809
 5324SOL     OW27604   1.904   0.862  13.503  0.4525  0.1396 -0.1687
 5324SOL    HW127605   1.880   0.929  13.439  0.5837  0.8695  0.5486
 5324SOL    HW227606   1.858   0.881  13.585 -1.8257 -1.1340 -1.1483
 5325SOL     OW27607   3.038   3.817  17.581 -0.3828 -0.0889 -0.2211
 5325SOL    HW127608   2.962   3.764  17.557  0.2826 -1.0770 -0.1465
 5325SOL    HW227609   3.011   3.905  17.553 -0.9854 -0.6868 -1.5590
 5326SOL     OW27610   3.067   1.451   6.268 -0.1215  0.1603  0.0835
 5326SOL    HW127611   3.137   1.515   6.284 -0.7873  0.9428 -0.0853
 5326SOL    HW227612   3.105   1.408   6.191 -1.1893  2.8408 -1.9598
 5327SOL     OW27613   0.600   2.830   0.383  0.2437 -0.8466  0.6830
 5327SOL    HW127614   0.535   2.825   0.452  0.8921 -0.4557  1.3246
 5327SOL    HW227615   0.556   2.793   0.307 -0.4816  1.1661  0.1185
 5328SOL     OW27616   4.719   1.190  13.935 -0.1878 -0.5483  0.4312
 5328SOL    HW127617   0.073   1.179  13.915 -0.7082  1.5873 -3.0722
 5328SOL    HW227618   4.706   1.284  13.935  1.5298 -0.3072 -2.0515
 5329SOL     OW27619   0.343   1.923  12.676 -0.6226  0.3252 -0.0129
 5329SOL    HW127620   0.431   1.886  12.672 -0.2965  1.2766 -1.5819
 5329SOL    HW227621   0.334   1.930  12.771  2.4253  1.2803  0.1775
 5330SOL     OW27622   2.606   4.047  12.435  0.0754 -0.0608 -0.5022
 5330SOL    HW127623   2.550   4.003  12.371  1.1130 -0.5528 -1.0740
 5330SOL    HW227624   2.547   4.116  12.467  0.1541  0.4803 -1.5242
 5331SOL     OW27625   3.945   3.409   2.089  0.0654 -0.1088  0.5450
 5331SOL    HW127626   4.028   3.416   2.042 -1.1559 -1.8423 -1.8512
 5331SOL    HW227627   3.941   3.501   2.115  0.3373  0.3772 -1.1859
 5332SOL     OW27628   3.069   2.326   8.654  0.1589  0.4666  0.0058
 5332SOL    HW127629   3.095   2.343   8.564  1.1738  0.3868  0.2724
 5332SOL    HW227630   3.003   2.257   8.643  2.3398 -1.4747 -0.9608
 5333SOL     OW27631   4.499   2.311  12.086  0.1453 -0.0466 -0.1211
 5333SOL    HW127632   4.504   2.290  12.179  1.0008 -1.0146 -0.3929
 5333SOL    HW227633   4.439   2.242  12.057  0.7501 -0.6318  0.0488
 5334SOL     OW27634   2.359   0.358  11.665  0.0797 -0.0914 -0.3958
 5334SOL    HW127635   2.441   0.319  11.695  0.4433  0.8926 -0.1353
 5334SOL    HW227636   2.388   0.383  11.577 -1.3833 -0.9984 -1.1341
 5335SOL     OW27637   1.775   0.843  11.041  0.1357  0.0354  0.2000
 5335SOL    HW127638   1.841   0.881  10.983 -1.7858  0.8359 -1.4674
 5335SOL    HW227639   1.811   0.868  11.126  1.8930 -0.0969 -0.5144
 5336SOL     OW27640   1.756   3.704  11.648  0.2563  0.0783 -0.0211
 5336SOL    HW127641   1.729   3.613  11.650  1.1495 -0.2081 -1.2201
 5336SOL    HW227642   1.838   3.697  11.697  0.0345  0.0585  0.3500
 5337SOL     OW27643   4.632   4.642  15.962  0.1891  0.2676  0.0871
 5337SOL    HW127644   4.615   4.610  15.873 -2.1607  1.6329  0.0453
 5337SOL    HW227645   4.570   4.711  15.985 -0.7400  0.0867 -1.8377
 5338SOL     OW27646   0.747   3.721   3.194 -0.6270  0.3474  0.8563
 5338SOL    HW127647   0.702   3.671   3.263 -0.1289 -2.0836 -0.5719
 5338SOL    HW227648   0.833   3.680   3.187 -1.6704 -1.7182  0.0901
 5339SOL     OW27649   4.058   1.508   3.397  0.1889 -0.6281  0.0981
 5339SOL    HW127650   4.007   1.435   3.432  0.8304 -0.8546  0.5683
 5339SOL    HW227651   4.004   1.582   3.427  0.5864 -0.9983  1.7035
 5340SOL     OW27652   3.171   4.151   0.076  0.0508  0.0969  0.1377
 5340SOL    HW127653   3.213   4.138   0.161  2.7216 -1.5240 -1.4621
 5340SOL    HW227654   3.215   4.084   0.024  1.1866 -0.8826  2.3754
 5341SOL     OW27655   0.912   2.741   7.708  0.2346 -0.6489 -0.5847
 5341SOL    HW127656   0.857   2.685   7.764 -1.4720  0.8106 -0.8186
 5341SOL    HW227657   0.848   2.796   7.664  0.2940  1.1947  1.5965
 5342SOL     OW27658   2.790   4.169   1.515 -0.5753  0.5813 -0.0971
 5342SOL    HW127659   2.748   4.120   1.445 -0.0141  0.9607 -0.7037
 5342SOL    HW227660   2.760   4.259   1.503 -0.1324  0.9371  1.3940
 5343SOL     OW27661   1.516   2.744   7.980  0.2602 -0.4547  0.1587
 5343SOL    HW127662   1.443   2.804   7.966  0.6896 -0.2352 -1.0853
 5343SOL    HW227663   1.576   2.803   8.026  0.6394 -0.7956  0.1024
 5344SOL     OW27664   3.047   1.019   9.181 -0.2088  0.4192  0.1680
 5344SOL    HW127665   3.054   1.041   9.088 -2.0219 -0.1901 -0.1251
 5344SOL    HW227666   3.137   1.007   9.209  0.5304  1.7566 -1.6677
 5345SOL     OW27667   3.817   3.908   2.685  0.0937  0.1694  0.3847
 5345SOL    HW127668   3.807   3.885   2.777  0.5646 -0.6206  0.2432
 5345SOL    HW227669   3.726   3.914   2.656  0.1643 -1.2415 -0.1238
 5346SOL     OW27670   4.069   3.519   6.892 -0.1213 -0.4830 -0.6701
 5346SOL    HW127671   4.120   3.455   6.940  0.9111 -0.7068 -2.0422
 5346SOL    HW227672   4.020   3.576   6.952  0.2408  0.5126 -1.3219
 5347SOL     OW27673   3.447   2.213   4.518 -0.8303 -0.2237 -0.3077
 5347SOL    HW127674   3.449   2.145   4.585  0.3294  0.6561  0.5525
 5347SOL    HW227675   3.478   2.292   4.563 -0.5676 -0.5230  0.0279
 5348SOL     OW27676   1.748   3.443  16.226  0.1778  0.2654 -0.2065
 5348SOL    HW127677   1.840   3.420  16.233 -0.4505 -2.2169  0.2030
 5348SOL    HW227678   1.770   3.534  16.243  0.8670 -0.4279  2.7175
 5349SOL     OW27679   2.022   0.394   6.614  0.4628 -0.2808  0.0501
 5349SOL    HW127680   2.043   0.455   6.685  0.7284  0.6104 -0.7873
 5349SOL    HW227681   2.074   0.322   6.649  2.6669  0.3212 -2.0011
 5350SOL     OW27682   1.168   3.462   3.917  0.4341  0.1255  0.4176
 5350SOL    HW127683   1.154   3.506   4.000 -1.2804 -1.1887  0.8234
 5350SOL    HW227684   1.202   3.533   3.863 -0.2576  0.3618  0.2955
 5351SOL     OW27685   2.719   1.435  15.955 -0.0511 -0.0629 -0.0759
 5351SOL    HW127686   2.754   1.512  15.912  0.6736 -0.5304 -0.3284
 5351SOL    HW227687   2.656   1.483  16.008 -2.0275 -2.0984 -0.5747
 5352SOL     OW27688   2.451   2.227   6.353  0.6952 -0.1225 -0.0723
 5352SOL    HW127689   2.526   2.265   6.399 -1.3109  1.6851  1.6869
 5352SOL    HW227690   2.378   2.273   6.394 -0.2299 -2.1820  0.6355
 5353SOL     OW27691   4.252   0.136   5.070 -0.6278  0.6209  0.3385
 5353SOL    HW127692   4.236   0.059   5.014 -0.3320  1.2946 -0.6654
 5353SOL    HW227693   4.194   0.111   5.142  1.7160 -1.4598  1.5179
 5354SOL     OW27694   3.843   1.615   7.507  0.2568 -0.1599  0.0515
 5354SOL    HW127695   3.857   1.708   7.494  2.2887 -0.4506  0.2380
 5354SOL    HW227696   3.892   1.574   7.436 -3.8831 -2.3416 -1.5915
 5355SOL     OW27697   3.380   1.119   2.046 -0.1539 -0.0930  0.2473
 5355SOL    HW127698   3.356   1.035   2.005 -2.4158  0.7703 -0.2329
 5355SOL    HW227699   3.410   1.083   2.129 -1.9831 -1.3311  0.3799
 5356SOL     OW27700   2.117   2.312  15.301  0.4085  0.7644 -0.1508
 5356SOL    HW127701   2.041   2.355  15.264 -2.1823 -1.5645  2.4822
 5356SOL    HW227702   2.156   2.280  15.220 -2.6588 -0.6144 -1.0775
 5357SOL     OW27703   3.310   1.728   3.387  0.5937 -0.7841 -0.2866
 5357SOL    HW127704   3.331   1.743   3.295  1.3679  0.5072  0.1101
 5357SOL    HW227705   3.274   1.639   3.381 -0.8113 -0.1933 -0.6316
 5358SOL     OW27706   1.732   2.004   3.210  0.1383 -0.0861  0.2662
 5358SOL    HW127707   1.704   1.923   3.168 -1.0696 -0.0489  0.9981
 5358SOL    HW227708   1.819   2.007   3.169  1.0838 -1.5816  2.1308
 5359SOL     OW27709   2.902   4.152   6.557  0.2386  0.7855 -0.1255
 5359SOL    HW127710   2.991   4.161   6.520  0.2707 -1.0074 -0.4915
 5359SOL    HW227711   2.862   4.205   6.488  1.5018  0.2429 -1.2816
 5360SOL     OW27712   2.274   0.366   9.746  0.0705 -0.3886 -0.1205
 5360SOL    HW127713   2.264   0.331   9.835 -3.6358 -0.0370 -0.3921
 5360SOL    HW227714   2.213   0.439   9.742 -0.1303 -0.5707 -0.3762
 5361SOL     OW27715   3.573   2.481   6.196 -0.5422 -0.0722 -0.0282
 5361SOL    HW127716   3.564   2.387   6.184 -1.3818 -0.1558  1.2564
 5361SOL    HW227717   3.661   2.481   6.233  0.3585  0.6622 -2.2054
 5362SOL     OW27718   1.521   3.603  13.944  0.0667 -0.0104 -0.0193
 5362SOL    HW127719   1.428   3.591  13.921  0.6514 -2.3392 -1.1588
 5362SOL    HW227720   1.509   3.631  14.035  0.2604 -0.4436  0.1379
 5363SOL     OW27721   2.554   2.382   6.735  0.7395  0.7584  0.4993
 5363SOL    HW127722   2.617   2.397   6.664 -2.0944  3.2981 -1.4559
 5363SOL    HW227723   2.593   2.447   6.795  1.4886  1.7538 -1.0654
 5364SOL     OW27724   3.154   3.125   1.576  0.0555 -0.2303 -0.1856
 5364SOL    HW127725   3.238   3.153   1.612  0.3156  0.0403 -1.0001
 5364SOL    HW227726   3.141   3.188   1.505 -0.1167 -1.1864 -1.0015
 5365SOL     OW27727   1.357   1.635   2.101 -0.3775 -0.4278  0.0279
 5365SOL    HW127728   1.264   1.653   2.089 -0.8009 -2.1385  0.7539
 5365SOL    HW227729   1.366   1.644   2.196  1.3937  3.0268 -0.4541
 5366SOL     OW27730   3.489   4.115   3.974  0.2737 -0.1585  0.4146
 5366SOL    HW127731   3.531   4.196   3.947  1.6075 -0.9211  0.2388
 5366SOL    HW227732   3.561   4.054   3.959 -0.4541 -1.2219  1.1892
 5367SOL     OW27733   1.632   1.450   6.967  0.2425 -0.1753 -0.2529
 5367SOL    HW127734   1.674   1.391   6.904 -0.7886 -0.9289 -0.2252
 5367SOL    HW227735   1.713   1.468   7.014  0.9325 -0.3872 -1.3689
 5368SOL     OW27736   3.433   4.051   8.796  0.2540  0.6750 -0.0804
 5368SOL    HW127737   3.460   4.074   8.885 -0.5911 -1.5920  0.7694
 5368SOL    HW227738   3.383   3.973   8.818  1.6306  0.2171  1.4008
 5369SOL     OW27739   1.198   4.485   6.214 -0.2923  0.2562 -0.3814
 5369SOL    HW127740   1.178   4.434   6.135 -1.3474  0.2606 -0.1077
 5369SOL    HW227741   1.223   4.570   6.177  0.9952 -0.5117 -1.2753
 5370SOL     OW27742   3.110   1.036   1.233 -0.0501 -0.3844  0.1985
 5370SOL    HW127743   3.020   1.009   1.217 -0.5461  1.9759 -1.0113
 5370SOL    HW227744   3.136   0.999   1.317  3.3342 -0.1587 -0.7328
 5371SOL     OW27745   3.577   3.213  13.535 -0.0085  0.0965 -0.3175
 5371SOL    HW127746   3.672   3.203  13.541  0.0599  0.8757 -0.1370
 5371SOL    HW227747   3.565   3.307  13.546 -0.9350 -0.4201  2.9551
 5372SOL     OW27748   3.799   1.669  12.630  0.5233  0.7849  0.1573
 5372SOL    HW127749   3.738   1.623  12.687 -1.1158  1.5561 -0.9303
 5372SOL    HW227750   3.883   1.636  12.661 -1.0257 -1.5055  1.8892
 5373SOL     OW27751   0.039   1.020   9.083 -0.5915  0.1430  0.4854
 5373SOL    HW127752   0.099   0.976   9.023  0.1272  3.0896 -0.9552
 5373SOL    HW227753   4.697   0.978   9.057 -1.0978  2.0313 -0.9888
 5374SOL     OW27754   3.006   3.992  12.235 -0.6495 -0.0336 -0.3510
 5374SOL    HW127755   2.964   4.040  12.307 -2.8355 -1.1846 -0.8420
 5374SOL    HW227756   2.978   3.904  12.261 -0.1902  0.3961  1.5681
 5375SOL     OW27757   0.201   0.139   8.852  0.5668  0.5529  0.5301
 5375SOL    HW127758   0.278   0.127   8.907 -0.6201  0.5450  2.1895
 5375SOL    HW227759   0.221   0.225   8.816 -1.6697 -0.1700 -2.4513
 5376SOL     OW27760   2.058   3.779  17.224 -0.7485 -0.5318 -0.1223
 5376SOL    HW127761   2.104   3.717  17.168 -1.1222 -0.8989 -0.0217
 5376SOL    HW227762   2.060   3.857  17.169 -0.6761 -2.0553 -2.2604
 5377SOL     OW27763   2.633   2.535   8.917 -0.2440  0.2976 -0.5253
 5377SOL    HW127764   2.678   2.497   8.992 -1.2248 -0.6078 -0.3796
 5377SOL    HW227765   2.703   2.518   8.855  0.1394  0.0080 -0.0089
 5378SOL     OW27766   0.524   3.108   2.164 -0.1398 -0.0224  0.0479
 5378SOL    HW127767   0.613   3.118   2.132 -0.3624  0.5375 -0.4062
 5378SOL    HW227768   0.471   3.120   2.085  0.5889 -0.7690 -0.5542
 5379SOL     OW27769   0.035   3.067   8.934  0.3031  0.3821  0.3077
 5379SOL    HW127770   0.089   3.124   8.878  0.7699 -0.8469 -0.4930
 5379SOL    HW227771   0.103   3.011   8.970 -1.2446 -2.3248 -0.9279
 5380SOL     OW27772   3.893   0.305   8.797  0.2808 -0.0057  0.1556
 5380SOL    HW127773   3.913   0.247   8.723  0.5406 -0.4987  0.6106
 5380SOL    HW227774   3.812   0.270   8.835  0.7226 -0.7671  0.3935
 5381SOL     OW27775   2.384   0.554  15.580  0.0385  0.0533  0.2876
 5381SOL    HW127776   2.479   0.560  15.591  0.1522 -2.4129  0.6498
 5381SOL    HW227777   2.373   0.526  15.489 -2.1798  0.8473  0.3206
 5382SOL     OW27778   0.187   1.794  16.384 -0.3517  0.5797  0.4578
 5382SOL    HW127779   0.143   1.791  16.469 -1.0982 -2.5732 -0.0418
 5382SOL    HW227780   0.220   1.704  16.381 -1.9081  0.0285  0.2858
 5383SOL     OW27781   1.901   3.219  16.762  0.2354 -0.3297 -0.1504
 5383SOL    HW127782   1.967   3.224  16.831 -1.0933 -2.1639  1.2687
 5383SOL    HW227783   1.892   3.312  16.744  0.5488 -0.2610  0.0538
 5384SOL     OW27784   3.231   4.600   9.228 -0.2026 -0.0928  1.1633
 5384SOL    HW127785   3.165   4.531   9.242  2.4615 -2.7914  0.3506
 5384SOL    HW227786   3.300   4.546   9.265  0.9307 -0.1349 -0.9980
 5385SOL     OW27787   3.590   4.224  16.123  0.0706 -0.3529 -0.6295
 5385SOL    HW127788   3.581   4.145  16.069 -3.3806  1.7845 -3.2209
 5385SOL    HW227789   3.599   4.287  16.051  0.6222 -0.4338 -0.6251
 5386SOL     OW27790   3.686   3.999  15.348  0.1320 -0.5572 -0.0116
 5386SOL    HW127791   3.738   3.919  15.345  0.0048 -0.6180 -0.6260
 5386SOL    HW227792   3.715   4.041  15.430 -1.7758  0.4282  0.1569
 5387SOL     OW27793   4.260   1.794   9.763  0.0373  0.6171  0.2689
 5387SOL    HW127794   4.343   1.793   9.811 -1.0849 -0.3449  2.1817
 5387SOL    HW227795   4.298   1.786   9.675 -1.7233 -1.0707 -0.3369
 5388SOL     OW27796   1.418   3.220   8.596  0.5306  0.1786  0.1057
 5388SOL    HW127797   1.473   3.202   8.672 -0.4329  0.5957  0.9065
 5388SOL    HW227798   1.482   3.270   8.546 -1.3230  0.4494 -1.9875
 5389SOL     OW27799   3.566   2.623   4.438  0.1124  0.1320 -0.5327
 5389SOL    HW127800   3.544   2.715   4.450 -1.3047 -0.3383  0.4030
 5389SOL    HW227801   3.616   2.617   4.357 -1.2145 -0.8740 -1.2677
 5390SOL     OW27802   2.681   0.654   6.465 -0.5758 -0.0261 -0.0846
 5390SOL    HW127803   2.683   0.747   6.487 -1.0214  0.5484 -2.5454
 5390SOL    HW227804   2.708   0.647   6.373 -1.4002 -0.5759 -0.2837
 5391SOL     OW27805   2.125   4.513  15.696 -0.1432  0.1905 -0.2840
 5391SOL    HW127806   2.122   4.584  15.760  1.9789 -0.6053  0.7024
 5391SOL    HW227807   2.032   4.490  15.696 -0.1353  0.1783 -0.9700
 5392SOL     OW27808   2.191   1.590   5.047 -0.5894  0.4697  0.9498
 5392SOL    HW127809   2.270   1.541   5.024 -0.1779  0.3859  2.5588
 5392SOL    HW227810   2.126   1.520   5.055 -0.1412  0.1009  1.3303
 5393SOL     OW27811   2.854   2.917   8.584  0.2155 -0.2580  0.2351
 5393SOL    HW127812   2.891   3.000   8.555 -0.8648  0.3160  0.4976
 5393SOL    HW227813   2.855   2.923   8.679 -0.9729  1.9808  0.0971
 5394SOL     OW27814   1.114   4.393   4.964 -0.2570  0.0558 -0.0489
 5394SOL    HW127815   1.090   4.466   4.906 -1.5339 -1.2844 -1.1796
 5394SOL    HW227816   1.026   4.359   4.978 -0.7887  2.3335  2.2193
 5395SOL     OW27817   3.983   4.018  13.031  0.1727  0.4433 -0.4108
 5395SOL    HW127818   3.967   4.059  12.947 -1.0200 -0.1295 -0.4587
 5395SOL    HW227819   3.959   3.930  13.002  1.2136  0.1790 -0.4482
 5396SOL     OW27820   0.582   0.890   2.604 -0.4942 -0.6731  0.0170
 5396SOL    HW127821   0.573   0.798   2.578 -1.0022 -0.5599 -0.2004
 5396SOL    HW227822   0.638   0.878   2.681 -1.0531 -0.2852  0.4845
 5397SOL     OW27823   2.147   2.577   8.656  0.3719  0.2147  0.3642
 5397SOL    HW127824   2.201   2.652   8.683 -0.0945  1.4373 -2.0059
 5397SOL    HW227825   2.103   2.565   8.740 -2.9389 -3.4181 -1.9122
 5398SOL     OW27826   3.354   2.197   5.400 -0.0124  0.1025  0.0409
 5398SOL    HW127827   3.362   2.279   5.448  0.4144 -0.0958  0.3076
 5398SOL    HW227828   3.294   2.225   5.330 -1.4485  0.1540  1.2832
 5399SOL     OW27829   0.366   2.118  12.482 -0.1680  0.3006  0.1460
 5399SOL    HW127830   0.274   2.102  12.460 -0.3891 -0.4412  1.6023
 5399SOL    HW227831   0.381   2.047  12.544 -1.2908  1.6516  1.9946
 5400SOL     OW27832   3.817   4.255   9.685 -0.5501  0.1804  0.5842
 5400SOL    HW127833   3.873   4.333   9.691  1.9966 -1.5774 -0.0756
 5400SOL    HW227834   3.880   4.183   9.685 -2.2545 -1.2923  1.9979
 5401SOL     OW27835   1.623   2.773  12.961 -0.3194  0.0250  0.1222
 5401SOL    HW127836   1.628   2.727  12.877 -0.8545 -2.9256  1.7062
 5401SOL    HW227837   1.712   2.807  12.952  0.4925 -1.5593  2.2857
 5402SOL     OW27838   2.016   4.052   2.173  0.1047 -0.6219 -0.0985
 5402SOL    HW127839   2.052   4.003   2.099  0.3851 -2.3804  1.1818
 5402SOL    HW227840   2.087   4.037   2.236 -0.6032 -0.8227  0.6661
 5403SOL     OW27841   3.811   0.693  13.363 -0.5961  0.1891  0.8708
 5403SOL    HW127842   3.754   0.714  13.289  0.5982 -1.1925 -0.4211
 5403SOL    HW227843   3.843   0.605  13.344 -2.5363 -0.5352  0.9861
 5404SOL     OW27844   0.731   3.858   8.017 -0.1787 -0.1208  0.5250
 5404SOL    HW127845   0.650   3.813   8.041 -1.4936  2.0926  0.1848
 5404SOL    HW227846   0.775   3.867   8.102  0.4680 -1.3728  0.3276
 5405SOL     OW27847   4.407   3.595   7.240 -0.5844 -0.3335 -0.2493
 5405SOL    HW127848   4.323   3.551   7.256 -1.7363  1.4637 -1.3596
 5405SOL    HW227849   4.386   3.656   7.169  0.3193  0.8834  0.5279
 5406SOL     OW27850   1.417   4.427   7.509 -0.0097  0.0210 -0.2585
 5406SOL    HW127851   1.326   4.420   7.480 -0.6780 -1.8636  2.3335
 5406SOL    HW227852   1.443   4.345   7.551 -1.4582  0.3436  1.2794
 5407SOL     OW27853   3.866   0.131   5.357  0.1572  0.2317  0.0518
 5407SOL    HW127854   3.820   0.073   5.296  0.1664 -1.1385  1.3702
 5407SOL    HW227855   3.843   0.099   5.444 -1.1957 -0.6329 -0.6298
 5408SOL     OW27856   1.745   1.809   5.449 -0.0101 -0.6352  0.5126
 5408SOL    HW127857   1.670   1.867   5.462 -1.1907 -1.8493 -0.8437
 5408SOL    HW227858   1.813   1.852   5.500 -0.1682  2.2101 -1.6112
 5409SOL     OW27859   3.620   3.038   3.177 -0.6556 -0.2640  0.5340
 5409SOL    HW127860   3.613   2.946   3.203  0.9097 -0.8360 -1.0199
 5409SOL    HW227861   3.559   3.033   3.103  0.3596  0.5253 -0.3563
 5410SOL     OW27862   2.653   3.240  14.595  0.2585 -0.2264  0.2667
 5410SOL    HW127863   2.638   3.214  14.504  1.6035 -0.9089  0.2288
 5410SOL    HW227864   2.571   3.288  14.609  0.2639 -0.4125  0.9400
 5411SOL     OW27865   2.720   0.689   8.322  0.1387 -0.8548 -0.2044
 5411SOL    HW127866   2.769   0.771   8.311 -2.6695  0.5952 -1.7814
 5411SOL    HW227867   2.764   0.622   8.269  0.6060 -0.5579 -0.1936
 5412SOL     OW27868   3.459   3.410   2.940  0.1583 -0.1775 -0.1301
 5412SOL    HW127869   3.535   3.354   2.929  1.3136  1.6233 -1.3256
 5412SOL    HW227870   3.420   3.391   3.025  1.3169  1.4170  0.7618
 5413SOL     OW27871   4.614   1.431   3.721  0.2237  0.2578 -0.1771
 5413SOL    HW127872   4.668   1.373   3.667 -0.4885 -1.1944  0.6900
 5413SOL    HW227873   4.558   1.467   3.652 -0.2610 -0.3102 -0.0839
 5414SOL     OW27874   0.205   1.170   7.601 -1.0094  0.3306  0.3369
 5414SOL    HW127875   0.148   1.095   7.617  1.9486 -1.7390  1.1893
 5414SOL    HW227876   0.147   1.229   7.552  0.6567  1.5688 -0.1347
 5415SOL     OW27877   4.587   2.264   2.443 -0.4687  0.4241 -0.1354
 5415SOL    HW127878   4.536   2.322   2.388 -0.6695  1.7013  1.3938
 5415SOL    HW227879   4.580   2.310   2.527 -2.2765  0.5287 -0.3473
 5416SOL     OW27880   1.905   2.373   4.752 -0.1089 -0.7217 -0.5159
 5416SOL    HW127881   1.818   2.369   4.791 -0.8893  2.2414 -2.0111
 5416SOL    HW227882   1.890   2.324   4.672 -1.1807  0.0731 -0.8047
 5417SOL     OW27883   2.431   4.385   6.589  0.0795 -0.7831 -0.0046
 5417SOL    HW127884   2.467   4.436   6.661 -1.8203  2.0800 -1.0761
 5417SOL    HW227885   2.337   4.388   6.604  0.0364  1.1203 -0.6460
 5418SOL     OW27886   2.244   4.329   2.416  0.6480  0.5900  0.3779
 5418SOL    HW127887   2.167   4.335   2.473 -0.4328 -0.5646 -0.9748
 5418SOL    HW227888   2.209   4.366   2.336  0.8830 -0.1816 -0.0802
 5419SOL     OW27889   3.279   1.951   5.241  0.2023  0.3155 -0.0419
 5419SOL    HW127890   3.205   1.940   5.181 -0.0104 -1.6495  0.5839
 5419SOL    HW227891   3.236   2.023   5.288 -1.9150 -0.6235 -0.5160
 5420SOL     OW27892   3.499   0.087   0.142  0.1001  0.0057  0.3187
 5420SOL    HW127893   3.525   0.153   0.207 -4.1059 -0.8964  2.9165
 5420SOL    HW227894   3.584   0.053   0.114  0.5045 -1.8765  3.8540
 5421SOL     OW27895   2.081   4.340   5.262 -0.0067  0.2244 -0.1176
 5421SOL    HW127896   2.027   4.308   5.335 -1.3184  2.7107  0.0410
 5421SOL    HW227897   2.032   4.423   5.258  1.4351  1.0356 -1.0804
 5422SOL     OW27898   4.657   0.929  10.309  0.0202 -0.5569 -0.0402
 5422SOL    HW127899   4.570   0.963  10.290  0.4247  1.2149  1.2284
 5422SOL    HW227900   4.658   0.942  10.404 -1.1560  2.1376 -0.3966
 5423SOL     OW27901   2.971   3.684   7.236 -0.1350 -0.4208  0.3121
 5423SOL    HW127902   3.063   3.694   7.260  0.3403 -3.4803 -0.3076
 5423SOL    HW227903   2.952   3.592   7.220 -1.1298 -0.3317  1.0010
 5424SOL     OW27904   1.269   4.677   0.526 -0.3178  0.2348 -0.2438
 5424SOL    HW127905   1.207   4.604   0.527  1.0336 -0.8014  5.4796
 5424SOL    HW227906   1.292   4.687   0.618 -1.5090  1.0089 -0.0172
 5425SOL     OW27907   4.020   2.144   1.644  0.5162  0.4847  0.3979
 5425SOL    HW127908   4.078   2.069   1.630 -0.9885 -0.7839  0.9182
 5425SOL    HW227909   3.997   2.152   1.552 -0.9184  1.5801  0.8451
 5426SOL     OW27910   3.010   1.180   2.286  0.5973  0.2244 -0.2234
 5426SOL    HW127911   2.983   1.127   2.212 -0.6278  1.6531 -0.8034
 5426SOL    HW227912   3.087   1.133   2.317 -0.0001 -0.9924 -0.5959
 5427SOL     OW27913   2.275   1.162  14.184  0.4622 -0.0700 -0.3364
 5427SOL    HW127914   2.242   1.098  14.247  0.8744 -1.0735 -1.1389
 5427SOL    HW227915   2.252   1.246  14.223 -1.1796 -0.2508 -0.8943
 5428SOL     OW27916   1.641   3.983   7.997 -0.1052  0.1613 -0.4759
 5428SOL    HW127917   1.718   3.969   8.052  0.2019  1.3627 -0.5988
 5428SOL    HW227918   1.662   3.944   7.912  0.5193 -3.8543  1.5410
 5429SOL     OW27919   3.962   2.843  14.267 -0.0512  0.3635 -0.0766
 5429SOL    HW127920   3.952   2.765  14.212 -0.8833 -0.0316  0.6396
 5429SOL    HW227921   4.033   2.872  14.209 -0.0362  0.1970 -0.1431
 5430SOL     OW27922   1.775   2.161   9.138 -0.5272 -0.1811  0.1742
 5430SOL    HW127923   1.800   2.083   9.088  1.4932 -0.9045  2.3096
 5430SOL    HW227924   1.690   2.134   9.172 -0.1297 -0.0506  1.2656
 5431SOL     OW27925   2.083   0.272  14.669 -0.7686  0.7068 -0.0245
 5431SOL    HW127926   2.134   0.209  14.620  0.9050 -0.8802  3.7135
 5431SOL    HW227927   1.998   0.235  14.647  0.3298 -0.7677 -1.7576
 5432SOL     OW27928   3.506   1.933   3.470  0.2610 -0.0655 -0.5063
 5432SOL    HW127929   3.466   1.867   3.415  1.2842 -0.9918 -0.1342
 5432SOL    HW227930   3.445   2.007   3.460  0.9162  0.6288  0.6088
 5433SOL     OW27931   2.181   1.181  15.099  0.2015 -0.3618  0.3951
 5433SOL    HW127932   2.246   1.183  15.028  0.1877 -0.0054  0.3934
 5433SOL    HW227933   2.174   1.088  15.121 -2.6729 -0.0789  0.6793
 5434SOL     OW27934   3.607   4.171   5.901  0.2592  0.4782 -0.3971
 5434SOL    HW127935   3.650   4.186   5.986  0.1712 -1.7455  0.0539
 5434SOL    HW227936   3.576   4.082   5.920  0.1741  0.5120 -0.3785
 5435SOL     OW27937   1.761   2.892   2.082  0.1114 -0.0735 -0.0576
 5435SOL    HW127938   1.843   2.877   2.034 -0.2977 -2.2052 -0.1090
 5435SOL    HW227939   1.729   2.802   2.087  0.1528  0.0225  2.0256
 5436SOL     OW27940   2.464   0.123  14.447 -0.4844  0.3268  0.4561
 5436SOL    HW127941   2.531   0.071  14.404  0.6544  2.8352 -0.8233
 5436SOL    HW227942   2.516   0.161  14.518 -0.9216 -0.4924  1.2041
 5437SOL     OW27943   1.764   0.955   4.600  0.0775  0.4244  0.3457
 5437SOL    HW127944   1.757   0.896   4.674  0.4948  1.0844  0.9159
 5437SOL    HW227945   1.675   0.988   4.603  0.0217  0.4025 -0.8161
 5438SOL     OW27946   4.016   4.048   9.656  0.5966 -0.1033  0.3569
 5438SOL    HW127947   4.105   4.016   9.667  0.3632 -0.3667  1.5120
 5438SOL    HW227948   3.971   3.965   9.640  0.9938 -0.0699 -0.9070
 5439SOL     OW27949   1.298   1.652   1.299 -0.1048 -0.0721  0.5318
 5439SOL    HW127950   1.262   1.564   1.285  1.2279 -0.0954 -2.6432
 5439SOL    HW227951   1.373   1.655   1.240  0.3162  0.5514  1.1027
 5440SOL     OW27952   1.064   3.592   7.302 -0.1753 -0.2170  0.3027
 5440SOL    HW127953   1.036   3.662   7.361 -2.0181 -0.3232 -0.4470
 5440SOL    HW227954   1.157   3.597   7.324 -0.5898  0.7987  1.8532
 5441SOL     OW27955   4.693   1.935   4.830  0.2408  0.1346 -0.1954
 5441SOL    HW127956   4.611   1.938   4.879 -0.2122  0.0162 -0.9404
 5441SOL    HW227957   4.738   1.877   4.891  0.9168  2.6459  1.6668
 5442SOL     OW27958   2.368   4.061   8.118  0.3277 -0.4402  0.1490
 5442SOL    HW127959   2.277   4.086   8.133  0.4520  0.6964 -1.0774
 5442SOL    HW227960   2.378   4.091   8.028 -1.7253  1.4264  0.5283
 5443SOL     OW27961   0.076   0.037   5.133  0.5872 -0.5203  0.1611
 5443SOL    HW127962   0.070   0.014   5.040  1.8234  0.4606 -0.1670
 5443SOL    HW227963   0.158   0.086   5.133  0.9422 -1.1016 -1.3582
 5444SOL     OW27964   2.194   2.547   2.409  0.0779 -0.2364  0.0275
 5444SOL    HW127965   2.152   2.490   2.345 -1.1424 -0.1666  0.7653
 5444SOL    HW227966   2.121   2.595   2.448  0.2959 -1.4090  1.8951
 5445SOL     OW27967   4.546   1.825   1.508  0.1118 -0.1405 -0.3043
 5445SOL    HW127968   4.628   1.783   1.535  0.2381  0.4861  0.2946
 5445SOL    HW227969   4.480   1.806   1.574 -0.2090 -0.4732 -0.7237
 5446SOL     OW27970   0.333   3.348   1.858  0.1515 -0.2115  0.0094
 5446SOL    HW127971   0.278   3.418   1.893 -3.5626 -2.6341 -1.0582
 5446SOL    HW227972   0.333   3.290   1.934  1.1608  0.7916  0.7677
 5447SOL     OW27973   3.837   2.503   5.659 -0.1768 -0.7333  0.0109
 5447SOL    HW127974   3.851   2.415   5.693  0.9638 -0.7206 -0.4248
 5447SOL    HW227975   3.788   2.482   5.579  0.5511  0.3119 -0.7240
 5448SOL     OW27976   1.469   4.659  10.388  0.4684 -0.6186  0.2936
 5448SOL    HW127977   1.483   4.589  10.453 -1.6415  0.8064  2.2710
 5448SOL    HW227978   1.517   4.622  10.314  0.6327 -1.7164  0.9436
 5449SOL     OW27979   2.327   1.177   0.927  0.3002 -0.0744  0.3159
 5449SOL    HW127980   2.418   1.149   0.937 -0.1351 -1.8161 -0.5590
 5449SOL    HW227981   2.315   1.159   0.833  1.1914 -1.9444  0.5580
 5450SOL     OW27982   3.197   0.863  15.193  0.2084  0.3811  0.3037
 5450SOL    HW127983   3.138   0.914  15.137  3.0834  0.8736 -2.3209
 5450SOL    HW227984   3.263   0.826  15.134  0.5339  1.9509 -0.3341
 5451SOL     OW27985   3.706   3.214  17.029  0.3289  0.5790 -0.6654
 5451SOL    HW127986   3.654   3.294  17.037 -0.4309 -0.1067  1.4097
 5451SOL    HW227987   3.719   3.200  17.123  1.0177 -0.5981 -0.9381
 5452SOL     OW27988   3.232   4.201   1.361  0.3439  0.1882 -0.2533
 5452SOL    HW127989   3.159   4.251   1.397  0.3153 -1.3376  1.8056
 5452SOL    HW227990   3.186   4.118   1.348 -2.4028  1.8236 -0.9899
 5453SOL     OW27991   0.182   4.049  16.613 -0.0085 -0.2429  0.6248
 5453SOL    HW127992   0.107   4.040  16.671 -0.5643 -0.0658 -0.0771
 5453SOL    HW227993   0.178   4.141  16.587  1.8907  0.0812  1.4547
 5454SOL     OW27994   2.666   3.074  16.074 -0.1891 -0.1263  0.0013
 5454SOL    HW127995   2.627   3.155  16.106 -1.2448 -0.9483  0.7428
 5454SOL    HW227996   2.617   3.010  16.125 -0.2898 -1.9649 -2.4083
 5455SOL     OW27997   1.141   3.020   9.697 -0.5022 -0.1090 -0.1154
 5455SOL    HW127998   1.162   3.087   9.632  0.8628  0.3840  0.8261
 5455SOL    HW227999   1.196   3.055   9.767  0.1895  1.3887 -1.4188
 5456SOL     OW28000   4.642   4.657   8.348  0.4124 -0.8880  0.2134
 5456SOL    HW128001   4.630   4.653   8.443 -1.9249  1.0953 -0.0140
 5456SOL    HW228002   4.558   4.627   8.315 -0.5554  0.2759  1.6363
 5457SOL     OW28003   2.344   4.734   4.755 -0.7257 -0.2777 -0.1019
 5457SOL    HW128004   2.338   4.690   4.670 -2.7154  0.3179 -0.2578
 5457SOL    HW228005   2.256   0.031   4.760 -0.1208  1.4904 -2.1667
 5458SOL     OW28006   4.389   3.935  12.551  0.4885 -0.0997  0.0117
 5458SOL    HW128007   4.392   3.900  12.640 -0.3575  1.9498  0.8479
 5458SOL    HW228008   4.444   3.874  12.501  0.0017 -1.3056  0.9582
 5459SOL     OW28009   4.063   2.097   4.302  0.2481 -0.1621  0.5323
 5459SOL    HW128010   4.058   2.079   4.208 -1.5832 -1.7174  0.9178
 5459SOL    HW228011   4.079   2.189   4.284  1.0712 -0.5631 -0.7912
 5460SOL     OW28012   0.254   3.774   2.052 -0.7850 -0.1797 -0.6910
 5460SOL    HW128013   0.346   3.800   2.063 -1.1640  0.7119  0.3894
 5460SOL    HW228014   0.263   3.704   1.989 -0.2329 -2.5833  2.0635
 5461SOL     OW28015   3.037   3.915   8.554 -0.0089 -0.3315 -0.7457
 5461SOL    HW128016   3.116   3.929   8.503  0.9383  1.0297  1.1088
 5461SOL    HW228017   3.012   3.837   8.503 -0.8976 -0.3186 -0.3432
 5462SOL     OW28018   1.687   3.792   9.625  0.4417 -0.3550 -0.1262
 5462SOL    HW128019   1.738   3.855   9.676 -0.9784  0.6530  0.0329
 5462SOL    HW228020   1.618   3.774   9.688 -1.2826  0.3758 -1.8063
 5463SOL     OW28021   0.133   2.360   7.909 -0.4406 -0.2823  0.1167
 5463SOL    HW128022   0.163   2.394   7.993  0.1968 -1.0489  0.2014
 5463SOL    HW228023   0.178   2.275   7.914 -0.1558 -0.2456 -1.5828
 5464SOL     OW28024   3.078   0.572   9.703 -0.3955 -0.4195  0.0153
 5464SOL    HW128025   3.108   0.662   9.718  0.4568 -0.5838 -0.6673
 5464SOL    HW228026   3.010   0.594   9.766  0.3098 -0.9059  0.9379
 5465SOL     OW28027   3.398   0.084   7.034  0.0477 -0.5859 -0.2009
 5465SOL    HW128028   3.409   4.738   7.075 -3.3330  0.0040  1.9588
 5465SOL    HW228029   3.318   0.106   7.082 -1.6839 -0.0253 -3.3052
 5466SOL     OW28030   0.975   3.509   5.360  0.8426 -1.1030  0.6583
 5466SOL    HW128031   1.033   3.562   5.414 -0.0622 -1.2012  1.7382
 5466SOL    HW228032   0.983   3.552   5.275  1.5310 -0.7557  0.8969
 5467SOL     OW28033   3.296   1.389   1.729 -0.1962  0.2074  0.5039
 5467SOL    HW128034   3.208   1.371   1.762 -0.4067  1.3465  0.5559
 5467SOL    HW228035   3.323   1.460   1.787  1.1092 -1.2571  1.6716
 5468SOL     OW28036   2.616   3.925  10.557 -0.1598 -0.2843  0.0601
 5468SOL    HW128037   2.613   3.854  10.493 -0.1632 -0.9691  0.8166
 5468SOL    HW228038   2.700   3.970  10.545 -0.8065  0.3067 -2.2341
 5469SOL     OW28039   2.502   0.965   5.761  0.0074  0.1931  0.2826
 5469SOL    HW128040   2.581   0.936   5.806 -1.0192  1.4738  2.9302
 5469SOL    HW228041   2.520   0.936   5.672  0.5850 -0.4673  0.6159
 5470SOL     OW28042   3.161   0.722   3.002  0.1694 -0.5357  0.1167
 5470SOL    HW128043   3.215   0.755   3.074  1.3016 -1.1905 -0.4288
 5470SOL    HW228044   3.138   0.807   2.965 -1.2661 -1.3269 -0.8240
 5471SOL     OW28045   4.123   2.569   3.591  0.3109 -0.1471 -0.7405
 5471SOL    HW128046   4.063   2.510   3.636 -0.0335  1.0777  0.3996
 5471SOL    HW228047   4.189   2.501   3.583  0.9912  0.3519  0.7696
 5472SOL     OW28048   0.275   3.168   2.040 -0.2205 -0.0725 -0.2558
 5472SOL    HW128049   0.286   3.073   2.045  0.9106  0.0970  0.6019
 5472SOL    HW228050   0.183   3.181   2.062  0.4356 -0.6163  2.7840
 5473SOL     OW28051   2.998   3.336  14.257  0.0202 -0.4115  0.9584
 5473SOL    HW128052   2.962   3.317  14.343 -0.2429 -1.0105  0.7181
 5473SOL    HW228053   2.936   3.278  14.213 -0.1639  1.2134 -0.9324
 5474SOL     OW28054   1.495   2.948  13.091  0.5302 -0.1170  0.2200
 5474SOL    HW128055   1.414   2.901  13.113  1.0035 -0.9582  0.1848
 5474SOL    HW228056   1.545   2.881  13.045  1.2814 -0.0190  0.8948
 5475SOL     OW28057   2.065   0.251   5.352 -0.2459  0.1045 -0.0307
 5475SOL    HW128058   2.078   0.336   5.394  0.8871  0.1889 -0.5437
 5475SOL    HW228059   2.152   0.226   5.322 -0.3805 -0.4599  0.0533
 5476SOL     OW28060   4.421   3.940  10.727  0.0717  0.1020  0.6082
 5476SOL    HW128061   4.340   3.898  10.696  1.3941 -0.6131 -1.8929
 5476SOL    HW228062   4.487   3.879  10.695  0.5334  0.2746  1.2494
 5477SOL     OW28063   1.918   4.386   7.751 -0.3758 -0.7719 -0.5623
 5477SOL    HW128064   1.856   4.447   7.710 -1.8115 -1.0085  1.2640
 5477SOL    HW228065   1.854   4.329   7.793 -0.5106  1.0589  1.7194
 5478SOL     OW28066   1.815   4.147  15.362 -0.0991 -0.1397 -0.3255
 5478SOL    HW128067   1.774   4.124  15.279  1.9298  1.1722 -1.6919
 5478SOL    HW228068   1.866   4.067  15.373 -0.7870 -0.4331  0.7849
 5479SOL     OW28069   3.796   1.908   0.280 -0.0520 -0.3432  0.0069
 5479SOL    HW128070   3.772   1.999   0.261  0.1141 -0.8069 -2.3881
 5479SOL    HW228071   3.817   1.872   0.194  0.3890 -0.7149  0.2679
 5480SOL     OW28072   2.952   4.544   6.965  0.0820  0.2041 -0.3476
 5480SOL    HW128073   2.857   4.537   6.962  0.0100  1.9013 -2.2599
 5480SOL    HW228074   2.972   4.609   7.033  0.2290 -0.2061  0.0097
 5481SOL     OW28075   4.562   1.223   7.964  0.0802  0.5531  0.1240
 5481SOL    HW128076   4.650   1.233   8.000 -0.1126  0.0605  0.7369
 5481SOL    HW228077   4.563   1.315   7.935 -0.6569  0.0904 -1.3753
 5482SOL     OW28078   1.086   2.033   5.697 -0.4870  0.3144  0.1014
 5482SOL    HW128079   1.134   2.082   5.764  2.6355 -1.1947 -1.0346
 5482SOL    HW228080   1.043   2.106   5.653  0.7336  1.9511  1.6131
 5483SOL     OW28081   0.703   1.147   5.800 -0.2033  0.0421  0.2320
 5483SOL    HW128082   0.659   1.206   5.861 -1.1712  0.4047 -0.8109
 5483SOL    HW228083   0.791   1.183   5.811 -0.7795  1.4333  0.3242
 5484SOL     OW28084   2.132   4.733   8.172  0.2266 -0.4936 -0.0013
 5484SOL    HW128085   2.071   0.065   8.194  0.8272  0.0248 -0.0301
 5484SOL    HW228086   2.094   4.688   8.096  2.0209 -1.7836 -0.1303
 5485SOL     OW28087   3.169   0.885  14.676 -0.2838  0.4018 -0.2067
 5485SOL    HW128088   3.144   0.800  14.714  0.4727  0.5657  0.6647
 5485SOL    HW228089   3.148   0.866  14.585  0.7910 -1.1596 -0.1214
 5486SOL     OW28090   3.064   2.387  10.752  0.2047 -0.4025  0.8098
 5486SOL    HW128091   3.009   2.465  10.746  0.1869 -0.4843 -0.1292
 5486SOL    HW228092   3.066   2.365  10.845 -2.1506 -1.3898  0.6219
 5487SOL     OW28093   3.800   3.370   3.829 -0.2683 -0.3766  0.6082
 5487SOL    HW128094   3.755   3.372   3.744  1.6765 -1.9581 -0.4556
 5487SOL    HW228095   3.888   3.380   3.794 -0.4809 -0.9614 -0.1148
 5488SOL     OW28096   0.873   0.136   8.071 -0.6219  0.3972 -0.4777
 5488SOL    HW128097   0.793   0.145   8.123  0.3055 -2.7697  1.5106
 5488SOL    HW228098   0.904   0.046   8.075  1.1842  0.9308 -2.7324
 5489SOL     OW28099   0.853   2.324  15.602  0.4447  0.2196  0.7176
 5489SOL    HW128100   0.777   2.288  15.648 -0.5072  2.6017  0.9885
 5489SOL    HW228101   0.928   2.295  15.654 -1.4444 -0.8195  2.8722
 5490SOL     OW28102   3.459   1.575   8.833 -0.3472  1.1142  0.6501
 5490SOL    HW128103   3.458   1.644   8.767  0.1983  3.0467  2.6644
 5490SOL    HW228104   3.374   1.597   8.870 -1.7613 -2.6101 -0.3953
 5491SOL     OW28105   3.445   4.167   1.700  0.0472  0.0867 -0.7005
 5491SOL    HW128106   3.454   4.204   1.612  2.4337 -0.3874 -0.6423
 5491SOL    HW228107   3.491   4.084   1.688  0.2854  0.1729 -0.3886
 5492SOL     OW28108   3.907   3.541   4.024  0.0482 -0.2448 -0.0491
 5492SOL    HW128109   3.997   3.519   3.999  0.2595 -1.0845  1.4725
 5492SOL    HW228110   3.857   3.467   3.989 -0.3235 -0.9223  1.9554
 5493SOL     OW28111   0.991   4.307   7.661  0.4539  0.0219  0.2706
 5493SOL    HW128112   1.029   4.273   7.742 -0.7735  1.2967  1.3829
 5493SOL    HW228113   0.915   4.347   7.704 -0.2677 -1.2496  0.1587
 5494SOL     OW28114   0.759   0.153   6.903 -0.3905 -0.2425  0.2763
 5494SOL    HW128115   0.687   0.092   6.917  0.5635 -1.7181 -1.3683
 5494SOL    HW228116   0.824   0.087   6.879 -1.2683  0.2101 -3.2866
 5495SOL     OW28117   2.980   3.515  10.003 -0.1438 -0.2349  0.4282
 5495SOL    HW128118   2.932   3.475   9.931  1.6446  1.3416 -1.6168
 5495SOL    HW228119   2.911   3.511  10.069 -1.2205 -4.5308 -0.9688
 5496SOL     OW28120   4.666   0.374   3.064 -0.0216 -0.2457  0.3685
 5496SOL    HW128121   4.599   0.404   3.003  0.6137  0.4086 -0.0221
 5496SOL    HW228122   4.624   0.376   3.150  1.9076 -1.0440  1.3367
 5497SOL     OW28123   1.595   1.708   9.212  0.2863  0.1847 -0.4907
 5497SOL    HW128124   1.579   1.794   9.251  1.4700 -0.3132  1.0969
 5497SOL    HW228125   1.544   1.722   9.132 -1.6547 -0.0169  0.7176
 5498SOL     OW28126   0.629   3.002   8.878 -0.1809  0.5043 -0.3733
 5498SOL    HW128127   0.636   2.907   8.892 -1.1122  0.2662 -1.5527
 5498SOL    HW228128   0.573   3.001   8.801  0.9969  3.6346 -1.2588
 5499SOL     OW28129   2.339   0.782   3.232  0.3401 -0.0831  0.4206
 5499SOL    HW128130   2.315   0.833   3.154  2.3346  1.0940  0.5737
 5499SOL    HW228131   2.414   0.728   3.208  0.7822  0.5270  0.4266
 5500SOL     OW28132   4.430   4.034   9.424 -0.3948  0.3991 -0.3211
 5500SOL    HW128133   4.395   4.080   9.348 -1.2518  1.8470  0.9185
 5500SOL    HW228134   4.523   4.036   9.402  0.6228 -0.0770  3.7782
 5501SOL     OW28135   2.523   4.263   2.662 -0.6820  0.1918 -0.3400
 5501SOL    HW128136   2.594   4.291   2.605 -1.2769  0.1180 -1.1066
 5501SOL    HW228137   2.474   4.343   2.683 -0.5348 -0.3531  2.0846
 5502SOL     OW28138   1.383   3.956   8.095 -0.4213 -0.3421  0.0776
 5502SOL    HW128139   1.416   3.899   8.165  1.8101  2.3825  1.2457
 5502SOL    HW228140   1.461   3.957   8.041 -1.3396 -1.0636 -1.2528
 5503SOL     OW28141   1.739   1.955   4.545 -0.4425 -0.2917  0.2627
 5503SOL    HW128142   1.808   1.944   4.611 -0.7511  0.6671  0.7463
 5503SOL    HW228143   1.763   2.037   4.502  0.1345  0.9568  2.9673
 5504SOL     OW28144   2.216   3.405  15.876  0.1441  0.2476  0.4852
 5504SOL    HW128145   2.245   3.497  15.871 -1.1287  0.6216 -0.1381
 5504SOL    HW228146   2.232   3.383  15.784 -0.9103 -2.9667  1.0939
 5505SOL     OW28147   3.042   3.235   8.802  0.2810  0.3067  0.5386
 5505SOL    HW128148   3.000   3.149   8.814  0.5145  0.4383  2.2721
 5505SOL    HW228149   3.132   3.205   8.811  0.3872  0.3944 -0.1957
 5506SOL     OW28150   2.429   4.636   4.988  0.0275  0.5932 -0.1572
 5506SOL    HW128151   2.374   4.560   5.008 -0.8311  1.6379  1.3529
 5506SOL    HW228152   2.378   4.659   4.910 -0.0421 -0.1490 -0.3350
 5507SOL     OW28153   3.608   0.040   8.613  0.4690  0.2766  0.0192
 5507SOL    HW128154   3.617   0.069   8.523  1.8777 -1.8428 -0.5451
 5507SOL    HW228155   3.535   4.717   8.615 -2.1089  3.3089 -0.2945
 5508SOL     OW28156   2.644   2.749   3.562 -0.3004 -0.4104 -0.0781
 5508SOL    HW128157   2.647   2.769   3.656  1.2863  1.1984 -0.4784
 5508SOL    HW228158   2.563   2.794   3.537  0.5384  1.4997  0.6104
 5509SOL     OW28159   3.164   2.832  12.476  0.7898  0.5621  0.4175
 5509SOL    HW128160   3.155   2.900  12.544  0.0749  0.3362  0.5389
 5509SOL    HW228161   3.258   2.812  12.483  0.5542 -0.8466 -0.5501
 5510SOL     OW28162   0.458   2.600   3.985 -0.1687 -0.2071  0.4579
 5510SOL    HW128163   0.525   2.569   3.924  1.7561 -0.1033  2.5307
 5510SOL    HW228164   0.496   2.681   4.019 -0.0612 -0.9187  2.0363
 5511SOL     OW28165   2.587   3.436   2.558  0.3334 -0.0734 -0.0891
 5511SOL    HW128166   2.528   3.505   2.590 -0.7663 -0.1663 -1.9002
 5511SOL    HW228167   2.555   3.377   2.626  0.7567 -1.0528 -0.7458
 5512SOL     OW28168   4.289   3.002  11.483 -0.1088 -0.0552  0.1128
 5512SOL    HW128169   4.272   2.909  11.500 -1.7112  0.3531  0.7986
 5512SOL    HW228170   4.267   3.017  11.391 -0.1004 -0.6421  0.0143
 5513SOL     OW28171   2.227   3.312   8.207 -0.6893 -0.2599 -0.8075
 5513SOL    HW128172   2.294   3.244   8.193  0.9972  1.3081 -0.3664
 5513SOL    HW228173   2.198   3.289   8.296 -1.0918  3.0221 -0.0944
 5514SOL     OW28174   2.691   3.803   3.594 -0.1265  0.2680 -0.4272
 5514SOL    HW128175   2.636   3.738   3.551 -1.0940 -0.1966  1.5131
 5514SOL    HW228176   2.755   3.740   3.628 -0.2620 -0.2276 -1.0971
 5515SOL     OW28177   2.288   3.299   8.511  0.1675 -0.3528  0.1329
 5515SOL    HW128178   2.246   3.215   8.495  3.1373 -1.7684 -0.0325
 5515SOL    HW228179   2.235   3.335   8.583 -0.4201  0.7333 -0.8257
 5516SOL     OW28180   3.942   0.615   7.359  0.4301 -0.1739 -0.0595
 5516SOL    HW128181   3.918   0.591   7.448 -2.5916 -0.3632 -0.9382
 5516SOL    HW228182   3.889   0.549   7.314  2.2269 -2.1352  0.7110
 5517SOL     OW28183   0.571   2.254  10.090  0.2349 -0.2420  0.6314
 5517SOL    HW128184   0.568   2.285  10.181  0.9944  0.2869  0.4771
 5517SOL    HW228185   0.602   2.165  10.108  1.5396 -0.4036 -2.4334
 5518SOL     OW28186   4.091   1.863   3.806  0.1161  0.1288 -0.1568
 5518SOL    HW128187   4.088   1.768   3.796 -1.2851  0.0884  0.6924
 5518SOL    HW228188   4.158   1.898   3.748  0.2986 -0.1045 -0.0867
 5519SOL     OW28189   2.980   3.123   9.894 -0.3324  0.0038 -0.2387
 5519SOL    HW128190   2.905   3.086   9.942 -0.6113  1.2817  0.3041
 5519SOL    HW228191   3.050   3.058   9.889 -0.5486 -0.2394 -0.1628
 5520SOL     OW28192   2.195   2.225   4.719 -0.7338  0.2515  0.2539
 5520SOL    HW128193   2.162   2.156   4.778 -0.6593 -0.2442 -0.2787
 5520SOL    HW228194   2.253   2.278   4.773  1.0529 -1.3067 -0.1320
 5521SOL     OW28195   1.786   3.676   4.835 -0.0102  0.8975  0.2599
 5521SOL    HW128196   1.847   3.608   4.807 -1.1995 -0.1689  0.2535
 5521SOL    HW228197   1.839   3.751   4.862  0.2674  0.0567  2.0534
 5522SOL     OW28198   1.863   0.495   7.272  0.0753  0.0388 -0.3624
 5522SOL    HW128199   1.931   0.436   7.240 -0.2966 -1.2644  1.2861
 5522SOL    HW228200   1.796   0.444   7.317 -1.6385  1.7453 -0.9390
 5523SOL     OW28201   3.340   4.686   5.309  0.0753 -0.2052 -0.4320
 5523SOL    HW128202   3.362   4.688   5.402  1.2762  1.7749 -0.7716
 5523SOL    HW228203   3.368   0.030   5.271  0.4665 -1.3543 -2.6703
 5524SOL     OW28204   1.640   3.620  12.216  0.2828  0.0243 -0.2484
 5524SOL    HW128205   1.667   3.708  12.190  1.3372 -0.5469 -1.0950
 5524SOL    HW228206   1.703   3.603  12.286 -0.1175  0.1802  0.1475
 5525SOL     OW28207   0.458   0.961  10.924 -0.1666  0.0809 -0.4686
 5525SOL    HW128208   0.520   0.889  10.935  0.6899  1.3374  2.9390
 5525SOL    HW228209   0.408   0.948  11.005  2.0256  2.7695  1.3233
 5526SOL     OW28210   0.798   3.965   8.980 -0.1625 -0.4218  0.4482
 5526SOL    HW128211   0.774   4.006   8.897  0.4445 -1.4201 -0.2272
 5526SOL    HW228212   0.889   3.941   8.965 -0.3611 -0.8159 -0.1515
 5527SOL     OW28213   3.365   3.552   7.497  0.1039  0.3844  0.5093
 5527SOL    HW128214   3.359   3.647   7.511  0.5753  0.3240  1.0825
 5527SOL    HW228215   3.444   3.525   7.543  0.2299  0.2049  0.1858
 5528SOL     OW28216   3.056   1.445   2.162 -0.3276 -0.9571 -0.1500
 5528SOL    HW128217   2.965   1.473   2.168  0.1389  0.4673  0.2410
 5528SOL    HW228218   3.054   1.362   2.209  3.5244 -0.1588  1.4221
 5529SOL     OW28219   2.052   3.729  16.322 -0.2777  0.0277 -0.7382
 5529SOL    HW128220   1.977   3.757  16.269  0.0899  2.9423  0.2936
 5529SOL    HW228221   2.109   3.801  16.294 -0.6491  0.0166 -1.5390
 5530SOL     OW28222   2.638   4.397   3.037 -0.5210  0.3749  0.2219
 5530SOL    HW128223   2.581   4.457   2.989  1.3455  1.5891 -0.4374
 5530SOL    HW228224   2.719   4.395   2.987 -0.5327  0.1407  0.2102
 5531SOL     OW28225   1.922   3.738   2.814 -0.1526  0.5566  0.7126
 5531SOL    HW128226   1.913   3.796   2.738  0.1679 -0.9293 -0.4569
 5531SOL    HW228227   1.853   3.675   2.793  0.9560 -0.4544  0.1345
 5532SOL     OW28228   2.252   4.037   2.391 -0.1418 -0.3694 -0.6140
 5532SOL    HW128229   2.196   4.112   2.412 -0.0642 -1.0206  2.0247
 5532SOL    HW228230   2.287   4.013   2.477 -1.6783  2.1003  0.7150
 5533SOL     OW28231   3.086   0.498   8.900  0.3494  0.0905  0.5928
 5533SOL    HW128232   3.178   0.525   8.905  0.4850 -0.5777  1.7188
 5533SOL    HW228233   3.057   0.549   8.824  0.0313  1.0934  1.4012
 5534SOL     OW28234   2.184   4.177   3.010 -0.3140 -0.1404  0.4564
 5534SOL    HW128235   2.259   4.214   3.057 -0.0376 -0.8800  0.5954
 5534SOL    HW228236   2.169   4.250   2.950 -0.4041 -0.7192 -0.2253
 5535SOL     OW28237   4.018   3.341   9.707  0.3271 -0.1663  0.5800
 5535SOL    HW128238   4.086   3.275   9.721  1.9310  1.9572  2.9373
 5535SOL    HW228239   3.942   3.285   9.698 -1.8226  2.9761 -0.8381
 5536SOL     OW28240   0.415   2.305   4.991 -0.1537 -0.0066  0.0110
 5536SOL    HW128241   0.417   2.219   5.032 -1.0059  0.7191  1.6194
 5536SOL    HW228242   0.478   2.347   5.049  0.6447 -2.6242  1.0441
 5537SOL     OW28243   0.118   4.646   9.545 -0.5615 -0.4476 -0.0303
 5537SOL    HW128244   0.119   4.568   9.600  1.9465 -1.6939 -1.8764
 5537SOL    HW228245   0.025   4.659   9.525 -0.9133 -0.9470  1.3274
 5538SOL     OW28246   1.210   2.400   8.196 -0.0366  0.2645  0.0347
 5538SOL    HW128247   1.233   2.319   8.242 -0.4282  0.3447  0.3674
 5538SOL    HW228248   1.256   2.387   8.113 -2.3105 -0.2892 -1.1484
 5539SOL     OW28249   0.829   1.679   4.372  0.0578 -0.2356  0.0744
 5539SOL    HW128250   0.748   1.718   4.404 -0.3822 -0.5345 -0.6606
 5539SOL    HW228251   0.860   1.751   4.317  0.8941 -1.2370 -0.7724
 5540SOL     OW28252   1.503   1.997   0.845  0.2642  0.0224 -0.2438
 5540SOL    HW128253   1.507   2.073   0.903 -1.8978 -0.4081  0.4808
 5540SOL    HW228254   1.448   2.031   0.774 -0.7624  0.5413  0.7994
 5541SOL     OW28255   4.007   2.863   8.380 -0.4513 -0.9074  0.7785
 5541SOL    HW128256   4.084   2.858   8.437 -1.1376  0.0991  1.8016
 5541SOL    HW228257   3.952   2.791   8.410 -2.9328  1.2820  1.5303
 5542SOL     OW28258   2.478   0.800   8.106 -0.2926 -0.4883 -0.3612
 5542SOL    HW128259   2.507   0.726   8.161  1.4596  1.4158  1.2630
 5542SOL    HW228260   2.469   0.867   8.173 -0.5910  0.6092 -1.5052
 5543SOL     OW28261   3.960   1.516   5.144  0.1163 -0.4470  0.0234
 5543SOL    HW128262   3.907   1.541   5.219 -0.3547  0.3857 -0.5798
 5543SOL    HW228263   3.880   1.501   5.093 -1.4984  0.1011  2.3880
 5544SOL     OW28264   2.533   1.416   8.540 -0.4042 -0.3391 -0.0319
 5544SOL    HW128265   2.623   1.436   8.512 -0.5817  1.1103  0.4407
 5544SOL    HW228266   2.501   1.377   8.459  1.2873  0.1441 -0.9426
 5545SOL     OW28267   2.303   2.448   4.061  0.6722 -0.2251 -0.5983
 5545SOL    HW128268   2.378   2.389   4.074  0.4285 -0.5662 -0.7635
 5545SOL    HW228269   2.330   2.521   4.005  3.0897 -1.0281 -0.5002
 5546SOL     OW28270   4.701   3.560   3.327 -0.3991  0.3825  0.2098
 5546SOL    HW128271   4.612   3.568   3.292  0.0418  0.3182 -0.9239
 5546SOL    HW228272   0.007   3.640   3.300 -0.5916 -0.6925 -3.2601
 5547SOL     OW28273   1.291   1.288   6.015  0.0479 -0.2008  0.4362
 5547SOL    HW128274   1.242   1.293   6.097 -1.4440 -2.1769 -0.3272
 5547SOL    HW228275   1.290   1.378   5.981 -2.3276  0.0128  1.0591
 5548SOL     OW28276   4.151   4.076   5.703 -0.2066 -0.4426  0.4375
 5548SOL    HW128277   4.150   4.141   5.633  1.0978 -0.5315  0.3476
 5548SOL    HW228278   4.149   3.999   5.647  1.6445  0.6119 -1.0989
 5549SOL     OW28279   4.036   1.607   9.412 -0.4267  0.2266 -0.0420
 5549SOL    HW128280   4.001   1.520   9.395  1.4146 -0.6302  0.5818
 5549SOL    HW228281   4.123   1.590   9.377 -0.6677 -2.3639  0.6425
 5550SOL     OW28282   0.595   2.926   2.376  0.2924 -0.4158  0.0064
 5550SOL    HW128283   0.579   2.977   2.296 -3.2400  1.9665  2.2248
 5550SOL    HW228284   0.512   2.879   2.376  0.5365 -0.8457  0.3808
 5551SOL     OW28285   0.995   4.278   6.318  0.0606 -0.0288  0.0023
 5551SOL    HW128286   1.063   4.211   6.311  2.0661  1.8214  1.4043
 5551SOL    HW228287   1.049   4.353   6.345 -0.3896  0.0043  0.7937
 5552SOL     OW28288   1.729   1.359   2.755  0.3786  0.0882  0.8191
 5552SOL    HW128289   1.738   1.391   2.666  0.1854 -0.7257  0.5044
 5552SOL    HW228290   1.816   1.320   2.761  0.3773  0.0549  0.6074
 5553SOL     OW28291   0.192   1.523  12.599  0.4074  0.1033  0.0557
 5553SOL    HW128292   0.243   1.540  12.520  0.3660  0.9562  0.2195
 5553SOL    HW228293   0.104   1.511  12.564  0.2698  1.4907 -0.0718
 5554SOL     OW28294   0.547   1.770   7.459  0.3750 -0.2311  0.1136
 5554SOL    HW128295   0.599   1.693   7.481 -1.4577 -0.5792  3.3391
 5554SOL    HW228296   0.597   1.844   7.492 -0.2008  0.2174 -0.0162
 5555SOL     OW28297   3.685   2.575   2.502  0.0793  0.3664 -0.1345
 5555SOL    HW128298   3.683   2.670   2.495  1.1298  0.3371 -0.6947
 5555SOL    HW228299   3.690   2.560   2.407  0.9098 -0.7441  0.0842
 5556SOL     OW28300   1.727   2.798   3.551  0.1707  0.3551  0.0030
 5556SOL    HW128301   1.692   2.855   3.482 -1.1393  0.5328  0.8134
 5556SOL    HW228302   1.689   2.844   3.626 -1.9915  0.8171 -1.3780
 5557SOL     OW28303   1.619   1.773   4.138  1.0338 -0.1994 -0.4432
 5557SOL    HW128304   1.640   1.861   4.171 -1.3572 -0.0346  0.6677
 5557SOL    HW228305   1.578   1.798   4.055 -0.3211 -0.3966  0.1531
 5558SOL     OW28306   3.032   2.263   7.995  0.1333  0.0445  0.3048
 5558SOL    HW128307   2.975   2.203   7.946  1.4361  0.6580 -1.9472
 5558SOL    HW228308   2.961   2.326   8.006  0.8576  0.5135  2.3228
 5559SOL     OW28309   2.965   1.914   2.652 -0.0709 -0.2490 -0.0338
 5559SOL    HW128310   3.019   1.893   2.576  1.6768  1.7263  0.6765
 5559SOL    HW228311   2.930   1.995   2.615 -1.0415  0.1239  1.6529
 5560SOL     OW28312   2.391   0.095  17.612 -0.0303  0.4066  0.0624
 5560SOL    HW128313   2.418   0.157  17.680  2.4082  2.4577 -2.7825
 5560SOL    HW228314   2.305   0.133  17.593 -0.2160 -0.0202  0.0465
 5561SOL     OW28315   0.784   1.031   6.077  0.1660 -0.1767 -0.0046
 5561SOL    HW128316   0.743   0.945   6.079  3.5055 -1.7613 -0.9608
 5561SOL    HW228317   0.716   1.098   6.069 -0.2544 -0.4968  0.8917
 5562SOL     OW28318   2.440   4.356   9.505  0.5383 -0.3694 -0.1535
 5562SOL    HW128319   2.463   4.419   9.436 -0.9297  1.6560  1.1852
 5562SOL    HW228320   2.528   4.351   9.542  1.0455  0.2651 -1.2681
 5563SOL     OW28321   1.196   2.378  12.130 -0.4017  0.5992 -0.3669
 5563SOL    HW128322   1.112   2.382  12.176 -0.6326 -0.4354 -0.7166
 5563SOL    HW228323   1.194   2.470  12.102 -3.3216 -0.2374 -2.9123
 5564SOL     OW28324   3.465   2.467   9.287 -0.3516 -0.2655  0.0089
 5564SOL    HW128325   3.382   2.514   9.282  0.2780  1.0434  1.7222
 5564SOL    HW228326   3.517   2.511   9.354 -0.7290  0.0113  0.1204
 5565SOL     OW28327   1.234   0.761   6.503  0.7665  0.3549 -0.1766
 5565SOL    HW128328   1.299   0.830   6.518  0.7925  0.2944 -0.0154
 5565SOL    HW228329   1.279   0.700   6.446 -0.8446 -0.3933 -0.6551
 5566SOL     OW28330   3.271   0.992   3.075 -0.5948 -0.2517 -1.0015
 5566SOL    HW128331   3.347   0.972   3.020 -0.4233 -1.0293 -0.4759
 5566SOL    HW228332   3.325   1.039   3.139  1.7666 -1.1743 -2.3243
 5567SOL     OW28333   1.621   3.718   7.425  0.3212  0.2502 -0.4046
 5567SOL    HW128334   1.704   3.756   7.397  1.2984 -0.9381  0.8912
 5567SOL    HW228335   1.652   3.650   7.485 -0.0168 -0.5860 -1.1935
 5568SOL     OW28336   1.800   4.456   2.418 -0.6062  0.4144  0.2814
 5568SOL    HW128337   1.820   4.398   2.344  0.4577  1.4336 -0.2306
 5568SOL    HW228338   1.706   4.467   2.406 -1.5183 -4.0793  2.8259
 5569SOL     OW28339   3.087   0.228   7.034 -0.6385  0.0688 -0.6722
 5569SOL    HW128340   3.146   0.252   7.105 -0.6276  1.2656 -1.0858
 5569SOL    HW228341   3.134   0.288   6.975  2.9505  0.2602  2.4240
 5570SOL     OW28342   2.251   2.898   6.024  0.3734  0.2433  0.3439
 5570SOL    HW128343   2.178   2.892   6.085  1.9817  1.6156  2.3877
 5570SOL    HW228344   2.248   2.993   6.016 -0.1422  0.1372 -0.7176
 5571SOL     OW28345   0.032   4.266   7.666  0.3894  0.1542 -0.3153
 5571SOL    HW128346   0.054   4.279   7.758  2.8396 -3.4009 -0.4010
 5571SOL    HW228347   0.043   4.172   7.649  0.8313  0.2145 -0.3516
 5572SOL     OW28348   2.195   1.235  11.198 -0.0618 -0.0453  0.6691
 5572SOL    HW128349   2.161   1.313  11.154  0.4737 -0.0474  0.2467
 5572SOL    HW228350   2.157   1.249  11.285  0.5795 -0.7078  1.0456
 5573SOL     OW28351   0.452   4.274   7.862  0.4882 -0.0059 -0.3110
 5573SOL    HW128352   0.388   4.344   7.876  0.5647 -0.1895  0.9296
 5573SOL    HW228353   0.430   4.205   7.925  1.4235 -1.1916 -1.2802
 5574SOL     OW28354   4.576   0.907   9.758  0.0214  0.0348 -0.3478
 5574SOL    HW128355   4.491   0.951   9.757  0.3185  0.6314  0.6133
 5574SOL    HW228356   4.630   0.971   9.804 -1.2480 -0.6998  2.1730
 5575SOL     OW28357   3.002   3.082   4.938 -0.0480  0.8418  0.8675
 5575SOL    HW128358   3.030   3.134   5.014 -0.8335 -0.9781  2.3868
 5575SOL    HW228359   2.989   2.996   4.977  1.4094  0.6452  0.9485
 5576SOL     OW28360   3.725   1.543   8.763  0.1448  0.5371 -0.2663
 5576SOL    HW128361   3.648   1.559   8.817 -0.3987 -1.7915 -0.3606
 5576SOL    HW228362   3.695   1.499   8.683  0.3440 -3.7092  2.0397
 5577SOL     OW28363   1.366   1.370  13.723  0.2413  0.1620 -0.3664
 5577SOL    HW128364   1.283   1.343  13.762  1.2318 -2.4782 -0.0819
 5577SOL    HW228365   1.424   1.360  13.798 -1.4527  1.5612  1.1155
 5578SOL     OW28366   4.064   2.374   2.661 -0.2183 -0.4222 -0.1789
 5578SOL    HW128367   4.003   2.340   2.727  0.1300 -4.0311 -1.7318
 5578SOL    HW228368   4.018   2.350   2.581 -2.6849  1.3700  0.6893
 5579SOL     OW28369   1.799   3.965   5.649  0.4557 -0.5874  0.1405
 5579SOL    HW128370   1.754   4.041   5.613  1.3612 -0.4485 -0.6829
 5579SOL    HW228371   1.852   3.932   5.577  0.6616 -1.4156  0.6691
 5580SOL     OW28372   4.561   4.048   9.953  0.3324 -0.2105 -0.2730
 5580SOL    HW128373   4.614   4.103  10.011 -0.0048 -0.1095 -0.0581
 5580SOL    HW228374   4.468   4.060   9.974  1.0763  1.2868  2.2421
 5581SOL     OW28375   2.254   0.708   4.712 -0.3492 -0.0064  0.1421
 5581SOL    HW128376   2.289   0.720   4.800 -1.7005  3.8893  0.1372
 5581SOL    HW228377   2.196   0.635   4.733  0.7775 -1.5471 -2.0386
 5582SOL     OW28378   4.261   0.013   8.910 -0.1841 -0.2698  0.1663
 5582SOL    HW128379   4.203   0.078   8.949 -1.6007 -2.1059  1.1022
 5582SOL    HW228380   4.210   4.674   8.927 -0.4538 -0.6344 -2.3082
 5583SOL     OW28381   1.079   4.325   9.414  0.4679  0.4299  0.3074
 5583SOL    HW128382   1.119   4.343   9.499  1.5805  0.6341 -0.2545
 5583SOL    HW228383   0.985   4.332   9.428  0.5195  2.1177 -0.1612
 5584SOL     OW28384   2.492   4.149   9.826 -0.1397 -0.1198  0.1722
 5584SOL    HW128385   2.565   4.123   9.770 -0.5329  1.7770 -1.2031
 5584SOL    HW228386   2.526   4.203   9.897 -1.5939  0.4158  0.4672
 5585SOL     OW28387   4.101   1.191  11.096 -0.6636 -0.0124 -0.3728
 5585SOL    HW128388   4.054   1.156  11.021 -1.3461  0.6286 -0.2400
 5585SOL    HW228389   4.030   1.227  11.148  0.7279  0.0450  1.4828
 5586SOL     OW28390   0.115   1.947   8.049 -0.1475  0.6761  0.5140
 5586SOL    HW128391   0.158   2.008   7.988  1.0594 -1.3245 -0.6378
 5586SOL    HW228392   0.184   1.947   8.115  0.3693 -3.0966 -0.0262
 5587SOL     OW28393   3.705   0.223   7.445 -0.4564  0.1397 -0.1494
 5587SOL    HW128394   3.769   0.192   7.381  0.3903 -2.2383  1.8471
 5587SOL    HW228395   3.644   0.257   7.379 -1.6622 -0.5073  0.6315
 5588SOL     OW28396   3.348   4.621  13.007  0.1535 -0.4529  0.4192
 5588SOL    HW128397   3.276   4.684  13.000 -0.7633 -1.6368 -0.7630
 5588SOL    HW228398   3.318   4.537  12.973 -0.4517  0.5443 -1.5447
 5589SOL     OW28399   2.249   1.093   0.682 -0.3815 -0.0644  0.3432
 5589SOL    HW128400   2.161   1.054   0.678 -1.3187  2.1581 -0.8047
 5589SOL    HW228401   2.262   1.111   0.589 -0.6485  1.2583  0.5702
 5590SOL     OW28402   1.442   0.832   4.745  0.5766  0.1655  0.2309
 5590SOL    HW128403   1.389   0.844   4.666  1.1800  1.1717 -0.0159
 5590SOL    HW228404   1.413   0.909   4.792 -0.0067  0.4123 -0.5259
 5591SOL     OW28405   2.166   4.537  14.008 -0.1463  0.6831 -0.4531
 5591SOL    HW128406   2.136   4.576  14.090  1.4520 -0.9158  0.8900
 5591SOL    HW228407   2.232   4.597  13.973  0.5012 -0.7067 -1.6253
 5592SOL     OW28408   2.743   3.742   9.875  0.1692 -0.3309 -0.5524
 5592SOL    HW128409   2.751   3.697   9.791 -3.0338  0.2769 -1.1634
 5592SOL    HW228410   2.720   3.671   9.935 -0.0265 -0.8569 -1.2593
 5593SOL     OW28411   2.957   0.509   4.430  0.0325  0.2702  0.4851
 5593SOL    HW128412   2.973   0.496   4.337 -0.3772  1.9876  0.1860
 5593SOL    HW228413   2.999   0.594   4.445  2.4621 -0.6679 -1.0418
 5594SOL     OW28414   2.098   3.129   8.375 -0.3832  0.3089 -0.0566
 5594SOL    HW128415   2.082   3.072   8.451  1.6130 -1.0533 -0.6606
 5594SOL    HW228416   2.125   3.072   8.303 -0.7614  0.9432 -0.7048
 5595SOL     OW28417   4.679   1.451  12.469 -0.1281  0.2904  0.3564
 5595SOL    HW128418   4.590   1.474  12.494 -1.1327 -1.4936 -1.5342
 5595SOL    HW228419   4.701   1.521  12.407  0.9086 -0.2023  0.1578
 5596SOL     OW28420   3.774   4.053  15.595 -0.2684 -0.0345 -0.7073
 5596SOL    HW128421   3.850   4.108  15.613 -1.7473  1.9500 -0.5225
 5596SOL    HW228422   3.722   4.049  15.675 -0.8338 -1.8929 -1.1533
 5597SOL     OW28423   2.770   2.158   5.874 -0.0202  0.0388 -0.3975
 5597SOL    HW128424   2.738   2.192   5.958  2.4189  2.2025 -0.3715
 5597SOL    HW228425   2.756   2.063   5.878 -1.0040  0.2139  0.3923
 5598SOL     OW28426   2.715   1.758   8.079  0.6861  0.4273 -0.6403
 5598SOL    HW128427   2.784   1.739   8.143  0.6148 -1.2089 -1.0669
 5598SOL    HW228428   2.635   1.734   8.126  1.9319  2.1099  2.3319
 5599SOL     OW28429   2.492   4.008   4.511  0.2837 -0.2129  0.0386
 5599SOL    HW128430   2.419   4.069   4.525  1.1859  1.5482 -2.8735
 5599SOL    HW228431   2.459   3.929   4.552 -1.5971 -0.2287 -1.4774
 5600SOL     OW28432   2.088   2.928   3.566  0.3068 -0.6217 -0.6605
 5600SOL    HW128433   2.013   2.944   3.622  0.0968 -0.7209 -0.9127
 5600SOL    HW228434   2.147   2.915   3.640  1.7216  0.2888 -1.6383
 5601SOL     OW28435   1.537   3.297  14.992 -0.2400  0.2175 -0.1912
 5601SOL    HW128436   1.579   3.221  14.950  0.2719  1.5820 -2.1294
 5601SOL    HW228437   1.608   3.361  14.989 -0.3682  0.5080  3.5796
 5602SOL     OW28438   2.922   1.623   7.439 -0.0608  0.0868  0.3499
 5602SOL    HW128439   2.997   1.581   7.397  0.0430  0.1841  0.4378
 5602SOL    HW228440   2.934   1.593   7.529 -0.7873  0.0558  0.4405
 5603SOL     OW28441   2.060   3.869   6.607  0.0014  0.0195  0.3711
 5603SOL    HW128442   2.106   3.915   6.536 -0.3713  0.4182  0.3923
 5603SOL    HW228443   2.019   3.794   6.565  0.9407 -0.3224  0.0509
 5604SOL     OW28444   1.570   1.584   9.553  0.8677 -0.4109 -0.3449
 5604SOL    HW128445   1.477   1.561   9.547  0.6697  0.8564 -1.8838
 5604SOL    HW228446   1.612   1.533   9.484  0.0627 -0.9604 -0.4356
 5605SOL     OW28447   3.822   2.696   5.005 -0.2578  0.6590 -0.1967
 5605SOL    HW128448   3.795   2.737   5.087  3.5494  1.5250  0.6528
 5605SOL    HW228449   3.802   2.762   4.938 -1.4996  0.1771 -0.2955
 5606SOL     OW28450   2.643   0.601  15.701  0.4052 -0.3324  0.7661
 5606SOL    HW128451   2.738   0.603  15.712  0.5320 -0.7995 -0.2456
 5606SOL    HW228452   2.617   0.667  15.765 -2.6590 -0.8303  0.0264
 5607SOL     OW28453   2.777   2.143   3.467 -0.0657 -0.0339 -0.1473
 5607SOL    HW128454   2.728   2.072   3.509  1.2836 -1.1640 -0.4786
 5607SOL    HW228455   2.816   2.104   3.389 -1.2946 -0.4601 -0.5519
 5608SOL     OW28456   2.665   0.671   5.340  0.4737 -0.0610  0.3259
 5608SOL    HW128457   2.670   0.687   5.435 -0.1746  0.1235  0.3256
 5608SOL    HW228458   2.636   0.758   5.315  0.3294  0.1776  1.2931
 5609SOL     OW28459   0.114   3.632   2.434  0.4028 -0.2588 -0.2475
 5609SOL    HW128460   0.077   3.720   2.429  1.4592  0.2072  0.2919
 5609SOL    HW228461   0.047   3.594   2.491 -0.2012 -1.8462 -2.0124
 5610SOL     OW28462   0.389   3.670   6.315 -0.0438  0.7300 -0.8245
 5610SOL    HW128463   0.456   3.736   6.300  1.4078 -0.5820 -0.2121
 5610SOL    HW228464   0.411   3.655   6.408 -2.4306 -1.1627 -0.5526
 5611SOL     OW28465   0.268   2.038   3.573 -0.1456 -0.0494  0.2376
 5611SOL    HW128466   0.289   2.085   3.493  1.1583  1.0585  1.2276
 5611SOL    HW228467   0.251   2.118   3.623 -1.0314  0.5880 -1.0996
 5612SOL     OW28468   2.793   4.631   5.660  0.1106  0.3662  0.2650
 5612SOL    HW128469   2.769   4.562   5.598  1.4224 -0.5279  0.7673
 5612SOL    HW228470   2.722   4.694   5.643  0.8699  1.5347  1.4049
 5613SOL     OW28471   1.635   1.579   1.375  0.3980 -0.4092  0.1941
 5613SOL    HW128472   1.671   1.626   1.300 -0.3716 -2.3126 -1.3635
 5613SOL    HW228473   1.547   1.615   1.379 -0.1290 -1.5874 -1.2658
 5614SOL     OW28474   2.656   0.915   6.558  0.4115 -0.0222 -0.3204
 5614SOL    HW128475   2.658   1.007   6.531  2.7578  0.3411  1.1275
 5614SOL    HW228476   2.673   0.922   6.652 -0.4172  1.1588 -0.2670
 5615SOL     OW28477   4.209   2.678   6.214 -0.4067 -0.2006  0.0106
 5615SOL    HW128478   4.296   2.641   6.229 -1.6429 -2.9975  0.2552
 5615SOL    HW228479   4.204   2.673   6.119 -1.6659 -0.0176  0.0666
 5616SOL     OW28480   0.588   0.879   7.307 -0.2041  0.0041  0.1340
 5616SOL    HW128481   0.504   0.909   7.341  0.0437  1.3154 -0.4528
 5616SOL    HW228482   0.623   0.820   7.375 -2.8499 -1.4775  0.1963
 5617SOL     OW28483   0.012   2.056   3.921 -0.1663  0.1621  0.3655
 5617SOL    HW128484   4.733   2.142   3.959  1.3301 -0.4161  2.4170
 5617SOL    HW228485   4.675   2.033   3.869  1.5868  0.5690 -2.4218
 5618SOL     OW28486   3.333   1.163  10.275  1.0129 -0.5583 -0.3206
 5618SOL    HW128487   3.297   1.183  10.361 -0.2859  1.1315 -1.2393
 5618SOL    HW228488   3.371   1.248  10.252  2.5238 -0.3510  2.9440
 5619SOL     OW28489   4.044   3.271   3.750  0.0384 -0.6749  0.1267
 5619SOL    HW128490   4.138   3.281   3.732 -0.2588  1.0499 -0.4714
 5619SOL    HW228491   4.015   3.249   3.661 -1.1698 -1.2261  0.6594
 5620SOL     OW28492   4.430   2.352  10.943 -0.0340 -0.2405 -0.0011
 5620SOL    HW128493   4.401   2.264  10.964 -0.2283  0.8538  4.2623
 5620SOL    HW228494   4.492   2.328  10.874 -0.8988 -3.5945  0.4211
 5621SOL     OW28495   2.772   2.465  13.657 -0.3058 -0.4589 -0.6819
 5621SOL    HW128496   2.816   2.407  13.594  0.3619 -0.2873 -0.3730
 5621SOL    HW228497   2.692   2.481  13.607 -1.4445  2.5910  2.1916
 5622SOL     OW28498   2.556   3.089   3.931 -0.3527  0.1181 -0.2609
 5622SOL    HW128499   2.518   3.173   3.907  0.0853  0.7472  1.2415
 5622SOL    HW228500   2.523   3.067   4.019  2.4889  0.0463  0.7817
 5623SOL     OW28501   2.258   3.287   4.544  0.2393  0.5808  0.4870
 5623SOL    HW128502   2.323   3.221   4.520  0.3524  0.4611  1.1287
 5623SOL    HW228503   2.174   3.242   4.547  0.9407 -0.9164 -1.7147
 5624SOL     OW28504   4.201   1.472  11.185  0.4514  0.3222 -0.7671
 5624SOL    HW128505   4.294   1.472  11.162  0.5778 -0.5779 -0.2621
 5624SOL    HW228506   4.169   1.389  11.149  0.1816  0.7301 -1.4578
 5625SOL     OW28507   4.015   1.505  17.619  0.1059  0.1725  0.4617
 5625SOL    HW128508   4.103   1.541  17.603  1.0468 -1.5214  1.8774
 5625SOL    HW228509   3.958   1.578  17.645 -0.5517 -0.2044  0.0725
 5626SOL     OW28510   1.583   3.787  13.359  0.0728 -0.5294 -0.7755
 5626SOL    HW128511   1.564   3.841  13.436  1.3521  1.1846 -1.6549
 5626SOL    HW228512   1.537   3.833  13.289 -0.7558  0.7130  0.5882
 5627SOL     OW28513   3.508   1.352   9.842  0.7443  0.1961  0.7391
 5627SOL    HW128514   3.488   1.372   9.934  0.0879  2.3032  0.1201
 5627SOL    HW228515   3.557   1.431   9.819  1.7893 -0.7049 -0.1269
 5628SOL     OW28516   2.608   1.374   5.202  0.1374  0.0704 -0.4263
 5628SOL    HW128517   2.673   1.345   5.139 -0.4155 -0.3515 -0.8002
 5628SOL    HW228518   2.631   1.465   5.220  0.8155  0.0661 -1.2752
 5629SOL     OW28519   0.425   1.352   4.851  0.0419 -0.2261 -0.1124
 5629SOL    HW128520   0.440   1.359   4.757  1.4688  0.7473  0.1920
 5629SOL    HW228521   0.449   1.441   4.877  2.0485 -0.7020 -0.3396
 5630SOL     OW28522   3.218   3.567   9.203  0.2174 -0.2506  0.1427
 5630SOL    HW128523   3.297   3.513   9.204 -0.3700 -1.1219 -2.3566
 5630SOL    HW228524   3.241   3.631   9.271  1.3919  0.8018 -1.2660
 5631SOL     OW28525   1.371   1.932   8.663  0.7357 -0.1841  0.1507
 5631SOL    HW128526   1.315   1.934   8.741  0.7418  1.2920  0.1133
 5631SOL    HW228527   1.309   1.945   8.591 -0.0679  0.2730  0.9169
 5632SOL     OW28528   4.171   2.067   9.922 -0.0418 -0.0157 -0.0141
 5632SOL    HW128529   4.170   2.148   9.972 -2.4942  0.1722 -0.3264
 5632SOL    HW228530   4.161   1.998   9.989  1.1800  0.1411  0.3220
 5633SOL     OW28531   1.246   4.297  11.382 -0.1227 -0.6243  0.1763
 5633SOL    HW128532   1.172   4.251  11.342  0.0997 -0.9457  0.1318
 5633SOL    HW228533   1.298   4.227  11.421 -0.4953 -1.3676 -0.6478
 5634SOL     OW28534   4.005   0.184   2.664 -0.2892  0.7886 -0.1693
 5634SOL    HW128535   4.027   0.259   2.608  0.4519 -0.4895 -1.5759
 5634SOL    HW228536   3.910   0.190   2.660 -0.2230  2.2696  0.2336
 5635SOL     OW28537   3.023   4.685   4.533  0.3356 -0.3110 -0.0190
 5635SOL    HW128538   2.996   4.602   4.574 -0.1712 -0.5303 -0.8063
 5635SOL    HW228539   2.933   4.714   4.515  0.2983 -1.0819 -1.0397
 5636SOL     OW28540   0.405   3.946   6.134  0.2044  0.0821 -0.5678
 5636SOL    HW128541   0.385   3.872   6.077 -0.9304 -0.1300  0.0991
 5636SOL    HW228542   0.500   3.933   6.141 -0.0248 -0.4132  1.5337
 5637SOL     OW28543   2.402   1.184  10.342  0.1005  0.1665  0.1064
 5637SOL    HW128544   2.409   1.273  10.378 -0.4036  0.5608 -0.7777
 5637SOL    HW228545   2.310   1.172  10.364  0.2281 -1.7738 -0.3959
 5638SOL     OW28546   3.585   1.016  17.601 -0.4387 -0.2054 -0.4526
 5638SOL    HW128547   3.499   0.992  17.637  0.1926 -2.1261 -0.2477
 5638SOL    HW228548   3.638   0.953  17.649 -0.1355 -0.0336 -0.5661
 5639SOL     OW28549   1.895   2.684   2.934  0.0046 -0.3360 -0.2003
 5639SOL    HW128550   1.987   2.682   2.958 -0.4007 -1.9793  1.2145
 5639SOL    HW228551   1.858   2.664   3.020  0.3382 -2.8095 -0.6406
 5640SOL     OW28552   1.156   3.709   6.445  0.3462  0.0016 -0.7098
 5640SOL    HW128553   1.143   3.802   6.464 -1.4993 -0.4070  0.1001
 5640SOL    HW228554   1.222   3.717   6.376  1.8647 -2.6698  0.4726
 5641SOL     OW28555   3.757   4.489   3.367  0.1461 -0.4267  0.4816
 5641SOL    HW128556   3.804   4.478   3.284  1.3349  1.4528  0.9220
 5641SOL    HW228557   3.664   4.505   3.347  0.7861  0.4380 -1.8596
 5642SOL     OW28558   2.143   4.278   1.940 -0.1794  0.2136 -0.3664
 5642SOL    HW128559   2.223   4.235   1.909 -1.1542 -0.8864 -1.3275
 5642SOL    HW228560   2.083   4.241   1.876  0.1032 -2.1142  0.7116
 5643SOL     OW28561   3.480   4.505  16.507 -0.6694 -0.1510 -0.6457
 5643SOL    HW128562   3.446   4.574  16.563 -1.3295 -1.0978  0.1337
 5643SOL    HW228563   3.495   4.537  16.418  0.1969 -1.7165 -1.0705
 5644SOL     OW28564   3.526   4.230   3.675 -0.2535  0.8273  0.1357
 5644SOL    HW128565   3.602   4.204   3.624  0.6388  0.1801  1.7810
 5644SOL    HW228566   3.514   4.160   3.740 -0.7735 -0.4179 -1.3086
 5645SOL     OW28567   3.391   1.434  13.865  0.1046 -0.0245  0.0416
 5645SOL    HW128568   3.327   1.400  13.927  1.7677 -0.7160  1.3840
 5645SOL    HW228569   3.388   1.364  13.799  0.7791  0.2553 -0.2864
 5646SOL     OW28570   1.442   3.732   4.232 -0.4498  0.0357  0.5502
 5646SOL    HW128571   1.453   3.748   4.325  0.7406  2.1694  0.0393
 5646SOL    HW228572   1.515   3.672   4.213 -2.2754 -1.6095 -1.2929
 5647SOL     OW28573   3.900   0.275   6.820 -0.6166  0.2994 -0.2405
 5647SOL    HW128574   3.933   0.251   6.733 -1.7515 -0.6425 -0.3915
 5647SOL    HW228575   3.976   0.329   6.844  0.6697 -2.1990  1.2289
 5648SOL     OW28576   2.949   1.253  16.306 -0.3481 -0.7477  0.3130
 5648SOL    HW128577   2.930   1.317  16.374  0.9191 -1.3272  1.1967
 5648SOL    HW228578   2.864   1.258  16.261 -0.3201 -1.1222  0.2175
 5649SOL     OW28579   4.168   1.848   6.164 -0.0155 -0.1556  0.3363
 5649SOL    HW128580   4.169   1.754   6.146 -0.2225 -0.1124  0.1067
 5649SOL    HW228581   4.241   1.853   6.227 -0.4010 -0.3953  0.8018
 5650SOL     OW28582   3.584   1.691   8.394  0.0790 -0.2879 -0.2854
 5650SOL    HW128583   3.668   1.664   8.432  0.0053  0.2543  0.2759
 5650SOL    HW228584   3.602   1.784   8.378  0.8393 -0.1081  1.5496
 5651SOL     OW28585   3.661   0.198   3.797  0.3258 -0.1390  0.0519
 5651SOL    HW128586   3.566   0.199   3.803  0.2320  0.7574 -1.5983
 5651SOL    HW228587   3.674   0.259   3.725  1.1211 -2.8712 -2.0953
 5652SOL     OW28588   2.664   4.359  14.486  0.4429  0.5778  0.0199
 5652SOL    HW128589   2.602   4.301  14.530  2.7695 -0.2360  2.2605
 5652SOL    HW228590   2.743   4.307  14.499 -0.4963 -1.2176 -1.5089
 5653SOL     OW28591   2.595   3.730  14.975 -0.3028 -0.0807 -0.0800
 5653SOL    HW128592   2.611   3.818  15.009 -0.8108 -0.1893  0.4355
 5653SOL    HW228593   2.500   3.726  14.973 -0.3645  1.1493  0.6976
 5654SOL     OW28594   4.498   1.497   6.983 -0.1798  0.2277  0.3775
 5654SOL    HW128595   4.544   1.540   7.055  0.5929  0.2910 -0.1585
 5654SOL    HW228596   4.409   1.485   7.017  0.4667  0.0118  1.9916
 5655SOL     OW28597   0.907   1.002   9.562 -0.0318 -0.0488  0.5973
 5655SOL    HW128598   0.920   1.067   9.631  1.9189  1.3371 -1.0594
 5655SOL    HW228599   0.891   1.057   9.485 -0.9658 -1.5589 -0.2825
 5656SOL     OW28600   3.816   1.190  16.394  0.4390 -0.1743  0.1482
 5656SOL    HW128601   3.750   1.143  16.444  0.8023  0.6187  1.3671
 5656SOL    HW228602   3.770   1.238  16.325  0.5542 -0.2318  0.0317
 5657SOL     OW28603   3.172   3.495  16.708  0.2615  0.1667  0.1528
 5657SOL    HW128604   3.212   3.531  16.786 -1.2880 -0.9308  1.4547
 5657SOL    HW228605   3.104   3.444  16.753  0.1003  1.5004  1.4032
 5658SOL     OW28606   2.838   0.955   1.175  0.6014  0.1441 -0.0099
 5658SOL    HW128607   2.850   0.893   1.103  2.1834  0.9836 -0.4682
 5658SOL    HW228608   2.833   0.901   1.253  2.9432  0.6362  0.4788
 5659SOL     OW28609   2.048   1.901   2.992 -0.3507  0.1840  0.6082
 5659SOL    HW128610   1.971   1.951   2.966  0.2854  0.2259 -1.1924
 5659SOL    HW228611   2.026   1.811   3.016  2.9020 -0.5708  0.7853
 5660SOL     OW28612   1.034   1.426   1.121  0.4010 -0.2937  0.4597
 5660SOL    HW128613   1.015   1.513   1.087 -0.2776 -0.9970 -0.9430
 5660SOL    HW228614   0.985   1.375   1.056  1.4028  1.9617 -2.0371
 5661SOL     OW28615   4.481   1.466  16.631  0.2437 -0.1641 -0.4162
 5661SOL    HW128616   4.448   1.556  16.634 -0.2269 -0.3668  0.6677
 5661SOL    HW228617   4.569   1.482  16.597 -0.2362 -0.0175 -1.5650
 5662SOL     OW28618   3.974   1.835   0.718  0.5990 -0.3445 -0.4931
 5662SOL    HW128619   4.004   1.926   0.719 -1.0657  0.2166 -0.9927
 5662SOL    HW228620   3.974   1.820   0.624  1.1765  2.1369 -0.8959
 5663SOL     OW28621   2.776   3.446   9.109  0.2351 -0.0574  0.0005
 5663SOL    HW128622   2.702   3.390   9.134  0.2214 -0.2614 -0.5098
 5663SOL    HW228623   2.751   3.516   9.169  0.4497  0.4906 -0.5635
 5664SOL     OW28624   1.234   1.831  16.487  0.0999 -0.4405 -0.0930
 5664SOL    HW128625   1.183   1.811  16.408  0.7102  0.5889 -0.7571
 5664SOL    HW228626   1.213   1.924  16.491  0.9554 -0.2773  0.4248
 5665SOL     OW28627   1.459   1.255   0.280 -0.9189 -0.0658  0.8554
 5665SOL    HW128628   1.503   1.332   0.244 -0.8448 -0.7695 -0.5675
 5665SOL    HW228629   1.401   1.230   0.208  0.7979 -0.4635 -0.4124
 5666SOL     OW28630   0.786   1.502   6.448  0.2614  0.1883 -0.0396
 5666SOL    HW128631   0.740   1.459   6.375 -1.5043  2.7194 -0.4079
 5666SOL    HW228632   0.819   1.585   6.412 -0.3380 -1.6028 -4.7302
 5667SOL     OW28633   1.266   2.773  16.959  0.1603 -0.1621 -0.2019
 5667SOL    HW128634   1.338   2.835  16.957  0.3450 -0.3985 -0.8101
 5667SOL    HW228635   1.190   2.825  16.986 -0.9548 -1.0537 -1.5997
 5668SOL     OW28636   3.825   2.215   4.455  0.6474 -0.5504  0.6681
 5668SOL    HW128637   3.919   2.205   4.441  0.5194  2.8917 -2.5070
 5668SOL    HW228638   3.830   2.211   4.551  1.3100  1.7407  0.7356
 5669SOL     OW28639   1.840   4.215   3.095 -0.3765  0.0752 -0.3422
 5669SOL    HW128640   1.759   4.253   3.060 -0.8575 -0.3781  0.2918
 5669SOL    HW228641   1.874   4.174   3.016 -0.7982 -1.2517  0.1788
 5670SOL     OW28642   0.512   1.499   9.755  0.2180 -0.1241  0.4002
 5670SOL    HW128643   0.502   1.419   9.806  0.9583  0.6255  1.6983
 5670SOL    HW228644   0.538   1.566   9.818  0.1851  0.2846 -0.0209
 5671SOL     OW28645   0.049   4.301   6.252 -0.0754 -0.8553 -0.0438
 5671SOL    HW128646   4.701   4.339   6.262  0.8957  0.5351  2.9972
 5671SOL    HW228647   0.107   4.365   6.293  0.3031 -0.8608 -0.5612
 5672SOL     OW28648   2.162   0.857   7.989 -0.3872  0.0892  0.0911
 5672SOL    HW128649   2.159   0.776   7.938  1.2114 -0.2900  0.6003
 5672SOL    HW228650   2.171   0.825   8.079 -2.0659 -2.0726 -0.4915
 5673SOL     OW28651   3.118   3.933   2.365  0.5036  0.4977 -0.0738
 5673SOL    HW128652   3.049   3.995   2.389  0.3178  0.1707  0.2271
 5673SOL    HW228653   3.055   3.873   2.325  1.5327 -1.4473  1.2259
 5674SOL     OW28654   2.384   1.391   6.477  0.1559  0.5060 -0.2223
 5674SOL    HW128655   2.339   1.468   6.512 -0.3764 -0.5627  1.3998
 5674SOL    HW228656   2.452   1.428   6.420 -2.0417 -0.3720 -3.4010
 5675SOL     OW28657   1.807   1.157  13.813 -0.2879  0.1579 -0.4290
 5675SOL    HW128658   1.783   1.065  13.812  1.5239 -0.3115 -1.1296
 5675SOL    HW228659   1.792   1.182  13.722 -0.2505  1.0601 -0.1882
 5676SOL     OW28660   1.115   0.522   3.517  0.9048 -1.1392 -0.0768
 5676SOL    HW128661   1.038   0.576   3.536  0.7703 -1.6170  0.7703
 5676SOL    HW228662   1.120   0.459   3.590  0.6883  1.1856  1.9310
 5677SOL     OW28663   0.087   3.574  11.791 -0.1551 -0.3282 -0.0906
 5677SOL    HW128664   0.018   3.511  11.769 -1.8372  1.6611 -0.5178
 5677SOL    HW228665   0.171   3.545  11.755 -0.6394  0.9534 -2.2801
 5678SOL     OW28666   1.741   4.201   4.104 -0.1880  0.0310 -0.3721
 5678SOL    HW128667   1.817   4.181   4.049  1.3752  1.4710  1.3200
 5678SOL    HW228668   1.744   4.127   4.164  0.0100 -2.1504 -3.0254
 5679SOL     OW28669   4.080   3.687   0.358 -0.1048  0.2343  0.0460
 5679SOL    HW128670   4.048   3.719   0.443  0.7511 -1.2705  0.9254
 5679SOL    HW228671   4.082   3.592   0.365  1.0213  0.2318 -0.3159
 5680SOL     OW28672   4.283   3.516  16.306  0.1079  0.1020  0.0362
 5680SOL    HW128673   4.228   3.570  16.249  0.4794 -0.5856 -0.9933
 5680SOL    HW228674   4.304   3.452  16.237 -0.8265  0.3289 -0.4483
 5681SOL     OW28675   2.870   1.597   3.844 -0.2972  0.1591  0.0327
 5681SOL    HW128676   2.956   1.560   3.825  0.9883  2.5899  1.1392
 5681SOL    HW228677   2.821   1.516   3.830 -0.3405  0.3599 -1.0135
 5682SOL     OW28678   2.464   0.649   7.560 -0.1759 -0.3192 -0.4529
 5682SOL    HW128679   2.405   0.722   7.542  0.5798 -0.1429 -2.1933
 5682SOL    HW228680   2.541   0.685   7.517 -0.3043  0.3454 -0.1287
 5683SOL     OW28681   3.046   4.431   4.193  0.7176 -0.3266 -0.1675
 5683SOL    HW128682   3.051   4.366   4.123 -0.8120  0.4338 -0.9850
 5683SOL    HW228683   3.005   4.383   4.265 -1.8280 -0.5756 -1.7715
 5684SOL     OW28684   2.378   3.932   9.374 -0.3388 -0.1488  0.2552
 5684SOL    HW128685   2.440   3.902   9.441 -0.9837  1.4699  1.5869
 5684SOL    HW228686   2.327   3.995   9.425 -0.5639 -0.7752  0.8022
 5685SOL     OW28687   2.468   4.042   3.638  0.3418 -0.4916 -0.3515
 5685SOL    HW128688   2.536   3.986   3.599  0.0840 -0.4021 -0.9183
 5685SOL    HW228689   2.468   4.112   3.574 -0.4688  0.3966  0.6264
 5686SOL     OW28690   1.039   1.848   1.698 -0.2699  0.7950  0.7017
 5686SOL    HW128691   1.121   1.828   1.653 -1.2945  0.6969 -1.0989
 5686SOL    HW228692   1.046   1.782   1.767 -1.9964 -1.8504 -1.7135
 5687SOL     OW28693   3.296   0.382   3.466  0.7706  0.0689  0.4281
 5687SOL    HW128694   3.227   0.363   3.403 -0.2764 -1.4670  2.0427
 5687SOL    HW228695   3.312   0.299   3.511 -0.1980 -0.1861  0.3006
 5688SOL     OW28696   0.103   2.279  12.730 -0.1551 -0.5064 -0.2765
 5688SOL    HW128697   0.076   2.369  12.748  2.2240  0.5243 -1.8730
 5688SOL    HW228698   0.197   2.278  12.749  0.0444  1.3028 -1.1613
 5689SOL     OW28699   2.411   3.691   6.590  0.0816  0.1014 -0.2192
 5689SOL    HW128700   2.435   3.718   6.679  1.5547  0.6315 -0.7821
 5689SOL    HW228701   2.501   3.712   6.566  0.0592 -0.6514 -0.9293
 5690SOL     OW28702   3.119   1.182   5.967  0.8747  0.2354  0.0299
 5690SOL    HW128703   3.076   1.267   5.957 -1.1440 -0.6793  1.1174
 5690SOL    HW228704   3.042   1.131   5.990  1.4013  0.1486  1.5609
 5691SOL     OW28705   2.824   2.452   8.098  0.0679  0.4391 -0.9427
 5691SOL    HW128706   2.749   2.469   8.040  0.0442  0.6667 -0.8463
 5691SOL    HW228707   2.877   2.528   8.077  1.8696 -0.5297  0.1153
 5692SOL     OW28708   3.725   0.275   5.827 -0.2189 -0.3013  0.1435
 5692SOL    HW128709   3.692   0.190   5.858  0.7939 -1.6089 -2.3524
 5692SOL    HW228710   3.751   0.306   5.913 -1.2041  0.0209  0.3219
 5693SOL     OW28711   2.522   3.789  11.068 -0.0389 -0.3144  0.0488
 5693SOL    HW128712   2.560   3.839  11.141  0.2068  0.5580 -0.6799
 5693SOL    HW228713   2.477   3.860  11.022 -0.3645  0.4396  1.5285
 5694SOL     OW28714   4.186   0.736   3.181 -0.3281 -0.4743 -0.2058
 5694SOL    HW128715   4.263   0.748   3.125  0.9946  1.5844  2.0658
 5694SOL    HW228716   4.183   0.812   3.239 -2.1804  0.3011 -1.3336
 5695SOL     OW28717   1.459   4.258   5.180 -0.0094 -0.3050 -0.7027
 5695SOL    HW128718   1.538   4.269   5.126  1.8555 -2.2720  1.6196
 5695SOL    HW228719   1.424   4.347   5.181  1.0643  0.1197 -0.5171
 5696SOL     OW28720   0.272   0.185   7.592 -0.2758  0.0069 -0.4115
 5696SOL    HW128721   0.224   0.186   7.675  0.8016 -0.0080  0.2006
 5696SOL    HW228722   0.306   0.273   7.576  1.4070 -0.3838  1.0040
 5697SOL     OW28723   0.945   0.001   5.197  0.3572  0.1656 -0.3975
 5697SOL    HW128724   0.862   4.722   5.242  1.7838  1.2476  2.6942
 5697SOL    HW228725   0.911   0.031   5.113 -1.4018  0.3025  0.3433
 5698SOL     OW28726   1.692   4.446   2.745 -0.1203  0.3334  0.0435
 5698SOL    HW128727   1.748   4.381   2.703 -1.5857 -0.5699 -0.5317
 5698SOL    HW228728   1.623   4.462   2.680  0.1709  1.0823 -0.0739
 5699SOL     OW28729   1.053   3.767   2.316 -0.3119 -0.2911 -0.2134
 5699SOL    HW128730   1.067   3.778   2.410  0.8829 -1.8645 -0.1961
 5699SOL    HW228731   1.139   3.781   2.278 -0.0946  0.7868  0.6789
 5700SOL     OW28732   0.885   3.349   2.864 -0.1050 -0.5699 -0.4264
 5700SOL    HW128733   0.875   3.346   2.959  0.8460  2.3793 -0.2453
 5700SOL    HW228734   0.795   3.353   2.831 -0.2445 -0.8960 -0.0832
 5701SOL     OW28735   1.444   3.279   4.971 -0.1394  0.0667 -0.2033
 5701SOL    HW128736   1.507   3.350   4.964 -0.3109  0.2938  0.5689
 5701SOL    HW228737   1.447   3.271   4.875 -0.2345 -1.5698 -0.0729
 5702SOL     OW28738   3.450   4.503   8.054 -0.2821 -0.0298 -0.3031
 5702SOL    HW128739   3.415   4.423   8.013  3.2510 -0.9048 -1.6372
 5702SOL    HW228740   3.404   4.520   8.136 -2.4041  0.8275 -1.6832
 5703SOL     OW28741   0.406   2.607   6.996 -0.3186  0.2382 -0.6958
 5703SOL    HW128742   0.492   2.648   6.988  0.4814 -1.5017 -0.9982
 5703SOL    HW228743   0.353   2.684   6.975  0.3874  0.3632 -1.9905
 5704SOL     OW28744   4.460   4.569   3.211  0.4438  0.3448  0.3666
 5704SOL    HW128745   4.495   4.643   3.162 -0.7745  0.3163 -0.5302
 5704SOL    HW228746   4.367   4.567   3.190  0.4375 -0.0478  0.4237
 5705SOL     OW28747   1.572   0.886   0.029  0.2688 -0.3048 -0.0195
 5705SOL    HW128748   1.535   0.824  17.721 -0.3206 -2.0644  2.0504
 5705SOL    HW228749   1.665   0.867   0.015  0.1546 -1.2596  0.5136
 5706SOL     OW28750   2.757   3.984   8.392 -0.0869  0.2738 -0.0920
 5706SOL    HW128751   2.700   3.932   8.449 -0.6940  2.2177  1.0773
 5706SOL    HW228752   2.808   3.918   8.345  0.0745  1.1360 -1.1283
 5707SOL     OW28753   0.422   3.642   6.578  0.7514 -0.5496  0.1636
 5707SOL    HW128754   0.446   3.719   6.631  0.6363  0.9076 -1.9215
 5707SOL    HW228755   0.503   3.591   6.578  0.6687 -0.6695 -1.0442
 5708SOL     OW28756   0.772   2.781   5.843  0.7184  0.1282 -0.0298
 5708SOL    HW128757   0.817   2.856   5.883 -1.6722  1.3559  0.3888
 5708SOL    HW228758   0.795   2.787   5.751 -0.6577 -2.3217 -0.5437
 5709SOL     OW28759   1.389   0.738   5.830  0.0596  0.0062 -0.4237
 5709SOL    HW128760   1.315   0.798   5.829 -0.3091 -0.4244  1.4449
 5709SOL    HW228761   1.468   0.791   5.817 -0.4835  0.4572 -1.8257
 5710SOL     OW28762   3.567   2.160   8.044  0.8771  0.3962 -0.0978
 5710SOL    HW128763   3.481   2.201   8.059 -0.5504 -2.0569 -1.5873
 5710SOL    HW228764   3.565   2.084   8.102  0.0845 -0.5431 -1.3451
 5711SOL     OW28765   0.135   4.492   3.537 -0.5124  0.6134  0.1143
 5711SOL    HW128766   0.040   4.492   3.523 -0.3304  1.4619 -1.1544
 5711SOL    HW228767   0.166   4.403   3.556 -2.0698  0.3969  1.6796
 5712SOL     OW28768   4.266   3.847   8.580 -0.3728 -0.3107 -0.4298
 5712SOL    HW128769   4.187   3.833   8.632  0.1534  0.1437  0.4914
 5712SOL    HW228770   4.241   3.803   8.498 -0.9376  0.0301 -0.4444
 5713SOL     OW28771   1.151   0.501   5.599 -0.8810  0.2264  0.4604
 5713SOL    HW128772   1.218   0.534   5.659 -0.8304  0.7868  0.0973
 5713SOL    HW228773   1.184   0.532   5.515 -2.1001 -1.0545 -0.4968
 5714SOL     OW28774   0.590   1.481   4.525 -0.0099  0.1926  0.5609
 5714SOL    HW128775   0.661   1.437   4.571  1.8519  2.1438 -0.4719
 5714SOL    HW228776   0.578   1.556   4.583  0.9652  0.3629  0.5378
 5715SOL     OW28777   3.848   0.113  13.573 -0.1392  0.0822 -0.4240
 5715SOL    HW128778   3.884   0.030  13.604 -2.3383 -0.6190  0.2840
 5715SOL    HW228779   3.830   0.103  13.479  0.5095  1.6736 -0.7307
 5716SOL     OW28780   3.590   1.445   3.807 -0.2292 -0.0884 -0.0407
 5716SOL    HW128781   3.596   1.397   3.889  0.4286  0.2649  0.1210
 5716SOL    HW228782   3.680   1.434   3.774 -0.3344  0.0867 -0.3897
 5717SOL     OW28783   4.045   0.915   3.417 -0.7161 -0.5593 -0.1580
 5717SOL    HW128784   3.974   0.851   3.422 -0.2382 -1.1082 -0.4444
 5717SOL    HW228785   4.046   0.938   3.510 -1.4390 -0.1490 -0.2535
 5718SOL     OW28786   1.115   4.038   8.167  0.3672 -0.5414  0.2804
 5718SOL    HW128787   1.211   4.046   8.165  0.5324 -2.6826 -0.5234
 5718SOL    HW228788   1.105   3.991   8.250 -2.6389  0.5878  0.5295
 5719SOL     OW28789   2.374   3.960  10.946  0.0059 -0.5451 -0.4715
 5719SOL    HW128790   2.301   3.928  10.892  1.0206 -1.0046 -1.5823
 5719SOL    HW228791   2.381   4.051  10.916 -1.8054 -0.4578 -0.6386
 5720SOL     OW28792   1.243   4.313   1.346  0.3231 -0.1942  0.2774
 5720SOL    HW128793   1.337   4.304   1.363  0.6445  2.7883  0.0432
 5720SOL    HW228794   1.218   4.237   1.398 -2.1143  1.0621  0.9323
 5721SOL     OW28795   2.691   3.993  14.348  0.2879 -0.3275  0.0751
 5721SOL    HW128796   2.755   4.065  14.350  0.4861 -0.5338  1.2053
 5721SOL    HW228797   2.621   4.032  14.296 -1.3359 -1.9100  1.0830
 5722SOL     OW28798   2.310   3.974   3.344 -0.5198  0.0272 -0.1215
 5722SOL    HW128799   2.237   4.003   3.289  1.3257  1.7998 -1.6110
 5722SOL    HW228800   2.335   3.895   3.297  4.7967  0.9700  1.1666
 5723SOL     OW28801   2.788   2.160   2.941 -0.1321 -0.7317 -0.0456
 5723SOL    HW128802   2.878   2.163   2.973  0.6907 -0.9806 -2.3251
 5723SOL    HW228803   2.745   2.181   3.023 -1.2227 -0.0380 -0.8003
 5724SOL     OW28804   0.907   2.723   1.962  0.5037  0.4845  0.6857
 5724SOL    HW128805   0.946   2.651   2.012  1.4601 -0.0621 -0.8469
 5724SOL    HW228806   0.934   2.705   1.872  0.0540  0.2761  0.5948
 5725SOL     OW28807   2.462   2.724   8.038  0.2955 -0.2541 -1.0430
 5725SOL    HW128808   2.486   2.655   7.976 -2.6784 -1.8823 -0.3836
 5725SOL    HW228809   2.552   2.747   8.061 -0.3712  0.8050  0.4738
 5726SOL     OW28810   2.000   0.575  10.308 -0.3613 -0.5104 -0.1634
 5726SOL    HW128811   2.005   0.664  10.343  0.1639  0.1397 -1.9157
 5726SOL    HW228812   1.907   0.567  10.288  0.0194 -0.2785 -2.0026
 5727SOL     OW28813   3.570   2.194  17.727 -0.2148  0.4144  0.0829
 5727SOL    HW128814   3.608   2.225   0.054 -1.5295  0.2490  0.7510
 5727SOL    HW228815   3.482   2.173   0.003  0.7437 -0.8952  1.8769
 5728SOL     OW28816   0.860   4.033   5.328  0.1889  0.1771 -0.1072
 5728SOL    HW128817   0.940   3.985   5.348  0.0610  0.5021  1.1829
 5728SOL    HW228818   0.863   4.032   5.233  3.2849 -0.0471  0.0083
 5729SOL     OW28819   0.999   0.841   6.419 -0.2315  0.9311 -0.0163
 5729SOL    HW128820   1.070   0.808   6.474  0.2983  0.6746 -0.8460
 5729SOL    HW228821   0.935   0.770   6.414 -0.5843  1.0368  2.7822
 5730SOL     OW28822   2.197   3.610   8.858  0.4286  0.0621  0.2454
 5730SOL    HW128823   2.288   3.588   8.876  0.3718 -1.2509 -1.0575
 5730SOL    HW228824   2.207   3.705   8.861  1.8360  0.0324 -3.0275
 5731SOL     OW28825   1.638   4.255   4.958  0.3660  0.1110  0.3989
 5731SOL    HW128826   1.692   4.324   4.920 -1.2380  0.5584 -1.0531
 5731SOL    HW228827   1.565   4.268   4.897  1.1752 -0.1101 -0.6091
 5732SOL     OW28828   3.501   2.349   1.386 -0.1475  0.3513 -0.1730
 5732SOL    HW128829   3.410   2.325   1.407  0.7082  0.2153  3.2785
 5732SOL    HW228830   3.551   2.298   1.449  2.3184  2.7708 -0.2190
 5733SOL     OW28831   4.325   2.364  17.713  0.6707 -0.2194 -0.1623
 5733SOL    HW128832   4.306   2.378   0.051 -2.3188  0.5573 -0.9092
 5733SOL    HW228833   4.410   2.409  17.704  1.5789 -1.2883  2.9227
 5734SOL     OW28834   0.485   2.753   6.694 -0.0840 -0.3184 -0.2596
 5734SOL    HW128835   0.560   2.813   6.691 -0.8135  0.6251  0.3417
 5734SOL    HW228836   0.521   2.665   6.687  0.2475 -0.1217 -0.9829
 5735SOL     OW28837   3.851   1.184  10.257 -0.3030 -0.2743  0.0631
 5735SOL    HW128838   3.935   1.138  10.251  1.2826  2.7532 -1.0062
 5735SOL    HW228839   3.824   1.152  10.343 -2.1201  2.9885  0.6842
 5736SOL     OW28840   0.066   3.997   4.920 -0.3950 -0.1104  0.5198
 5736SOL    HW128841   4.718   3.958   4.928 -0.1626 -0.3989  1.5232
 5736SOL    HW228842   0.100   3.948   4.845 -4.7185 -2.1858 -0.1196
 5737SOL     OW28843   1.729   0.897  13.718  0.1183  0.2606  0.1682
 5737SOL    HW128844   1.734   0.817  13.770 -1.0520  0.6009  0.8127
 5737SOL    HW228845   1.635   0.899  13.699  0.1643 -2.4009 -0.3793
 5738SOL     OW28846   2.533   1.455  10.172 -0.3715  0.5787  0.4162
 5738SOL    HW128847   2.440   1.468  10.191 -0.4071  1.3081 -0.2708
 5738SOL    HW228848   2.552   1.544  10.142  0.9721 -0.5943 -2.1614
 5739SOL     OW28849   2.173   0.547   7.889  0.0396 -0.1520 -0.1342
 5739SOL    HW128850   2.130   0.545   7.974 -1.4350  0.8176 -0.8514
 5739SOL    HW228851   2.267   0.553   7.903  0.0089 -1.4446  0.6281
 5740SOL     OW28852   4.543   0.439   3.712 -0.1890  0.5251 -0.3175
 5740SOL    HW128853   4.501   0.511   3.663  3.0783  4.0945  2.1142
 5740SOL    HW228854   4.536   0.476   3.800  1.6487  0.3314 -0.0891
 5741SOL     OW28855   4.512   1.693  13.402  0.0195  0.0405  0.4872
 5741SOL    HW128856   4.478   1.757  13.339 -1.8066 -0.9469  0.4783
 5741SOL    HW228857   4.434   1.668  13.452 -1.5894 -0.0796 -2.0907
 5742SOL     OW28858   3.394   2.470   1.683  0.4920  0.7906 -0.3273
 5742SOL    HW128859   3.371   2.387   1.725  1.7885  1.7900  2.3225
 5742SOL    HW228860   3.486   2.477   1.710 -0.3115  1.3069  2.2535
 5743SOL     OW28861   0.533   3.879   9.017  0.8323  0.4945 -0.5908
 5743SOL    HW128862   0.607   3.937   9.002  1.6086 -0.3559 -0.0331
 5743SOL    HW228863   0.489   3.902   8.935 -0.3607 -0.9525 -0.3548
 5744SOL     OW28864   1.989   3.245   6.249 -0.2175  0.3898 -0.4380
 5744SOL    HW128865   2.047   3.311   6.286  2.1136 -1.7628 -0.2196
 5744SOL    HW228866   1.941   3.225   6.329 -0.1891  0.5495 -0.3810
 5745SOL     OW28867   1.024   3.248   4.681  0.3213  0.0755  0.0203
 5745SOL    HW128868   1.105   3.282   4.718  0.3398  3.2456 -2.9469
 5745SOL    HW228869   1.062   3.217   4.599 -1.4645  4.1426 -2.3130
 5746SOL     OW28870   3.251   4.501   3.453  0.2839 -0.1208  0.0282
 5746SOL    HW128871   3.184   4.541   3.508  0.0000 -0.8692  0.2252
 5746SOL    HW228872   3.205   4.425   3.416 -1.1691  0.2051  1.1999
 5747SOL     OW28873   3.738   0.852   0.024  0.0285 -0.8189  0.0661
 5747SOL    HW128874   3.701   0.857   0.113 -1.9890 -0.7606 -0.7761
 5747SOL    HW228875   3.832   0.850   0.038  0.5084 -1.1964 -3.2427
 5748SOL     OW28876   2.112   0.952   4.672 -0.7437  0.8179 -0.3224
 5748SOL    HW128877   2.180   0.893   4.641 -0.2578  0.1818  1.9948
 5748SOL    HW228878   2.048   0.903   4.723 -1.8801  2.1739 -0.4318
 5749SOL     OW28879   1.832   1.057  17.225 -0.0114 -0.2991  0.4270
 5749SOL    HW128880   1.846   0.963  17.235  1.8715 -0.0479  0.1456
 5749SOL    HW228881   1.748   1.054  17.180  0.3916  0.4455 -0.3786
 5750SOL     OW28882   1.142   0.332  11.396  0.3189 -0.2466  0.2181
 5750SOL    HW128883   1.047   0.342  11.398  0.3698  0.4368 -0.9878
 5750SOL    HW228884   1.135   0.247  11.440 -0.2501  0.0146  0.6213
 5751SOL     OW28885   2.315   1.576   2.086  0.0535 -0.6466  0.3772
 5751SOL    HW128886   2.219   1.580   2.090  0.0172 -0.1725 -1.0584
 5751SOL    HW228887   2.340   1.668   2.080  0.0021 -0.6689 -0.1702
 5752SOL     OW28888   0.160   1.807  17.164  0.5332  0.1612 -0.2002
 5752SOL    HW128889   0.122   1.747  17.228 -1.1404  2.0911  0.6118
 5752SOL    HW228890   0.153   1.891  17.211  3.9595  0.3833 -0.0516
 5753SOL     OW28891   4.282   3.064  13.239 -0.4027 -0.1787  0.8231
 5753SOL    HW128892   4.358   3.007  13.234 -0.4194 -0.1064 -0.3839
 5753SOL    HW228893   4.281   3.116  13.158  1.5715 -0.7164  0.4692
 5754SOL     OW28894   0.558   1.027  12.256  0.1263 -0.2542 -0.0767
 5754SOL    HW128895   0.523   0.971  12.326 -0.3597  0.9733  0.6561
 5754SOL    HW228896   0.525   0.970  12.186 -0.0710  0.3442 -0.4758
 5755SOL     OW28897   3.099   4.422  14.133  0.0926  0.5288 -0.2459
 5755SOL    HW128898   3.149   4.346  14.105 -0.7713 -0.3441  0.5894
 5755SOL    HW228899   3.040   4.447  14.062  0.4575 -2.1573 -1.4627
 5756SOL     OW28900   0.026   2.538   7.072 -0.3165  1.0907 -0.0580
 5756SOL    HW128901   0.090   2.573   7.133  1.3732  1.4428 -2.0129
 5756SOL    HW228902   4.686   2.532   7.125  0.2593 -0.5320  0.6024
 5757SOL     OW28903   2.419   4.262   3.141 -0.3211 -0.2034 -0.7716
 5757SOL    HW128904   2.494   4.208   3.118  0.4677 -0.3444  2.1028
 5757SOL    HW228905   2.472   4.341   3.129  1.8972 -1.3598  1.4995
 5758SOL     OW28906   0.503   1.256   2.871  0.0846  0.0007 -0.6648
 5758SOL    HW128907   0.586   1.271   2.918 -0.7157 -1.3011  1.1543
 5758SOL    HW228908   0.505   1.160   2.872 -1.0312  0.0082  2.0099
 5759SOL     OW28909   4.276   4.085   8.430  0.8535  1.2093  0.4188
 5759SOL    HW128910   4.319   4.019   8.484 -2.0478 -1.5101 -0.6468
 5759SOL    HW228911   4.305   4.163   8.479  0.6111 -0.6317  3.4504
 5760SOL     OW28912   3.934   0.757  17.347 -0.4521  0.5084 -0.0447
 5760SOL    HW128913   3.888   0.840  17.336 -1.8843 -0.6024 -2.5021
 5760SOL    HW228914   4.005   0.773  17.285 -1.5191  0.8060 -1.1995
 5761SOL     OW28915   4.674   0.896  11.454  0.1286 -0.8706 -0.1955
 5761SOL    HW128916   4.722   0.826  11.498 -2.9545 -1.5945  2.0044
 5761SOL    HW228917   4.723   0.891  11.371 -0.2316 -2.6393 -0.2932
 5762SOL     OW28918   2.603   3.650   3.995 -0.5338 -0.1209  0.1709
 5762SOL    HW128919   2.536   3.628   4.060 -0.5433 -0.6182 -0.0046
 5762SOL    HW228920   2.552   3.669   3.916  1.5546  1.3210 -0.8374
 5763SOL     OW28921   1.403   0.698   1.494  0.0219 -0.6812  0.4088
 5763SOL    HW128922   1.380   0.791   1.491  0.8794 -0.4787  0.0929
 5763SOL    HW228923   1.386   0.684   1.588 -2.1484  0.8636  0.2504
 5764SOL     OW28924   0.295   2.693   6.476  0.1660  0.7253  0.1570
 5764SOL    HW128925   0.208   2.666   6.445 -0.4981  2.8643  0.1981
 5764SOL    HW228926   0.285   2.676   6.570  0.2144 -2.1186 -0.3579
 5765SOL     OW28927   4.199   4.577   9.354  0.9188 -0.2572 -0.2474
 5765SOL    HW128928   4.240   4.496   9.386  2.8361  1.2505  1.1532
 5765SOL    HW228929   4.278   4.617   9.316  0.7999 -0.0261 -0.2480
 5766SOL     OW28930   1.892   2.402   3.818  0.0102 -0.4759  0.2122
 5766SOL    HW128931   1.859   2.323   3.860 -1.8082  1.2585  2.0648
 5766SOL    HW228932   1.817   2.441   3.772  1.5574 -0.6484 -2.4317
 5767SOL     OW28933   0.235   4.326   4.561  0.1644  0.1170 -0.1290
 5767SOL    HW128934   0.300   4.328   4.631  0.1106 -4.7914  0.0956
 5767SOL    HW228935   0.147   4.312   4.595 -0.4909  0.0679 -1.8406
 5768SOL     OW28936   1.519   3.002   1.474  0.1090 -0.3257  0.3961
 5768SOL    HW128937   1.571   3.082   1.470 -0.2425 -0.0673  0.9824
 5768SOL    HW228938   1.453   3.022   1.541  0.8988 -0.4983  1.2247
 5769SOL     OW28939   2.664   0.052  17.179 -0.6312  0.4483 -0.0546
 5769SOL    HW128940   2.757   0.073  17.180 -0.3767 -0.7222 -0.3812
 5769SOL    HW228941   2.637   0.075  17.268  1.0049  2.1304  0.0106
 5770SOL     OW28942   0.029   4.456  14.588  0.9299 -0.6072  0.8721
 5770SOL    HW128943   0.081   4.511  14.647  1.8363 -1.7652  1.1602
 5770SOL    HW228944   4.691   4.442  14.642  0.7340 -0.8980  0.5210
 5771SOL     OW28945   1.182   0.759   8.951  0.5127  0.9016  0.4758
 5771SOL    HW128946   1.101   0.710   8.967  0.2264  1.3301  0.3314
 5771SOL    HW228947   1.242   0.693   8.987 -0.0485  0.0775 -0.1008
 5772SOL     OW28948   3.463   3.724  15.170  0.0872 -0.4080  0.0078
 5772SOL    HW128949   3.480   3.631  15.182  1.3137 -0.5076 -2.4033
 5772SOL    HW228950   3.389   3.729  15.109  0.2648  0.1205 -0.1577
 5773SOL     OW28951   3.086   4.584   3.920 -0.2382 -0.1986 -0.2267
 5773SOL    HW128952   3.071   4.492   3.943 -1.2517  0.4010  1.5492
 5773SOL    HW228953   3.031   4.633   3.982 -0.7091 -2.0332  0.8384
 5774SOL     OW28954   2.773   0.032  15.343 -0.1572  0.3756  0.0602
 5774SOL    HW128955   2.697   0.062  15.392 -1.1057 -3.7297  1.1585
 5774SOL    HW228956   2.828   0.109  15.349 -1.1973  1.1929 -0.8877
 5775SOL     OW28957   4.572   2.631   5.500 -0.4119 -0.2043 -0.9590
 5775SOL    HW128958   4.576   2.541   5.531  0.4600 -0.0773 -0.7023
 5775SOL    HW228959   4.658   2.639   5.459 -0.0611  4.0745  0.5227
 5776SOL     OW28960   3.032   0.674   0.436 -0.6631  0.8104 -0.3302
 5776SOL    HW128961   3.005   0.702   0.348  1.7426  2.6335 -0.5080
 5776SOL    HW228962   3.001   0.584   0.439 -0.4703  0.7171 -1.0060
 5777SOL     OW28963   0.548   4.572   5.514 -0.0538  0.0707  0.3731
 5777SOL    HW128964   0.552   4.615   5.599  1.5958  2.1163 -0.7460
 5777SOL    HW228965   0.577   4.482   5.529  0.6447  0.0872 -0.8975
 5778SOL     OW28966   0.117   1.468   2.680  0.3921  1.2473  0.0485
 5778SOL    HW128967   0.088   1.551   2.642 -1.0503  1.0962  0.8017
 5778SOL    HW228968   0.080   1.416   2.608 -1.9681  1.6290  0.9586
 5779SOL     OW28969   1.222   4.190   5.269  0.1489 -0.2175  0.0315
 5779SOL    HW128970   1.186   4.170   5.183  0.4766 -3.6280  0.6552
 5779SOL    HW228971   1.314   4.188   5.245  0.4846  1.0189  1.2413
 5780SOL     OW28972   2.270   3.599   9.286  0.1725  0.4888  0.2222
 5780SOL    HW128973   2.322   3.609   9.366  0.6055 -1.0676  0.1551
 5780SOL    HW228974   2.182   3.623   9.314 -0.4018 -1.3227 -0.0369
 5781SOL     OW28975   2.733   4.684   2.404 -0.1887  0.5426  0.0777
 5781SOL    HW128976   2.727   4.630   2.482 -1.2236  0.1578 -0.2718
 5781SOL    HW228977   2.721   4.625   2.329  0.7510 -1.4267  1.4589
 5782SOL     OW28978   0.801   1.294   2.472  0.4695  0.2238  0.4892
 5782SOL    HW128979   0.710   1.271   2.492  0.0460  0.7367 -0.8720
 5782SOL    HW228980   0.836   1.329   2.554 -1.1238 -0.2180  1.3635
 5783SOL     OW28981   1.606   4.595   6.251 -0.4470 -0.3647  0.3312
 5783SOL    HW128982   1.685   4.592   6.304 -0.1960 -1.0057 -0.0752
 5783SOL    HW228983   1.611   4.511   6.204  1.1397 -0.7656  1.2070
 5784SOL     OW28984   3.479   4.325   7.214 -0.0789  0.2782 -0.2273
 5784SOL    HW128985   3.390   4.291   7.217 -0.5338  1.6370  1.7852
 5784SOL    HW228986   3.506   4.330   7.305 -0.5836 -0.6587 -0.0313
 5785SOL     OW28987   4.537   3.220   5.251 -0.1868 -0.7105  0.4876
 5785SOL    HW128988   4.487   3.226   5.170 -0.3960  0.7385  0.7255
 5785SOL    HW228989   4.574   3.307   5.260  0.4267 -0.9213  0.0352
 5786SOL     OW28990   4.393   0.997   7.676  0.8579  0.5046 -0.2268
 5786SOL    HW128991   4.374   1.090   7.685 -0.2657  0.3436 -0.8920
 5786SOL    HW228992   4.383   0.984   7.581 -1.5261 -0.5890  0.1636
 5787SOL     OW28993   0.691   2.032   4.343 -0.2943  0.1301  0.2118
 5787SOL    HW128994   0.604   2.064   4.319 -0.0567 -1.9216 -3.5063
 5787SOL    HW228995   0.748   2.073   4.278 -0.1514  1.2049  1.0191
 5788SOL     OW28996   3.744   2.550  12.027 -0.3717 -0.3087  1.0466
 5788SOL    HW128997   3.659   2.512  12.050 -0.3405 -0.8344  0.2873
 5788SOL    HW228998   3.786   2.568  12.111  0.4914 -1.2875  0.8236
 5789SOL     OW28999   0.085   1.450  16.849  0.8582  0.5824 -0.4326
 5789SOL    HW129000   0.171   1.477  16.882  0.0659 -0.4853  2.4206
 5789SOL    HW229001   0.045   1.418  16.929 -1.2581  0.6283 -1.4628
 5790SOL     OW29002   4.453   1.364  10.090  0.5819  0.5240  0.1029
 5790SOL    HW129003   4.370   1.347  10.044  0.3059 -0.6335  1.0370
 5790SOL    HW229004   4.520   1.345  10.025  1.4464 -1.4844  1.6013
 5791SOL     OW29005   0.487   0.148   8.852 -0.4062  0.3346 -0.1180
 5791SOL    HW129006   0.581   0.163   8.851 -0.1512 -1.5010 -2.1780
 5791SOL    HW229007   0.474   0.096   8.773  1.3238 -0.9186  0.4353
 5792SOL     OW29008   4.464   2.547   6.231 -0.1669  0.0774  0.3704
 5792SOL    HW129009   4.502   2.476   6.178  2.4127  2.3544 -0.8286
 5792SOL    HW229010   4.501   2.617   6.178 -1.6270 -0.0367 -0.7808
 5793SOL     OW29011   2.708   3.922   7.218 -0.3528 -0.4114  0.0487
 5793SOL    HW129012   2.790   3.915   7.169  0.5089  1.3782  1.2209
 5793SOL    HW229013   2.682   4.014   7.213 -2.2626 -0.9421  0.3288
 5794SOL     OW29014   0.642   2.799   6.153  0.1805  0.1462 -0.5402
 5794SOL    HW129015   0.679   2.739   6.219 -1.8513  1.1079  1.4527
 5794SOL    HW229016   0.614   2.740   6.083  1.9816  1.4053 -2.3197
 5795SOL     OW29017   3.643   2.919   5.430  0.7248  0.1190 -0.3649
 5795SOL    HW129018   3.579   2.989   5.423 -0.6878 -1.2289 -1.0871
 5795SOL    HW229019   3.712   2.958   5.483  0.4860  0.0130  0.0260
 5796SOL     OW29020   4.476   0.406   6.794 -0.1746 -0.6147 -0.5702
 5796SOL    HW129021   4.492   0.364   6.879  0.3496  0.7036 -0.0138
 5796SOL    HW229022   4.560   0.393   6.750 -1.0295 -3.0920 -1.4489
 5797SOL     OW29023   4.287   0.607   9.260  0.1716  0.7037  0.3161
 5797SOL    HW129024   4.260   0.640   9.345  0.6958 -0.1134  0.8022
 5797SOL    HW229025   4.270   0.515   9.282 -2.0763  1.3931  1.4660
 5798SOL     OW29026   4.235   2.293  15.762  0.3647  0.2115  0.1546
 5798SOL    HW129027   4.179   2.346  15.705  0.0887 -0.0152  0.2115
 5798SOL    HW229028   4.256   2.220  15.703 -0.6378 -2.1199  2.6738
 5799SOL     OW29029   2.000   2.662  12.548  0.3090  0.0471  0.0515
 5799SOL    HW129030   2.038   2.740  12.508 -1.1639  1.3116  1.1220
 5799SOL    HW229031   1.936   2.626  12.487  2.4621 -0.7592 -1.7352
 5800SOL     OW29032   2.759   2.721   3.298  0.0977 -0.6035  0.3971
 5800SOL    HW129033   2.700   2.711   3.223 -0.7500 -1.2986  1.1407
 5800SOL    HW229034   2.701   2.700   3.371 -2.1238  1.1997 -0.8600
 5801SOL     OW29035   3.104   1.738   2.988 -0.3757  0.2992 -0.3906
 5801SOL    HW129036   3.044   1.668   3.013  1.7740 -0.9468  1.2620
 5801SOL    HW229037   3.092   1.735   2.893 -1.6952 -2.2760 -0.1490
 5802SOL     OW29038   1.386   2.261   3.049  0.4515  0.4316 -0.0219
 5802SOL    HW129039   1.395   2.180   3.099  0.2842  1.7087  2.0552
 5802SOL    HW229040   1.459   2.312   3.084  0.3016  0.3663  0.3792
 5803SOL     OW29041   2.336   2.990   3.761 -0.4502 -0.2771  0.0213
 5803SOL    HW129042   2.418   2.975   3.808 -0.3086 -2.6825 -1.0128
 5803SOL    HW229043   2.331   3.086   3.757 -0.1512 -0.2592  0.0527
 5804SOL     OW29044   1.493   2.716   1.623  0.9296  0.5945  0.1392
 5804SOL    HW129045   1.550   2.758   1.688 -0.5643  1.1862  1.0664
 5804SOL    HW229046   1.509   2.766   1.543 -1.0677 -0.3117 -0.8283
 5805SOL     OW29047   0.686   2.486  14.200  0.3017  0.4297  0.0845
 5805SOL    HW129048   0.640   2.517  14.277  1.2326  0.2011  0.7258
 5805SOL    HW229049   0.770   2.532  14.201  0.1310  0.7644 -0.6752
 5806SOL     OW29050   0.046   0.054  10.678  0.3879 -0.6632  0.4586
 5806SOL    HW129051   0.134   0.024  10.699  0.5730  1.5753  2.8411
 5806SOL    HW229052   0.069   0.141  10.645  0.0121 -0.9844 -0.6401
 5807SOL     OW29053   3.152   4.481   1.355  0.2945  0.5981  0.0341
 5807SOL    HW129054   3.170   4.505   1.446  2.6989  1.6839 -0.7152
 5807SOL    HW229055   3.231   4.432   1.332  0.0170 -0.6096  1.7313
 5808SOL     OW29056   2.336   4.125   1.825  0.0037 -0.5835 -0.1626
 5808SOL    HW129057   2.384   4.128   1.743 -1.4717 -0.5599 -1.0290
 5808SOL    HW229058   2.311   4.033   1.827  1.8714 -1.0694  0.9085
 5809SOL     OW29059   0.862   1.201   9.372 -0.5825 -0.4171 -0.1284
 5809SOL    HW129060   0.912   1.281   9.357 -0.0144 -0.4284  1.8108
 5809SOL    HW229061   0.792   1.238   9.425 -0.6637 -1.2077  0.3171
 5810SOL     OW29062   3.918   1.061   8.654 -0.5230  0.3391  0.7519
 5810SOL    HW129063   3.924   1.155   8.669  1.3835  0.1792  1.1173
 5810SOL    HW229064   3.866   1.063   8.574 -1.1301  0.0957  1.1403
 5811SOL     OW29065   0.736   0.829   5.327 -0.1201  0.5702  0.4688
 5811SOL    HW129066   0.752   0.897   5.262 -1.0972 -0.9026 -1.3421
 5811SOL    HW229067   0.766   0.882   5.400  1.0556 -0.4725  0.7347
 5812SOL     OW29068   2.490   3.334   1.708 -0.2236 -0.1415  0.2233
 5812SOL    HW129069   2.514   3.347   1.799  1.0785  0.6965 -0.2347
 5812SOL    HW229070   2.563   3.279   1.680 -2.4674 -2.3548 -1.2788
 5813SOL     OW29071   2.939   2.261   5.653 -0.0759  0.1476 -0.3153
 5813SOL    HW129072   2.901   2.231   5.735 -0.4409 -3.4313 -1.7884
 5813SOL    HW229073   3.020   2.211   5.664  1.0920  1.9267 -0.6458
 5814SOL     OW29074   2.270   3.662  11.174 -0.1650  0.1507 -0.1972
 5814SOL    HW129075   2.281   3.723  11.246 -0.6905 -0.9125  0.7766
 5814SOL    HW229076   2.348   3.692  11.128 -0.5275 -0.1001 -0.9776
 5815SOL     OW29077   0.870   1.486   1.838 -0.1940 -0.1422  0.0539
 5815SOL    HW129078   0.882   1.485   1.743 -2.0497 -1.7018 -0.1641
 5815SOL    HW229079   0.912   1.402   1.860  0.4273 -0.1823 -1.2931
 5816SOL     OW29080   1.584   3.482  10.744 -0.2877  0.2934 -0.6455
 5816SOL    HW129081   1.644   3.442  10.807 -1.3502  0.1769  0.2992
 5816SOL    HW229082   1.541   3.545  10.802 -0.3523 -0.4319  0.0970
 5817SOL     OW29083   1.887   0.509  10.014 -0.7978  0.5078  0.8027
 5817SOL    HW129084   1.872   0.602   9.997  0.4006  0.6749  0.6669
 5817SOL    HW229085   1.983   0.507  10.006 -0.9743  0.2798 -1.3974
 5818SOL     OW29086   3.044   4.055   6.235  0.4623 -0.1703 -0.4408
 5818SOL    HW129087   3.032   4.149   6.250 -0.3290 -0.6637  2.1295
 5818SOL    HW229088   3.057   4.049   6.141  0.1443  2.9585 -0.6835
 5819SOL     OW29089   2.437   1.217   5.827  0.5773 -0.0650 -0.3908
 5819SOL    HW129090   2.527   1.231   5.858  1.4228 -2.1111 -1.9479
 5819SOL    HW229091   2.432   1.133   5.781  0.0729 -0.3386  0.1588
 5820SOL     OW29092   4.608   3.668   3.641 -0.6769 -0.3155  0.4931
 5820SOL    HW129093   4.569   3.723   3.573  3.0861 -0.6621 -1.9538
 5820SOL    HW229094   4.618   3.591   3.586  0.6071  0.4652 -0.3729
 5821SOL     OW29095   3.848   3.374  14.778  0.1403  0.0055  0.3068
 5821SOL    HW129096   3.806   3.348  14.860 -2.2439 -2.2777 -1.6285
 5821SOL    HW229097   3.849   3.287  14.737  1.6925  0.1318  0.0610
 5822SOL     OW29098   0.781   3.681   7.593 -0.2115 -0.3699 -0.1405
 5822SOL    HW129099   0.832   3.602   7.613 -0.0279  0.1080  1.2870
 5822SOL    HW229100   0.849   3.727   7.543  0.6219 -2.1921 -0.6815
 5823SOL     OW29101   0.756   2.186   1.634  0.0012  0.2921  0.1135
 5823SOL    HW129102   0.827   2.248   1.644 -0.6231  1.1113 -0.5259
 5823SOL    HW229103   0.787   2.108   1.680  0.0577 -0.4834 -1.2368
 5824SOL     OW29104   2.938   2.175   8.265  0.6218 -0.2859  0.6782
 5824SOL    HW129105   2.979   2.241   8.321  0.8606  0.3319 -0.2335
 5824SOL    HW229106   2.986   2.193   8.184 -0.4132 -0.2718  0.0604
 5825SOL     OW29107   1.030   1.035   2.627  0.0053  0.2657  0.0603
 5825SOL    HW129108   0.964   1.041   2.696  0.2791  1.7154  0.1924
 5825SOL    HW229109   1.112   1.053   2.674  0.1605 -2.4270  0.7973
 5826SOL     OW29110   2.488   0.183   1.565  0.3186 -0.3611 -0.1301
 5826SOL    HW129111   2.544   0.261   1.567 -1.3711  0.8517 -0.7343
 5826SOL    HW229112   2.440   0.190   1.482  0.1387  0.4869  0.0539
 5827SOL     OW29113   1.573   0.595   5.375  0.1153 -0.3699  0.0536
 5827SOL    HW129114   1.599   0.520   5.429 -2.5123 -1.5658 -0.3696
 5827SOL    HW229115   1.657   0.641   5.367  0.7251 -1.0952  2.4480
 5828SOL     OW29116   2.807   2.514   3.630  0.3938  0.6874  0.2464
 5828SOL    HW129117   2.731   2.471   3.668  1.2196  1.3293  2.6144
 5828SOL    HW229118   2.778   2.592   3.583 -1.0535  0.7065  1.1831
 5829SOL     OW29119   2.946   2.710  13.175 -0.2875  0.0605  0.3363
 5829SOL    HW129120   3.026   2.761  13.163 -1.2077  1.5355  0.4618
 5829SOL    HW229121   2.956   2.651  13.100  1.1759  0.1748  0.4324
 5830SOL     OW29122   4.236   3.563   9.654  0.5659 -0.0604 -0.0540
 5830SOL    HW129123   4.176   3.515   9.711 -0.3235  1.6234  0.4281
 5830SOL    HW229124   4.262   3.497   9.589  0.7819  2.0305 -2.0843
 5831SOL     OW29125   1.081   2.266  15.750  0.4695 -0.2760 -0.3876
 5831SOL    HW129126   1.037   2.301  15.828 -1.0400 -1.3798 -0.7579
 5831SOL    HW229127   1.170   2.300  15.763  0.5151 -0.5354 -0.0253
 5832SOL     OW29128   4.163   0.176   3.740 -0.2010 -0.1616 -0.1741
 5832SOL    HW129129   4.145   0.131   3.657  2.7868 -1.0789 -0.3160
 5832SOL    HW229130   4.257   0.160   3.738  0.5150  4.2069 -0.8600
 5833SOL     OW29131   2.725   4.313   3.316 -0.3193 -0.1917  0.2367
 5833SOL    HW129132   2.663   4.256   3.363 -0.6304 -0.2489 -0.2380
 5833SOL    HW229133   2.732   4.266   3.233  0.3764 -1.4903  1.0418
 5834SOL     OW29134   2.421   0.334   5.477 -0.4453 -0.3759 -0.2511
 5834SOL    HW129135   2.368   0.401   5.522  0.2791 -0.0250  0.0768
 5834SOL    HW229136   2.502   0.350   5.526 -0.2528 -0.2564 -0.6117
 5835SOL     OW29137   3.727   2.182   3.109  0.0347 -0.0096 -0.4883
 5835SOL    HW129138   3.783   2.109   3.134  0.9232  1.5551  2.1035
 5835SOL    HW229139   3.649   2.153   3.157  2.0492  0.0065  2.8347
 5836SOL     OW29140   4.592   2.294   5.151  0.1275  0.8907 -0.0854
 5836SOL    HW129141   4.673   2.245   5.165  0.6296  1.3124 -1.5660
 5836SOL    HW229142   4.631   2.377   5.124  1.8173 -0.1537 -0.8314
 5837SOL     OW29143   0.473   0.240   4.338  0.4852  0.2020  0.7345
 5837SOL    HW129144   0.466   0.147   4.314 -3.3047  0.0811  2.2918
 5837SOL    HW229145   0.386   0.278   4.343  0.3014 -0.1763  0.3825
 5838SOL     OW29146   3.497   3.919   5.919 -0.3292  0.1457  0.0598
 5838SOL    HW129147   3.525   3.851   5.979  0.1298  1.5192  1.4108
 5838SOL    HW229148   3.448   3.869   5.854  2.1006 -0.3899 -1.3634
 5839SOL     OW29149   4.158   2.361   5.970 -0.3364  0.3898 -0.5635
 5839SOL    HW129150   4.217   2.291   5.996  0.8511  0.5582 -2.7398
 5839SOL    HW229151   4.082   2.333   6.021  1.0126  1.6850  2.1388
 5840SOL     OW29152   3.024   0.387   2.486 -0.1141 -0.4159  0.2520
 5840SOL    HW129153   2.951   0.368   2.428 -0.0978 -2.0008  0.7571
 5840SOL    HW229154   3.095   0.402   2.424 -2.5497 -1.4485 -2.7507
 5841SOL     OW29155   3.382   2.745   6.900 -0.2351  0.6267  0.1868
 5841SOL    HW129156   3.459   2.718   6.951 -0.2947  0.1678  0.0336
 5841SOL    HW229157   3.310   2.692   6.934  0.0730 -0.1780 -0.4179
 5842SOL     OW29158   1.126   3.523   8.810 -0.0179 -0.0121  0.1261
 5842SOL    HW129159   1.169   3.545   8.893  0.0172  0.2080  0.0491
 5842SOL    HW229160   1.039   3.556   8.833  0.5899  1.7036 -0.0665
 5843SOL     OW29161   3.703   1.421   2.839  0.3658 -0.2581  0.1960
 5843SOL    HW129162   3.623   1.472   2.829 -0.8135 -1.9708  0.8435
 5843SOL    HW229163   3.715   1.426   2.934 -0.7643 -1.5521  0.4033
 5844SOL     OW29164   2.821   2.297  13.454 -0.4928  0.2524  0.2446
 5844SOL    HW129165   2.759   2.295  13.381 -0.1972 -0.3397  0.0088
 5844SOL    HW229166   2.875   2.372  13.430 -0.0771 -0.9719 -2.6748
 5845SOL     OW29167   0.777   3.834   8.647 -0.1473  0.4131  0.4395
 5845SOL    HW129168   0.735   3.813   8.563  0.7354  2.2675 -0.4601
 5845SOL    HW229169   0.761   3.927   8.662  0.6037  0.2815  2.0322
 5846SOL     OW29170   0.050   2.816   2.566  0.3947  0.1963  0.4480
 5846SOL    HW129171   0.110   2.891   2.558  1.0883 -0.4641 -0.5402
 5846SOL    HW229172   0.074   2.760   2.493  0.1701  0.0294  0.5025
 5847SOL     OW29173   0.505   1.933   5.928  0.2420 -0.8688  0.7797
 5847SOL    HW129174   0.514   1.954   6.021  0.3260  0.0439  0.5642
 5847SOL    HW229175   0.414   1.961   5.920  0.5694  0.9010  3.3251
 5848SOL     OW29176   1.826   0.732  15.191 -0.1269  0.1205 -0.3255
 5848SOL    HW129177   1.756   0.706  15.131 -0.9091 -0.4283  0.8168
 5848SOL    HW229178   1.842   0.649  15.237 -0.7510  0.4762  0.5272
 5849SOL     OW29179   1.272   0.448   1.741 -0.3453 -0.1397 -0.0137
 5849SOL    HW129180   1.227   0.429   1.823 -1.1125  0.5442 -0.2762
 5849SOL    HW229181   1.199   0.498   1.704 -1.4333 -1.7048  0.0639
 5850SOL     OW29182   4.346   1.083  16.511 -0.3253  0.0862  1.1159
 5850SOL    HW129183   4.360   0.990  16.529  1.7532  0.1378 -0.2156
 5850SOL    HW229184   4.253   1.103  16.503  0.1923  1.4565 -1.6446
 5851SOL     OW29185   1.751   3.338   4.165  0.5442  0.6917 -0.0325
 5851SOL    HW129186   1.772   3.353   4.073  0.1283 -0.9131 -0.3844
 5851SOL    HW229187   1.705   3.255   4.178  1.2426  0.4656  1.0728
 5852SOL     OW29188   0.581   0.435   8.059 -0.1940 -0.5509 -0.3072
 5852SOL    HW129189   0.631   0.494   8.116 -1.4323 -0.0801  0.2956
 5852SOL    HW229190   0.615   0.468   7.976  0.4274 -1.9456 -0.5996
 5853SOL     OW29191   2.543   2.957   7.171  0.1702  0.6769 -0.0699
 5853SOL    HW129192   2.613   3.021   7.157 -0.6722  1.5431 -0.3139
 5853SOL    HW229193   2.493   2.972   7.091 -0.0562 -0.2583 -0.1053
 5854SOL     OW29194   3.281   0.022   4.537 -0.1256  0.0245 -0.7555
 5854SOL    HW129195   3.193   4.725   4.551  0.8286 -0.8529  2.9921
 5854SOL    HW229196   3.266   0.063   4.452  0.8982  2.0684  0.0589
 5855SOL     OW29197   3.780   2.686   8.413 -0.5302  0.3358  0.3975
 5855SOL    HW129198   3.782   2.643   8.327 -0.2978  0.2551  0.4432
 5855SOL    HW229199   3.725   2.763   8.400 -0.9178 -0.3811 -2.3370
 5856SOL     OW29200   0.338   1.843  15.996  0.0496 -0.0871  0.0523
 5856SOL    HW129201   0.307   1.757  16.024  1.5329 -0.6140  0.0494
 5856SOL    HW229202   0.313   1.824  15.905  0.2560  1.0650 -0.2407
 5857SOL     OW29203   3.855   1.240   0.765  0.0333 -0.8487  0.5401
 5857SOL    HW129204   3.797   1.283   0.827 -1.4471 -0.9542 -0.7601
 5857SOL    HW229205   3.889   1.318   0.721  0.3573 -0.2414  1.8741
 5858SOL     OW29206   0.087   3.665   9.483 -0.0012  0.0485  0.4199
 5858SOL    HW129207   0.076   3.606   9.558  1.2107 -2.3244 -1.2837
 5858SOL    HW229208   0.027   3.733   9.514 -1.6087  0.8379 -4.4158
 5859SOL     OW29209   4.328   2.394   3.341  0.1278 -0.2659 -0.4307
 5859SOL    HW129210   4.338   2.378   3.435  1.2657  2.6363 -0.0363
 5859SOL    HW229211   4.272   2.326   3.304 -2.1223  1.7477 -0.7071
 5860SOL     OW29212   3.594   0.885  15.555  0.2102  0.4129 -0.5578
 5860SOL    HW129213   3.565   0.838  15.477 -0.1984  0.7294 -0.5955
 5860SOL    HW229214   3.557   0.969  15.527 -1.2375 -0.4657 -1.2699
 5861SOL     OW29215   4.205   1.841  10.116 -0.1107  0.3989  0.3791
 5861SOL    HW129216   4.217   1.775  10.049 -2.2058 -0.6040  1.0021
 5861SOL    HW229217   4.253   1.809  10.193  0.0781  0.3968  0.2583
 5862SOL     OW29218   3.949   4.358   5.142 -0.4688  0.4181  0.1103
 5862SOL    HW129219   3.870   4.357   5.089 -0.4020 -0.4859  0.0254
 5862SOL    HW229220   3.930   4.298   5.215  2.3011 -0.7471 -0.1349
 5863SOL     OW29221   1.120   1.981  15.806 -0.3229  0.8604  0.0529
 5863SOL    HW129222   1.026   1.971  15.816 -0.4138 -3.0077 -4.7575
 5863SOL    HW229223   1.119   2.074  15.782  0.0940  1.6703  3.1040
 5864SOL     OW29224   0.105   1.360  16.592  0.0095  0.3516  0.5381
 5864SOL    HW129225   0.051   1.421  16.541 -1.7946 -2.0068 -0.3572
 5864SOL    HW229226   0.088   1.396  16.679  0.4820  1.7185  0.0609
 5865SOL     OW29227   2.291   2.560   3.354  0.5204 -0.5710 -0.2467
 5865SOL    HW129228   2.356   2.498   3.322  0.5610 -0.7177  0.1110
 5865SOL    HW229229   2.203   2.530   3.332  0.4510 -0.5770  0.0369
 5866SOL     OW29230   2.706   1.600   7.653 -0.1324  0.7686  0.3101
 5866SOL    HW129231   2.793   1.594   7.613  0.2561  2.7861  0.8778
 5866SOL    HW229232   2.703   1.694   7.671 -0.0571  1.0097 -0.9540
 5867SOL     OW29233   4.384   2.983   9.225  0.5462  0.7476 -0.4647
 5867SOL    HW129234   4.310   3.002   9.283  1.8302  0.2472  1.3279
 5867SOL    HW229235   4.349   3.020   9.144  0.5870 -1.7259 -1.5911
 5868SOL     OW29236   2.928   4.160  14.309  0.0059  0.1232 -0.1800
 5868SOL    HW129237   3.013   4.200  14.323  0.1897  0.0687 -1.1778
 5868SOL    HW229238   2.921   4.168  14.214  0.4407 -2.1342 -0.4099
 5869SOL     OW29239   3.831   0.617   3.165 -0.0051  0.1976 -0.0955
 5869SOL    HW129240   3.896   0.559   3.124  1.1346  1.8010 -0.5357
 5869SOL    HW229241   3.800   0.668   3.090 -1.8294 -0.4839  0.1938
 5870SOL     OW29242   3.756   1.789   6.013  0.5682  0.0510  0.5020
 5870SOL    HW129243   3.708   1.856   5.964  0.0638 -0.9521 -0.3820
 5870SOL    HW229244   3.691   1.756   6.075  0.5980 -1.7758 -0.4219
 5871SOL     OW29245   2.610   2.809   4.524  0.5457 -0.1228  0.1580
 5871SOL    HW129246   2.641   2.886   4.476  0.9897 -0.8785 -0.7551
 5871SOL    HW229247   2.563   2.855   4.593  0.0391 -0.6030  0.1273
 5872SOL     OW29248   2.189   2.828  14.382 -0.6345  0.2299  0.3355
 5872SOL    HW129249   2.137   2.751  14.361  1.1277 -0.6424 -0.8133
 5872SOL    HW229250   2.176   2.881  14.303 -2.1868  0.7117  0.9043
 5873SOL     OW29251   2.889   0.514  14.074  0.1407  0.4824 -0.2173
 5873SOL    HW129252   2.808   0.545  14.034  0.6909  0.3287 -1.4441
 5873SOL    HW229253   2.881   0.420  14.060 -3.0986  0.7523 -0.1954
 5874SOL     OW29254   4.484   0.106  10.770 -0.0786 -0.1799 -0.3429
 5874SOL    HW129255   4.578   0.086  10.765 -0.1990 -0.5726 -1.1144
 5874SOL    HW229256   4.441   0.022  10.751 -0.3551 -0.2271  0.4921
 5875SOL     OW29257   3.033   3.272   7.081  0.0466 -0.1178  0.1315
 5875SOL    HW129258   3.011   3.321   7.001 -1.4029 -1.4701 -0.2746
 5875SOL    HW229259   3.126   3.252   7.067  0.3273  0.9523  0.4547
 5876SOL     OW29260   0.661   2.499   8.761 -0.6983  0.1137  0.4694
 5876SOL    HW129261   0.709   2.449   8.695 -2.3305 -0.4310 -0.2908
 5876SOL    HW229262   0.614   2.562   8.708 -0.9149  0.0520  0.5886
 5877SOL     OW29263   0.066   1.991   6.685 -1.0355  0.1216 -0.1699
 5877SOL    HW129264   4.732   1.930   6.687 -1.0869  0.1952  0.1815
 5877SOL    HW229265   0.120   1.946   6.620 -0.5997  0.8078 -0.2782
 5878SOL     OW29266   0.845   3.961  13.506  0.3046 -0.2011 -0.4841
 5878SOL    HW129267   0.912   3.920  13.451  0.3267 -0.3859 -0.3187
 5878SOL    HW229268   0.821   4.033  13.447  1.2806 -0.4651 -1.2068
 5879SOL     OW29269   1.179   3.655  16.711  0.2539  0.2741  0.1430
 5879SOL    HW129270   1.268   3.653  16.675  0.9602  0.8081  1.8482
 5879SOL    HW229271   1.161   3.738  16.666  0.6679 -0.8419 -2.0703
 5880SOL     OW29272   0.168   2.305  16.855  0.2436  0.2031  0.1582
 5880SOL    HW129273   0.206   2.256  16.928  0.8017  0.7954  0.2705
 5880SOL    HW229274   0.235   2.374  16.857  0.0541  0.3698  0.8809
 5881SOL     OW29275   2.145   1.614   8.994 -0.1703 -0.2143 -1.0609
 5881SOL    HW129276   2.236   1.629   8.969  0.7494  0.2634  2.4453
 5881SOL    HW229277   2.119   1.703   9.019  1.2336 -0.1765  0.2669
 5882SOL     OW29278   2.569   3.821   8.123 -0.0281 -0.4990  0.4576
 5882SOL    HW129279   2.520   3.748   8.161  0.8279 -0.9291  0.7259
 5882SOL    HW229280   2.497   3.879   8.098  1.0411  0.2323 -0.9263
 5883SOL     OW29281   4.066   2.004   2.456 -0.4385  0.3961 -0.0628
 5883SOL    HW129282   4.130   1.958   2.401 -0.2998  1.7683 -1.0700
 5883SOL    HW229283   3.990   1.953   2.428 -0.4484  0.0856  0.5323
 5884SOL     OW29284   0.834   4.336   7.173 -0.2157  0.7640  0.1389
 5884SOL    HW129285   0.888   4.291   7.239 -0.7410 -1.3622 -0.9068
 5884SOL    HW229286   0.759   4.357   7.228 -0.0092  2.1816 -0.1248
 5885SOL     OW29287   0.368   2.280  12.767 -0.2596 -0.2503  0.0354
 5885SOL    HW129288   0.443   2.247  12.717 -0.4849  0.8547 -1.0099
 5885SOL    HW229289   0.393   2.243  12.852  0.9531  2.5397  0.8803
 5886SOL     OW29290   0.005   4.574   5.287  0.0810 -0.3635  0.1027
 5886SOL    HW129291   0.021   4.657   5.241 -0.6249 -0.0910  0.3485
 5886SOL    HW229292   0.031   4.591   5.378 -0.9607  2.3180 -0.1002
 5887SOL     OW29293   2.603   2.135   7.387  0.2535  0.6586 -0.3644
 5887SOL    HW129294   2.535   2.185   7.432 -0.1762 -0.2120 -0.0370
 5887SOL    HW229295   2.678   2.183   7.421  1.3353 -2.5158  1.7647
 5888SOL     OW29296   1.608   3.963   2.472  0.4924 -0.0333 -0.2507
 5888SOL    HW129297   1.528   3.990   2.427  1.7426 -1.4311 -3.3065
 5888SOL    HW229298   1.597   3.869   2.463  0.1489  0.0768 -0.9830
 5889SOL     OW29299   2.939   1.501  11.317  0.4669 -0.1890  0.2459
 5889SOL    HW129300   2.985   1.461  11.391 -0.4655  0.4316  1.1549
 5889SOL    HW229301   2.881   1.549  11.376  1.9343  1.3257  0.4647
 5890SOL     OW29302   3.839   3.660   3.235  0.0400  0.4965  0.2458
 5890SOL    HW129303   3.747   3.644   3.256 -0.1788  0.5824 -0.6821
 5890SOL    HW229304   3.868   3.675   3.325  3.4669 -0.9096 -0.6364
 5891SOL     OW29305   3.522   0.814   5.604  0.4023  0.4648  0.0068
 5891SOL    HW129306   3.548   0.811   5.696  1.3162  0.8628 -0.2281
 5891SOL    HW229307   3.595   0.761   5.573  1.2691  0.4412  2.0766
 5892SOL     OW29308   1.929   1.063   3.386 -0.3768  0.1760  0.6737
 5892SOL    HW129309   1.975   0.984   3.358  0.1813  0.1273  1.7269
 5892SOL    HW229310   1.977   1.138   3.352 -0.9221  0.0618 -0.3279
 5893SOL     OW29311   1.557   1.797   6.081  0.1983 -0.3225  0.4626
 5893SOL    HW129312   1.540   1.707   6.109 -3.6847  0.2576 -0.0278
 5893SOL    HW229313   1.611   1.820   6.156  1.1088 -0.1352 -0.2557
 5894SOL     OW29314   3.724   4.659   9.015 -0.2090  0.3617  0.3395
 5894SOL    HW129315   3.677   4.581   9.048 -0.1016 -0.7230 -2.0852
 5894SOL    HW229316   3.769   4.687   9.095  1.2176  1.4452 -0.8464
 5895SOL     OW29317   4.245   3.332   8.788  0.5657 -0.1101  0.4224
 5895SOL    HW129318   4.199   3.388   8.727 -0.6374 -1.7308 -0.1585
 5895SOL    HW229319   4.321   3.308   8.734 -1.9101 -0.2286 -2.9634
 5896SOL     OW29320   2.845   0.254  13.993  0.0647 -0.0262  0.3196
 5896SOL    HW129321   2.935   0.239  13.962 -0.7142  0.2488 -2.0491
 5896SOL    HW229322   2.786   0.223  13.925 -1.1861  0.5401  1.1484
 5897SOL     OW29323   2.105   4.250   5.686  0.5002  0.8211  0.4870
 5897SOL    HW129324   2.076   4.165   5.720  1.4386 -0.2710 -1.4830
 5897SOL    HW229325   2.057   4.317   5.735 -1.3520  0.8389 -1.3494
 5898SOL     OW29326   0.366   3.086   6.839 -0.0258 -0.1851 -0.2584
 5898SOL    HW129327   0.298   3.152   6.835  1.1839  0.9487 -1.9684
 5898SOL    HW229328   0.404   3.094   6.752 -1.1857 -0.1937 -0.7495
 5899SOL     OW29329   3.051   1.215   3.917 -0.0297  0.3889  0.3937
 5899SOL    HW129330   3.074   1.220   3.824  0.6268  0.0658  0.5441
 5899SOL    HW229331   3.113   1.150   3.950 -1.2524 -0.8133  0.3185
 5900SOL     OW29332   1.651   0.383   2.313  0.0213  0.0647  0.0923
 5900SOL    HW129333   1.725   0.339   2.356  0.1804  0.3604  0.1139
 5900SOL    HW229334   1.589   0.394   2.385 -1.4276 -0.1111 -1.1186
 5901SOL     OW29335   0.731   0.956  12.938 -0.3052 -0.0089  0.2665
 5901SOL    HW129336   0.718   0.864  12.962  0.5990  0.3041  2.0290
 5901SOL    HW229337   0.826   0.971  12.937  0.1813 -3.3414 -3.5677
 5902SOL     OW29338   3.397   3.831   4.652  0.1814 -0.4031  0.1326
 5902SOL    HW129339   3.353   3.780   4.721 -0.6809 -0.4128 -0.4280
 5902SOL    HW229340   3.407   3.914   4.697  2.5118  1.2270 -3.4428
 5903SOL     OW29341   4.079   4.437   6.331 -0.2118 -0.3888 -0.0946
 5903SOL    HW129342   4.057   4.360   6.279 -1.3084 -1.0716  1.3896
 5903SOL    HW229343   4.150   4.406   6.387 -0.5917  0.0873  0.6452
 5904SOL     OW29344   3.397   3.558  10.087  0.0961 -0.0258  0.2523
 5904SOL    HW129345   3.465   3.605  10.038 -0.6672 -0.6526 -1.4303
 5904SOL    HW229346   3.407   3.611  10.166 -0.0166  1.0448 -0.4573
 5905SOL     OW29347   0.309   4.536   9.382 -0.0028  0.2258  0.2780
 5905SOL    HW129348   0.251   4.464   9.358  0.8525 -0.1423 -0.6755
 5905SOL    HW229349   0.248   4.589   9.434  0.0824 -0.5062  1.1242
 5906SOL     OW29350   4.328   2.904   1.876 -0.4695  0.4051  0.3911
 5906SOL    HW129351   4.388   2.857   1.934  1.3042  1.7109 -0.4116
 5906SOL    HW229352   4.381   2.924   1.800 -2.4781 -0.1123 -1.1519
 5907SOL     OW29353   0.537   2.369   1.863 -0.0852  0.3397  0.4824
 5907SOL    HW129354   0.447   2.402   1.861  0.0851  0.8201  0.6613
 5907SOL    HW229355   0.528   2.295   1.921 -3.2774 -1.7070 -2.6537
 5908SOL     OW29356   1.261   2.030   7.597  0.1445 -0.5242  0.1777
 5908SOL    HW129357   1.318   2.107   7.586  0.3007 -0.8564 -1.3239
 5908SOL    HW229358   1.330   1.967   7.617 -0.6404 -1.4407 -0.0248
 5909SOL     OW29359   4.329   0.825  15.303 -0.0216 -0.7386 -0.5534
 5909SOL    HW129360   4.246   0.829  15.256 -1.8179  1.9883  2.9058
 5909SOL    HW229361   4.292   0.792  15.385  1.5908 -0.6053  0.2455
 5910SOL     OW29362   0.033   0.853   6.940  0.7964  0.0440 -0.3131
 5910SOL    HW129363   0.086   0.918   6.894  0.9968  0.6961  0.8434
 5910SOL    HW229364   0.091   0.778   6.930 -0.5241 -1.1590  1.0668
 5911SOL     OW29365   2.183   3.122  13.037 -0.0383 -0.0269  0.5735
 5911SOL    HW129366   2.169   3.214  13.063 -1.0209  0.2639 -0.9761
 5911SOL    HW229367   2.113   3.080  13.087  0.3336  1.0348  2.0044
 5912SOL     OW29368   4.613   1.218  13.271 -0.3331 -0.3881 -0.1235
 5912SOL    HW129369   4.572   1.246  13.189  0.3852  2.2663  0.4406
 5912SOL    HW229370   4.538   1.193  13.325  0.7547 -0.3232  1.3961
 5913SOL     OW29371   3.385   1.186   3.898  0.0685 -0.0283  0.6375
 5913SOL    HW129372   3.359   1.233   3.819 -0.5164 -2.4618 -0.6240
 5913SOL    HW229373   3.377   1.251   3.968 -2.2912  0.2341  0.1233
 5914SOL     OW29374   0.366   2.253   0.373 -0.0579  0.0766  0.4177
 5914SOL    HW129375   0.406   2.339   0.388  0.8936 -0.6070  1.7762
 5914SOL    HW229376   0.384   2.218   0.460 -1.4660  0.8249  1.0184
 5915SOL     OW29377   4.678   3.228   8.141 -0.7201 -0.3313 -0.4487
 5915SOL    HW129378   4.685   3.134   8.156 -1.5987 -0.3020  0.1459
 5915SOL    HW229379   0.032   3.244   8.153 -1.0552  0.1373  1.5135
 5916SOL     OW29380   1.787   0.590   2.186 -0.3429 -0.3825 -0.0096
 5916SOL    HW129381   1.789   0.548   2.100  0.3294 -1.5087  0.5429
 5916SOL    HW229382   1.741   0.525   2.239 -0.1004 -0.3729  0.2161
 5917SOL     OW29383   0.065   0.209   5.394  0.0910  0.3321  0.4207
 5917SOL    HW129384   0.061   0.302   5.419 -1.7102  0.1523  0.7569
 5917SOL    HW229385   0.157   0.187   5.380  0.1010 -0.0634  1.0825
 5918SOL     OW29386   0.221   2.998   5.975 -0.2319 -0.4883 -0.4027
 5918SOL    HW129387   0.218   3.084   5.932 -3.4049  0.8080  2.4204
 5918SOL    HW229388   0.308   2.975   5.943 -1.0517 -1.8311 -1.6316
 5919SOL     OW29389   1.139   4.506   1.659 -0.3028  0.0645  0.2231
 5919SOL    HW129390   1.115   4.505   1.566 -1.0558  0.9640  0.4070
 5919SOL    HW229391   1.052   4.529   1.691  0.3179  3.0047 -0.2543
 5920SOL     OW29392   0.833   4.112   7.999 -0.4807 -0.2925 -0.0892
 5920SOL    HW129393   0.784   4.033   7.979 -1.4985  0.6474 -1.3310
 5920SOL    HW229394   0.767   4.181   8.011  0.3647  0.3385  0.9159
 5921SOL     OW29395   1.888   1.306  16.875  0.3133  0.0718 -0.9987
 5921SOL    HW129396   1.943   1.229  16.859  0.4544 -0.3354  1.4356
 5921SOL    HW229397   1.934   1.371  16.822 -0.5234  0.7030 -0.9542
 5922SOL     OW29398   3.140   3.685   5.301  0.0034 -0.1490 -0.3385
 5922SOL    HW129399   3.233   3.699   5.287  0.3242 -0.6514  1.3602
 5922SOL    HW229400   3.106   3.771   5.275  0.7838  0.5166  0.8822
 5923SOL     OW29401   0.009   3.878  14.917  0.0106 -0.2606  0.0596
 5923SOL    HW129402   0.079   3.934  14.949 -0.5187  1.6968 -2.1924
 5923SOL    HW229403   4.694   3.939  14.867 -0.0120  0.2708  0.7444
 5924SOL     OW29404   0.897   3.434   7.633 -0.2804 -0.4052 -0.5570
 5924SOL    HW129405   0.893   3.396   7.545 -1.2975 -1.4588 -0.0510
 5924SOL    HW229406   0.990   3.433   7.653  0.3544  0.5746 -3.3393
 5925SOL     OW29407   1.035   0.928  12.888 -0.1735  0.4188  0.4733
 5925SOL    HW129408   1.079   1.013  12.897 -0.0490  0.5042 -0.9055
 5925SOL    HW229409   1.069   0.886  12.967 -0.0184 -0.4092 -0.0308
 5926SOL     OW29410   4.403   2.266   4.197  0.9006 -0.0574 -0.7134
 5926SOL    HW129411   4.308   2.265   4.201  0.9305  0.1382  0.1057
 5926SOL    HW229412   4.420   2.221   4.280  1.7661  1.4497 -0.0682
 5927SOL     OW29413   0.884   0.480   2.926  0.0169 -0.4791  0.0737
 5927SOL    HW129414   0.953   0.418   2.905  0.1214  0.0182 -1.0728
 5927SOL    HW229415   0.890   0.474   3.021 -0.2267 -0.8675  0.0649
 5928SOL     OW29416   4.565   0.281  17.137  0.0542 -0.4796  0.4669
 5928SOL    HW129417   4.543   0.355  17.193 -1.2755  1.8300 -3.1103
 5928SOL    HW229418   4.657   0.297  17.116 -0.3968  0.3078 -0.9267
 5929SOL     OW29419   3.944   0.195   3.222 -0.4581 -0.1016  0.1296
 5929SOL    HW129420   3.932   0.146   3.304 -3.0619 -1.0990 -0.8525
 5929SOL    HW229421   3.880   0.154   3.164 -0.9956 -0.7551  1.1798
 5930SOL     OW29422   2.260   4.718   6.082 -0.4728 -0.1717 -0.3164
 5930SOL    HW129423   2.299   0.039   6.146 -0.6520  2.8664 -3.0753
 5930SOL    HW229424   2.251   0.040   6.009  1.6806  0.3993 -0.1192
 5931SOL     OW29425   0.838   0.444  14.879  0.1567  0.3762 -0.6531
 5931SOL    HW129426   0.809   0.392  14.804  0.8791 -2.5172  1.0642
 5931SOL    HW229427   0.909   0.490  14.834  1.1048 -0.2113  0.2375
 5932SOL     OW29428   0.363   3.700   5.172  0.6481 -0.2669 -0.2400
 5932SOL    HW129429   0.304   3.775   5.161 -0.6039 -1.2461 -0.2770
 5932SOL    HW229430   0.351   3.675   5.263  0.3961  0.2048 -0.1435
 5933SOL     OW29431   0.144   3.467   8.776  0.2195 -0.0894  0.5084
 5933SOL    HW129432   0.180   3.555   8.792  1.1566 -0.2450 -0.7300
 5933SOL    HW229433   0.088   3.454   8.852 -1.7777  2.3171 -0.5434
 5934SOL     OW29434   4.068   3.739   8.763  0.1895  0.5767 -0.1070
 5934SOL    HW129435   4.070   3.658   8.713  2.1704  0.5705  0.0122
 5934SOL    HW229436   3.987   3.777   8.728 -0.2683  1.3122  1.7608
 5935SOL     OW29437   1.493   1.147   3.077 -0.3340 -0.1424  0.2316
 5935SOL    HW129438   1.397   1.141   3.083 -0.2102 -3.4335 -1.2289
 5935SOL    HW229439   1.508   1.238   3.051 -2.0786 -0.2730 -1.2837
 5936SOL     OW29440   2.227   4.214  12.075 -0.6373  0.4936  0.0776
 5936SOL    HW129441   2.197   4.298  12.042 -0.1076  0.7770  0.3301
 5936SOL    HW229442   2.316   4.238  12.098 -1.2014  2.3918  0.2209
 5937SOL     OW29443   1.885   3.732   4.198 -0.0941 -0.2974  0.0637
 5937SOL    HW129444   1.922   3.819   4.210  0.9755 -0.9209  1.3452
 5937SOL    HW229445   1.902   3.694   4.285  2.9476 -0.4430 -0.5910
 5938SOL     OW29446   0.405   3.516   3.186 -0.0390  0.0299  0.6017
 5938SOL    HW129447   0.319   3.527   3.145 -0.1675  0.2898  0.9404
 5938SOL    HW229448   0.431   3.606   3.208  0.9677  0.1972 -1.2753
 5939SOL     OW29449   3.899   4.220  12.821  0.1543 -0.4466 -0.1813
 5939SOL    HW129450   3.847   4.278  12.765  0.1550  0.4196  0.7015
 5939SOL    HW229451   3.876   4.135  12.784 -0.0691  0.5268 -2.2735
 5940SOL     OW29452   2.996   0.979  16.030  0.4514  1.1091  0.2188
 5940SOL    HW129453   2.951   1.003  16.111 -0.3721 -0.7085  0.3158
 5940SOL    HW229454   2.963   1.041  15.965 -0.4623  0.6736  0.2626
 5941SOL     OW29455   1.095   0.822   4.305  0.3680 -0.6241  0.0832
 5941SOL    HW129456   1.022   0.760   4.301 -0.1553  0.1380 -2.6945
 5941SOL    HW229457   1.042   0.901   4.318 -1.1192 -1.7545  0.9609
 5942SOL     OW29458   3.526   4.542   5.564  0.4908 -0.2094  0.1861
 5942SOL    HW129459   3.530   4.535   5.468  2.7533 -2.7760  0.4553
 5942SOL    HW229460   3.530   4.453   5.598  3.7958  0.6372  2.0107
 5943SOL     OW29461   2.275   3.481   1.638  0.3384  0.2234 -0.0532
 5943SOL    HW129462   2.337   3.416   1.670 -0.9861 -1.1177 -0.1941
 5943SOL    HW229463   2.238   3.512   1.721  2.0419 -0.3437  0.9007
 5944SOL     OW29464   3.448   4.289   9.610 -0.1728  0.2763 -0.5083
 5944SOL    HW129465   3.524   4.292   9.667  0.5709 -0.4784 -1.4521
 5944SOL    HW229466   3.381   4.275   9.677  0.6034  1.0125  0.4132
 5945SOL     OW29467   3.222   4.024   9.024  0.0207 -0.2100  0.6794
 5945SOL    HW129468   3.151   4.083   8.998  0.8820  1.5393  2.2796
 5945SOL    HW229469   3.174   3.942   9.024  0.9532 -0.7464  0.2563
 5946SOL     OW29470   1.093   2.811   8.058  0.1957  0.5478  0.1024
 5946SOL    HW129471   1.147   2.816   7.979 -1.1480 -1.1975 -0.9248
 5946SOL    HW229472   1.003   2.839   8.038 -0.9497 -1.8028  2.0457
 5947SOL     OW29473   2.659   2.006   8.227  0.3099  0.0837 -0.0776
 5947SOL    HW129474   2.741   2.024   8.271 -0.3236  0.9820  0.7241
 5947SOL    HW229475   2.695   1.943   8.165  0.4344 -0.9794  1.0696
 5948SOL     OW29476   4.387   3.071   5.431 -0.5577 -0.1626 -0.0229
 5948SOL    HW129477   4.427   3.120   5.359  1.3012  0.5397  1.4902
 5948SOL    HW229478   4.448   3.000   5.450 -1.5323 -0.6100  1.4477
 5949SOL     OW29479   1.504   3.125   6.306  0.0559 -0.1030 -0.5031
 5949SOL    HW129480   1.426   3.177   6.286  1.9066  1.6210 -3.2736
 5949SOL    HW229481   1.479   3.035   6.288 -1.5560 -0.2783  2.5487
 5950SOL     OW29482   2.391   1.385  13.149  0.2747 -0.5389  0.2312
 5950SOL    HW129483   2.435   1.464  13.181  0.7821 -0.5724 -0.3631
 5950SOL    HW229484   2.442   1.345  13.079  2.6191  0.7754  1.1655
 5951SOL     OW29485   4.129   3.160   2.975  0.3237  0.0418 -0.6291
 5951SOL    HW129486   4.167   3.248   2.963  0.1019 -0.2821 -3.6185
 5951SOL    HW229487   4.170   3.147   3.061 -0.3723 -0.2821 -0.3533
 5952SOL     OW29488   4.194   0.301   4.003 -0.1093 -0.0523  0.2233
 5952SOL    HW129489   4.272   0.269   4.049 -1.6929 -1.3146  2.0275
 5952SOL    HW229490   4.187   0.238   3.931 -0.2747 -0.2587  0.4214
 5953SOL     OW29491   0.922   2.750   3.186 -0.4724  0.2484  0.3888
 5953SOL    HW129492   0.928   2.670   3.238 -0.8604  0.4339  0.7217
 5953SOL    HW229493   0.864   2.718   3.117  0.2691  1.7841 -0.9507
 5954SOL     OW29494   2.559   3.975  15.549  0.0888 -0.1942 -0.5255
 5954SOL    HW129495   2.651   3.982  15.574 -0.5545  1.7514  1.3154
 5954SOL    HW229496   2.549   4.021  15.466  0.1847  0.2861 -0.2699
 5955SOL     OW29497   2.429   2.920  14.474  0.0178 -0.3919 -0.1890
 5955SOL    HW129498   2.347   2.885  14.438  0.3376 -1.0131 -0.3326
 5955SOL    HW229499   2.442   2.858  14.546  3.2991  0.0622 -0.3603
 5956SOL     OW29500   0.392   2.937   8.756  0.0536  0.4901 -0.1314
 5956SOL    HW129501   0.327   2.936   8.827 -0.2130 -1.1454 -0.3896
 5956SOL    HW229502   0.331   2.967   8.689 -0.4035 -2.6626 -1.1250
 5957SOL     OW29503   0.969   2.281   5.636  0.2139 -0.1525  0.4473
 5957SOL    HW129504   0.946   2.328   5.716 -2.9645 -0.7794 -0.0855
 5957SOL    HW229505   0.976   2.352   5.572 -0.3813  0.2369  0.8173
 5958SOL     OW29506   1.217   3.764   4.428 -0.3089  0.0842  0.3574
 5958SOL    HW129507   1.150   3.796   4.369 -0.8783 -0.5189  0.6802
 5958SOL    HW229508   1.201   3.670   4.422 -1.4097  0.1979  1.4474
 5959SOL     OW29509   0.059   2.983   1.027  0.2863  0.2158 -0.1041
 5959SOL    HW129510   0.133   2.993   0.968  1.1529 -2.3443  0.5668
 5959SOL    HW229511   0.049   3.073   1.059 -0.4968  0.0326  0.1623
 5960SOL     OW29512   2.840   1.470   2.793 -0.7203 -0.2055 -0.8220
 5960SOL    HW129513   2.907   1.526   2.754  1.1035 -1.8783 -0.1615
 5960SOL    HW229514   2.832   1.409   2.720  0.3103 -0.4545 -0.7299
 5961SOL     OW29515   3.348   3.500  15.300 -0.1148 -0.3427 -0.2976
 5961SOL    HW129516   3.284   3.566  15.274  0.8273  1.0498  0.9087
 5961SOL    HW229517   3.318   3.419  15.259 -0.3633  0.1538 -1.0842
 5962SOL     OW29518   0.376   0.565   3.431  0.1733  0.7631 -0.4341
 5962SOL    HW129519   0.330   0.614   3.499 -0.5597 -0.2869 -0.1737
 5962SOL    HW229520   0.300   0.526   3.388 -0.6503 -0.8040  2.4326
 5963SOL     OW29521   0.978   3.505   8.342  0.4651 -0.1164  0.1369
 5963SOL    HW129522   0.947   3.500   8.432 -0.1732  0.6255 -0.0472
 5963SOL    HW229523   0.905   3.557   8.308  1.1670 -0.4474 -1.8674
 5964SOL     OW29524   0.324   3.004   4.656 -0.1772 -0.0075  0.4038
 5964SOL    HW129525   0.406   3.025   4.611  0.2509 -0.4974  0.9584
 5964SOL    HW229526   0.368   2.975   4.736 -1.1586  1.7290  1.5743
 5965SOL     OW29527   2.506   1.356  13.411 -0.4762 -0.2735  0.2070
 5965SOL    HW129528   2.523   1.444  13.380 -0.9691  0.0535  0.8698
 5965SOL    HW229529   2.447   1.315  13.348 -0.0574  1.1166 -1.0879
 5966SOL     OW29530   2.718   1.593   9.880 -0.2032  0.1784  0.4125
 5966SOL    HW129531   2.771   1.611   9.958 -1.6464  2.0974  0.9301
 5966SOL    HW229532   2.690   1.502   9.888 -1.1803  0.4830  0.3708
 5967SOL     OW29533   3.046   2.934   5.382  0.4074  0.3227  1.0192
 5967SOL    HW129534   3.057   2.862   5.443  1.8172 -1.6617 -1.6060
 5967SOL    HW229535   3.035   3.004   5.446  0.3403  1.2173  0.0390
 5968SOL     OW29536   0.008   2.714   3.352  0.3625  0.1273 -0.1166
 5968SOL    HW129537   0.034   2.800   3.318 -0.0441  0.6059  0.7722
 5968SOL    HW229538   0.090   2.664   3.345 -0.5672 -1.1212 -1.9825
 5969SOL     OW29539   0.394   0.381  12.530  0.0729  0.1937  0.2383
 5969SOL    HW129540   0.394   0.474  12.507  0.2447  0.1656  0.1234
 5969SOL    HW229541   0.368   0.342  12.447  0.4650 -0.0336  0.2206
 5970SOL     OW29542   3.570   3.837   3.003  0.0807 -0.8658  0.1143
 5970SOL    HW129543   3.484   3.819   3.039 -0.5783 -0.3452 -1.1782
 5970SOL    HW229544   3.587   3.770   2.937 -0.4633  1.3936 -2.3289
 5971SOL     OW29545   3.011   4.335   7.318 -0.4004  0.5650 -0.2149
 5971SOL    HW129546   2.982   4.426   7.308 -1.6967 -0.0139 -1.7249
 5971SOL    HW229547   2.936   4.299   7.366  0.5373 -1.6606 -0.4143
 5972SOL     OW29548   3.508   1.000  16.738  0.0166 -0.1095 -0.1969
 5972SOL    HW129549   3.529   0.922  16.790  0.7102  0.3673  0.2521
 5972SOL    HW229550   3.557   1.075  16.773 -0.6334  1.0397 -1.7913
 5973SOL     OW29551   0.432   1.692   9.369 -0.1923  0.2563  0.3510
 5973SOL    HW129552   0.517   1.704   9.327 -0.9356 -2.1546 -1.8480
 5973SOL    HW229553   0.444   1.773   9.419  1.2199 -0.0998  0.5938
 5974SOL     OW29554   2.265   0.532   5.651  0.0912 -0.7840  0.2716
 5974SOL    HW129555   2.226   0.614   5.682  2.1533  0.1284  0.4752
 5974SOL    HW229556   2.332   0.515   5.718  0.8724 -2.2324 -0.8799
 5975SOL     OW29557   2.281   4.406   4.708  0.0622 -0.0590 -0.2416
 5975SOL    HW129558   2.257   4.432   4.797  0.6266  0.5361 -0.2634
 5975SOL    HW229559   2.222   4.467   4.665  0.7504  0.0786 -0.9933
 5976SOL     OW29560   1.151   1.222   3.539  0.0585 -0.0501  0.2738
 5976SOL    HW129561   1.140   1.127   3.538 -0.5676  0.0315 -0.2757
 5976SOL    HW229562   1.102   1.240   3.619  0.0951  0.8949  0.0782
 5977SOL     OW29563   3.685   1.024   9.448 -0.2430 -0.2287  0.4013
 5977SOL    HW129564   3.689   0.928   9.446 -2.2553 -0.2740 -1.5553
 5977SOL    HW229565   3.593   1.035   9.470  0.0509  1.9859  0.5226
 5978SOL     OW29566   3.687   2.534  14.108  0.6222 -0.0426 -0.2961
 5978SOL    HW129567   3.733   2.607  14.150 -0.4087  0.4450 -0.0173
 5978SOL    HW229568   3.601   2.522  14.148  0.0579  2.3590 -0.8139
 5979SOL     OW29569   3.468   1.862   4.400  1.0941 -0.3740 -0.6443
 5979SOL    HW129570   3.422   1.941   4.371  2.1048  0.3449 -0.2868
 5979SOL    HW229571   3.547   1.869   4.345  1.3006 -1.0308 -0.4271
 5980SOL     OW29572   2.418   3.443  16.454  0.2665 -0.3548 -0.1024
 5980SOL    HW129573   2.439   3.388  16.378 -0.3393 -0.9067  0.1322
 5980SOL    HW229574   2.501   3.476  16.489  0.4525  0.5600 -1.4184
 5981SOL     OW29575   3.793   1.991   3.451  0.2358 -0.6112 -0.2273
 5981SOL    HW129576   3.698   1.996   3.463  0.2389  0.1347 -0.4878
 5981SOL    HW229577   3.810   2.069   3.504 -0.5638  1.3229 -2.8002
 5982SOL     OW29578   0.131   2.791   0.806  0.2304  0.2667 -0.1464
 5982SOL    HW129579   0.211   2.741   0.794 -0.9504 -1.7118  0.1723
 5982SOL    HW229580   0.163   2.877   0.830  1.3180 -0.3616  0.6480
 5983SOL     OW29581   3.301   3.350  14.077 -0.2112 -0.0381  0.0845
 5983SOL    HW129582   3.331   3.276  14.025 -0.6688 -0.2592  0.1435
 5983SOL    HW229583   3.379   3.406  14.080 -1.7240  2.0258  1.1276
 5984SOL     OW29584   3.361   4.335  14.677 -0.3044 -0.0125 -0.1050
 5984SOL    HW129585   3.266   4.347  14.671 -0.4105  0.3075  2.0660
 5984SOL    HW229586   3.392   4.359  14.590 -0.3789 -0.4587 -0.2531
 5985SOL     OW29587   0.047   2.651   5.367 -0.1476  0.1220 -0.3226
 5985SOL    HW129588   0.129   2.603   5.375 -0.6411  0.0041  3.8140
 5985SOL    HW229589   0.077   2.728   5.415 -0.1344  0.4670 -0.8893
 5986SOL     OW29590   2.000   3.602   3.275 -0.0870 -0.7106  0.4772
 5986SOL    HW129591   1.927   3.622   3.333 -0.2792 -2.6564  0.9228
 5986SOL    HW229592   1.946   3.589   3.197 -0.8425  0.5594  0.7922
 5987SOL     OW29593   3.034   1.425   0.365 -0.1199 -0.0800 -0.3692
 5987SOL    HW129594   3.065   1.373   0.291 -1.0258 -0.3466 -0.5637
 5987SOL    HW229595   3.038   1.361   0.436 -1.0163  1.8360  1.3950
 5988SOL     OW29596   0.048   3.212  12.911 -0.2815  0.6204  1.0494
 5988SOL    HW129597   0.056   3.232  13.004  0.6992 -0.1900  1.1413
 5988SOL    HW229598   0.140   3.192  12.893 -0.7287 -1.4409  1.0631
 5989SOL     OW29599   2.814   3.942   8.759 -0.1137  0.6676 -0.7232
 5989SOL    HW129600   2.821   3.848   8.773 -0.5760  0.8052  0.4038
 5989SOL    HW229601   2.866   3.950   8.679  0.9497 -2.0016 -0.2898
 5990SOL     OW29602   1.993   4.085   4.189  0.2361 -0.3748  0.3346
 5990SOL    HW129603   2.086   4.099   4.171  0.1001  1.4218  1.0587
 5990SOL    HW229604   1.990   4.115   4.280  0.6829  2.0084 -0.4355
 5991SOL     OW29605   0.415   1.579   5.545 -0.2596 -0.0601 -0.1767
 5991SOL    HW129606   0.339   1.633   5.522  0.0835  0.7068  0.5125
 5991SOL    HW229607   0.452   1.554   5.460 -0.4140 -2.8091  0.5670
 5992SOL     OW29608   4.055   0.278   4.898  0.3628 -0.0129 -0.2483
 5992SOL    HW129609   4.124   0.344   4.890  0.4420 -0.2788 -1.8291
 5992SOL    HW229610   4.049   0.267   4.993  0.0066 -0.1085 -0.2808
 5993SOL     OW29611   3.222   1.836   6.033  0.6904  0.3790 -0.1465
 5993SOL    HW129612   3.222   1.930   6.011 -0.6541  0.3508 -0.2521
 5993SOL    HW229613   3.303   1.814   5.987  0.9361  1.5699 -0.2984
 5994SOL     OW29614   3.703   3.326  11.175 -0.1397  0.5582 -0.0982
 5994SOL    HW129615   3.738   3.341  11.263  0.0691 -1.3741  0.1368
 5994SOL    HW229616   3.671   3.414  11.152  1.5071  1.6783  1.8695
 5995SOL     OW29617   1.267   1.946   9.315  0.4541  0.1259 -0.4723
 5995SOL    HW129618   1.287   2.010   9.383  1.0160  2.1147 -2.5109
 5995SOL    HW229619   1.198   1.899   9.362 -0.5209  1.0736 -0.9588
 5996SOL     OW29620   3.399   2.582   2.318  0.6968 -0.0886  0.0474
 5996SOL    HW129621   3.434   2.591   2.407 -0.2647  1.4266  0.2805
 5996SOL    HW229622   3.388   2.487   2.318  3.1541 -0.3773  0.2124
 5997SOL     OW29623   2.471   3.163  12.563 -0.6755  0.1013 -0.1096
 5997SOL    HW129624   2.430   3.155  12.477 -1.7084 -0.1529  0.4069
 5997SOL    HW229625   2.404   3.218  12.604  0.7540  0.0864  2.2976
 5998SOL     OW29626   1.179   1.042   5.829 -0.4357  0.4736  0.3139
 5998SOL    HW129627   1.165   0.952   5.802  2.7617  0.6051 -1.7464
 5998SOL    HW229628   1.273   1.054   5.844 -0.6423  1.9624  0.4336
 5999SOL     OW29629   1.779   0.691   1.832 -0.3878  0.1294  0.5065
 5999SOL    HW129630   1.697   0.646   1.812 -1.4767  1.4205  2.1306
 5999SOL    HW229631   1.752   0.781   1.848  0.0130  1.0400 -3.7785
 6000SOL     OW29632   3.177   1.226   6.440  0.4020 -0.4331  0.3471
 6000SOL    HW129633   3.093   1.270   6.455 -0.1341 -1.4397  0.3161
 6000SOL    HW229634   3.209   1.277   6.366 -0.1919  1.0452  1.1113
 6001SOL     OW29635   2.891   1.625   4.940  0.2112 -0.0806 -0.8294
 6001SOL    HW129636   2.904   1.710   4.897 -3.8785  1.2184  0.4529
 6001SOL    HW229637   2.961   1.577   4.897 -0.9262 -2.2267 -0.2463
 6002SOL     OW29638   0.245   4.081   3.390  0.4371 -0.7199  0.7198
 6002SOL    HW129639   0.203   4.086   3.304 -1.2582  0.5470  1.6049
 6002SOL    HW229640   0.339   4.090   3.378  0.0607  1.3256 -0.7155
 6003SOL     OW29641   0.902   0.645   5.814  0.0316 -0.4701 -0.1849
 6003SOL    HW129642   0.809   0.639   5.835  0.2892  0.0433  1.0941
 6003SOL    HW229643   0.922   0.554   5.792  0.1142 -1.0299  2.1932
 6004SOL     OW29644   3.305   3.300   2.580  0.0227  0.6512 -0.2123
 6004SOL    HW129645   3.273   3.237   2.645  1.6363  1.4835  1.3914
 6004SOL    HW229646   3.369   3.250   2.530 -1.0452 -0.9047 -0.0434
 6005SOL     OW29647   4.423   1.159   8.928 -0.7035 -0.6610  0.0406
 6005SOL    HW129648   4.404   1.158   9.022 -2.2178 -0.9107 -0.2740
 6005SOL    HW229649   4.480   1.085   8.911 -2.3041 -1.7552 -0.5202
 6006SOL     OW29650   2.511   2.505   8.342  0.5872 -0.3371  0.4544
 6006SOL    HW129651   2.556   2.431   8.302  0.2801 -0.8585  1.0863
 6006SOL    HW229652   2.464   2.471   8.418  1.8628 -4.2561 -0.5273
 6007SOL     OW29653   1.038   3.109  10.155 -0.1836  0.2082  0.0656
 6007SOL    HW129654   1.061   3.186  10.207 -1.5096  0.9074 -0.4002
 6007SOL    HW229655   1.039   3.037  10.218  0.7737  0.9895  0.9323
 6008SOL     OW29656   4.198   2.016   6.954 -0.1859  0.0554  0.0160
 6008SOL    HW129657   4.147   1.990   7.030  2.0838  0.6045  1.7302
 6008SOL    HW229658   4.267   2.062   7.002  1.3656 -1.6661 -0.5862
 6009SOL     OW29659   1.798   1.976  10.625  0.3561  0.5739  0.2822
 6009SOL    HW129660   1.857   1.971  10.700  0.3053  0.7402  0.3319
 6009SOL    HW229661   1.842   1.930  10.553 -0.0792 -1.0043  1.0255
 6010SOL     OW29662   3.526   1.347   6.350  0.0368 -0.3201  0.4470
 6010SOL    HW129663   3.538   1.442   6.362 -0.9025 -0.4288  2.2066
 6010SOL    HW229664   3.583   1.322   6.423  2.1975  0.6392 -0.9015
 6011SOL     OW29665   1.592   1.402   2.998  0.4958 -0.2718  0.9842
 6011SOL    HW129666   1.620   1.364   2.915 -2.7210 -1.0045  0.2394
 6011SOL    HW229667   1.522   1.458   2.963  1.0427 -0.5373 -0.5579
 6012SOL     OW29668   3.089   2.435  17.185  0.1187  0.1796 -0.4105
 6012SOL    HW129669   3.014   2.406  17.133 -0.2386  0.9928 -0.3526
 6012SOL    HW229670   3.109   2.511  17.130  0.0379  0.4164 -0.1123
 6013SOL     OW29671   0.188   2.833   5.576  0.1174 -0.3589 -0.2491
 6013SOL    HW129672   0.119   2.815   5.640  0.0857 -0.5221 -0.3279
 6013SOL    HW229673   0.212   2.921   5.605 -1.4921 -0.0251  0.0678
 6014SOL     OW29674   0.373   0.698   2.246 -0.1196 -0.0852  0.4318
 6014SOL    HW129675   0.396   0.723   2.335 -1.5405 -1.2724  1.1298
 6014SOL    HW229676   0.333   0.615   2.272  2.4051 -1.1555  0.8685
 6015SOL     OW29677   4.728   1.549   8.786 -0.0747  0.6683 -0.2155
 6015SOL    HW129678   4.717   1.638   8.752  0.5606  0.6060 -0.5632
 6015SOL    HW229679   4.720   1.496   8.707 -1.5257 -0.5094  0.7194
 6016SOL     OW29680   3.134   2.536   9.482  0.2126  0.1196  0.6238
 6016SOL    HW129681   3.216   2.582   9.463  0.2353  0.1519  0.7960
 6016SOL    HW229682   3.162   2.473   9.548  1.3135 -1.8076 -1.7116
 6017SOL     OW29683   4.026   0.153   8.971 -0.4525 -0.3762 -0.1757
 6017SOL    HW129684   3.990   0.220   8.913  1.1070  1.7475  1.2889
 6017SOL    HW229685   3.957   0.087   8.978 -1.0911  0.2589 -0.5199
 6018SOL     OW29686   1.802   3.262   6.014 -0.0631  0.0341 -1.3818
 6018SOL    HW129687   1.797   3.193   6.080  0.1839 -0.6575 -2.0714
 6018SOL    HW229688   1.888   3.301   6.031  0.0396 -1.4289  1.4389
 6019SOL     OW29689   2.756   4.394   5.221 -0.1358 -0.7701  0.0257
 6019SOL    HW129690   2.688   4.461   5.215  1.4719  0.7487 -1.0834
 6019SOL    HW229691   2.711   4.321   5.178  0.3930 -0.3280 -1.3007
 6020SOL     OW29692   4.476   2.763   0.370 -0.2994  0.0569 -0.0765
 6020SOL    HW129693   4.430   2.788   0.450 -0.8081  0.6368 -0.5428
 6020SOL    HW229694   4.414   2.735   0.303 -1.2259  3.1387 -0.5106
 6021SOL     OW29695   0.632   0.098   6.100  0.1146  0.6473 -0.5223
 6021SOL    HW129696   0.713   0.128   6.140 -0.6671  0.2936  1.3350
 6021SOL    HW229697   0.656   0.006   6.088  1.2547  1.0075 -0.9894
 6022SOL     OW29698   3.548   4.724   7.573 -0.0436  0.2051  0.3733
 6022SOL    HW129699   3.572   0.072   7.541  1.9623  0.3639  2.3418
 6022SOL    HW229700   3.631   4.679   7.560 -0.7737 -1.0332  0.0033
 6023SOL     OW29701   0.022   2.488  17.412  0.0360  0.6895  0.3822
 6023SOL    HW129702   0.012   2.534  17.328 -1.0059 -0.0957  0.0799
 6023SOL    HW229703   4.738   2.554  17.476  0.8240 -1.2796  2.7124
 6024SOL     OW29704   3.398   3.829  14.831 -0.6088 -0.2161 -0.1843
 6024SOL    HW129705   3.369   3.920  14.835 -0.4046 -0.1456 -0.3316
 6024SOL    HW229706   3.434   3.824  14.742  0.6996  0.7643  0.2824
 6025SOL     OW29707   2.032   4.686  10.942  0.6850  0.1840 -0.1972
 6025SOL    HW129708   2.013   4.659  11.031  1.6241  0.5341  0.1106
 6025SOL    HW229709   1.972   0.018  10.920  2.6591  1.7959 -0.3433
 6026SOL     OW29710   3.809   2.498   6.310  0.1867  0.2757 -0.5041
 6026SOL    HW129711   3.866   2.571   6.332  2.3699 -1.5679 -0.0491
 6026SOL    HW229712   3.798   2.460   6.397  1.4044  1.9477  0.3728
 6027SOL     OW29713   4.483   0.042   9.093  0.2408  0.5136 -0.3761
 6027SOL    HW129714   4.559   0.068   9.040  0.8390  0.0709  0.2645
 6027SOL    HW229715   4.413   0.075   9.036 -2.9208 -2.9075  1.5684
 6028SOL     OW29716   2.675   1.153  15.766 -0.8993  0.1064 -0.6574
 6028SOL    HW129717   2.622   1.233  15.771  0.3407  0.9033 -0.2648
 6028SOL    HW229718   2.763   1.183  15.788 -0.8329 -1.1922  0.8560
 6029SOL     OW29719   1.888   1.920   8.499 -0.2941 -0.2177  0.2286
 6029SOL    HW129720   1.928   2.001   8.531  0.3897 -0.2287 -0.6079
 6029SOL    HW229721   1.795   1.937   8.517  0.0620  1.5829  0.3500
 6030SOL     OW29722   3.218   4.552   2.860  0.1541  0.2455 -0.1436
 6030SOL    HW129723   3.158   4.626   2.850  0.6328  0.9515  2.0564
 6030SOL    HW229724   3.276   4.600   2.920  0.2856 -1.1152  0.7965
 6031SOL     OW29725   2.029   0.280   1.647  0.1861  0.1045 -0.7696
 6031SOL    HW129726   2.008   0.208   1.587  2.0197 -0.3521 -0.8698
 6031SOL    HW229727   2.046   0.355   1.589  2.1110  1.1313  1.0922
 6032SOL     OW29728   1.429   2.515   2.325  0.7562 -0.1760  0.5376
 6032SOL    HW129729   1.467   2.427   2.320 -1.0149 -0.8264 -1.1448
 6032SOL    HW229730   1.403   2.514   2.417  0.0710 -1.1347  0.3364
 6033SOL     OW29731   2.510   4.673   1.964 -0.1359 -0.0687  0.3241
 6033SOL    HW129732   2.472   0.020   1.950 -0.5455 -0.5138 -1.3469
 6033SOL    HW229733   2.530   4.663   1.871  3.1496  0.4260  0.9831
 6034SOL     OW29734   0.093   0.493  17.204  0.6417 -0.3230 -0.2598
 6034SOL    HW129735   0.029   0.531  17.144  0.9395 -1.4872 -1.3221
 6034SOL    HW229736   0.069   0.537  17.286  0.5479 -0.1965 -0.3541
 6035SOL     OW29737   4.143   0.645   7.717  0.4055 -0.0448  0.1708
 6035SOL    HW129738   4.160   0.717   7.657  1.2313  0.3077  0.8368
 6035SOL    HW229739   4.168   0.688   7.798 -1.4470 -1.7145  1.6235
 6036SOL     OW29740   4.618   2.374   5.608  0.1891 -0.1176 -0.2622
 6036SOL    HW129741   4.583   2.312   5.544 -0.0598 -1.0103  0.7369
 6036SOL    HW229742   4.617   2.317   5.685  0.0006 -2.3698 -1.9175
 6037SOL     OW29743   2.297   0.135   5.093 -0.1001 -1.0216 -0.6430
 6037SOL    HW129744   2.343   0.059   5.057 -2.5601 -3.5804  1.5617
 6037SOL    HW229745   2.301   0.121   5.187  0.5993  0.5600 -0.4500
 6038SOL     OW29746   1.967   0.233  12.419  0.5047  0.6689 -0.1004
 6038SOL    HW129747   1.922   0.305  12.464 -3.4560 -0.8944 -1.5815
 6038SOL    HW229748   1.890   0.186  12.388  0.4187  1.3510 -0.9142
 6039SOL     OW29749   4.005   3.545   2.604  0.0630 -0.0147  0.1026
 6039SOL    HW129750   4.087   3.497   2.596 -1.3584 -2.1477 -1.7569
 6039SOL    HW229751   3.973   3.532   2.693 -1.8020  2.7124 -0.1560
 6040SOL     OW29752   3.606   1.042   3.831 -0.6197 -0.1097  0.1208
 6040SOL    HW129753   3.524   1.080   3.860  0.5710 -0.0334  3.4687
 6040SOL    HW229754   3.654   1.027   3.913 -0.3289  0.9222  0.1348
 6041SOL     OW29755   1.411   1.112   7.928  0.1306  0.0016  0.4907
 6041SOL    HW129756   1.322   1.110   7.894  1.2058 -2.4532 -2.1938
 6041SOL    HW229757   1.418   1.186   7.988  2.2569 -1.3464  1.9270
 6042SOL     OW29758   1.906   0.711   0.777 -0.5512 -0.0182 -0.6386
 6042SOL    HW129759   1.830   0.663   0.812  1.2107 -3.7532 -1.9788
 6042SOL    HW229760   1.961   0.638   0.750 -1.5545 -1.9427  2.3897
 6043SOL     OW29761   2.349   4.505  15.348 -0.7247  0.0091  0.4641
 6043SOL    HW129762   2.384   4.451  15.277  0.5228  1.6701 -0.1951
 6043SOL    HW229763   2.354   4.446  15.424 -0.1701 -0.8244 -0.2217
 6044SOL     OW29764   1.684   3.340   8.489  0.3384 -0.2076  0.6348
 6044SOL    HW129765   1.716   3.258   8.527  0.3437 -0.2083  0.6289
 6044SOL    HW229766   1.726   3.401   8.549  0.3503  0.3372  0.0693
 6045SOL     OW29767   4.000   0.912  10.261  0.3011 -0.1857  0.1725
 6045SOL    HW129768   4.069   0.854  10.296 -0.2546 -1.5724 -1.0155
 6045SOL    HW229769   4.044   0.963  10.193  2.3183 -1.3511  0.5823
 6046SOL     OW29770   2.529   0.218   4.426 -0.3869 -0.2245  0.2954
 6046SOL    HW129771   2.584   0.295   4.413 -0.4259 -0.4387 -1.1336
 6046SOL    HW229772   2.530   0.221   4.521  1.0941  1.9185  0.2322
 6047SOL     OW29773   1.266   0.023   4.547  0.4046  1.0853  0.0122
 6047SOL    HW129774   1.336   0.080   4.578  2.7806 -2.5748  1.2529
 6047SOL    HW229775   1.300   4.683   4.588 -1.6619 -1.3327 -2.8899
 6048SOL     OW29776   4.538   4.476  17.652  0.0158 -0.1068  0.7385
 6048SOL    HW129777   4.454   4.463  17.608  0.6228  0.9232 -0.7073
 6048SOL    HW229778   4.602   4.462  17.582  0.6722  3.0963  0.7316
 6049SOL     OW29779   4.019   1.147   7.282  0.1084 -0.2237 -0.0696
 6049SOL    HW129780   3.969   1.069   7.306  0.9788 -0.4082  1.1449
 6049SOL    HW229781   3.991   1.160   7.191 -4.3742 -0.1903  1.3584
 6050SOL     OW29782   2.359   3.486   5.493  0.0894 -0.0066  0.3812
 6050SOL    HW129783   2.443   3.447   5.467  0.2110  0.1032  0.6042
 6050SOL    HW229784   2.331   3.415   5.552  0.4872 -0.2700  0.2582
 6051SOL     OW29785   0.577   1.038   3.275 -0.0973  0.1576  0.0380
 6051SOL    HW129786   0.657   1.002   3.312  1.2422  2.3986 -0.7039
 6051SOL    HW229787   0.536   0.968   3.224 -0.5610  1.0504 -0.8394
 6052SOL     OW29788   4.317   1.752   5.454  0.3077 -0.6870  0.4374
 6052SOL    HW129789   4.358   1.728   5.371 -2.2895 -0.7315 -0.7993
 6052SOL    HW229790   4.339   1.844   5.470 -0.0699 -0.0375 -2.8395
 6053SOL     OW29791   3.509   1.078   3.257  0.2379 -0.3093  0.2849
 6053SOL    HW129792   3.546   0.996   3.290  0.1919 -0.3840  0.1503
 6053SOL    HW229793   3.578   1.114   3.201  0.0381  1.4152  1.1224
 6054SOL     OW29794   1.907   4.044  16.664  0.2525  0.3415 -0.0958
 6054SOL    HW129795   1.855   3.977  16.708 -1.6137  2.2187  0.5517
 6054SOL    HW229796   1.992   4.001  16.657 -0.8385 -1.9396  0.7954
 6055SOL     OW29797   4.033   2.650   4.202 -0.3889 -0.3257  0.0521
 6055SOL    HW129798   4.010   2.735   4.239 -1.2037 -0.7574  0.5144
 6055SOL    HW229799   4.120   2.671   4.167 -1.1688  3.3004  0.2853
 6056SOL     OW29800   0.534   1.623  16.445  0.7564 -0.4965 -0.5018
 6056SOL    HW129801   0.459   1.573  16.479  0.1831 -0.6429 -2.0150
 6056SOL    HW229802   0.573   1.642  16.530 -0.3175 -0.1658 -0.0805
 6057SOL     OW29803   0.921   1.024  12.630 -0.5565  0.5799  0.4315
 6057SOL    HW129804   0.949   1.023  12.722 -1.7748 -1.6223  0.7918
 6057SOL    HW229805   0.978   0.952  12.601  0.7440  1.6659  0.3162
 6058SOL     OW29806   4.066   1.179  16.506 -0.0049  0.6086  0.2673
 6058SOL    HW129807   4.088   1.271  16.490  1.0399 -0.0327 -2.0030
 6058SOL    HW229808   4.002   1.155  16.439 -0.7954  0.3543  1.1079
 6059SOL     OW29809   3.214   2.762   8.130 -0.3393  0.5649 -0.1241
 6059SOL    HW129810   3.303   2.797   8.131 -1.0468  2.4212 -0.5832
 6059SOL    HW229811   3.227   2.668   8.143  1.0914  0.9950  1.3550
 6060SOL     OW29812   2.085   2.677   6.570  0.4896 -0.0746  1.1215
 6060SOL    HW129813   2.014   2.647   6.626  0.2916  0.0467  0.9373
 6060SOL    HW229814   2.084   2.601   6.512  1.1236 -0.1708  1.2381
 6061SOL     OW29815   4.213   4.392   0.533 -0.4358 -0.4583  0.4490
 6061SOL    HW129816   4.165   4.324   0.581 -1.1190 -0.1808  0.1669
 6061SOL    HW229817   4.300   4.352   0.538  0.1167  0.3844 -2.9092
 6062SOL     OW29818   0.860   1.558   8.360  0.8827  0.3443  0.2849
 6062SOL    HW129819   0.790   1.501   8.393  0.7467  0.7893  0.7621
 6062SOL    HW229820   0.811   1.631   8.323 -0.5229  0.3668  2.1684
 6063SOL     OW29821   2.269   3.304  17.149  0.9519  0.1607  0.1764
 6063SOL    HW129822   2.234   3.365  17.215  2.4708  2.1155 -0.8097
 6063SOL    HW229823   2.336   3.265  17.204  1.2590 -1.1550 -1.1276
 6064SOL     OW29824   0.535   4.695   4.531 -0.1787 -0.0305 -0.0293
 6064SOL    HW129825   0.447   4.719   4.560  0.1348  1.4226 -0.2769
 6064SOL    HW229826   0.515   4.613   4.486  0.6300 -0.3538  0.2006
 6065SOL     OW29827   1.091   4.640  11.691 -0.0320 -0.9052  0.5548
 6065SOL    HW129828   1.168   4.674  11.736  0.3070 -1.2643  0.2487
 6065SOL    HW229829   1.123   4.550  11.680  1.0829 -0.5087  0.5760
 6066SOL     OW29830   4.494   4.243  17.216 -0.2721  0.2067  0.2213
 6066SOL    HW129831   4.405   4.265  17.243 -0.0622  0.1090  0.9975
 6066SOL    HW229832   4.532   4.327  17.187 -0.4066  0.2716  0.2351
 6067SOL     OW29833   2.169   3.955  16.993 -0.1228  0.2633  0.4616
 6067SOL    HW129834   2.154   3.899  16.917 -2.2740  1.1517  0.2231
 6067SOL    HW229835   2.182   4.041  16.953  1.7944  0.0960  0.7536
 6068SOL     OW29836   4.711   4.353   2.239  0.0583 -0.6507  0.8027
 6068SOL    HW129837   4.660   4.296   2.180  0.7186  1.5685 -1.9327
 6068SOL    HW229838   0.062   4.338   2.210 -0.3503 -0.6751 -0.4933
 6069SOL     OW29839   3.702   4.266   5.023  0.1937 -0.5997  0.2239
 6069SOL    HW129840   3.708   4.349   4.975  0.2638 -1.0081 -0.4705
 6069SOL    HW229841   3.610   4.243   5.029 -0.1064  0.9441  1.4597
 6070SOL     OW29842   1.858   1.948   5.655 -0.2518  0.2406  0.8726
 6070SOL    HW129843   1.920   1.928   5.726 -1.2975  0.8387  1.9619
 6070SOL    HW229844   1.777   1.962   5.704  0.4501  1.3384  1.7313
 6071SOL     OW29845   1.157   3.017   6.494  0.3546 -0.3569  0.1256
 6071SOL    HW129846   1.064   2.997   6.477 -0.0522 -0.0943  2.1097
 6071SOL    HW229847   1.196   2.973   6.418  0.4286 -2.4282  1.3786
 6072SOL     OW29848   0.934   0.419   8.083 -0.0961  0.1150 -0.1254
 6072SOL    HW129849   0.957   0.440   7.992  0.1094  1.8865  0.3235
 6072SOL    HW229850   0.907   0.328   8.070  0.3309  0.0508 -0.5586
 6073SOL     OW29851   4.715   2.262  12.496 -0.1099  0.3543 -0.0190
 6073SOL    HW129852   0.037   2.199  12.460 -0.0799 -0.2375  1.0616
 6073SOL    HW229853   0.011   2.296  12.579 -1.1897  1.0248  0.1716
 6074SOL     OW29854   1.764   1.299   5.669  0.1459 -0.3717 -0.0491
 6074SOL    HW129855   1.847   1.347   5.676  1.1327 -1.8209 -2.0743
 6074SOL    HW229856   1.790   1.220   5.716  0.3382  0.1383  0.7169
 6075SOL     OW29857   4.027   2.309   4.953 -0.2939 -0.1628 -0.0202
 6075SOL    HW129858   4.023   2.250   5.029 -2.0608  0.2130  0.1819
 6075SOL    HW229859   4.028   2.393   4.999  2.7453  1.5756 -3.3423
 6076SOL     OW29860   1.306   0.369  15.475 -0.5699 -0.0870  0.0905
 6076SOL    HW129861   1.290   0.452  15.520  0.2696 -0.5161  1.1852
 6076SOL    HW229862   1.230   0.322  15.510  0.0226 -0.8995  0.2857
 6077SOL     OW29863   3.411   4.216   5.058  0.0181  0.4963  0.3431
 6077SOL    HW129864   3.381   4.147   4.999 -2.3744  0.7697  1.2105
 6077SOL    HW229865   3.360   4.291   5.027 -1.9149 -0.9510 -0.0221
 6078SOL     OW29866   3.884   0.463   5.574 -0.2205  0.4063  0.1762
 6078SOL    HW129867   3.850   0.441   5.487 -0.7827  0.8555  0.2858
 6078SOL    HW229868   3.971   0.423   5.576 -0.8747 -1.0798 -1.8905
 6079SOL     OW29869   3.245   0.454   6.940  0.3449  0.2178  0.1506
 6079SOL    HW129870   3.204   0.478   6.857  1.2751 -1.1845 -0.7278
 6079SOL    HW229871   3.246   0.539   6.983 -1.3950  0.8656 -1.1229
 6080SOL     OW29872   0.939   1.974   8.901  0.0451 -0.3105 -0.1039
 6080SOL    HW129873   0.880   1.899   8.899  0.5652 -0.6461 -2.2568
 6080SOL    HW229874   0.897   2.040   8.845 -0.4583  0.8658  1.6376
 6081SOL     OW29875   3.923   0.857   6.401  0.4041  0.6764 -0.6955
 6081SOL    HW129876   3.955   0.767   6.402 -0.5211  0.3593  0.0660
 6081SOL    HW229877   3.875   0.852   6.318 -0.6854 -0.3426 -0.0101
 6082SOL     OW29878   2.410   3.813   3.793 -0.0797 -0.1430 -0.1729
 6082SOL    HW129879   2.355   3.775   3.724 -0.2237  1.0234 -0.6967
 6082SOL    HW229880   2.443   3.890   3.748  1.7265 -0.2550  0.9633
 6083SOL     OW29881   3.156   0.372   5.353  0.4832  0.1865 -0.0989
 6083SOL    HW129882   3.148   0.278   5.338  0.0363  0.7100 -3.1700
 6083SOL    HW229883   3.246   0.396   5.333  0.8715  0.0600  1.4798
 6084SOL     OW29884   0.016   2.142   0.179 -0.0613 -0.0253  0.0464
 6084SOL    HW129885   4.737   2.088   0.255 -3.6972  0.7598 -0.2862
 6084SOL    HW229886   0.045   2.216   0.233  1.5871  0.2919 -1.2856
 6085SOL     OW29887   2.896   1.293   8.884 -0.4102 -0.4368  0.7653
 6085SOL    HW129888   2.981   1.267   8.847 -0.3113  0.5807  0.2756
 6085SOL    HW229889   2.921   1.366   8.940  2.7545 -0.0473 -1.1063
 6086SOL     OW29890   4.671   3.615  10.285  0.3845  0.7107  0.1732
 6086SOL    HW129891   4.706   3.534  10.249  2.1790  1.7739 -0.4801
 6086SOL    HW229892   4.652   3.587  10.374 -1.3128  2.4613  0.3598
 6087SOL     OW29893   1.357   0.723   8.687  0.2859  0.0125  0.0017
 6087SOL    HW129894   1.425   0.696   8.749  0.3488  1.6639  0.6437
 6087SOL    HW229895   1.361   0.819   8.695 -0.5069  0.2955 -2.9204
 6088SOL     OW29896   4.238   2.491   8.272 -0.2019  0.6664  0.2137
 6088SOL    HW129897   4.158   2.510   8.322 -0.0770  1.9674 -0.0657
 6088SOL    HW229898   4.295   2.493   8.348  0.3462 -0.0498 -0.1819
 6089SOL     OW29899   1.015   3.828   1.958 -0.8627 -0.6191  0.8905
 6089SOL    HW129900   0.966   3.749   1.936 -3.9324  2.1313 -2.1678
 6089SOL    HW229901   1.091   3.807   2.013  0.3176 -3.9978 -1.9829
 6090SOL     OW29902   3.330   4.275   7.993 -0.2251 -0.0116 -0.2077
 6090SOL    HW129903   3.339   4.198   8.050 -1.1223 -1.0520 -1.4466
 6090SOL    HW229904   3.275   4.242   7.922  1.1835 -0.1973 -1.2215
 6091SOL     OW29905   3.198   0.258   7.279 -0.1581 -0.2886 -0.5909
 6091SOL    HW129906   3.126   0.277   7.339 -1.5570  0.3339 -2.4682
 6091SOL    HW229907   3.276   0.294   7.320  0.3121 -0.5649 -1.2375
 6092SOL     OW29908   1.560   0.150   0.569 -0.5896  0.0835 -0.3405
 6092SOL    HW129909   1.595   0.163   0.481  1.5518 -0.8165  0.3881
 6092SOL    HW229910   1.621   0.083   0.600  0.0170  1.0569  0.6091
 6093SOL     OW29911   4.154   2.321  14.536 -0.1008  0.4253 -0.1337
 6093SOL    HW129912   4.127   2.364  14.455 -3.0051  2.4421  1.8927
 6093SOL    HW229913   4.162   2.229  14.513 -0.2356  0.9031 -2.0807
 6094SOL     OW29914   2.350   1.798  16.172 -0.3254 -0.1819 -0.1092
 6094SOL    HW129915   2.298   1.750  16.237 -0.6507  1.2084  0.6582
 6094SOL    HW229916   2.369   1.885  16.205  0.0769 -1.3867  2.7887
 6095SOL     OW29917   2.554   4.033   8.835 -0.1116  0.2451  0.2687
 6095SOL    HW129918   2.519   4.095   8.771 -0.5734  0.0593  0.3412
 6095SOL    HW229919   2.641   4.028   8.796 -0.6823 -1.1275 -0.8089
 6096SOL     OW29920   0.916   2.572   9.092  0.4086 -0.4270 -0.0378
 6096SOL    HW129921   0.891   2.635   9.160  1.4400 -0.4638  0.3855
 6096SOL    HW229922   0.942   2.627   9.018  0.4470 -1.7277 -0.9930
 6097SOL     OW29923   1.439   4.174  15.113  0.0187 -0.2243 -0.1701
 6097SOL    HW129924   1.422   4.154  15.021 -2.4473 -0.2436  0.2820
 6097SOL    HW229925   1.371   4.241  15.125  0.6759  0.3246  0.4236
 6098SOL     OW29926   1.275   0.439   1.347 -0.2343  0.3788  0.3688
 6098SOL    HW129927   1.326   0.494   1.406  0.9013 -1.6128  1.2528
 6098SOL    HW229928   1.200   0.497   1.337  0.4388  0.9449 -1.5558
 6099SOL     OW29929   0.348   2.520  16.855  0.2013 -0.5735 -0.1159
 6099SOL    HW129930   0.406   2.487  16.924 -0.6934  0.1448  0.9661
 6099SOL    HW229931   0.409   2.581  16.813 -2.3735  3.5829  2.1627
 6100SOL     OW29932   1.386   1.159   1.391 -0.1227  0.1249 -0.0070
 6100SOL    HW129933   1.434   1.229   1.435 -0.5520 -1.2530  2.6405
 6100SOL    HW229934   1.337   1.212   1.328  0.9263  2.5763  1.2644
 6101SOL     OW29935   0.334   3.812   7.510 -0.8835 -0.0924  0.1483
 6101SOL    HW129936   0.413   3.821   7.455 -1.5632 -0.0647 -0.8279
 6101SOL    HW229937   0.318   3.718   7.500  2.0370 -0.5873  0.1076
 6102SOL     OW29938   4.165   3.344   9.233 -0.2754 -0.0379  0.4385
 6102SOL    HW129939   4.114   3.380   9.160 -1.6261  0.0674  1.4361
 6102SOL    HW229940   4.254   3.367   9.206 -1.0030  1.8842 -0.3314
 6103SOL     OW29941   1.595   1.251   7.427  0.1858  0.7416  0.8360
 6103SOL    HW129942   1.555   1.181   7.479 -1.8609  0.6697 -0.8471
 6103SOL    HW229943   1.633   1.203   7.354 -1.8530 -1.7965  1.4516
 6104SOL     OW29944   2.060   1.656   6.148 -0.1984  0.0129 -0.3187
 6104SOL    HW129945   2.111   1.734   6.169 -0.4858  0.0036  0.3862
 6104SOL    HW229946   2.101   1.635   6.064  1.3147  0.5499  0.2839
 6105SOL     OW29947   0.151   1.286   0.867 -0.0811 -0.3640 -0.3193
 6105SOL    HW129948   0.154   1.304   0.961 -0.4049  0.0318 -0.3818
 6105SOL    HW229949   0.067   1.324   0.841  0.3050  1.1855  0.7242
 6106SOL     OW29950   2.098   2.485   5.728  0.3802 -0.4164  0.0064
 6106SOL    HW129951   2.023   2.457   5.781 -0.0659 -0.0133 -0.4200
 6106SOL    HW229952   2.137   2.561   5.773  0.4432  0.0371 -0.8178
 6107SOL     OW29953   3.456   4.721   6.191  0.2570  0.2595  0.3780
 6107SOL    HW129954   3.372   4.693   6.154  2.1041 -1.7451 -2.3482
 6107SOL    HW229955   3.459   4.669   6.271  2.7313 -0.2900 -0.0670
 6108SOL     OW29956   2.540   1.903  15.385 -0.9748 -0.4279  0.3553
 6108SOL    HW129957   2.575   1.826  15.429 -0.5510  0.4795  1.6129
 6108SOL    HW229958   2.458   1.920  15.431  0.3034  1.6398  1.8382
 6109SOL     OW29959   0.703   4.551   8.496 -0.2606  0.8665 -0.3010
 6109SOL    HW129960   0.630   4.569   8.436 -0.3642  0.0977 -0.4051
 6109SOL    HW229961   0.759   4.623   8.470  0.7886 -0.2554 -1.1139
 6110SOL     OW29962   3.782   2.879   5.202  0.0481  0.0017 -0.3318
 6110SOL    HW129963   3.757   2.971   5.187  0.2316  0.4168  1.9733
 6110SOL    HW229964   3.752   2.869   5.292  1.2760  0.6187  0.1495
 6111SOL     OW29965   1.711   3.998   1.525  0.0432 -0.3236 -0.3351
 6111SOL    HW129966   1.664   4.027   1.603 -0.1877  0.8237 -0.9135
 6111SOL    HW229967   1.640   3.979   1.464 -1.0205 -0.6694  1.0055
 6112SOL     OW29968   4.204   4.081   2.310  0.3280  0.9778  0.2502
 6112SOL    HW129969   4.222   4.115   2.398 -1.7228 -0.6497  1.3071
 6112SOL    HW229970   4.273   4.014   2.305 -1.4336 -0.7817 -0.4976
 6113SOL     OW29971   1.598   1.807   5.033 -0.5797 -0.0059  0.0728
 6113SOL    HW129972   1.616   1.794   4.940  1.1821 -1.9943  0.6974
 6113SOL    HW229973   1.626   1.898   5.046  1.1944 -0.4597 -0.5815
 6114SOL     OW29974   4.642   3.439   6.360  0.1750  0.0649  0.7478
 6114SOL    HW129975   4.595   3.450   6.277 -0.0577 -0.2181  0.8424
 6114SOL    HW229976   4.732   3.454   6.332 -0.0518  2.0700  1.0649
 6115SOL     OW29977   2.904   0.578   3.398 -0.0926  0.6185  0.1070
 6115SOL    HW129978   2.949   0.581   3.314  0.3603  0.8218  0.3614
 6115SOL    HW229979   2.831   0.637   3.380 -0.6740  0.1997  1.0699
 6116SOL     OW29980   2.359   1.949   6.716 -0.0393 -0.6687  0.3331
 6116SOL    HW129981   2.370   1.859   6.748  2.2116 -0.0283  1.3603
 6116SOL    HW229982   2.276   1.967   6.760  0.8116 -0.5566  1.8949
 6117SOL     OW29983   0.764   3.445   8.034 -0.0946 -0.5685  0.0661
 6117SOL    HW129984   0.786   3.399   7.953 -0.0234 -1.7297  0.7494
 6117SOL    HW229985   0.847   3.490   8.047 -0.5104  0.2360 -0.0426
 6118SOL     OW29986   1.152   2.725   3.907 -0.2842 -0.2672 -0.4704
 6118SOL    HW129987   1.107   2.738   3.990 -1.2748 -0.8814 -0.9145
 6118SOL    HW229988   1.147   2.810   3.864  1.0227  0.1514  0.1872
 6119SOL     OW29989   0.418   4.700   3.061  0.2358  0.4860 -0.0722
 6119SOL    HW129990   0.378   4.642   3.125 -0.2483  1.2066  0.2866
 6119SOL    HW229991   0.446   4.638   2.994 -2.3626 -0.3421 -0.3869
 6120SOL     OW29992   1.925   3.398  13.995  0.6484  0.6003  0.3673
 6120SOL    HW129993   2.008   3.431  14.031  0.4599  1.7927 -0.3136
 6120SOL    HW229994   1.913   3.333  14.064 -0.7497 -1.4214 -1.7983
 6121SOL     OW29995   4.337   3.168   7.867 -0.5222  0.2036  0.3104
 6121SOL    HW129996   4.305   3.189   7.955 -0.3449 -0.9976  0.6653
 6121SOL    HW229997   4.430   3.156   7.886 -0.3168  0.9111 -0.2630
 6122SOL     OW29998   1.111   0.719  15.031 -0.0311 -0.2345 -0.0088
 6122SOL    HW129999   1.063   0.772  14.967  0.7223  1.7402  1.0740
 6122SOL    HW230000   1.062   0.637  15.043  1.2279 -1.2193 -1.5537
 6123SOL     OW30001   1.789   2.166  12.661 -0.4136 -0.0523  0.4996
 6123SOL    HW130002   1.778   2.260  12.651 -0.8166 -0.2635 -1.0175
 6123SOL    HW230003   1.717   2.142  12.603 -0.2990 -0.1581  0.3981
 6124SOL     OW30004   2.468   3.611   9.510 -0.1632 -0.6623 -0.0361
 6124SOL    HW130005   2.476   3.704   9.530 -0.8065 -0.5140 -0.4846
 6124SOL    HW230006   2.491   3.568   9.593  0.8427 -0.7334 -0.3425
 6125SOL     OW30007   1.996   4.309  15.468  0.0834  0.2709  0.0177
 6125SOL    HW130008   1.956   4.333  15.551  0.0155  2.3086 -0.6155
 6125SOL    HW230009   1.937   4.238  15.444  1.6832 -1.0909  0.0633
 6126SOL     OW30010   3.588   3.301   4.915  0.0244 -1.0450 -0.2062
 6126SOL    HW130011   3.611   3.227   4.858  0.7040 -0.4587 -0.6793
 6126SOL    HW230012   3.495   3.295   4.893 -0.8572  1.7981  2.7663
 6127SOL     OW30013   4.628   4.547  14.378 -0.1150 -0.3007  0.2822
 6127SOL    HW130014   4.568   4.611  14.415  0.7359 -0.6155  2.2014
 6127SOL    HW230015   4.677   4.528  14.458  1.9742  1.6375 -0.5432
 6128SOL     OW30016   2.808   3.675  17.512  0.1485  0.7653  0.2016
 6128SOL    HW130017   2.762   3.752  17.476 -1.5657  0.4927  1.7930
 6128SOL    HW230018   2.734   3.616  17.525  0.8251 -0.3857 -1.1888
 6129SOL     OW30019   2.269   4.047   4.886  0.1805  0.6020 -0.4291
 6129SOL    HW130020   2.201   4.067   4.950 -0.8862  0.6899 -1.5721
 6129SOL    HW230021   2.346   4.061   4.941 -0.5747 -0.9091  0.9985
 6130SOL     OW30022   1.975   4.430   8.678  0.1002 -0.3329  0.1398
 6130SOL    HW130023   1.943   4.461   8.763 -0.5854 -0.7841  0.0420
 6130SOL    HW230024   2.045   4.370   8.705  0.3606  0.1266  0.4919
 6131SOL     OW30025   4.226   3.395   2.582 -0.5022  0.2524 -0.4124
 6131SOL    HW130026   4.219   3.300   2.568 -1.3271  0.7789 -3.5404
 6131SOL    HW230027   4.280   3.416   2.506  1.5135 -1.5800  0.5070
 6132SOL     OW30028   2.652   2.723   1.600  0.1288  0.8072 -0.1933
 6132SOL    HW130029   2.627   2.785   1.669  1.3873 -0.3460  1.2970
 6132SOL    HW230030   2.747   2.736   1.599  0.5402 -2.8540 -3.7805
 6133SOL     OW30031   0.665   1.641   4.725  0.4908 -0.0557 -0.3867
 6133SOL    HW130032   0.692   1.720   4.678 -1.9183  0.4275 -0.9942
 6133SOL    HW230033   0.746   1.606   4.761  2.6645  4.8556 -0.5096
 6134SOL     OW30034   3.313   4.151   9.401 -0.1724 -0.1374  0.1465
 6134SOL    HW130035   3.378   4.181   9.465  0.2355  0.3667 -0.4972
 6134SOL    HW230036   3.236   4.194   9.437 -0.1421  0.7337 -0.8260
 6135SOL     OW30037   2.474   4.451   2.138 -0.1303  0.2002  0.1230
 6135SOL    HW130038   2.437   4.533   2.106  2.0601  0.6369 -1.2838
 6135SOL    HW230039   2.542   4.443   2.072  0.0166  0.7905  0.1983
 6136SOL     OW30040   3.213   2.476   0.362  0.8378  0.0650  0.3782
 6136SOL    HW130041   3.130   2.517   0.383 -0.2545 -1.0743 -1.7489
 6136SOL    HW230042   3.224   2.474   0.267  0.0125  2.7548  0.2285
 6137SOL     OW30043   2.059   3.156   9.369 -0.0663 -0.0623 -0.1809
 6137SOL    HW130044   2.120   3.199   9.430 -2.4334  0.9269  1.4857
 6137SOL    HW230045   2.006   3.102   9.427 -0.1095 -0.3504 -0.4912
 6138SOL     OW30046   0.583   2.254   8.334  0.3998  0.3104  0.1341
 6138SOL    HW130047   0.528   2.184   8.297  0.2320  0.1974  0.5988
 6138SOL    HW230048   0.528   2.331   8.323 -0.1851  0.0823  1.4920
 6139SOL     OW30049   3.470   1.666  15.685 -0.2883 -0.0775  0.0244
 6139SOL    HW130050   3.546   1.670  15.742 -0.0541 -0.6954 -0.2422
 6139SOL    HW230051   3.500   1.588  15.637 -1.4420 -1.7139  1.9524
 6140SOL     OW30052   3.932   0.543  13.625  0.2556  0.1761 -0.1929
 6140SOL    HW130053   3.928   0.543  13.529 -1.7592  1.9337 -0.1054
 6140SOL    HW230054   3.860   0.484  13.647  0.4500 -0.1930 -0.5368
 6141SOL     OW30055   2.263   1.577   8.515  0.0854 -0.0567 -0.4287
 6141SOL    HW130056   2.323   1.643   8.481 -0.2364  1.2656  1.5990
 6141SOL    HW230057   2.326   1.529   8.569 -1.0774 -0.9009  0.1726
 6142SOL     OW30058   1.825   2.117  12.368  0.0066  0.1798 -0.7845
 6142SOL    HW130059   1.903   2.062  12.361  0.4110  0.9068 -2.0925
 6142SOL    HW230060   1.778   2.063  12.431  0.7940  1.9528  1.3300
 6143SOL     OW30061   0.355   1.613   7.756 -0.1390  0.2847 -0.3280
 6143SOL    HW130062   0.373   1.524   7.787  1.1626 -0.2623 -2.6953
 6143SOL    HW230063   0.436   1.654   7.785  0.3968 -1.8771  1.2435
 6144SOL     OW30064   2.060   2.026  15.313 -0.1907 -0.0637  0.3071
 6144SOL    HW130065   1.968   1.998  15.307 -0.3511  0.6474 -0.6251
 6144SOL    HW230066   2.059   2.119  15.294  0.2373 -0.3135 -0.9494
 6145SOL     OW30067   2.787   2.958   2.465  0.0678 -0.0859  0.1947
 6145SOL    HW130068   2.860   2.924   2.413  2.1593  1.0602  2.3736
 6145SOL    HW230069   2.767   3.048   2.440 -0.3047 -0.0470  0.6373
 6146SOL     OW30070   4.366   2.705   9.291  0.2157  0.2325  0.1885
 6146SOL    HW130071   4.342   2.707   9.383  1.7929  1.0240  0.5792
 6146SOL    HW230072   4.414   2.787   9.276 -0.5023  0.6013 -0.1099
 6147SOL     OW30073   4.003   3.494   9.460 -0.3681  0.5994  0.4814
 6147SOL    HW130074   4.004   3.428   9.391  0.9687  2.7388 -1.5628
 6147SOL    HW230075   3.991   3.440   9.538 -0.3378  2.2600  1.6357
 6148SOL     OW30076   2.089   1.255  11.431 -0.0887 -0.5443  0.2092
 6148SOL    HW130077   2.020   1.189  11.425  0.7857 -1.3505 -0.8722
 6148SOL    HW230078   2.143   1.229  11.505 -0.3861 -0.1261  0.5760
 6149SOL     OW30079   0.564   4.694   7.438  0.1025  0.2496  0.1104
 6149SOL    HW130080   0.649   4.732   7.419  0.1898 -1.3435 -2.6207
 6149SOL    HW230081   0.507   0.003   7.379  0.8958 -1.1262 -1.7572
 6150SOL     OW30082   4.060   2.615   0.264  0.0225  0.0469 -0.2143
 6150SOL    HW130083   4.048   2.681   0.196 -0.9912  0.3785  0.2725
 6150SOL    HW230084   4.058   2.531   0.217  2.3529 -0.3092  0.3359
 6151SOL     OW30085   2.089   0.373  14.357 -0.0432  0.1752  0.1786
 6151SOL    HW130086   2.098   0.316  14.280 -1.6541  1.2490 -0.7943
 6151SOL    HW230087   2.060   0.309  14.422  0.8229 -0.6630 -0.2573
 6152SOL     OW30088   0.604   2.090   7.090 -0.8738  0.1984 -0.1857
 6152SOL    HW130089   0.644   2.168   7.052  1.9581 -0.5705  1.2132
 6152SOL    HW230090   0.622   2.014   7.034 -1.3998  0.9194 -1.3172
 6153SOL     OW30091   0.299   2.435   1.832  0.1561 -0.0756 -0.1381
 6153SOL    HW130092   0.287   2.477   1.747 -0.3048  2.3602  1.1192
 6153SOL    HW230093   0.227   2.469   1.884 -1.5133 -1.3668 -1.6335
 6154SOL     OW30094   2.418   4.565  17.544  0.1460  0.1130 -0.2314
 6154SOL    HW130095   2.324   4.548  17.555 -0.4960  2.1187 -2.5924
 6154SOL    HW230096   2.421   4.659  17.560 -0.8576 -0.0043  0.6860
 6155SOL     OW30097   2.415   1.913   8.835 -0.6677  0.2016  0.2778
 6155SOL    HW130098   2.368   1.830   8.841  0.9823 -0.7627 -0.1204
 6155SOL    HW230099   2.440   1.916   8.927 -0.5239  1.2248  0.2025
 6156SOL     OW30100   4.406   1.961  17.501 -0.0482 -0.0756 -0.6883
 6156SOL    HW130101   4.478   2.021  17.483  0.0122  0.4854  1.4001
 6156SOL    HW230102   4.329   2.014  17.482  1.3525  1.6859 -1.4707
 6157SOL     OW30103   3.288   3.592   4.170 -0.2746 -0.2047  0.3493
 6157SOL    HW130104   3.280   3.593   4.075 -0.5481  0.8616  0.3864
 6157SOL    HW230105   3.205   3.559   4.204 -1.2041  2.3860  0.5791
 6158SOL     OW30106   2.604   0.620   8.548 -0.7426 -0.2780  0.3272
 6158SOL    HW130107   2.682   0.617   8.604  0.1828  1.4782 -0.8708
 6158SOL    HW230108   2.656   0.637   8.469 -1.2041 -1.2229 -0.1717
 6159SOL     OW30109   2.304   0.189   7.876  0.0002 -0.0644 -0.1298
 6159SOL    HW130110   2.343   0.241   7.805 -0.4692 -1.1698 -1.1952
 6159SOL    HW230111   2.242   0.253   7.910  0.3655 -2.4021  4.9357
 6160SOL     OW30112   3.613   0.413   1.644  0.3917  0.6270 -0.1227
 6160SOL    HW130113   3.566   0.485   1.688  0.8415  0.4887  0.5707
 6160SOL    HW230114   3.572   0.418   1.557  1.3805 -0.7215 -0.6586
 6161SOL     OW30115   3.099   0.511   2.194  0.4355  0.2134 -0.1142
 6161SOL    HW130116   3.114   0.418   2.178  4.8558  0.4154  2.6647
 6161SOL    HW230117   3.015   0.528   2.152  1.0218  1.1608 -0.9197
 6162SOL     OW30118   2.122   3.865  10.748 -0.2667 -0.0873  0.3904
 6162SOL    HW130119   2.111   3.830  10.837  0.4104 -3.0011 -0.6512
 6162SOL    HW230120   2.033   3.899  10.735 -0.2741  0.1963  1.2015
 6163SOL     OW30121   3.412   3.772   5.707 -0.3800 -0.4856  0.1168
 6163SOL    HW130122   3.482   3.820   5.664 -1.5181  0.9657 -0.1457
 6163SOL    HW230123   3.426   3.679   5.691  1.7159 -0.1213 -0.1042
 6164SOL     OW30124   0.755   0.288   3.306  0.1432 -0.4664  0.1855
 6164SOL    HW130125   0.714   0.333   3.380  5.0274  2.9384  0.8244
 6164SOL    HW230126   0.812   0.220   3.343  1.6407  1.4445  1.3357
 6165SOL     OW30127   2.428   3.398  10.092 -0.1220  0.0439 -0.0875
 6165SOL    HW130128   2.345   3.351  10.090 -1.3251  2.2386 -1.8534
 6165SOL    HW230129   2.415   3.448  10.173  0.2441 -2.1148  1.3100
 6166SOL     OW30130   2.179   4.723  15.552  0.2292 -0.1971 -0.1036
 6166SOL    HW130131   2.128   0.038  15.611  0.7538  0.9954 -0.7400
 6166SOL    HW230132   2.170   4.638  15.594 -0.6537  0.4193  0.9583
 6167SOL     OW30133   0.503   1.294   9.167  0.1632 -0.3183 -0.2178
 6167SOL    HW130134   0.426   1.238   9.152 -0.5562  0.3302  1.0636
 6167SOL    HW230135   0.485   1.328   9.254 -0.0689 -3.1406  0.8337
 6168SOL     OW30136   3.446   4.502   9.444 -0.3928 -0.2502 -0.4712
 6168SOL    HW130137   3.464   4.422   9.494  1.8745 -0.4362 -1.5758
 6168SOL    HW230138   3.510   4.560   9.486 -2.3310  2.0125 -0.6386
 6169SOL     OW30139   4.338   2.775   7.937 -0.0752  0.3019 -0.1706
 6169SOL    HW130140   4.380   2.721   8.004  1.6371  2.3478  0.3822
 6169SOL    HW230141   4.264   2.794   7.995  0.9698  0.3640  1.1244
 6170SOL     OW30142   1.727   4.608   5.533 -0.0349  0.1876  0.3719
 6170SOL    HW130143   1.640   4.579   5.560  0.0864 -0.3552  0.1818
 6170SOL    HW230144   1.787   4.573   5.600 -0.8377 -0.1435  0.9102
 6171SOL     OW30145   2.837   0.487   5.608 -0.1036 -0.3441  0.6762
 6171SOL    HW130146   2.875   0.513   5.524  2.2984 -0.5226  1.7046
 6171SOL    HW230147   2.802   0.572   5.634 -0.3483  0.2581 -1.5779
 6172SOL     OW30148   4.659   1.099   6.758  0.4316 -0.5451  0.0542
 6172SOL    HW130149   4.660   1.187   6.721 -0.1923 -1.0826 -1.2050
 6172SOL    HW230150   4.594   1.053   6.705  2.3487 -2.5005 -0.6063
 6173SOL     OW30151   3.264   2.287   9.650 -0.2409 -0.3408  0.5002
 6173SOL    HW130152   3.283   2.260   9.740  1.7189  1.0852  0.5097
 6173SOL    HW230153   3.197   2.220   9.634 -1.9228  1.2487  0.9161
 6174SOL     OW30154   2.920   2.073   3.935 -0.3355 -0.1635 -0.6511
 6174SOL    HW130155   2.826   2.064   3.952 -0.1507  0.0917  0.4964
 6174SOL    HW230156   2.956   2.008   3.995  0.3566  1.0247  0.2125
 6175SOL     OW30157   1.511   2.198   1.404 -0.2381 -0.4543  0.3409
 6175SOL    HW130158   1.586   2.220   1.459 -0.1377 -1.3884  0.5805
 6175SOL    HW230159   1.555   2.183   1.321  0.4677 -2.3226  1.0645
 6176SOL     OW30160   1.569   2.828  16.633  0.4254 -0.6915 -0.0220
 6176SOL    HW130161   1.526   2.821  16.548 -0.6386  2.8566  0.2088
 6176SOL    HW230162   1.636   2.889  16.602 -3.7207  4.3058  0.7172
 6177SOL     OW30163   2.314   4.180   6.908 -0.3545 -0.1954 -0.3770
 6177SOL    HW130164   2.221   4.165   6.890 -0.5285 -2.3910  2.2747
 6177SOL    HW230165   2.298   4.268   6.941  0.5722 -0.3792  0.5669
 6178SOL     OW30166   1.815   3.229   4.616  0.4077 -0.1142 -0.2184
 6178SOL    HW130167   1.816   3.201   4.708  0.7750  1.3951  0.2228
 6178SOL    HW230168   1.725   3.201   4.598 -0.0643  1.2206  0.0930
 6179SOL     OW30169   2.470   3.617   7.505 -0.0470 -0.2716  0.6959
 6179SOL    HW130170   2.563   3.605   7.527  0.5731 -0.7591 -2.1405
 6179SOL    HW230171   2.463   3.569   7.423 -0.3171  0.9105  0.0284
 6180SOL     OW30172   4.324   2.085  15.622 -0.0368 -0.5456  0.6265
 6180SOL    HW130173   4.414   2.053  15.616 -0.4700 -1.7939  0.8728
 6180SOL    HW230174   4.288   2.048  15.541  0.6718 -0.7621  0.4098
 6181SOL     OW30175   2.707   1.362   7.367  0.2956 -0.6680 -0.8343
 6181SOL    HW130176   2.695   1.455   7.346  0.8639 -0.3206  0.3838
 6181SOL    HW230177   2.634   1.321   7.321 -2.2357  2.8070  0.0980
 6182SOL     OW30178   2.345   4.440   5.292 -0.4721  0.1192 -0.1313
 6182SOL    HW130179   2.259   4.400   5.279  0.3638 -2.1400  1.2420
 6182SOL    HW230180   2.320   4.502   5.360  1.3446  0.7737 -0.0744
 6183SOL     OW30181   3.770   1.897  11.350 -0.3075 -0.1560  0.0634
 6183SOL    HW130182   3.803   1.808  11.358  0.7620  0.4062  1.9923
 6183SOL    HW230183   3.684   1.877  11.313 -1.4413 -1.2977  3.3393
 6184SOL     OW30184   2.843   3.842   1.404  0.3502  0.2861  0.0558
 6184SOL    HW130185   2.794   3.846   1.322 -0.3753 -1.1807  0.4233
 6184SOL    HW230186   2.839   3.754   1.441  0.0510  0.4797  0.4741
 6185SOL     OW30187   3.431   2.043   4.722 -0.0272 -0.0261  0.1411
 6185SOL    HW130188   3.400   1.965   4.768 -1.0592  0.9772  1.1033
 6185SOL    HW230189   3.512   2.054   4.773 -1.0211 -3.5245  2.4699
 6186SOL     OW30190   1.282   1.463   7.272 -0.2578  0.2685  0.0771
 6186SOL    HW130191   1.314   1.427   7.189  0.7942 -0.6372  0.8650
 6186SOL    HW230192   1.188   1.462   7.260  0.0252  0.6346 -2.2011
 6187SOL     OW30193   1.745   0.044   1.522 -0.9588  0.2335  0.1726
 6187SOL    HW130194   1.700   4.699   1.520  0.2300 -0.4453  2.1500
 6187SOL    HW230195   1.665   0.091   1.497  0.7820  2.5960 -0.9115
 6188SOL     OW30196   2.983   0.282   5.711  0.2447  0.4747  0.0537
 6188SOL    HW130197   2.992   0.228   5.633 -3.1958 -1.1407  0.7502
 6188SOL    HW230198   2.924   0.353   5.684  0.7330  0.3454 -1.3598
 6189SOL     OW30199   4.626   1.649   7.675 -0.5448  0.6402 -0.3094
 6189SOL    HW130200   4.573   1.645   7.595 -0.3105  2.3244 -0.5410
 6189SOL    HW230201   4.670   1.734   7.679  0.5361 -0.0527  2.2289
 6190SOL     OW30202   1.809   3.354   3.258  0.0424  0.2934 -0.5987
 6190SOL    HW130203   1.798   3.421   3.190  0.4915  1.2475  0.2662
 6190SOL    HW230204   1.734   3.375   3.314  1.6768 -1.3328  2.2152
 6191SOL     OW30205   2.005   0.886   6.865  0.1299 -0.0515 -0.2035
 6191SOL    HW130206   1.984   0.792   6.872 -0.1889 -0.0296 -0.8071
 6191SOL    HW230207   2.002   0.908   6.958  1.4999 -3.1471  0.5805
 6192SOL     OW30208   4.392   3.319   9.454  0.3099  0.8960 -0.4090
 6192SOL    HW130209   4.407   3.348   9.364 -4.1938 -0.3127 -1.5453
 6192SOL    HW230210   4.479   3.297   9.487  1.2021  2.1297 -1.9333
 6193SOL     OW30211   3.055   4.284  17.407  0.1394  0.7126 -0.1664
 6193SOL    HW130212   2.989   4.224  17.442 -0.2769 -0.5827 -3.2590
 6193SOL    HW230213   3.017   4.369  17.427  1.8705  1.7411 -1.2968
 6194SOL     OW30214   3.597   3.286   5.589 -0.3644  0.3044 -0.0906
 6194SOL    HW130215   3.570   3.265   5.499 -0.2541  0.6750 -0.2083
 6194SOL    HW230216   3.604   3.194   5.616 -0.1874  0.2574 -0.2966
 6195SOL     OW30217   0.050   0.270   2.854  0.4530 -0.2671 -0.3836
 6195SOL    HW130218   0.008   0.306   2.931 -0.5042  0.7732 -1.3908
 6195SOL    HW230219   0.141   0.292   2.876  0.9037 -0.7297 -1.7343
 6196SOL     OW30220   3.719   1.055   7.389 -0.5177  0.4591  0.4826
 6196SOL    HW130221   3.782   0.992   7.353 -2.6506 -1.5167  0.1546
 6196SOL    HW230222   3.737   1.043   7.482 -0.1982 -1.2578  0.2088
 6197SOL     OW30223   4.003   2.677   5.740  0.7168 -0.0800 -0.0292
 6197SOL    HW130224   4.019   2.716   5.654 -1.3317  2.4998  0.7555
 6197SOL    HW230225   3.940   2.607   5.723  2.3064 -1.7279  0.8942
 6198SOL     OW30226   4.190   0.079   5.990  0.7166  0.7728 -0.6974
 6198SOL    HW130227   4.148   0.000   6.024 -0.1395  1.4732 -0.1112
 6198SOL    HW230228   4.159   0.137   6.060  0.5758  1.0286 -0.9695
 6199SOL     OW30229   3.552   2.086  16.112  0.4082 -0.8688  0.3864
 6199SOL    HW130230   3.563   2.078  16.017  1.0516 -0.1324  0.3979
 6199SOL    HW230231   3.641   2.081  16.147 -0.4146  1.0115  2.7724
 6200SOL     OW30232   3.488   3.620   3.638 -0.4202 -0.2702  0.3459
 6200SOL    HW130233   3.469   3.710   3.610  1.2527  0.6782  2.2748
 6200SOL    HW230234   3.547   3.634   3.712  0.0927  1.2662 -0.3587
 6201SOL     OW30235   0.809   1.062   4.709  0.4569 -0.1200 -0.4403
 6201SOL    HW130236   0.765   1.112   4.640  0.8623  3.1214  1.6488
 6201SOL    HW230237   0.772   1.106   4.785 -1.4905 -2.7896  0.1565
 6202SOL     OW30238   1.659   0.151   5.018  0.2146  0.9022 -0.5563
 6202SOL    HW130239   1.623   0.070   5.055  0.0922  0.3834 -1.8145
 6202SOL    HW230240   1.725   0.170   5.084  0.8764 -0.3965 -0.8521
 6203SOL     OW30241   4.529   4.327   7.551  0.6026 -0.3913  0.5175
 6203SOL    HW130242   4.536   4.307   7.458 -0.0134  1.3495  0.1104
 6203SOL    HW230243   4.617   4.299   7.577 -0.3448 -1.1998  2.8479
 6204SOL     OW30244   3.793   2.234   5.691 -0.5648 -0.0539 -0.5784
 6204SOL    HW130245   3.787   2.145   5.726 -0.2813  0.2228  0.1719
 6204SOL    HW230246   3.734   2.213   5.618 -1.3991 -1.7521  0.6026
 6205SOL     OW30247   2.209   0.498   3.123  0.4441 -0.2139 -0.2764
 6205SOL    HW130248   2.239   0.478   3.034  0.1903  0.1899 -0.4524
 6205SOL    HW230249   2.124   0.537   3.108  0.2499 -0.3187  0.5912
 6206SOL     OW30250   4.739   4.230   3.340 -0.3953  0.3367  0.1744
 6206SOL    HW130251   4.659   4.281   3.355 -0.5512  0.1044  0.1325
 6206SOL    HW230252   4.729   4.153   3.397 -4.1939  0.2566 -0.6531
 6207SOL     OW30253   1.883   2.394   7.108 -0.0803  0.4591 -0.2766
 6207SOL    HW130254   1.950   2.361   7.048  2.0248  1.8516  1.2585
 6207SOL    HW230255   1.928   2.475   7.133  1.5425 -0.5477  0.1046
 6208SOL     OW30256   1.776   1.111   4.931  0.4997  0.1066 -0.1740
 6208SOL    HW130257   1.727   1.192   4.941  1.3831  0.6860 -0.5588
 6208SOL    HW230258   1.844   1.138   4.869 -0.1941 -0.6031 -1.2550
 6209SOL     OW30259   1.183   4.357   6.529 -0.7047  0.1246  0.5748
 6209SOL    HW130260   1.264   4.398   6.560 -0.1816  0.6795 -1.5138
 6209SOL    HW230261   1.216   4.289   6.470  0.3157 -1.2025  2.6653
 6210SOL     OW30262   2.992   0.045   2.375 -0.4656  0.1560 -0.2610
 6210SOL    HW130263   3.029   4.704   2.411  0.0165  0.9871  1.0825
 6210SOL    HW230264   2.900   0.024   2.392 -0.0406 -1.1606  0.3752
 6211SOL     OW30265   4.228   4.727  17.363  0.1668  0.1148  0.0701
 6211SOL    HW130266   4.238   4.640  17.402 -0.1876  0.1493  0.2322
 6211SOL    HW230267   4.134   4.733  17.348 -0.2762 -3.4407  1.4255
 6212SOL     OW30268   3.907   2.752  12.199 -0.1982 -0.4306  0.1377
 6212SOL    HW130269   3.977   2.755  12.134  0.1219  0.5704  0.5154
 6212SOL    HW230270   3.877   2.842  12.185 -1.6790 -1.3135 -2.1891
 6213SOL     OW30271   1.062   1.849   8.642  0.1297  0.3427  0.5357
 6213SOL    HW130272   0.975   1.868   8.676 -0.3245  2.9367 -2.1732
 6213SOL    HW230273   1.082   1.920   8.581  1.4047 -0.4185  0.0596
 6214SOL     OW30274   4.540   2.962   1.735 -0.2056 -0.4827  0.4252
 6214SOL    HW130275   4.553   2.894   1.669 -2.0513 -0.1538 -0.2825
 6214SOL    HW230276   4.621   2.939   1.781  0.7899 -1.0612 -1.6235
 6215SOL     OW30277   3.899   1.441   7.709 -1.1617  0.7035  0.3629
 6215SOL    HW130278   3.814   1.418   7.745 -0.1414 -0.8660  1.8075
 6215SOL    HW230279   3.876   1.482   7.626  3.4147 -1.7638 -2.2024
 6216SOL     OW30280   0.780   1.671   3.745  0.1872  0.0266  0.4044
 6216SOL    HW130281   0.726   1.592   3.740 -1.0991  0.7106  3.2795
 6216SOL    HW230282   0.712   1.736   3.727 -0.9579 -0.9527  1.2247
 6217SOL     OW30283   4.565   0.066   3.082  0.3446  0.0999  0.1906
 6217SOL    HW130284   4.574   0.161   3.069 -1.7055  0.3696  0.6213
 6217SOL    HW230285   4.655   0.036   3.095  0.6683  1.1198  0.3016
 6218SOL     OW30286   0.245   0.581   1.531 -0.7139  0.3898  0.5808
 6218SOL    HW130287   0.263   0.644   1.461  0.1584 -1.0291 -0.4807
 6218SOL    HW230288   0.323   0.605   1.580  1.9821 -1.9248 -2.5448
 6219SOL     OW30289   3.880   4.616   7.203  0.5189 -0.2469 -0.7294
 6219SOL    HW130290   3.880   4.691   7.263 -1.2558 -0.3572 -0.5939
 6219SOL    HW230291   3.920   4.651   7.124  1.1053  2.1079  0.6017
 6220SOL     OW30292   0.071   3.302   3.243 -0.1852  0.7278 -0.0466
 6220SOL    HW130293   0.061   3.397   3.246 -0.5936  0.7594 -2.4744
 6220SOL    HW230294   0.017   3.282   3.167  0.1165  1.7049 -0.5241
 6221SOL     OW30295   2.399   2.067  16.280 -0.2649 -0.1100  0.4365
 6221SOL    HW130296   2.375   2.017  16.357 -0.3884  1.3862  1.3699
 6221SOL    HW230297   2.454   2.136  16.317 -0.0157 -0.2195  0.2675
 6222SOL     OW30298   0.853   1.516  11.731  0.0343 -0.1591 -0.6269
 6222SOL    HW130299   0.875   1.497  11.822  0.1283 -0.5330 -0.7250
 6222SOL    HW230300   0.901   1.443  11.690  0.9606  1.2571 -2.0702
 6223SOL     OW30301   0.511   4.710   9.377  0.1049 -0.0857 -0.1762
 6223SOL    HW130302   0.515   4.669   9.291  0.2739 -0.5948  0.0736
 6223SOL    HW230303   0.427   4.681   9.413 -0.3612  1.2874 -0.1465
 6224SOL     OW30304   3.713   4.739  11.326 -0.3255  0.1634 -0.9141
 6224SOL    HW130305   3.654   0.056  11.377  1.7820  0.1614  1.5543
 6224SOL    HW230306   3.655   4.700  11.261 -0.5382 -2.8118  1.0428
 6225SOL     OW30307   4.084   3.443   8.996  0.0848 -0.0287 -0.3097
 6225SOL    HW130308   4.142   3.395   8.936  2.0078  0.6258  1.0447
 6225SOL    HW230309   4.003   3.393   8.991  0.9197 -1.5141  1.0186
 6226SOL     OW30310   3.557   4.426  14.189 -0.5765 -0.9699  0.6963
 6226SOL    HW130311   3.501   4.349  14.197 -2.4406  0.3118 -0.1039
 6226SOL    HW230312   3.561   4.426  14.094 -0.1629 -0.0289  0.7158
 6227SOL     OW30313   4.615   4.031   1.755 -0.2166 -0.2669  0.1873
 6227SOL    HW130314   4.532   4.073   1.777  0.7321  1.7293 -0.0213
 6227SOL    HW230315   4.582   3.947   1.725 -1.1012  1.0696 -2.5668
 6228SOL     OW30316   4.182   4.218   5.475 -0.0608 -0.0694  0.4745
 6228SOL    HW130317   4.272   4.188   5.487  0.0984 -0.6380 -2.2149
 6228SOL    HW230318   4.209   4.300   5.434  2.4657  0.5627  3.3118
 6229SOL     OW30319   3.370   2.587   6.345  0.0512  0.1552  0.4151
 6229SOL    HW130320   3.417   2.534   6.410 -1.6465  0.4359  1.8513
 6229SOL    HW230321   3.437   2.592   6.277  0.3684  1.7271  0.8462
 6230SOL     OW30322   1.882   3.015  12.091 -0.2816 -0.1623 -0.0004
 6230SOL    HW130323   1.919   3.076  12.028  0.1254 -0.4647 -0.0554
 6230SOL    HW230324   1.962   2.980  12.130 -0.4582  1.0815  1.4962
 6231SOL     OW30325   1.496   2.296   6.392  0.1103  0.6488 -0.2993
 6231SOL    HW130326   1.489   2.391   6.394 -0.4432  0.6039  0.0070
 6231SOL    HW230327   1.516   2.276   6.483  0.4967 -0.6747 -0.6654
 6232SOL     OW30328   1.275   1.218   4.094  0.1335 -0.4258 -0.5155
 6232SOL    HW130329   1.318   1.133   4.097 -0.7069 -0.7355  2.2501
 6232SOL    HW230330   1.295   1.245   4.184 -2.5950 -1.4150  0.3835
 6233SOL     OW30331   0.481   1.632   4.949 -0.5574 -0.4710 -0.0965
 6233SOL    HW130332   0.509   1.679   5.027 -1.3622 -0.6725  0.3198
 6233SOL    HW230333   0.540   1.658   4.879 -1.6744  0.6257 -0.6291
 6234SOL     OW30334   2.989   4.338   2.319  0.5799 -0.1255  0.1923
 6234SOL    HW130335   3.014   4.252   2.353  1.8431 -0.0875 -0.6489
 6234SOL    HW230336   3.055   4.397   2.354  2.6514 -2.2019 -0.2704
 6235SOL     OW30337   4.734   1.395   9.008 -0.0768  0.2150  0.0255
 6235SOL    HW130338   0.057   1.328   8.983  0.2248  0.8378 -0.9099
 6235SOL    HW230339   0.003   1.454   8.933  2.3234 -1.6877 -1.1907
 6236SOL     OW30340   1.472   1.326  11.396  0.1423 -0.4361  0.5068
 6236SOL    HW130341   1.500   1.277  11.473 -1.2979 -0.5879  0.9230
 6236SOL    HW230342   1.556   1.320  11.350  0.7433  0.8929  1.4373
 6237SOL     OW30343   1.881   3.968   1.308 -0.3299 -0.1536 -0.0556
 6237SOL    HW130344   1.816   3.907   1.273  0.3432 -2.6374  2.9383
 6237SOL    HW230345   1.858   3.983   1.400 -3.6487  2.9199 -1.3885
 6238SOL     OW30346   3.801   0.864   7.558  0.1369  0.4274  0.0841
 6238SOL    HW130347   3.816   0.776   7.523 -1.2085 -0.0167  0.6204
 6238SOL    HW230348   3.739   0.843   7.627  0.0107 -1.8535 -0.7226
 6239SOL     OW30349   1.033   2.572   8.642  0.1826  0.2984  0.1632
 6239SOL    HW130350   1.024   2.621   8.724 -1.9560  0.3621 -0.1299
 6239SOL    HW230351   1.035   2.481   8.671  3.1188  0.1225 -0.5839
 6240SOL     OW30352   0.660   3.117  12.151 -0.0540 -0.0973 -0.8973
 6240SOL    HW130353   0.578   3.128  12.103 -1.6822 -4.0063  0.9245
 6240SOL    HW230354   0.666   3.021  12.146  1.4204 -0.0475 -0.2973
 6241SOL     OW30355   3.930   2.837  15.377 -0.4962  0.5512 -0.0647
 6241SOL    HW130356   4.003   2.880  15.332  0.0919 -0.6616 -0.2668
 6241SOL    HW230357   3.891   2.916  15.414 -0.2845  1.0452 -0.8920
 6242SOL     OW30358   0.214   3.190   3.969 -0.6283  0.3200 -0.6073
 6242SOL    HW130359   0.229   3.206   4.062 -0.5876  0.9142 -0.7165
 6242SOL    HW230360   0.119   3.191   3.976 -0.5114  1.8116  0.6835
 6243SOL     OW30361   1.510   3.925   7.654 -0.3460  0.1657 -0.4311
 6243SOL    HW130362   1.462   3.885   7.726  0.5389  0.3297  0.2563
 6243SOL    HW230363   1.602   3.905   7.675 -1.0714 -1.5604  1.0935
 6244SOL     OW30364   1.314   2.142  11.378 -0.2266  0.0084 -0.6644
 6244SOL    HW130365   1.308   2.201  11.453  1.4456  1.8534 -1.9930
 6244SOL    HW230366   1.338   2.200  11.306  0.5380 -0.8382 -1.0842
 6245SOL     OW30367   1.544   1.094  14.828 -0.3138  0.3298 -0.3065
 6245SOL    HW130368   1.630   1.077  14.868 -0.3101  1.8220  0.3189
 6245SOL    HW230369   1.480   1.057  14.888 -0.5863  0.4129 -0.5454
 6246SOL     OW30370   3.469   4.558   3.283 -0.1328  0.4604 -0.3607
 6246SOL    HW130371   3.402   4.625   3.277  0.2996  1.1585  2.6881
 6246SOL    HW230372   3.429   4.495   3.343 -0.1465  0.0287 -0.8187
 6247SOL     OW30373   2.201   3.796   4.395 -0.6515  0.3136  0.1937
 6247SOL    HW130374   2.268   3.797   4.463 -0.4045 -0.5353 -0.0413
 6247SOL    HW230375   2.189   3.701   4.388  2.9198 -0.1642  0.7238
 6248SOL     OW30376   0.165   4.692  16.903  0.1683  0.1160 -0.7006
 6248SOL    HW130377   0.233   4.733  16.957  0.5684 -0.1860 -0.9738
 6248SOL    HW230378   0.102   0.025  16.910  0.5618  0.1358  2.6531
 6249SOL     OW30379   3.594   3.651   3.396 -0.1404 -0.1804 -0.1191
 6249SOL    HW130380   3.539   3.579   3.365 -0.3664 -0.0401 -0.0453
 6249SOL    HW230381   3.558   3.650   3.484  0.6109 -0.2084  0.1871
 6250SOL     OW30382   1.692   0.131   5.485  0.0402 -0.1186  0.1981
 6250SOL    HW130383   1.726   0.042   5.488  0.1743 -0.1089 -1.1777
 6250SOL    HW230384   1.611   0.111   5.532 -2.3239  2.1309 -2.9130
 6251SOL     OW30385   0.743   2.151  10.907 -0.2407  0.0844  0.1120
 6251SOL    HW130386   0.740   2.092  10.982  0.5699  1.1501  0.9601
 6251SOL    HW230387   0.666   2.133  10.853 -1.6707 -1.8112  2.8086
 6252SOL     OW30388   3.977   2.145  17.668  0.3775 -0.1883 -0.0666
 6252SOL    HW130389   3.941   2.211  17.727 -0.9027 -2.0778  1.2800
 6252SOL    HW230390   3.924   2.067  17.682 -0.3266 -0.0462 -1.9519
 6253SOL     OW30391   1.793   4.603   9.184  0.3470  0.1945 -0.1894
 6253SOL    HW130392   1.857   4.602   9.255 -0.3952  0.8264  0.4801
 6253SOL    HW230393   1.736   4.677   9.202 -0.1664  0.1284 -1.5130
 6254SOL     OW30394   1.398   0.428  10.680  0.2739 -0.4996  0.5603
 6254SOL    HW130395   1.415   0.476  10.599  0.1824 -0.7536  0.3911
 6254SOL    HW230396   1.336   0.491  10.717 -0.5078 -0.4441 -0.8217
 6255SOL     OW30397   4.188   3.116   9.385 -0.4236  0.5586 -0.5828
 6255SOL    HW130398   4.144   3.179   9.328  1.2601  1.5199 -0.8111
 6255SOL    HW230399   4.273   3.157   9.402  0.8487 -2.4185  0.2165
 6256SOL     OW30400   1.035   3.527   4.508  0.3844 -0.0937  0.1222
 6256SOL    HW130401   0.980   3.572   4.572 -0.4208  0.9765 -1.3175
 6256SOL    HW230402   1.107   3.498   4.565  0.4093  0.1228  0.2027
 6257SOL     OW30403   1.213   2.638   4.269 -0.0545 -0.0488 -0.0645
 6257SOL    HW130404   1.187   2.564   4.324 -1.0415 -0.7035 -1.4171
 6257SOL    HW230405   1.262   2.592   4.200 -0.4741  2.9963 -2.3626
 6258SOL     OW30406   1.110   2.454   7.158  0.5539 -0.1550  0.6563
 6258SOL    HW130407   1.076   2.532   7.202  0.6783  0.1100  0.2835
 6258SOL    HW230408   1.123   2.393   7.230  2.4946 -1.3932 -0.7290
 6259SOL     OW30409   3.810   1.018  11.471  0.4611 -0.2806  0.6301
 6259SOL    HW130410   3.810   1.114  11.467  2.5037 -0.2412  1.6149
 6259SOL    HW230411   3.898   1.004  11.435  0.2195  0.7579 -0.3751
 6260SOL     OW30412   0.187   1.156   1.682 -0.3085 -0.4674  0.1102
 6260SOL    HW130413   0.232   1.172   1.599  0.5560  3.6005  1.3520
 6260SOL    HW230414   0.249   1.174   1.753 -0.7144  1.2386  0.0565
 6261SOL     OW30415   1.598   3.831   5.453  0.0090 -0.5079 -0.2598
 6261SOL    HW130416   1.633   3.777   5.524  1.2311 -0.1402 -0.5753
 6261SOL    HW230417   1.672   3.810   5.396  1.2711  0.0407  1.1960
 6262SOL     OW30418   0.263   3.394  17.397  0.1483 -0.5676  0.1544
 6262SOL    HW130419   0.299   3.329  17.457 -3.3123 -1.9300  0.7058
 6262SOL    HW230420   0.178   3.413  17.437 -0.6034 -0.1562 -1.6361
 6263SOL     OW30421   4.040   3.233  11.340  0.4151  0.5412 -0.6083
 6263SOL    HW130422   4.031   3.174  11.414  0.6814  0.4714 -0.6330
 6263SOL    HW230423   3.995   3.311  11.374  1.4457 -0.7102  3.5804
 6264SOL     OW30424   0.143   1.862   7.320 -0.0947  0.2126  0.6511
 6264SOL    HW130425   0.219   1.909   7.352 -1.4027  2.5179  0.4065
 6264SOL    HW230426   0.182   1.799   7.259  0.8817  2.0694 -0.6496
 6265SOL     OW30427   1.921   4.220   5.462  0.5540 -0.2765  0.0385
 6265SOL    HW130428   1.976   4.258   5.530 -2.2989  1.0166  1.6046
 6265SOL    HW230429   1.839   4.233   5.510  1.0428  1.5627  0.3442
 6266SOL     OW30430   1.797   3.751   1.613  0.1750  0.0413  0.1925
 6266SOL    HW130431   1.767   3.835   1.578  0.1055 -0.1279 -0.1503
 6266SOL    HW230432   1.716   3.716   1.648  0.5396 -2.1068 -1.0612
 6267SOL     OW30433   0.096   0.455   7.437 -0.4298 -0.2865 -0.2926
 6267SOL    HW130434   0.147   0.392   7.385  0.9970  0.6580 -0.0524
 6267SOL    HW230435   0.166   0.520   7.450 -0.0549 -0.5204 -1.1343
 6268SOL     OW30436   3.382   3.181   8.325 -0.0511  0.1983 -0.3208
 6268SOL    HW130437   3.386   3.229   8.408 -0.9191 -1.5783  0.7438
 6268SOL    HW230438   3.346   3.096   8.352  0.1721 -0.3770 -1.8093
 6269SOL     OW30439   2.825   4.697   6.069  0.4917 -0.1397  0.2136
 6269SOL    HW130440   2.738   4.731   6.049  0.8371 -0.5177 -1.9853
 6269SOL    HW230441   2.809   4.686   6.163  0.1111  0.7895  0.2597
 6270SOL     OW30442   0.172   1.730   9.475 -0.2149 -0.2008 -0.6966
 6270SOL    HW130443   0.215   1.707   9.557  0.5047 -0.6927 -1.2087
 6270SOL    HW230444   0.248   1.715   9.418  1.1962  3.6470  0.1272
 6271SOL     OW30445   3.059   3.649  15.648  0.8575 -0.0894 -0.0249
 6271SOL    HW130446   3.099   3.723  15.603 -2.2410  1.4123 -0.2826
 6271SOL    HW230447   3.134   3.609  15.692  0.2313 -1.6444 -0.3459
 6272SOL     OW30448   2.613   4.595  14.378 -0.4391  0.2413  0.1135
 6272SOL    HW130449   2.624   4.511  14.422  0.0512  0.6624  0.7874
 6272SOL    HW230450   2.518   4.595  14.366 -0.3611  0.4415 -0.5499
 6273SOL     OW30451   1.751   2.192   3.931  0.2593 -0.2087 -0.0628
 6273SOL    HW130452   1.688   2.170   3.863  1.4136 -0.6338 -0.9828
 6273SOL    HW230453   1.714   2.153   4.010  2.0896 -0.2335  0.7888
 6274SOL     OW30454   0.966   1.860   5.518  0.1683 -0.6759  0.2078
 6274SOL    HW130455   0.993   1.894   5.603 -2.1540  1.4425  0.1125
 6274SOL    HW230456   0.917   1.937   5.488  0.4149 -0.7777 -0.4527
 6275SOL     OW30457   0.635   2.423  17.582  0.1756 -0.5046 -0.1344
 6275SOL    HW130458   0.686   2.496  17.545 -1.4322  1.6298  1.8348
 6275SOL    HW230459   0.654   2.417  17.675 -1.5386  2.6335  0.4082
 6276SOL     OW30460   0.396   2.290   2.483 -0.0565  0.4283 -0.2537
 6276SOL    HW130461   0.374   2.300   2.576 -0.5165  2.1997 -0.5607
 6276SOL    HW230462   0.426   2.199   2.491  1.8835  0.9804 -1.1525
 6277SOL     OW30463   0.604   2.093   3.453  0.9024 -0.0241  0.4121
 6277SOL    HW130464   0.582   2.179   3.488  0.5306 -0.5576  1.5068
 6277SOL    HW230465   0.583   2.096   3.360 -3.0513 -2.7348  1.2048
 6278SOL     OW30466   0.757   4.179   9.672 -0.6799  0.2474 -0.1189
 6278SOL    HW130467   0.787   4.116   9.738 -2.0557  0.5866  0.8280
 6278SOL    HW230468   0.793   4.147   9.590  1.0275 -0.3614  0.8610
 6279SOL     OW30469   1.517   0.396   6.918  0.4703 -0.4431  0.6274
 6279SOL    HW130470   1.514   0.480   6.963 -1.6165  1.0139 -2.2207
 6279SOL    HW230471   1.552   0.334   6.982 -2.6320 -1.7166  1.1255
 6280SOL     OW30472   2.111   3.709   5.431 -0.4015  0.1341  0.4218
 6280SOL    HW130473   2.164   3.668   5.363  0.0752  2.7152 -0.7642
 6280SOL    HW230474   2.074   3.787   5.390 -0.2637  0.4460  0.8835
 6281SOL     OW30475   2.390   3.552   4.152  0.4855  0.0781  0.1347
 6281SOL    HW130476   2.337   3.631   4.155  1.2554  0.5651  0.8226
 6281SOL    HW230477   2.321   3.495   4.185  0.2719 -0.1913 -0.7634
 6282SOL     OW30478   2.827   1.064   4.774  0.1596 -0.7607 -0.4222
 6282SOL    HW130479   2.808   0.970   4.765  0.1109 -0.8154  0.2241
 6282SOL    HW230480   2.923   1.067   4.776  0.2534 -2.2004 -2.5748
 6283SOL     OW30481   1.299   1.867   2.581  0.0749  0.1990  0.0002
 6283SOL    HW130482   1.307   1.917   2.662 -0.0314  0.7996 -0.3566
 6283SOL    HW230483   1.354   1.790   2.595 -0.5754  0.4191  3.8590
 6284SOL     OW30484   4.411   0.244   6.435  0.1182  0.5629 -0.1301
 6284SOL    HW130485   4.486   0.293   6.469  0.1319  0.5959 -0.2081
 6284SOL    HW230486   4.347   0.313   6.450  1.6273  1.7911  0.6721
 6285SOL     OW30487   2.381   3.975  17.715  0.2708  0.0802 -0.1310
 6285SOL    HW130488   2.403   3.949   0.049 -0.7822  0.6756  0.3018
 6285SOL    HW230489   2.357   4.068  17.715  1.0137  0.2711  0.1526
 6286SOL     OW30490   3.614   4.327   2.451  0.1922  0.1024 -0.1645
 6286SOL    HW130491   3.598   4.263   2.520 -0.5104 -0.3054 -0.7068
 6286SOL    HW230492   3.569   4.279   2.382  2.0583 -1.5603 -0.2237
 6287SOL     OW30493   2.167   3.416   6.825 -0.5810 -0.0445  0.3189
 6287SOL    HW130494   2.160   3.323   6.847  4.8843  0.0129  2.2428
 6287SOL    HW230495   2.155   3.457   6.910 -2.3981  0.5137 -0.1969
 6288SOL     OW30496   3.157   0.231   9.319  0.0104 -0.1471  0.0034
 6288SOL    HW130497   3.185   0.249   9.229  1.7623  1.9171  0.9445
 6288SOL    HW230498   3.082   0.290   9.325 -0.6824 -0.9317 -0.9486
 6289SOL     OW30499   4.435   4.436   5.565  0.3632  0.0646 -0.0713
 6289SOL    HW130500   4.507   4.444   5.628  2.8651  2.0276 -3.1922
 6289SOL    HW230501   4.421   4.526   5.537 -1.2922  0.2709  1.4541
 6290SOL     OW30502   3.959   1.672   5.581  1.3260 -0.4027  0.2684
 6290SOL    HW130503   3.941   1.621   5.660  2.4347 -0.2115  0.6538
 6290SOL    HW230504   4.046   1.701   5.609  0.1162  2.8617  0.6250
 6291SOL     OW30505   4.392   1.168   5.405  0.8004 -0.1456 -0.6638
 6291SOL    HW130506   4.446   1.246   5.418 -1.5614  1.2165  0.9320
 6291SOL    HW230507   4.358   1.154   5.493  2.8631 -0.6461  0.0337
 6292SOL     OW30508   2.890   3.683   5.633 -0.2960 -0.4739 -0.5740
 6292SOL    HW130509   2.852   3.712   5.716 -1.2130  0.1377 -1.2057
 6292SOL    HW230510   2.968   3.737   5.622 -0.7016  0.7422  2.6172
 6293SOL     OW30511   3.700   3.579  16.793 -0.1610  0.3328  0.4207
 6293SOL    HW130512   3.719   3.672  16.777  0.3846 -0.3303 -2.6415
 6293SOL    HW230513   3.782   3.554  16.837 -1.1617  0.7311  2.5273
 6294SOL     OW30514   3.499   2.350  11.004 -0.2713  0.3258  0.2614
 6294SOL    HW130515   3.467   2.276  10.952 -0.0758  0.1054  0.4502
 6294SOL    HW230516   3.541   2.312  11.081 -0.6467 -0.2736  0.1715
 6295SOL     OW30517   2.487   0.734   6.108 -0.0777  0.1241 -0.3600
 6295SOL    HW130518   2.435   0.690   6.176 -0.3172 -0.7957 -1.1353
 6295SOL    HW230519   2.580   0.726   6.129 -0.2556 -0.5580  0.1581
 6296SOL     OW30520   3.849   2.119   7.612 -0.3723  0.1417  0.4145
 6296SOL    HW130521   3.791   2.082   7.678  1.7079 -1.4404  1.3421
 6296SOL    HW230522   3.844   2.046   7.551  1.3529 -0.0195  0.4829
 6297SOL     OW30523   1.765   4.468  11.260  0.5125 -0.6737  0.1887
 6297SOL    HW130524   1.680   4.473  11.218  0.3756  5.6913  1.3576
 6297SOL    HW230525   1.739   4.463  11.352 -1.2474  0.9417 -0.2363
 6298SOL     OW30526   3.722   0.287   3.519 -0.0777  0.1701  0.4856
 6298SOL    HW130527   3.797   0.328   3.563 -0.0064 -0.1356  0.6488
 6298SOL    HW230528   3.644   0.340   3.533  0.5245  1.7185 -1.9687
 6299SOL     OW30529   3.273   3.589   6.307 -0.2004 -0.4454  0.2309
 6299SOL    HW130530   3.219   3.565   6.382  1.6581  0.8075  1.9589
 6299SOL    HW230531   3.272   3.682   6.328  1.5951 -0.2543 -0.5212
 6300SOL     OW30532   4.725   2.700   8.011  0.1786  0.3174  0.6215
 6300SOL    HW130533   0.019   2.656   7.933  0.0335 -0.9184  1.2539
 6300SOL    HW230534   4.647   2.653   8.041 -1.0175  2.7497  1.2776
 6301SOL     OW30535   0.084   1.679   8.460  0.0958 -0.1192  0.1896
 6301SOL    HW130536   0.007   1.697   8.514 -2.3666 -1.7559 -2.8142
 6301SOL    HW230537   0.053   1.680   8.370  1.7944  1.4472 -0.3798
 6302SOL     OW30538   1.959   1.795   2.584  0.1374  0.0714 -0.1510
 6302SOL    HW130539   1.943   1.703   2.606 -1.2528  0.0909 -1.0664
 6302SOL    HW230540   2.054   1.804   2.576  0.2266 -2.0121 -1.2947
 6303SOL     OW30541   0.141   4.437   1.574  0.0176 -0.1073 -0.2428
 6303SOL    HW130542   0.140   4.341   1.582 -1.3219 -0.0293  0.5662
 6303SOL    HW230543   0.082   4.474   1.639  0.6285 -0.0545  0.2735
 6304SOL     OW30544   4.413   4.163   9.176  0.5521  0.3802  0.0364
 6304SOL    HW130545   4.494   4.214   9.179  1.3853 -0.8327 -2.3922
 6304SOL    HW230546   4.400   4.158   9.082  2.3627 -0.8441 -0.1543
 6305SOL     OW30547   4.227   4.239   5.160 -0.8670 -0.0648 -0.8996
 6305SOL    HW130548   4.132   4.254   5.164 -0.7447  0.5152 -0.0873
 6305SOL    HW230549   4.246   4.319   5.209  0.7926 -0.7318 -0.4706
 6306SOL     OW30550   1.617   0.902  15.376 -0.0903 -0.3394  0.4464
 6306SOL    HW130551   1.679   0.848  15.327 -0.7531 -1.1345  0.4912
 6306SOL    HW230552   1.620   0.989  15.336 -0.3662 -0.6852 -0.3339
 6307SOL     OW30553   3.753   1.195   5.481  0.2091  0.4095 -0.1791
 6307SOL    HW130554   3.728   1.280   5.444 -0.0478  0.3969 -0.0387
 6307SOL    HW230555   3.677   1.138   5.467  0.0068  0.3281  1.2050
 6308SOL     OW30556   1.638   3.030  11.990  0.0962 -0.0091 -0.0616
 6308SOL    HW130557   1.713   3.001  12.043 -0.8247  1.9636  2.3069
 6308SOL    HW230558   1.685   3.105  11.952 -1.2477  1.3885  1.0437
 6309SOL     OW30559   0.119   0.384   2.094 -0.5775  0.2072  0.2202
 6309SOL    HW130560   0.149   0.429   2.173 -1.9893  3.1179 -0.8830
 6309SOL    HW230561   0.199   0.388   2.043 -0.2876 -0.4789  0.6295
 6310SOL     OW30562   2.545   1.515   5.571  0.2039 -0.3519 -0.1507
 6310SOL    HW130563   2.601   1.439   5.587 -0.8074 -0.8671  0.9480
 6310SOL    HW230564   2.462   1.489   5.611 -0.6375  0.6726 -1.2700
 6311SOL     OW30565   3.050   1.472  10.136 -0.1074 -0.6197  0.1869
 6311SOL    HW130566   3.071   1.408  10.068 -0.3135  1.8923 -2.2151
 6311SOL    HW230567   3.142   1.495  10.152  0.4697 -1.1427 -2.4282
 6312SOL     OW30568   0.652   2.391   0.101  0.0762 -0.2038 -0.6101
 6312SOL    HW130569   0.689   2.432   0.179 -2.9182  0.4273  0.4869
 6312SOL    HW230570   0.684   2.301   0.100  0.8559  0.0797 -0.6057
 6313SOL     OW30571   3.862   3.083   7.322  0.2933  0.5051  0.2907
 6313SOL    HW130572   3.820   3.100   7.406  0.1576  1.0833  0.1092
 6313SOL    HW230573   3.940   3.033   7.345 -0.6954 -0.7307  0.9522
 6314SOL     OW30574   4.512   3.000   7.002  0.3734  0.4673 -0.1253
 6314SOL    HW130575   4.588   2.969   6.952 -0.0971  0.4323 -0.8245
 6314SOL    HW230576   4.550   3.074   7.048  1.1508 -0.1255  0.1853
 6315SOL     OW30577   4.385   1.444   4.780 -0.4837 -0.0299 -0.4961
 6315SOL    HW130578   4.306   1.489   4.752 -0.8411  0.4054  1.2262
 6315SOL    HW230579   4.354   1.390   4.853  1.9107 -0.7137  0.0117
 6316SOL     OW30580   1.836   1.514   4.439 -0.2491 -0.6497 -0.4342
 6316SOL    HW130581   1.819   1.433   4.392  0.4811 -0.3405 -1.2363
 6316SOL    HW230582   1.817   1.476   4.524  0.7580 -1.8707 -0.7718
 6317SOL     OW30583   4.140   0.116   5.355  0.7117 -0.0091  0.0558
 6317SOL    HW130584   4.140   0.168   5.435  1.0054  0.5180 -0.2891
 6317SOL    HW230585   4.046   0.106   5.343  0.8708 -1.7435  0.2401
 6318SOL     OW30586   1.661   1.070   4.304 -0.0914 -0.1612 -0.0979
 6318SOL    HW130587   1.680   0.977   4.295 -1.8289 -0.5052 -0.2570
 6318SOL    HW230588   1.631   1.067   4.395  0.9099 -1.6921  0.1820
 6319SOL     OW30589   1.131   3.924   8.414  0.0693  0.1254  0.7558
 6319SOL    HW130590   1.104   3.851   8.470 -1.4285 -0.6574 -1.0167
 6319SOL    HW230591   1.155   3.989   8.481  0.3925  1.2580 -0.4616
 6320SOL     OW30592   2.102   1.719   1.820  0.5422  0.3474 -0.3521
 6320SOL    HW130593   2.046   1.667   1.762  1.6687 -3.1342  1.6801
 6320SOL    HW230594   2.048   1.797   1.803  1.6322  0.9965 -0.8015
 6321SOL     OW30595   1.368   3.624   4.870  0.0411 -0.2769 -0.4073
 6321SOL    HW130596   1.343   3.709   4.832  0.0422 -0.0396  0.1240
 6321SOL    HW230597   1.447   3.647   4.918 -0.2824 -1.5850  0.7530
 6322SOL     OW30598   2.069   4.083   3.258 -0.5819 -0.2114  0.4369
 6322SOL    HW130599   2.080   4.081   3.163  0.2506 -2.1539  0.5709
 6322SOL    HW230600   1.977   4.057   3.267 -0.9233  0.4578 -1.0130
 6323SOL     OW30601   2.474   4.029   2.047  0.0055  0.4060  0.3298
 6323SOL    HW130602   2.474   4.099   2.111 -1.1681  1.4300 -0.7958
 6323SOL    HW230603   2.432   4.074   1.974  0.1291 -3.3166 -2.0706
 6324SOL     OW30604   2.664   3.045   8.129 -0.1550 -0.2887 -0.2339
 6324SOL    HW130605   2.688   2.954   8.111  0.1834 -0.3720  0.6505
 6324SOL    HW230606   2.743   3.089   8.099 -1.2464  0.5388 -1.9157
 6325SOL     OW30607   3.538   4.267  16.603 -0.2388 -0.0216  0.2035
 6325SOL    HW130608   3.496   4.353  16.615  0.1606  0.3008 -0.7595
 6325SOL    HW230609   3.624   4.294  16.571  0.5581 -2.3117  0.4030
 6326SOL     OW30610   0.653   3.046  16.749  0.2717 -0.1104  0.0268
 6326SOL    HW130611   0.705   2.991  16.807  1.6257  3.1203  1.9186
 6326SOL    HW230612   0.679   3.133  16.781 -0.0711  0.0669 -0.1771
 6327SOL     OW30613   3.323   1.422   2.491 -0.0578 -0.3572  0.0872
 6327SOL    HW130614   3.396   1.398   2.548 -1.7027  0.7923  2.6568
 6327SOL    HW230615   3.367   1.451   2.411  1.7380  2.5555  2.1336
 6328SOL     OW30616   1.962   1.910   6.805  0.0341 -0.2234  0.2109
 6328SOL    HW130617   1.949   1.817   6.822 -0.5274 -0.1125  0.4070
 6328SOL    HW230618   2.034   1.933   6.863 -1.0015 -0.1302  1.4591
 6329SOL     OW30619   1.130   4.506   2.283  0.6647  0.3081 -0.0998
 6329SOL    HW130620   1.081   4.581   2.248  2.6572  1.3817 -0.5656
 6329SOL    HW230621   1.055   4.450   2.301 -0.6577  1.4870 -1.9243
 6330SOL     OW30622   1.355   3.409   0.120  0.5023 -0.0841  0.0855
 6330SOL    HW130623   1.393   3.322   0.135  0.1916 -0.4588 -1.3745
 6330SOL    HW230624   1.322   3.425   0.209  3.1041  0.3475  0.9913
 6331SOL     OW30625   0.913   3.558   4.956 -0.1217 -0.3868  0.0837
 6331SOL    HW130626   1.008   3.541   4.955  0.5293  3.1382  0.1386
 6331SOL    HW230627   0.909   3.643   5.001  1.9538 -0.1329 -0.1849
 6332SOL     OW30628   3.922   4.487   3.154  0.2751  0.4826 -0.9444
 6332SOL    HW130629   3.910   4.580   3.132 -1.7535  1.2613  3.4773
 6332SOL    HW230630   4.015   4.488   3.131  0.5980  0.1299  0.3280
 6333SOL     OW30631   4.240   4.608  16.701 -0.2592  0.2846  0.0462
 6333SOL    HW130632   4.287   4.537  16.744 -1.8976 -1.1992 -0.6227
 6333SOL    HW230633   4.242   4.585  16.608  0.3293 -0.4795  0.2526
 6334SOL     OW30634   4.463   3.162   2.365  0.0290  0.2900 -0.4313
 6334SOL    HW130635   4.389   3.163   2.425  0.2245 -1.2152 -0.1515
 6334SOL    HW230636   4.416   3.185   2.285 -0.7942 -2.1895 -0.6472
 6335SOL     OW30637   0.294   2.391   3.948 -0.5619  0.1268  0.5818
 6335SOL    HW130638   0.224   2.404   4.012  1.0074  0.1868  2.2837
 6335SOL    HW230639   0.351   2.468   3.958 -0.7773  0.1310  1.8447
 6336SOL     OW30640   1.862   4.510   5.728  0.3516 -0.2085 -0.4282
 6336SOL    HW130641   1.934   4.525   5.789  0.8628  0.2419 -1.1461
 6336SOL    HW230642   1.798   4.473   5.789 -0.0395 -1.6300 -1.7007
 6337SOL     OW30643   0.902   0.906   6.781  0.1542  0.2529 -0.3491
 6337SOL    HW130644   0.970   0.970   6.802  1.0367 -0.6864 -0.2905
 6337SOL    HW230645   0.904   0.904   6.686 -2.2695 -2.2997 -0.3401
 6338SOL     OW30646   2.338   4.437   4.136  0.1828 -0.0536  0.1910
 6338SOL    HW130647   2.415   4.405   4.088  0.0387  1.6650 -1.2080
 6338SOL    HW230648   2.329   4.365   4.198  2.1620 -0.1282  0.3851
 6339SOL     OW30649   3.358   4.345   9.021 -0.0548  0.3478  0.4433
 6339SOL    HW130650   3.281   4.325   9.073 -0.4007 -0.1900 -0.2774
 6339SOL    HW230651   3.327   4.361   8.931  0.3822 -0.6471  0.1103
 6340SOL     OW30652   3.460   1.200   5.088  0.6849  0.1066 -0.6833
 6340SOL    HW130653   3.436   1.274   5.032 -0.1361 -0.5694 -1.2268
 6340SOL    HW230654   3.409   1.132   5.043  0.3734  0.7611 -1.3222
 6341SOL     OW30655   2.376   4.264   5.604  0.2277 -0.0185 -0.3665
 6341SOL    HW130656   2.423   4.198   5.655  0.3936  0.6298  0.3306
 6341SOL    HW230657   2.294   4.266   5.654 -0.0644  2.7010 -0.9259
 6342SOL     OW30658   3.723   4.713   2.806  0.3489 -0.1261 -0.3034
 6342SOL    HW130659   3.641   0.014   2.778  0.1010  0.5112  1.3452
 6342SOL    HW230660   3.745   4.652   2.736  1.2395  2.3285 -2.1758
 6343SOL     OW30661   3.845   1.878   7.489 -0.5174  0.4260  0.0305
 6343SOL    HW130662   3.936   1.892   7.464  0.2644 -0.9237  2.0788
 6343SOL    HW230663   3.786   1.915   7.424 -1.8024 -0.9989  0.3834
 6344SOL     OW30664   4.458   2.811   6.092  0.0272 -0.2822 -0.0361
 6344SOL    HW130665   4.539   2.843   6.133 -0.4524  1.4197 -0.4230
 6344SOL    HW230666   4.465   2.836   6.000 -1.9911 -0.0411 -0.1293
 6345SOL     OW30667   3.489   0.322   8.056 -0.0329 -0.0023  0.1946
 6345SOL    HW130668   3.501   0.295   7.965 -2.2552  2.4267 -0.8225
 6345SOL    HW230669   3.530   0.408   8.061 -1.6066  0.7538  0.1167
 6346SOL     OW30670   4.361   1.703   3.104 -0.1323 -0.6158 -0.0708
 6346SOL    HW130671   4.276   1.741   3.125 -0.3862 -1.6590  0.7983
 6346SOL    HW230672   4.337   1.612   3.088 -1.6756 -0.1916 -0.2079
 6347SOL     OW30673   3.986   1.360   6.686 -0.0551  0.1157 -0.3581
 6347SOL    HW130674   3.935   1.286   6.654 -1.7240  1.5060 -0.9153
 6347SOL    HW230675   4.075   1.328   6.697 -0.1164 -0.2835 -1.0944
 6348SOL     OW30676   3.472   2.248  10.156 -0.0725  0.4394  0.5427
 6348SOL    HW130677   3.504   2.336  10.137 -0.9039  0.8126  0.8625
 6348SOL    HW230678   3.419   2.266  10.234  0.1227  0.1884  0.7336
 6349SOL     OW30679   3.837   1.118   2.550 -0.8044  0.0157 -0.0320
 6349SOL    HW130680   3.832   1.023   2.542  1.8086 -0.1971  0.6994
 6349SOL    HW230681   3.781   1.119   2.627  0.3151  2.0016  0.7487
 6350SOL     OW30682   0.797   3.007  10.026 -0.1984 -0.4654  0.1346
 6350SOL    HW130683   0.872   3.053  10.064  0.4193 -0.3966 -1.1730
 6350SOL    HW230684   0.841   2.968   9.950 -1.3709 -0.1790 -0.6967
 6351SOL     OW30685   2.644   0.997  16.008 -0.2412  0.3296 -0.2402
 6351SOL    HW130686   2.603   0.950  15.935  0.2023 -0.3175 -0.0738
 6351SOL    HW230687   2.683   1.068  15.956 -3.2499  2.5889  0.6149
 6352SOL     OW30688   2.138   0.655   5.198  0.2241  0.4355 -0.3479
 6352SOL    HW130689   2.093   0.602   5.263 -0.2383  0.2195 -0.8457
 6352SOL    HW230690   2.111   0.746   5.206  0.6989  0.6873 -1.4661
 6353SOL     OW30691   4.298   1.088   3.484  0.1293  0.5618  0.0391
 6353SOL    HW130692   4.294   1.046   3.398  1.3408  2.2323 -0.8240
 6353SOL    HW230693   4.371   1.042   3.526 -1.8082 -1.6860  0.9425
 6354SOL     OW30694   3.564   3.095   8.855 -0.5190  0.5164  0.4296
 6354SOL    HW130695   3.619   3.109   8.931 -1.9448  0.0036  1.5658
 6354SOL    HW230696   3.552   3.001   8.849  1.8832  0.2658 -0.3859
 6355SOL     OW30697   2.514   2.067   7.888  0.5001  0.1468 -0.2586
 6355SOL    HW130698   2.454   2.003   7.851  0.2012  0.1928  0.1374
 6355SOL    HW230699   2.457   2.092   7.961 -1.1774 -1.7015 -0.9363
 6356SOL     OW30700   3.019   0.088  12.481  0.5355 -0.2185 -0.2489
 6356SOL    HW130701   3.045   0.175  12.510 -0.6745 -0.5554  1.8672
 6356SOL    HW230702   2.948   0.099  12.419  0.0010 -1.2438  0.1820
 6357SOL     OW30703   1.671   0.826   3.094  0.0420  0.2140  0.1515
 6357SOL    HW130704   1.579   0.809   3.113  0.3270  0.1755  1.4480
 6357SOL    HW230705   1.691   0.751   3.037 -1.4815 -0.2187  0.1889
 6358SOL     OW30706   0.290   2.465   1.566 -0.0328 -0.0738  0.0171
 6358SOL    HW130707   0.311   2.374   1.590 -2.0740 -0.8631 -1.1613
 6358SOL    HW230708   0.361   2.489   1.507  1.6974  0.9251  2.5342
 6359SOL     OW30709   4.523   3.803  11.457 -0.2814  0.0486  0.0561
 6359SOL    HW130710   4.604   3.773  11.417 -0.7401  0.7904 -1.4717
 6359SOL    HW230711   4.522   3.773  11.547  0.3817  3.1451  1.1031
 6360SOL     OW30712   1.927   0.125   9.538  0.3461 -0.3281  0.0666
 6360SOL    HW130713   2.010   0.170   9.521  0.5341 -0.4153  0.7301
 6360SOL    HW230714   1.920   0.056   9.473 -1.1535 -0.4674  0.3798
 6361SOL     OW30715   1.256   3.285   6.346  0.5465 -0.1702 -0.3761
 6361SOL    HW130716   1.201   3.343   6.293 -0.9686  0.2291  1.6317
 6361SOL    HW230717   1.193   3.273   6.417  0.4685  2.3995 -0.0096
 6362SOL     OW30718   2.118   3.502   1.862 -0.5583  0.2913 -0.1535
 6362SOL    HW130719   2.157   3.486   1.948 -1.8578  1.9587  0.7386
 6362SOL    HW230720   2.042   3.557   1.880 -1.7803 -1.3866 -0.3258
 6363SOL     OW30721   3.495   1.695   1.305 -0.5881  0.6791 -0.4005
 6363SOL    HW130722   3.517   1.604   1.284  1.4218  1.3542 -1.1645
 6363SOL    HW230723   3.509   1.738   1.221 -2.0780 -0.2621 -1.1302
 6364SOL     OW30724   2.391   1.307   8.918  1.1157 -0.1255 -0.3187
 6364SOL    HW130725   2.392   1.291   8.824  1.3153  3.3547 -0.9178
 6364SOL    HW230726   2.474   1.267   8.945  0.7785 -0.4894  0.1772
 6365SOL     OW30727   0.374   2.148   7.624 -0.2630  1.0566 -0.0567
 6365SOL    HW130728   0.329   2.082   7.572 -2.0733  1.8308  0.5230
 6365SOL    HW230729   0.367   2.227   7.571  0.7344  2.8977  2.5262
 6366SOL     OW30730   1.846   3.093   3.219 -0.1221 -0.7274  0.1632
 6366SOL    HW130731   1.797   3.080   3.138 -1.2034  1.0155  0.5450
 6366SOL    HW230732   1.799   3.174   3.239  2.3890  0.8732 -0.4415
 6367SOL     OW30733   3.053   1.933   3.201  0.3549  0.0489 -0.2288
 6367SOL    HW130734   3.052   1.885   3.118 -0.4489 -0.5495  0.1235
 6367SOL    HW230735   2.969   1.902   3.236 -0.5017  1.9522 -0.5927
 6368SOL     OW30736   3.048   1.242   7.565 -0.0210 -0.9386 -0.3134
 6368SOL    HW130737   2.978   1.183   7.537 -1.5969  0.4640  0.6689
 6368SOL    HW230738   3.090   1.265   7.481  0.5968 -3.8401 -0.7951
 6369SOL     OW30739   3.235   0.380   3.115 -0.2532 -0.1923 -0.0343
 6369SOL    HW130740   3.171   0.445   3.143 -0.0816  0.2766 -0.7292
 6369SOL    HW230741   3.209   0.299   3.159 -0.6709 -0.1240 -0.1568
 6370SOL     OW30742   1.373   4.059   8.775  0.0018  0.3920 -0.2840
 6370SOL    HW130743   1.355   4.104   8.858 -0.9785 -2.5387  1.0542
 6370SOL    HW230744   1.468   4.067   8.790  0.2837  0.6516 -2.1610
 6371SOL     OW30745   2.721   1.103  14.825  0.5781  0.0739 -0.2119
 6371SOL    HW130746   2.789   1.049  14.864  0.7973  0.3987 -0.1393
 6371SOL    HW230747   2.777   1.180  14.809 -0.4580  1.3986  2.6202
 6372SOL     OW30748   3.045   0.870   5.457 -0.0352  0.2502 -0.1977
 6372SOL    HW130749   3.095   0.845   5.535 -1.1896  0.4020  0.5962
 6372SOL    HW230750   3.035   0.780   5.426 -1.8141  0.4554 -0.2221
 6373SOL     OW30751   3.558   1.063   4.188  0.0308 -0.3220  0.3744
 6373SOL    HW130752   3.462   1.056   4.194 -0.0020 -0.6921 -0.5649
 6373SOL    HW230753   3.571   1.151   4.224 -0.1661  0.3683 -1.2364
 6374SOL     OW30754   2.933   1.415   7.186  0.4103  0.6573  0.3819
 6374SOL    HW130755   2.946   1.340   7.128 -1.6716 -0.1458  0.9648
 6374SOL    HW230756   2.897   1.369   7.261  0.7592  1.5346  1.0894
 6375SOL     OW30757   1.889   2.114   5.390 -0.1903 -0.7272  0.2750
 6375SOL    HW130758   1.909   2.194   5.438 -3.1254 -0.6028  1.3215
 6375SOL    HW230759   1.875   2.049   5.460  3.1669  0.2870  1.8689
 6376SOL     OW30760   3.316   0.218   2.465  0.0447 -0.0995 -0.2362
 6376SOL    HW130761   3.389   0.156   2.470  1.0453  0.9519 -1.6785
 6376SOL    HW230762   3.370   0.294   2.489 -0.2536 -0.4493  1.5553
 6377SOL     OW30763   0.425   2.446   6.767  0.1909  0.9280 -0.0832
 6377SOL    HW130764   0.423   2.521   6.827  0.4359  0.5439  0.4024
 6377SOL    HW230765   0.510   2.410   6.794 -1.0894  0.2283  2.9236
 6378SOL     OW30766   4.722   1.681   6.598  0.6611 -0.2306 -0.4344
 6378SOL    HW130767   4.656   1.744   6.629  0.4050 -0.6198 -0.1781
 6378SOL    HW230768   4.719   1.615   6.668  0.3547  1.0042  0.7370
 6379SOL     OW30769   3.280   2.166   8.771  0.0646  0.0616 -0.4332
 6379SOL    HW130770   3.253   2.107   8.841 -0.2276  1.6893  0.8216
 6379SOL    HW230771   3.205   2.225   8.768 -0.1430 -0.2626 -1.9527
 6380SOL     OW30772   2.783   1.818   6.706 -0.7648 -0.7843 -0.2010
 6380SOL    HW130773   2.817   1.751   6.647  2.4093 -1.7793  2.8293
 6380SOL    HW230774   2.859   1.828   6.762 -0.4833  1.0813 -0.9439
 6381SOL     OW30775   2.716   2.369   2.754 -0.0015  1.0468  0.1858
 6381SOL    HW130776   2.625   2.372   2.783 -0.4318 -1.1015 -0.9895
 6381SOL    HW230777   2.755   2.312   2.820 -4.1385  0.1915  1.8717
 6382SOL     OW30778   3.691   4.017   1.261 -0.0981  0.2538  0.0277
 6382SOL    HW130779   3.638   3.938   1.270 -1.0250  0.9919  1.0879
 6382SOL    HW230780   3.731   4.022   1.348  0.1530 -0.0074 -0.0743
 6383SOL     OW30781   3.156   1.350   9.077  0.0670  0.4213  0.5814
 6383SOL    HW130782   3.247   1.376   9.091 -0.0340  0.9901  0.2078
 6383SOL    HW230783   3.167   1.265   9.034 -1.3012 -0.5293  2.1236
 6384SOL     OW30784   3.068   3.726   8.773  0.5603 -0.0277  0.4488
 6384SOL    HW130785   3.062   3.744   8.679 -0.7628 -0.3941  0.4677
 6384SOL    HW230786   2.983   3.691   8.799 -0.2877  1.1571 -0.7152
 6385SOL     OW30787   1.917   4.573   8.927  0.3006 -0.1171 -0.4914
 6385SOL    HW130788   1.915   4.664   8.896 -4.9903 -0.4726 -1.1929
 6385SOL    HW230789   1.884   4.590   9.015 -0.3115  1.2292 -0.9847
 6386SOL     OW30790   0.620   3.635   2.614 -0.2982 -0.0947 -0.1640
 6386SOL    HW130791   0.676   3.616   2.540  1.8539  2.9429  0.6843
 6386SOL    HW230792   0.537   3.597   2.583  0.0084 -1.4192  0.6331
 6387SOL     OW30793   0.042   2.208   2.697  0.4160 -0.1330  0.0868
 6387SOL    HW130794   0.041   2.120   2.734 -0.1205 -0.1298  0.0785
 6387SOL    HW230795   4.723   2.252   2.758  0.6079  1.9574 -1.2383
 6388SOL     OW30796   4.297   3.584   4.262 -0.0807 -0.6489  0.1874
 6388SOL    HW130797   4.288   3.678   4.251  2.2739 -0.3204  0.9715
 6388SOL    HW230798   4.248   3.540   4.193  0.9587 -2.3646  0.5242
 6389SOL     OW30799   0.450   1.444   4.112  0.3662  0.1215 -0.0139
 6389SOL    HW130800   0.409   1.524   4.080 -0.0540 -0.1777 -0.2200
 6389SOL    HW230801   0.536   1.471   4.143  0.4872  0.3141 -0.5243
 6390SOL     OW30802   1.156   3.670   1.724 -0.1038  0.3767 -0.0521
 6390SOL    HW130803   1.176   3.631   1.808 -0.2375  0.6735  0.1172
 6390SOL    HW230804   1.153   3.587   1.675  1.1299  0.1725  0.2162
 6391SOL     OW30805   1.969   0.522   5.418  0.1616  0.2241  0.0984
 6391SOL    HW130806   1.925   0.604   5.395 -0.4841 -0.4431 -1.0255
 6391SOL    HW230807   1.978   0.522   5.513  2.9937 -0.5955 -0.1614
 6392SOL     OW30808   1.234   3.440   6.838  0.0745 -0.4213  0.4997
 6392SOL    HW130809   1.309   3.387   6.864 -0.1999 -0.1390  1.8480
 6392SOL    HW230810   1.275   3.501   6.777  0.9536 -3.3604 -1.8499
 6393SOL     OW30811   1.537   3.055  12.752  0.8103  0.9881 -0.2386
 6393SOL    HW130812   1.560   2.962  12.745  1.0913  1.0231  0.1982
 6393SOL    HW230813   1.446   3.062  12.726  0.6959 -0.0293 -0.0947
 6394SOL     OW30814   1.062   3.402   9.364 -0.2845 -0.3138  0.0933
 6394SOL    HW130815   1.003   3.381   9.291  1.0585 -1.4930 -0.6356
 6394SOL    HW230816   1.125   3.336   9.335 -0.3369  0.1324 -1.0430
 6395SOL     OW30817   2.272   4.083  17.326  0.1235 -0.0179 -0.3698
 6395SOL    HW130818   2.262   4.173  17.296  0.4245  0.4137  0.8670
 6395SOL    HW230819   2.246   4.089  17.418  2.0111  0.5561  0.1251
 6396SOL     OW30820   3.831   0.619  12.407  0.1903 -0.0849 -0.3760
 6396SOL    HW130821   3.856   0.644  12.496 -0.6877  1.6281 -0.6125
 6396SOL    HW230822   3.877   0.683  12.353 -0.4575 -0.9532 -1.9668
 6397SOL     OW30823   3.924   1.377   9.376  0.0134  0.2607 -0.2466
 6397SOL    HW130824   3.924   1.317   9.301  2.3119 -0.8073  0.6012
 6397SOL    HW230825   3.912   1.317   9.449 -0.4603  0.7872  0.1004
 6398SOL     OW30826   0.297   4.450   4.042  0.7897 -0.2003  0.4553
 6398SOL    HW130827   0.260   4.435   3.955  0.2232  0.9586  0.4981
 6398SOL    HW230828   0.223   4.420   4.095 -0.2261  1.9975  0.2905
 6399SOL     OW30829   1.222   3.666   8.493  0.1250  0.5945  0.7860
 6399SOL    HW130830   1.156   3.607   8.456 -0.7540  1.2491  1.3252
 6399SOL    HW230831   1.278   3.607   8.544  1.3744  1.8505  0.8657
 6400SOL     OW30832   1.897   4.545   2.893 -0.0861 -0.1194  0.2382
 6400SOL    HW130833   1.847   4.562   2.973 -0.5704 -0.4621  0.0154
 6400SOL    HW230834   1.819   4.541   2.837 -0.9140  1.7827  1.2756
 6401SOL     OW30835   0.334   2.458   4.750 -0.2872  0.3758  0.1671
 6401SOL    HW130836   0.358   2.394   4.817 -2.4116 -2.6559 -1.9666
 6401SOL    HW230837   0.404   2.523   4.758  0.8115 -0.9386  1.0515
 6402SOL     OW30838   0.711   2.656   8.184 -0.4221  0.5673 -0.2011
 6402SOL    HW130839   0.714   2.748   8.161  1.4272  0.0692 -1.9639
 6402SOL    HW230840   0.800   2.634   8.212 -0.5576 -0.5329 -0.6270
 6403SOL     OW30841   0.290   1.022   4.119 -0.0909  1.0250 -0.6564
 6403SOL    HW130842   0.203   1.033   4.079 -0.1498  1.1715 -0.4850
 6403SOL    HW230843   0.263   0.966   4.192  1.3914 -0.5084 -1.3035
 6404SOL     OW30844   2.632   2.106   4.482  0.3413  0.5704  0.0275
 6404SOL    HW130845   2.582   2.025   4.493 -0.4346  0.8963 -1.0602
 6404SOL    HW230846   2.703   2.081   4.423  0.5040 -3.1380  1.7841
 6405SOL     OW30847   2.071   4.261  16.941  0.1118 -0.0624 -0.4574
 6405SOL    HW130848   2.100   4.294  16.856 -1.0095  1.4185 -0.2635
 6405SOL    HW230849   1.980   4.288  16.946  0.4480  0.9869  0.0878
 6406SOL     OW30850   3.600   0.655  15.699 -0.2665 -0.3361  0.0996
 6406SOL    HW130851   3.603   0.745  15.667  0.2567 -0.0819  0.8528
 6406SOL    HW230852   3.657   0.617  15.631 -0.9112 -1.4484  0.1761
 6407SOL     OW30853   0.982   2.514   4.056 -0.1613  0.1999  0.0471
 6407SOL    HW130854   0.999   2.594   4.005 -0.2642 -0.1918 -0.5999
 6407SOL    HW230855   1.014   2.453   3.990 -1.5613  0.7306 -1.1147
 6408SOL     OW30856   3.236   0.088  13.370 -0.8049 -0.4290 -0.0953
 6408SOL    HW130857   3.274   0.173  13.389  0.1205 -0.8367 -0.1144
 6408SOL    HW230858   3.308   0.025  13.366 -0.2161  0.3002 -0.9553
 6409SOL     OW30859   3.900   3.815   3.013 -0.0291 -0.0994  0.3825
 6409SOL    HW130860   3.882   3.745   3.076  2.2330 -0.5537  0.5517
 6409SOL    HW230861   3.873   3.892   3.062 -1.5344 -0.2312 -0.2566
 6410SOL     OW30862   2.434   4.206  14.576  0.2532  0.4648 -0.2934
 6410SOL    HW130863   2.391   4.274  14.627  0.3420  0.1023  0.2724
 6410SOL    HW230864   2.432   4.238  14.486  1.5610  2.6366  0.4679
 6411SOL     OW30865   1.048   3.779   3.727 -0.1019 -0.1199  0.2337
 6411SOL    HW130866   0.978   3.729   3.686  0.8833 -1.6383  0.4166
 6411SOL    HW230867   0.991   3.840   3.773 -1.0341 -0.7153 -0.1406
 6412SOL     OW30868   2.746   0.954   7.605  0.4489  0.6787 -0.6799
 6412SOL    HW130869   2.706   0.932   7.521 -1.9303  1.2268  0.2992
 6412SOL    HW230870   2.693   0.896   7.660 -0.8742 -0.4071 -3.1002
 6413SOL     OW30871   1.692   2.297   3.447  0.2397  0.9151 -0.8346
 6413SOL    HW130872   1.619   2.237   3.462 -1.3468  2.8824 -0.6574
 6413SOL    HW230873   1.670   2.332   3.361  0.4137  2.7049 -0.1480
 6414SOL     OW30874   2.284   2.798   8.717  0.3253 -0.2565 -0.4525
 6414SOL    HW130875   2.326   2.838   8.642  0.1923 -1.6308 -1.2633
 6414SOL    HW230876   2.356   2.814   8.777 -1.0759 -1.2514  1.5137
 6415SOL     OW30877   3.264   0.569  16.048 -0.2076 -0.1423 -0.1978
 6415SOL    HW130878   3.172   0.593  16.052 -0.7536 -2.0632 -1.3810
 6415SOL    HW230879   3.293   0.582  15.958  0.5706 -1.2446 -0.1089
 6416SOL     OW30880   3.895   0.836   2.783  0.2854 -0.0132  0.2495
 6416SOL    HW130881   3.918   0.745   2.803 -0.7252 -0.3126  0.0281
 6416SOL    HW230882   3.818   0.824   2.729  1.9708 -0.1135 -2.1406
 6417SOL     OW30883   1.486   2.039  16.576  0.1511  0.2748 -0.2770
 6417SOL    HW130884   1.573   2.080  16.578  1.6069 -2.7876 -1.3053
 6417SOL    HW230885   1.502   1.957  16.530 -0.3131  0.1236 -0.1597
 6418SOL     OW30886   3.444   2.676  14.887 -1.0157  0.1888  0.2678
 6418SOL    HW130887   3.513   2.714  14.832 -3.3862  1.6290 -1.7475
 6418SOL    HW230888   3.368   2.732  14.872 -2.8827 -2.3699  0.1756
 6419SOL     OW30889   3.060   3.067   5.658 -0.3257 -0.4524  0.8698
 6419SOL    HW130890   2.994   3.135   5.642  0.1974 -0.2819 -0.6257
 6419SOL    HW230891   3.118   3.114   5.718  0.7226 -1.4504  0.6411
 6420SOL     OW30892   3.922   1.742   2.868 -0.3235 -0.4753  0.0696
 6420SOL    HW130893   3.829   1.741   2.892 -0.1734 -2.3047  0.5807
 6420SOL    HW230894   3.916   1.747   2.773  1.0274  1.1833  0.0767
 6421SOL     OW30895   2.064   1.510   9.906 -0.0518 -0.3205 -0.4553
 6421SOL    HW130896   2.152   1.534   9.879 -0.0345 -1.4587 -1.4458
 6421SOL    HW230897   2.031   1.580   9.961  0.0662  0.1383 -0.9724
 6422SOL     OW30898   1.422   3.894  12.313  0.2529  0.2438  0.8030
 6422SOL    HW130899   1.444   3.887  12.220  2.9417 -1.8344  1.5723
 6422SOL    HW230900   1.411   3.805  12.348  0.6732  0.6000  1.8340
 6423SOL     OW30901   2.741   3.054   4.449  0.6762 -0.1457 -0.5166
 6423SOL    HW130902   2.805   3.086   4.513  0.3451  0.6197 -0.5644
 6423SOL    HW230903   2.797   3.022   4.378  1.5427 -0.9172  0.5159
 6424SOL     OW30904   2.375   3.810  15.652  0.0746 -0.1014 -0.0952
 6424SOL    HW130905   2.415   3.726  15.631 -0.1874 -0.0449 -0.8328
 6424SOL    HW230906   2.445   3.867  15.620 -0.9496  2.0213  1.4085
 6425SOL     OW30907   1.764   4.669  14.886 -0.5907  0.3213 -0.2395
 6425SOL    HW130908   1.679   4.710  14.872 -2.0479 -2.0036  1.7333
 6425SOL    HW230909   1.775   4.672  14.981  1.2068  0.9088 -0.4647
 6426SOL     OW30910   0.758   2.701   2.965 -0.2985  0.5738  0.4558
 6426SOL    HW130911   0.743   2.623   2.911 -0.2907 -0.0841  1.3896
 6426SOL    HW230912   0.676   2.748   2.949 -0.1648  1.3673  2.1254
 6427SOL     OW30913   3.290   3.246  13.421  0.4258  0.2735 -0.1163
 6427SOL    HW130914   3.371   3.247  13.471 -0.7721 -1.1946  1.8817
 6427SOL    HW230915   3.227   3.242  13.493 -1.4578 -2.1761 -1.8586
 6428SOL     OW30916   2.997   1.801  14.718  0.0213 -0.4342  0.0180
 6428SOL    HW130917   3.072   1.763  14.671  1.3029  0.7744  1.0769
 6428SOL    HW230918   3.004   1.891  14.687  1.4847  0.6302  3.4459
 6429SOL     OW30919   4.558   2.479  17.724  0.1833  0.1930 -0.2671
 6429SOL    HW130920   4.558   2.558  17.670 -2.4781  1.5898  1.8081
 6429SOL    HW230921   4.632   2.485   0.030  0.5526  0.6047 -0.7478
 6430SOL     OW30922   0.131   0.960  10.126  0.2494 -0.4956 -0.4418
 6430SOL    HW130923   0.079   0.913  10.062 -2.3946 -0.6024  1.7888
 6430SOL    HW230924   0.096   0.936  10.212 -0.3715  1.8981 -0.0092
 6431SOL     OW30925   3.051   1.756   6.853  0.1540  0.2512 -0.1089
 6431SOL    HW130926   3.037   1.679   6.798  0.2691  0.1389  0.0223
 6431SOL    HW230927   2.994   1.732   6.926  2.4397  2.0275  2.2434
 6432SOL     OW30928   1.034   0.948   5.203 -0.5892  0.2871 -0.0556
 6432SOL    HW130929   1.121   0.951   5.165  0.1236  2.0061  1.7002
 6432SOL    HW230930   0.990   0.887   5.143  0.6328  1.4243 -2.0832
 6433SOL     OW30931   3.725   4.005   3.888  0.2906  0.4438  0.2455
 6433SOL    HW130932   3.788   4.051   3.944  1.4044  0.9339 -1.4081
 6433SOL    HW230933   3.776   3.965   3.818 -3.5210 -0.5265 -1.9564
 6434SOL     OW30934   3.671   2.038   5.482 -0.0542 -0.1266  0.1467
 6434SOL    HW130935   3.581   2.015   5.505  1.1587 -1.8990  3.1655
 6434SOL    HW230936   3.704   1.976   5.547  1.3668 -0.2588 -0.6929
 6435SOL     OW30937   4.567   3.626   1.294 -0.3202 -0.3583 -0.1369
 6435SOL    HW130938   4.492   3.640   1.236 -0.0644  1.7754  0.0259
 6435SOL    HW230939   4.529   3.630   1.381 -0.7036  3.2959 -0.4488
 6436SOL     OW30940   2.566   3.428  10.429  0.1529 -1.1569  0.5545
 6436SOL    HW130941   2.528   3.514  10.447  4.2680  1.1009 -1.8176
 6436SOL    HW230942   2.642   3.439  10.372 -0.1047 -0.0332  0.4233
 6437SOL     OW30943   3.294   1.016   4.987  0.0621 -0.2819 -0.6726
 6437SOL    HW130944   3.375   0.969   5.006  0.2296  0.0364 -0.5809
 6437SOL    HW230945   3.243   0.993   5.065  0.7843  0.4369  0.0158
 6438SOL     OW30946   4.271   0.514   2.033  0.0133 -0.1661  0.2031
 6438SOL    HW130947   4.364   0.510   2.055  0.0837 -2.2370 -0.5138
 6438SOL    HW230948   4.253   0.443   1.972  1.4367 -1.6671  1.5450
 6439SOL     OW30949   0.996   4.171  11.566 -0.2323  0.1936  0.0040
 6439SOL    HW130950   0.920   4.163  11.623 -0.2830 -2.2188 -0.3689
 6439SOL    HW230951   1.029   4.259  11.584 -1.9696  1.3534 -2.4501
 6440SOL     OW30952   4.689   0.547   8.096 -0.2082  0.0280 -0.1905
 6440SOL    HW130953   4.705   0.469   8.042 -2.0882 -0.1631 -0.4830
 6440SOL    HW230954   4.732   0.522   8.178 -0.9203  0.3443  0.2718
 6441SOL     OW30955   3.671   3.065   2.263  0.5919 -0.6787  0.2388
 6441SOL    HW130956   3.617   3.101   2.193  0.5890  1.5119  1.4032
 6441SOL    HW230957   3.751   3.046   2.213  0.4539  3.7949 -1.6961
 6442SOL     OW30958   3.541   3.071   7.763  0.3582  0.0739  0.1914
 6442SOL    HW130959   3.513   3.099   7.850  1.8299  0.9363  0.3950
 6442SOL    HW230960   3.463   3.081   7.708  0.2553 -0.5738  0.2144
 6443SOL     OW30961   4.631   3.635  15.026  0.4638 -0.0701  0.2325
 6443SOL    HW130962   4.639   3.609  15.118 -1.8809  0.0437  0.4711
 6443SOL    HW230963   4.707   3.693  15.016 -0.7093  1.4712  0.2576
 6444SOL     OW30964   2.686   2.764   0.628  0.0621  0.4344 -0.1011
 6444SOL    HW130965   2.605   2.777   0.678  0.6412  1.2970  0.6004
 6444SOL    HW230966   2.715   2.677   0.656 -0.4993 -0.5203 -2.5359
 6445SOL     OW30967   0.111   1.884   1.882  0.8744  0.5811  0.0117
 6445SOL    HW130968   0.181   1.820   1.897 -1.2989 -1.8064  0.1137
 6445SOL    HW230969   0.094   1.910   1.973  0.1967  1.1801 -0.2924
 6446SOL     OW30970   3.391   4.524   2.391 -0.2565 -0.0930  0.0491
 6446SOL    HW130971   3.313   4.474   2.412  0.2285 -0.0001  2.0668
 6446SOL    HW230972   3.460   4.458   2.398 -1.5018 -1.4660 -0.7046
 6447SOL     OW30973   0.389   2.751   1.323  0.4125  0.0587  0.0372
 6447SOL    HW130974   0.453   2.680   1.321 -0.7895 -1.0112 -1.1908
 6447SOL    HW230975   0.327   2.728   1.254  0.9337  0.5225 -0.5772
 6448SOL     OW30976   2.385   3.765   4.602  0.0908  0.1100 -0.3846
 6448SOL    HW130977   2.377   3.778   4.696 -1.8425  2.5961 -0.9035
 6448SOL    HW230978   2.370   3.670   4.602  0.0578  0.1163  0.6365
 6449SOL     OW30979   3.634   4.636  12.925  0.0290  0.1404  0.6063
 6449SOL    HW130980   3.542   4.617  12.940 -0.1561 -0.6776 -1.4956
 6449SOL    HW230981   3.648   4.556  12.874 -0.6517  0.9696 -0.8735
 6450SOL     OW30982   2.130   2.576  13.760 -0.1558 -0.0480  0.6764
 6450SOL    HW130983   2.147   2.482  13.752 -2.5987  0.0032 -4.7279
 6450SOL    HW230984   2.211   2.624  13.748 -1.1358  1.1649 -1.0753
 6451SOL     OW30985   2.066   1.815  16.552  0.0256 -0.9300  0.5415
 6451SOL    HW130986   2.059   1.817  16.457  0.7179  1.6497  0.5292
 6451SOL    HW230987   1.975   1.832  16.574 -0.0694 -1.1780  0.3358
 6452SOL     OW30988   4.268   2.922  12.886  0.6175  0.8356  0.1703
 6452SOL    HW130989   4.280   2.838  12.930 -1.1079  0.3018 -0.3444
 6452SOL    HW230990   4.290   2.906  12.794 -0.9877  0.2550 -0.1320
 6453SOL     OW30991   4.103   4.716  14.486  0.1027 -0.5573  0.0945
 6453SOL    HW130992   4.127   0.035  14.414  0.3376  0.9360  1.3925
 6453SOL    HW230993   4.073   0.044  14.547  0.4374 -0.6128  0.3227
 6454SOL     OW30994   2.219   1.627   6.543  0.1707 -0.3033 -0.1134
 6454SOL    HW130995   2.188   1.713   6.513  0.4470  0.2174  1.0626
 6454SOL    HW230996   2.264   1.655   6.623 -0.8791  1.1068 -0.0027
 6455SOL     OW30997   4.237   0.353   9.353  0.0028 -0.3686 -0.5788
 6455SOL    HW130998   4.201   0.267   9.377 -2.7814  0.7607 -0.7344
 6455SOL    HW230999   4.326   0.327   9.375  0.6515 -0.2121 -2.9690
 6456SOL     OW31000   3.107   1.784   8.539 -0.4642 -0.1508 -0.6460
 6456SOL    HW131001   3.082   1.791   8.631  1.4351 -0.9349 -0.0732
 6456SOL    HW231002   3.176   1.850   8.530 -1.6011  0.9013 -1.6723
 6457SOL     OW31003   2.459   4.058   6.720  0.2127 -0.3782 -0.0370
 6457SOL    HW131004   2.421   4.099   6.797 -0.8030 -1.2153 -0.0883
 6457SOL    HW231005   2.552   4.064   6.742  0.3216  0.1372 -0.6374
 6458SOL     OW31006   2.191   1.645   7.448  0.1434 -0.1479  0.9232
 6458SOL    HW131007   2.172   1.654   7.355  0.8421 -0.8813  0.7033
 6458SOL    HW231008   2.130   1.573   7.463  0.7026 -0.2444  2.7506
 6459SOL     OW31009   3.600   4.021   8.159 -0.1136  0.5437  0.5475
 6459SOL    HW131010   3.650   4.062   8.088 -0.2771  0.0431  0.1497
 6459SOL    HW231011   3.602   3.929   8.135  2.1295  0.9615 -0.8644
 6460SOL     OW31012   1.994   1.203   7.148  0.0259 -0.7069  0.2045
 6460SOL    HW131013   2.038   1.185   7.231 -1.4774 -1.7852  0.7540
 6460SOL    HW231014   2.001   1.113   7.116  0.1036  0.4445 -3.0278
 6461SOL     OW31015   4.034   3.055   7.069 -0.1393  0.1989 -0.0573
 6461SOL    HW131016   4.113   3.064   7.122 -0.1603 -1.9679  0.3538
 6461SOL    HW231017   3.978   3.046   7.146  1.2093 -0.7076  0.8333
 6462SOL     OW31018   2.172   3.006   6.436  0.1560 -0.1099 -0.1268
 6462SOL    HW131019   2.135   2.969   6.356 -0.0270  0.3868 -0.2745
 6462SOL    HW231020   2.122   3.088   6.444  1.4202  0.5218  1.3777
 6463SOL     OW31021   0.395   4.552  15.430  0.4860 -0.4029  0.0088
 6463SOL    HW131022   0.409   4.629  15.375 -0.4743  0.3010  0.7584
 6463SOL    HW231023   0.302   4.538  15.415  0.2130 -0.1481  1.5044
 6464SOL     OW31024   4.446   1.699   8.165  0.1360 -0.7261 -0.2958
 6464SOL    HW131025   4.542   1.695   8.160  0.2531  2.5581 -1.0315
 6464SOL    HW231026   4.428   1.786   8.128 -1.4067  0.9930  4.5457
 6465SOL     OW31027   1.385   0.615   2.040  0.0706  0.8575 -0.2923
 6465SOL    HW131028   1.426   0.599   1.955  1.7111 -2.0982  1.0516
 6465SOL    HW231029   1.395   0.524   2.068  1.3293  0.7829 -0.9795
 6466SOL     OW31030   3.168   0.064   6.520  0.0152  0.6478 -0.2443
 6466SOL    HW131031   3.174   4.731   6.457 -0.5212  1.8882 -1.7261
 6466SOL    HW231032   3.090   0.104   6.480 -1.2813 -1.1022  0.5275
 6467SOL     OW31033   0.510   3.687  16.553 -0.0361  0.3714  0.1110
 6467SOL    HW131034   0.527   3.657  16.464  2.0601 -0.8590  0.9212
 6467SOL    HW231035   0.440   3.748  16.532 -0.8706 -0.5916  0.0939
 6468SOL     OW31036   1.595   1.326   6.224 -0.0975 -0.0888 -0.3968
 6468SOL    HW131037   1.521   1.308   6.167 -1.8846  2.9576  0.9210
 6468SOL    HW231038   1.652   1.372   6.163 -0.3444  1.6270  0.6557
 6469SOL     OW31039   2.987   2.813   0.276 -0.2374  0.3933  0.6116
 6469SOL    HW131040   2.946   2.785   0.194  0.5197 -0.1387  0.4221
 6469SOL    HW231041   3.018   2.733   0.318  0.8231  0.3372 -0.2873
 6470SOL     OW31042   1.895   1.456   7.113  0.9223 -0.3476  0.1660
 6470SOL    HW131043   1.938   1.372   7.123  0.8197 -0.4890 -0.5479
 6470SOL    HW231044   1.878   1.488   7.202  0.4296 -1.2191  0.3765
 6471SOL     OW31045   2.161   4.199   3.978  0.4361  0.3788  0.0129
 6471SOL    HW131046   2.158   4.292   4.001  0.0540  0.4702 -0.4043
 6471SOL    HW231047   2.255   4.184   3.965  0.3714 -2.2135  2.8339
 6472SOL     OW31048   4.371   1.939   8.069  0.5513 -0.3394 -0.0146
 6472SOL    HW131049   4.399   1.996   8.141  0.2310 -1.0047  0.6393
 6472SOL    HW231050   4.278   1.957   8.053  0.9486  1.7891  0.0527
 6473SOL     OW31051   3.876   3.998  13.299  0.0644 -0.7018 -0.1204
 6473SOL    HW131052   3.934   3.963  13.230 -0.1352  2.2630 -1.7724
 6473SOL    HW231053   3.929   4.065  13.341 -0.7687  0.4575 -0.9493
 6474SOL     OW31054   1.349   2.460   7.729  0.6318 -0.1027 -0.1719
 6474SOL    HW131055   1.254   2.464   7.713  0.6546  1.1329 -0.0046
 6474SOL    HW231056   1.380   2.537   7.681  0.2462 -0.2311 -0.6274
 6475SOL     OW31057   3.800   1.620  11.173 -0.1556  0.4091 -0.2115
 6475SOL    HW131058   3.711   1.633  11.141 -0.7192  1.5128  1.7617
 6475SOL    HW231059   3.841   1.692  11.126 -0.8392 -0.3876 -2.0126
 6476SOL     OW31060   3.030   4.480   5.180 -0.3324  0.3566  0.2051
 6476SOL    HW131061   2.969   4.532   5.128  0.7657  0.5661 -0.8837
 6476SOL    HW231062   2.971   4.406   5.189 -0.3168  0.4618  1.2005
 6477SOL     OW31063   1.990   3.363   4.306 -0.4423 -0.3445  0.3640
 6477SOL    HW131064   1.905   3.350   4.263 -0.0723 -1.7437  0.0732
 6477SOL    HW231065   1.989   3.278   4.350  1.3178 -1.3686 -1.5737
 6478SOL     OW31066   4.330   0.778   8.845  0.1561  0.1438  0.7067
 6478SOL    HW131067   4.261   0.780   8.779  1.2568 -2.9701 -0.5427
 6478SOL    HW231068   4.348   0.684   8.853 -0.4213  0.0135  0.4249
 6479SOL     OW31069   3.266   0.563   6.334 -0.5243 -0.3127  0.2785
 6479SOL    HW131070   3.232   0.628   6.273  0.8709  0.1074 -0.0544
 6479SOL    HW231071   3.208   0.489   6.314 -2.1300  0.7927  0.8790
 6480SOL     OW31072   1.298   2.269   7.283  0.1346  0.2017 -0.3204
 6480SOL    HW131073   1.339   2.284   7.368 -0.7818 -1.6209  0.4435
 6480SOL    HW231074   1.321   2.178   7.263  1.7013  0.7994 -1.2750
 6481SOL     OW31075   0.849   3.270   3.641 -0.6786 -0.1551  0.2714
 6481SOL    HW131076   0.828   3.210   3.569  1.4208  0.8813 -1.2129
 6481SOL    HW231077   0.804   3.238   3.720  0.6354  2.0281  1.9008
 6482SOL     OW31078   0.271   3.188   5.474 -0.4247  0.3854 -0.2356
 6482SOL    HW131079   0.183   3.152   5.465  0.0459 -0.3003 -2.0341
 6482SOL    HW231080   0.273   3.242   5.395 -0.6021 -0.3179 -0.7219
 6483SOL     OW31081   3.555   0.305   1.161 -0.5244 -0.4897 -0.5798
 6483SOL    HW131082   3.633   0.354   1.136  0.9803 -2.2950  0.5320
 6483SOL    HW231083   3.522   0.287   1.073 -0.0022 -0.2375 -0.8262
 6484SOL     OW31084   1.891   4.280   4.429  0.5549 -0.3971  0.1437
 6484SOL    HW131085   1.815   4.334   4.408  1.4991  0.5406 -0.8199
 6484SOL    HW231086   1.963   4.343   4.430  1.2661 -1.1822 -1.7157
 6485SOL     OW31087   4.464   0.277  15.667  0.1745 -0.2905  0.0360
 6485SOL    HW131088   4.553   0.248  15.645  0.3660  1.4919 -1.5451
 6485SOL    HW231089   4.470   0.254  15.760  0.0564  2.8442  0.8070
 6486SOL     OW31090   0.625   0.390   5.476  0.2259 -0.2029  0.4195
 6486SOL    HW131091   0.707   0.342   5.469  0.8859  1.0028 -0.2315
 6486SOL    HW231092   0.661   0.479   5.473 -0.8736  0.2765  1.1885
 6487SOL     OW31093   2.539   4.471   5.977 -0.2792 -0.5304 -0.2406
 6487SOL    HW131094   2.571   4.559   5.993  1.5269 -1.0682 -0.9360
 6487SOL    HW231095   2.543   4.435   6.065 -0.0663  1.5913  0.5970
 6488SOL     OW31096   3.636   2.553   2.765  1.0095 -0.6110 -0.3049
 6488SOL    HW131097   3.647   2.529   2.673  0.4417  0.0637 -0.5479
 6488SOL    HW231098   3.585   2.632   2.748 -1.5656 -2.3320 -0.5705
 6489SOL     OW31099   0.527   3.876   4.544 -0.2081  0.2648  0.0433
 6489SOL    HW131100   0.545   3.939   4.613  1.0821 -1.3163  1.1467
 6489SOL    HW231101   0.465   3.816   4.586  2.5892 -2.0405  0.8665
 6490SOL     OW31102   0.816   4.135   4.745  0.7172 -0.0306  0.2709
 6490SOL    HW131103   0.726   4.106   4.731  1.0413 -0.5971 -0.6292
 6490SOL    HW231104   0.812   4.229   4.759 -2.0307  0.0656 -1.0807
 6491SOL     OW31105   3.861   2.699   7.439  0.3009  0.0150 -0.1724
 6491SOL    HW131106   3.923   2.626   7.445 -0.1054 -0.0836  2.9858
 6491SOL    HW231107   3.891   2.761   7.506 -0.7709  0.0623  0.2673
 6492SOL     OW31108   0.720   4.538  11.611 -0.0927  0.3569  0.2266
 6492SOL    HW131109   0.752   4.605  11.671 -0.8403  1.0664 -0.1659
 6492SOL    HW231110   0.675   4.484  11.676 -0.0065  0.0161  0.0008
 6493SOL     OW31111   2.431   3.310   2.769  0.1643  0.4687  0.0109
 6493SOL    HW131112   2.376   3.274   2.700  0.0927  2.3203 -0.8863
 6493SOL    HW231113   2.463   3.233   2.817  0.5394 -1.5850 -3.5258
 6494SOL     OW31114   2.815   0.618   8.704 -0.0992  0.4367 -0.5832
 6494SOL    HW131115   2.833   0.525   8.719 -0.7925  0.1320 -1.6309
 6494SOL    HW231116   2.905   0.648   8.699 -0.1369  0.5848 -0.3871
 6495SOL     OW31117   3.275   1.244   4.588 -0.5384  0.1829  0.6096
 6495SOL    HW131118   3.370   1.233   4.582 -0.2971  3.5522 -1.2877
 6495SOL    HW231119   3.269   1.336   4.561 -0.1907  0.2084  0.6121
 6496SOL     OW31120   4.443   3.062   0.752  0.9714 -0.1512  0.0570
 6496SOL    HW131121   4.367   3.009   0.727  0.6768  1.3855 -2.3232
 6496SOL    HW231122   4.503   2.988   0.759 -0.7686 -1.3470  2.1566
 6497SOL     OW31123   4.250   3.896   9.601  0.3057  0.5581 -0.0508
 6497SOL    HW131124   4.303   3.925   9.526 -2.5260  1.9803 -1.5275
 6497SOL    HW231125   4.318   3.902   9.667  0.2592 -0.2403  0.0669
 6498SOL     OW31126   4.650   1.073  15.190 -0.2677  0.4370  0.1997
 6498SOL    HW131127   4.679   0.983  15.175 -0.2224  0.6868 -1.2386
 6498SOL    HW231128   4.738   1.112  15.198  0.1326 -0.6788  1.2231
 6499SOL     OW31129   4.301   3.320   6.174 -0.6520 -0.2732 -0.1578
 6499SOL    HW131130   4.219   3.369   6.187 -0.0991  0.3497  1.0006
 6499SOL    HW231131   4.339   3.325   6.262  0.0308 -0.8403 -0.4241
 6500SOL     OW31132   4.006   3.495   6.629  0.1729 -0.0503  0.4937
 6500SOL    HW131133   4.025   3.491   6.723 -2.1754 -1.4148  0.8961
 6500SOL    HW231134   3.913   3.474   6.628  0.2173 -0.1953 -0.1242
 6501SOL     OW31135   3.134   3.820   4.978  1.1335  0.5071  0.0690
 6501SOL    HW131136   3.054   3.814   4.926  0.1819 -1.6179  1.8047
 6501SOL    HW231137   3.190   3.758   4.932  0.1625 -0.3417  0.0315
 6502SOL     OW31138   0.335   1.491  10.220  0.4917  0.2177 -0.0172
 6502SOL    HW131139   0.325   1.399  10.196 -0.2330  0.2164  0.3004
 6502SOL    HW231140   0.381   1.487  10.304  0.6449 -1.2702 -0.1586
 6503SOL     OW31141   3.751   2.192   0.245  0.1107  0.0331 -0.2319
 6503SOL    HW131142   3.820   2.248   0.210  1.4247  0.5472  3.1610
 6503SOL    HW231143   3.730   2.252   0.317 -0.0697 -1.0249  0.5986
 6504SOL     OW31144   2.917   4.170  12.041  0.5917 -0.3942 -0.1011
 6504SOL    HW131145   2.959   4.130  12.116  1.9388  0.3141 -0.4839
 6504SOL    HW231146   2.944   4.105  11.976 -1.2658 -1.2596 -0.0043
 6505SOL     OW31147   3.843   3.040   5.553 -0.4935 -0.3884  0.3251
 6505SOL    HW131148   3.880   3.063   5.638  1.1945  0.6398 -0.7056
 6505SOL    HW231149   3.920   3.066   5.503 -1.0692  1.6837  0.5223
 6506SOL     OW31150   1.839   2.840  14.523 -0.1483  0.0934 -0.5496
 6506SOL    HW131151   1.783   2.835  14.601  0.6039 -0.2533 -0.0336
 6506SOL    HW231152   1.845   2.748  14.499  3.9790 -0.2735  1.8445
 6507SOL     OW31153   1.485   3.397   5.979  0.2547 -0.4977 -0.5889
 6507SOL    HW131154   1.477   3.424   5.887 -1.8737 -0.5784 -0.4446
 6507SOL    HW231155   1.479   3.302   5.968 -1.4352 -0.4672 -0.0030
 6508SOL     OW31156   1.339   0.623  14.018 -0.0087  0.0838 -0.0813
 6508SOL    HW131157   1.341   0.713  14.052 -1.3924 -0.6116  1.8162
 6508SOL    HW231158   1.258   0.628  13.968 -0.6388 -1.4202  0.8186
 6509SOL     OW31159   1.175   1.866   5.271 -0.1579 -0.2059 -0.2943
 6509SOL    HW131160   1.095   1.816   5.285  0.1884 -0.8211 -0.5443
 6509SOL    HW231161   1.186   1.846   5.178  0.6090 -0.1042 -0.2289
 6510SOL     OW31162   2.463   0.299   0.301  0.3437 -0.2588 -0.5262
 6510SOL    HW131163   2.492   0.354   0.374  0.7319 -2.6643  1.1352
 6510SOL    HW231164   2.436   0.220   0.347  0.8454  1.1819  2.2567
 6511SOL     OW31165   3.057   0.407   6.183  0.0012 -0.5864 -0.1262
 6511SOL    HW131166   2.981   0.390   6.127 -0.8348 -1.3417  1.2392
 6511SOL    HW231167   3.122   0.362   6.128 -1.0562 -0.5431 -1.4201
 6512SOL     OW31168   0.176   2.571   7.277 -0.0766  0.4428  0.2877
 6512SOL    HW131169   0.254   2.623   7.262  0.8102 -1.1645 -0.7420
 6512SOL    HW231170   0.184   2.551   7.370  1.7410 -0.7341 -0.1209
 6513SOL     OW31171   3.097   3.686   2.896  0.0576  0.1902 -0.2865
 6513SOL    HW131172   3.008   3.652   2.901  1.2758 -2.8723  0.3770
 6513SOL    HW231173   3.137   3.614   2.848  0.2855 -0.0651  0.2788
 6514SOL     OW31174   0.939   0.572  17.055  0.6521 -0.4079 -0.1900
 6514SOL    HW131175   0.845   0.566  17.071  0.5845  0.6390 -0.1895
 6514SOL    HW231176   0.952   0.481  17.026  0.4263 -0.3502 -0.4677
 6515SOL     OW31177   2.392   2.480  15.112 -0.8432  0.3053  0.1074
 6515SOL    HW131178   2.446   2.404  15.091  2.8654  2.4981  1.7180
 6515SOL    HW231179   2.309   2.454  15.072  0.4343 -1.2308 -1.5124
 6516SOL     OW31180   4.629   0.112   2.727 -0.6679  0.2553  0.1179
 6516SOL    HW131181   4.678   0.163   2.792 -0.4339 -2.4487  2.0459
 6516SOL    HW231182   4.643   0.024   2.761 -1.0982  0.4366  0.7694
 6517SOL     OW31183   4.631   0.893   5.742  0.2523 -0.1998 -0.4233
 6517SOL    HW131184   4.607   0.967   5.686 -0.5038 -0.0724  0.0728
 6517SOL    HW231185   4.676   0.936   5.814 -0.8804 -2.5204  1.6605
 6518SOL     OW31186   4.047   4.436   2.406 -0.2366 -0.0525 -0.2151
 6518SOL    HW131187   4.034   4.530   2.418  2.1949  0.4802 -1.6514
 6518SOL    HW231188   4.126   4.440   2.351 -0.0076  3.9705  0.4163
 6519SOL     OW31189   3.903   2.162   9.267  0.0794  0.0534  0.0559
 6519SOL    HW131190   3.891   2.076   9.308  0.1742 -0.0567 -0.1461
 6519SOL    HW231191   3.816   2.164   9.228  0.1484  1.0982 -0.0512
 6520SOL     OW31192   0.610   3.322   3.218 -0.4784 -0.3125 -0.3993
 6520SOL    HW131193   0.554   3.388   3.177 -2.4101 -0.9253  1.2699
 6520SOL    HW231194   0.550   3.249   3.232 -0.0737 -0.4801  0.4795
 6521SOL     OW31195   1.755   2.476   1.724 -0.0018  0.1057 -0.0355
 6521SOL    HW131196   1.737   2.384   1.708  2.9797 -0.2978 -1.0018
 6521SOL    HW231197   1.777   2.482   1.817  2.6596 -2.1509 -0.5329
 6522SOL     OW31198   1.349   2.546   3.149  0.3817  0.4415 -0.2170
 6522SOL    HW131199   1.323   2.638   3.145 -1.8701 -0.2537 -1.6958
 6522SOL    HW231200   1.285   2.497   3.097  0.6834  0.4822 -0.6317
 6523SOL     OW31201   4.494   3.023   3.093 -0.0282 -0.0757  0.1763
 6523SOL    HW131202   4.401   3.007   3.109 -0.2919 -0.5050 -1.8538
 6523SOL    HW231203   4.520   2.932   3.084  4.8309  0.9591  3.4332
 6524SOL     OW31204   4.177   4.164  13.170  0.5979 -0.3862  0.7525
 6524SOL    HW131205   4.099   4.117  13.138  1.3510 -0.8513 -0.4311
 6524SOL    HW231206   4.133   4.224  13.229  2.6542  2.0610 -0.2458
 6525SOL     OW31207   0.154   2.198  13.691 -0.3353  0.0800  0.1369
 6525SOL    HW131208   0.113   2.122  13.733 -1.6580  0.7200  0.0057
 6525SOL    HW231209   0.115   2.182  13.605 -1.8565  2.1494  0.4509
 6526SOL     OW31210   0.022   4.602  14.152 -0.1941 -0.2516 -0.3415
 6526SOL    HW131211   4.694   4.569  14.212  0.7319 -1.1266  0.1984
 6526SOL    HW231212   0.075   4.524  14.139 -1.2423 -1.1745  0.8714
 6527SOL     OW31213   3.648   1.196  10.544 -0.3048 -0.1896 -0.1438
 6527SOL    HW131214   3.615   1.111  10.575  1.7000 -0.1639  1.9950
 6527SOL    HW231215   3.742   1.183  10.557 -0.1456  1.9764  0.7697
 6528SOL     OW31216   1.779   3.816  13.972 -0.0861 -0.4487 -0.1995
 6528SOL    HW131217   1.699   3.783  13.932 -0.5777  0.3250  0.1299
 6528SOL    HW231218   1.798   3.748  14.037  0.4943 -0.5791 -0.5045
 6529SOL     OW31219   3.765   2.029   8.941  0.0987  0.0102 -0.0598
 6529SOL    HW131220   3.820   1.954   8.963  0.1138  0.1373  0.3348
 6529SOL    HW231221   3.823   2.074   8.878 -0.9023  0.8357 -0.3884
 6530SOL     OW31222   4.390   2.507  12.563  0.5524 -0.4274  0.4759
 6530SOL    HW131223   4.376   2.523  12.470 -1.7197 -1.1026  0.6940
 6530SOL    HW231224   4.351   2.420  12.570 -3.5864  1.3896  0.2843
 6531SOL     OW31225   3.478   1.424   5.651  0.8391 -0.3439  0.1193
 6531SOL    HW131226   3.494   1.346   5.704 -0.6569 -0.9973 -0.3938
 6531SOL    HW231227   3.546   1.418   5.584  0.0502  1.4102 -0.8300
 6532SOL     OW31228   2.360   3.511   4.644  0.0984 -0.3165  0.0150
 6532SOL    HW131229   2.312   3.430   4.628  0.7844 -0.2967 -2.0918
 6532SOL    HW231230   2.382   3.511   4.737 -0.3072  0.1160  0.1138
 6533SOL     OW31231   2.343   0.237  15.160  0.3570 -0.4138 -0.7162
 6533SOL    HW131232   2.265   0.193  15.126  0.3281 -0.2482 -0.8652
 6533SOL    HW231233   2.378   0.174  15.223 -1.3425 -1.1536 -0.5064
 6534SOL     OW31234   0.476   0.503   9.474  0.0880  0.1126  0.2347
 6534SOL    HW131235   0.398   0.531   9.427  0.0122 -0.3680  0.0646
 6534SOL    HW231236   0.542   0.548   9.421 -0.0739  2.8370  2.3774
 6535SOL     OW31237   1.461   1.823   9.000  0.0065  0.2059  0.3797
 6535SOL    HW131238   1.369   1.837   8.978 -0.2351  1.1834  1.9991
 6535SOL    HW231239   1.500   1.826   8.913  1.1865 -0.7697  0.8778
 6536SOL     OW31240   2.848   0.699   2.446  0.8397 -0.8263 -0.1921
 6536SOL    HW131241   2.797   0.697   2.527  0.1890  1.6378 -0.5555
 6536SOL    HW231242   2.784   0.741   2.389  1.7893  1.1842  0.2331
 6537SOL     OW31243   1.716   2.968   0.485 -0.3420  0.0986  0.1923
 6537SOL    HW131244   1.734   3.026   0.411 -2.4355  1.0644  0.4299
 6537SOL    HW231245   1.800   2.924   0.473  0.1827  1.4494 -1.0526
 6538SOL     OW31246   3.766   1.876   9.813  0.4801  0.2425 -0.3428
 6538SOL    HW131247   3.811   1.852   9.894 -1.6274  0.9303  1.0487
 6538SOL    HW231248   3.839   1.873   9.752  2.8108  1.1586  2.4061
 6539SOL     OW31249   0.459   2.995   3.357  0.0210 -0.4162  0.2036
 6539SOL    HW131250   0.552   2.988   3.336  0.1492 -0.8006  0.8903
 6539SOL    HW231251   0.468   3.068   3.419  0.0553 -0.0307 -0.2594
 6540SOL     OW31252   1.496   2.660   1.957  0.7983 -0.0841 -0.0215
 6540SOL    HW131253   1.414   2.659   2.005  0.2979 -1.3756 -0.9119
 6540SOL    HW231254   1.558   2.633   2.025 -1.6292 -0.8003  1.8824
 6541SOL     OW31255   3.931   2.553  15.387 -0.2770 -0.1506 -0.0033
 6541SOL    HW131256   3.841   2.539  15.416  0.5778 -1.0229  2.2624
 6541SOL    HW231257   3.928   2.648  15.383  1.4387 -0.0872  0.2265
 6542SOL     OW31258   1.571   4.611   6.621 -0.3360  0.1445  0.0821
 6542SOL    HW131259   1.497   4.638   6.675 -0.9515 -2.8212  0.7446
 6542SOL    HW231260   1.578   4.696   6.578 -0.8638 -0.0342 -0.3684
 6543SOL     OW31261   3.142   1.983   9.008 -0.5580 -0.1831  0.0330
 6543SOL    HW131262   3.224   1.961   9.052  0.8768  0.8265 -2.1099
 6543SOL    HW231263   3.077   1.964   9.075  0.2150 -1.5438  0.3991
 6544SOL     OW31264   4.351   2.893  15.443 -0.2098  0.0927 -0.2796
 6544SOL    HW131265   4.441   2.899  15.409 -0.6037 -0.0621 -1.3580
 6544SOL    HW231266   4.315   2.814  15.404  0.9162 -0.2679 -0.5852
 6545SOL     OW31267   3.367   1.001   8.826  0.2525  0.0458 -0.6653
 6545SOL    HW131268   3.407   1.027   8.743 -0.9257  0.5374 -1.0905
 6545SOL    HW231269   3.399   0.912   8.833  1.1099  0.3049 -1.2721
 6546SOL     OW31270   2.724   3.871  10.261  0.5340 -0.0722 -0.3037
 6546SOL    HW131271   2.751   3.945  10.316 -2.2870  2.0005 -1.6876
 6546SOL    HW231272   2.746   3.918  10.181 -0.1819 -1.8882 -1.5454
 6547SOL     OW31273   4.561   4.040   7.881 -0.0069  0.2340 -0.3541
 6547SOL    HW131274   4.473   4.019   7.912 -0.3262  0.8411 -0.8286
 6547SOL    HW231275   4.532   4.129   7.861  0.2054  0.2193 -0.7239
 6548SOL     OW31276   2.063   3.447   3.496  0.1725 -0.4039  0.0597
 6548SOL    HW131277   2.105   3.483   3.418  3.2240 -2.3451  0.7977
 6548SOL    HW231278   2.039   3.359   3.469  2.9719 -1.3359  0.6041
 6549SOL     OW31279   3.130   1.321   5.060 -0.6035  0.3402 -0.0657
 6549SOL    HW131280   3.207   1.277   5.023 -1.2059 -2.7093  2.2599
 6549SOL    HW231281   3.066   1.250   5.063  0.6296 -0.8323 -1.0742
 6550SOL     OW31282   4.134   4.327  12.714  0.0030  0.3563  0.5391
 6550SOL    HW131283   4.059   4.276  12.745 -1.8606  0.8357 -3.0992
 6550SOL    HW231284   4.208   4.268  12.727  1.9617  2.5702 -0.5230
 6551SOL     OW31285   0.961   2.479   7.409  0.3384  0.3551  0.1448
 6551SOL    HW131286   0.879   2.515   7.445  0.1661 -1.0915  1.2403
 6551SOL    HW231287   1.008   2.558   7.382  0.3385  0.4017  0.2787
 6552SOL     OW31288   4.708   3.451   9.009 -0.0473  0.1977  0.1687
 6552SOL    HW131289   4.700   3.514   9.081 -2.4847 -0.2720  0.3082
 6552SOL    HW231290   4.714   3.372   9.063  0.2644 -2.0813 -3.2486
 6553SOL     OW31291   4.596   2.440   6.028 -0.6052 -0.2546  0.0485
 6553SOL    HW131292   4.618   2.361   5.978 -0.3566  1.0437 -1.8949
 6553SOL    HW231293   4.540   2.475   5.958  0.6910  2.1485  0.2126
 6554SOL     OW31294   1.874   3.142   7.498 -0.1627  0.2880 -0.2969
 6554SOL    HW131295   1.940   3.208   7.519  1.3515 -1.3743  0.1931
 6554SOL    HW231296   1.921   3.060   7.515  1.0621  0.8900 -0.7572
 6555SOL     OW31297   1.506   3.582   7.996 -0.7922  0.7406 -0.0970
 6555SOL    HW131298   1.466   3.508   7.949 -0.3984  0.3112  0.2446
 6555SOL    HW231299   1.490   3.653   7.933 -0.9159  0.2213 -0.6564
 6556SOL     OW31300   1.983   0.935   7.139  0.8928  0.2815 -0.4113
 6556SOL    HW131301   2.071   0.900   7.157  1.2920  0.1265 -2.7126
 6556SOL    HW231302   1.932   0.883   7.201  2.7048  0.5404  1.3011
 6557SOL     OW31303   3.223   2.996   8.573 -0.0823  0.8884 -1.2108
 6557SOL    HW131304   3.266   3.016   8.656  0.9986 -2.6984 -0.9006
 6557SOL    HW231305   3.138   2.961   8.600  0.8292  0.9201  1.6762
 6558SOL     OW31306   3.943   3.747   9.672  0.2494  0.1692  0.2248
 6558SOL    HW131307   3.973   3.774   9.759  0.0104  1.6084 -0.1365
 6558SOL    HW231308   3.884   3.674   9.692 -0.6241  0.9384  0.4779
 6559SOL     OW31309   0.994   0.379   6.072  0.2410  0.4995  0.5817
 6559SOL    HW131310   1.067   0.436   6.092  1.4310 -1.3945  1.6682
 6559SOL    HW231311   1.037   0.314   6.017  0.6047  0.6962  0.6370
 6560SOL     OW31312   3.313   2.043   6.647 -0.2898  0.5277  0.4217
 6560SOL    HW131313   3.294   2.132   6.620 -1.2927  0.8188  2.0989
 6560SOL    HW231314   3.305   2.039   6.742  1.2067  2.9473  0.6462
 6561SOL     OW31315   2.295   4.301  10.235  0.0948 -0.1773 -0.2976
 6561SOL    HW131316   2.232   4.253  10.182 -1.0825  1.0724 -0.0304
 6561SOL    HW231317   2.325   4.231  10.294  0.5507  0.9429  0.8076
 6562SOL     OW31318   2.873   4.723  14.150 -0.7277  1.0611 -0.4614
 6562SOL    HW131319   2.867   4.674  14.068  2.0141  0.6561 -0.4165
 6562SOL    HW231320   2.926   0.053  14.110 -0.9582  1.2607 -0.4223
 6563SOL     OW31321   3.858   0.617   4.601  0.2650 -0.0787  0.1552
 6563SOL    HW131322   3.943   0.580   4.580  0.6164  1.3491 -0.8980
 6563SOL    HW231323   3.869   0.688   4.663  1.4352  1.1077 -1.4283
 6564SOL     OW31324   2.818   3.978  16.863  0.5391 -0.6198  0.0006
 6564SOL    HW131325   2.792   3.891  16.831 -1.5069 -0.8371  2.3097
 6564SOL    HW231326   2.738   4.005  16.908 -0.5795 -1.2065 -1.6385
 6565SOL     OW31327   2.715   4.058  16.596 -0.3202  0.1212 -0.1160
 6565SOL    HW131328   2.773   4.027  16.665  1.7751  2.8199 -0.6567
 6565SOL    HW231329   2.780   4.073  16.527 -1.7702 -1.0178 -1.7260
 6566SOL     OW31330   3.778   4.300   5.392  0.1864 -0.9252 -0.1526
 6566SOL    HW131331   3.688   4.288   5.362 -0.3082 -1.0526  1.3784
 6566SOL    HW231332   3.806   4.209   5.396  2.2790 -0.1831  2.0284
 6567SOL     OW31333   2.174   1.661   0.649 -0.1737  0.2045 -0.3238
 6567SOL    HW131334   2.258   1.668   0.603  0.7876 -0.8004  1.2570
 6567SOL    HW231335   2.193   1.582   0.701  0.7232  1.2764  0.9720
 6568SOL     OW31336   4.052   0.624   5.752 -0.7768 -0.7819 -0.7323
 6568SOL    HW131337   3.980   0.578   5.708 -0.8056 -0.7814 -0.6858
 6568SOL    HW231338   4.026   0.588   5.837  1.4003 -1.6431 -0.4404
 6569SOL     OW31339   3.675   3.244   8.163 -0.3181 -0.0936  0.2191
 6569SOL    HW131340   3.669   3.327   8.115  1.5051 -1.1511 -1.8311
 6569SOL    HW231341   3.632   3.271   8.244 -2.4007  0.7882 -1.2063
 6570SOL     OW31342   0.296   0.199  14.783  0.1104 -0.3123 -0.0539
 6570SOL    HW131343   0.290   0.210  14.688 -1.7563  0.4379  0.1487
 6570SOL    HW231344   0.375   0.247  14.808 -0.7765  0.4320  1.2890
 6571SOL     OW31345   1.769   3.078   8.594 -0.5646  0.5672  0.5231
 6571SOL    HW131346   1.726   3.021   8.658 -1.0717  0.7233  0.3280
 6571SOL    HW231347   1.823   3.130   8.653 -0.7216 -1.2554  2.2504
 6572SOL     OW31348   1.419   1.901  11.425 -0.0873  0.0372 -0.1526
 6572SOL    HW131349   1.374   1.985  11.414 -2.4997 -1.2940 -0.3639
 6572SOL    HW231350   1.349   1.843  11.397  0.1246 -0.4797  0.3950
 6573SOL     OW31351   2.550   4.055   1.645 -0.6490  0.4670  0.2933
 6573SOL    HW131352   2.547   4.044   1.550  0.0903  2.0735  0.0703
 6573SOL    HW231353   2.634   4.100   1.653 -2.2936  3.6567 -0.3150
 6574SOL     OW31354   4.255   1.837   0.226 -0.0272 -0.0113  0.3263
 6574SOL    HW131355   4.235   1.860   0.135  0.3459 -1.7322 -0.1799
 6574SOL    HW231356   4.349   1.823   0.227 -0.0602 -0.4449 -1.9692
 6575SOL     OW31357   3.323   1.882   8.011 -0.9853 -0.1971  0.2278
 6575SOL    HW131358   3.305   1.899   8.103 -3.1632 -0.9919 -0.0368
 6575SOL    HW231359   3.415   1.900   8.026 -0.8611 -0.8083  0.1930
 6576SOL     OW31360   1.357   4.726   8.915 -0.4120 -0.2067  0.1010
 6576SOL    HW131361   1.402   4.642   8.914  0.5896  0.3361  0.7993
 6576SOL    HW231362   1.307   4.723   8.833  0.5951  2.0722 -0.5837
 6577SOL     OW31363   4.206   4.545   3.071 -0.1062 -0.8501 -0.1229
 6577SOL    HW131364   4.242   4.460   3.047  2.6192  0.3680 -0.3035
 6577SOL    HW231365   4.208   4.599   2.992  0.4000 -0.4400  0.1674
 6578SOL     OW31366   1.840   3.476  16.654  0.1156  0.1083  0.0081
 6578SOL    HW131367   1.791   3.552  16.625 -1.0526 -0.8252 -0.4815
 6578SOL    HW231368   1.914   3.512  16.703  0.8436 -0.4211 -0.7108
 6579SOL     OW31369   0.245   2.091  11.342 -0.2610  0.0428  0.0097
 6579SOL    HW131370   0.274   2.124  11.427 -0.6630 -0.8253  0.4936
 6579SOL    HW231371   0.269   1.998  11.343  3.5564  1.0199  0.6988
 6580SOL     OW31372   3.435   2.872   1.455 -0.0984 -0.7816 -0.1550
 6580SOL    HW131373   3.445   2.777   1.461 -3.0034 -0.9940  1.0003
 6580SOL    HW231374   3.482   2.894   1.374 -1.7614  2.5505 -0.2073
 6581SOL     OW31375   2.905   0.312   5.019 -0.0002 -0.0787 -0.1507
 6581SOL    HW131376   2.811   0.327   5.021  0.1560  0.6899  1.2110
 6581SOL    HW231377   2.897   0.243   4.953  0.1881 -1.1792  0.9787
 6582SOL     OW31378   3.344   3.985   4.899 -0.3766  0.1515  0.6999
 6582SOL    HW131379   3.269   3.940   4.937 -0.0277  1.7930  3.3217
 6582SOL    HW231380   3.419   3.944   4.942  0.8973  1.0668 -0.6536
 6583SOL     OW31381   4.388   2.652  16.461  0.7080 -0.2111 -0.1551
 6583SOL    HW131382   4.422   2.659  16.372  0.7046  0.4305 -0.1057
 6583SOL    HW231383   4.472   2.618  16.493  2.1153  1.1568 -2.3770
 6584SOL     OW31384   3.562   2.913   0.927  0.4240 -0.9000 -0.3776
 6584SOL    HW131385   3.585   2.840   0.984  2.2516 -1.3582 -1.6962
 6584SOL    HW231386   3.637   2.970   0.949  0.0973 -0.3952 -0.5820
 6585SOL     OW31387   2.455   4.355   7.405 -0.0312  0.5466 -0.4959
 6585SOL    HW131388   2.472   4.295   7.478 -0.0585  1.4064  0.2120
 6585SOL    HW231389   2.495   4.310   7.331  0.1257  1.4854 -0.9786
 6586SOL     OW31390   3.906   1.737   0.937 -0.1571  0.0744  0.3161
 6586SOL    HW131391   3.938   1.773   0.855 -1.6541  0.1503 -0.2223
 6586SOL    HW231392   3.943   1.650   0.924 -1.6449 -0.5490  0.3338
 6587SOL     OW31393   1.687   2.513   3.659  0.1566 -0.3251 -0.3054
 6587SOL    HW131394   1.678   2.462   3.579 -0.9271 -0.8995  0.1989
 6587SOL    HW231395   1.729   2.592   3.623 -2.8920  0.4218 -2.1719
 6588SOL     OW31396   1.337   1.912   6.691  1.0055  0.4506  0.1338
 6588SOL    HW131397   1.337   1.941   6.600  2.2711  0.1851  0.0506
 6588SOL    HW231398   1.307   1.823   6.670  2.2606 -0.1865  1.0011
 6589SOL     OW31399   2.977   2.412   4.189  0.4629 -0.2474  0.5669
 6589SOL    HW131400   2.890   2.371   4.180  1.2180 -1.2230 -2.3145
 6589SOL    HW231401   2.965   2.490   4.135  0.5126 -1.2936 -0.9466
 6590SOL     OW31402   4.467   0.067   2.143  0.0687 -0.5521 -0.3261
 6590SOL    HW131403   4.551   0.091   2.183 -0.5742  2.7256 -0.8807
 6590SOL    HW231404   4.461   0.137   2.077 -2.4390 -0.7434 -0.3005
 6591SOL     OW31405   4.030   3.175   0.198 -0.0997  0.5399  0.3972
 6591SOL    HW131406   3.953   3.137   0.240 -0.4316  1.6853  0.8209
 6591SOL    HW231407   4.076   3.095   0.174 -0.3229  0.4490  0.2653
 6592SOL     OW31408   2.961   0.575   1.293  0.5242 -0.2747  0.0323
 6592SOL    HW131409   2.922   0.645   1.346 -0.6614 -0.7360 -0.2311
 6592SOL    HW231410   2.942   0.610   1.206 -2.0802  0.2008  0.7852
 6593SOL     OW31411   4.027   1.650   7.846 -0.8032 -0.0979  0.3619
 6593SOL    HW131412   3.962   1.719   7.860 -2.0767 -0.9084 -1.6708
 6593SOL    HW231413   3.971   1.580   7.815  2.1763 -2.6844  0.8242
 6594SOL     OW31414   0.115   3.095   8.570  0.4348 -0.3005 -0.1399
 6594SOL    HW131415   0.048   3.162   8.557  1.7812  1.8041  3.5907
 6594SOL    HW231416   0.142   3.119   8.659  0.5519  1.4703 -0.6499
 6595SOL     OW31417   2.807   1.197   8.324  0.1217  0.2523 -0.4083
 6595SOL    HW131418   2.728   1.233   8.284 -0.4597 -0.5163  0.0512
 6595SOL    HW231419   2.761   1.118   8.353 -0.8006  0.1727 -2.0795
 6596SOL     OW31420   0.617   0.175   0.177 -0.2390 -0.6406 -0.5326
 6596SOL    HW131421   0.608   0.119   0.254  0.6300  2.9823  2.1493
 6596SOL    HW231422   0.533   0.220   0.179  0.1701 -0.0005  1.5451
 6597SOL     OW31423   2.552   3.327   1.976  0.2489 -0.2738  0.2288
 6597SOL    HW131424   2.569   3.415   2.010  0.7474  0.4963 -2.0492
 6597SOL    HW231425   2.585   3.275   2.049  1.1336  0.8364  0.6278
 6598SOL     OW31426   1.714   0.893   7.045 -0.3341  0.5242 -0.0645
 6598SOL    HW131427   1.707   0.803   7.012 -1.6102  0.2279  1.0499
 6598SOL    HW231428   1.708   0.938   6.961 -0.9061  1.3525  0.4267
 6599SOL     OW31429   1.673   2.768  13.421 -0.1760 -0.3565  0.4559
 6599SOL    HW131430   1.706   2.697  13.365  2.7363  1.0007  0.4662
 6599SOL    HW231431   1.740   2.836  13.419  1.2848 -1.8375 -1.1158
 6600SOL     OW31432   2.453   3.339  13.244  0.1434  0.2521 -0.2226
 6600SOL    HW131433   2.536   3.296  13.265 -0.1487  0.2731  0.9460
 6600SOL    HW231434   2.466   3.355  13.150 -0.6677 -2.3006 -0.7383
 6601SOL     OW31435   0.433   2.064   5.150 -0.6426 -0.4618 -0.5721
 6601SOL    HW131436   0.412   1.973   5.169  0.2876  0.1321  3.3358
 6601SOL    HW231437   0.529   2.057   5.156 -0.3867  4.0601  0.6112
 6602SOL     OW31438   1.683   0.428   0.654 -0.0845  0.8019  0.0522
 6602SOL    HW131439   1.623   0.375   0.707 -0.1305 -1.8891 -2.7426
 6602SOL    HW231440   1.762   0.377   0.638  1.3095  2.3877  1.7999
 6603SOL     OW31441   4.388   0.887   9.123 -0.1615 -0.4036 -0.2086
 6603SOL    HW131442   4.397   0.793   9.139  4.0632 -0.3560 -2.3111
 6603SOL    HW231443   4.450   0.898   9.052 -0.5970 -2.8135 -0.9692
 6604SOL     OW31444   2.018   4.309   0.769  0.1092 -0.0340 -0.3204
 6604SOL    HW131445   1.987   4.371   0.703 -0.2142 -0.4052 -0.5090
 6604SOL    HW231446   1.979   4.224   0.752 -0.8745  0.3526 -0.0331
 6605SOL     OW31447   4.234   3.403   4.573  0.2018 -0.5855 -0.0499
 6605SOL    HW131448   4.175   3.423   4.501  0.4089  0.1438 -0.0144
 6605SOL    HW231449   4.197   3.319   4.599  0.0010 -1.3192 -2.7272
 6606SOL     OW31450   2.517   1.311   6.212 -0.4171 -0.0536  0.3879
 6606SOL    HW131451   2.471   1.394   6.223 -0.1072  0.4635 -2.1267
 6606SOL    HW231452   2.449   1.271   6.159  2.3114 -2.0406 -1.6262
 6607SOL     OW31453   2.139   4.453   2.846  0.4872  0.0261 -0.3297
 6607SOL    HW131454   2.050   4.486   2.854  1.2645  2.3072 -1.2252
 6607SOL    HW231455   2.133   4.404   2.764  0.8554 -1.3719  0.4741
 6608SOL     OW31456   2.455   3.304   7.256  0.4565 -0.4755 -0.4007
 6608SOL    HW131457   2.368   3.278   7.227 -0.1236 -0.0695  1.0126
 6608SOL    HW231458   2.450   3.392   7.219 -2.3166 -1.4191 -2.2730
 6609SOL     OW31459   3.907   4.536  14.448  0.5907  0.0776 -0.0871
 6609SOL    HW131460   3.844   4.541  14.521 -0.6620 -0.7887 -1.1125
 6609SOL    HW231461   3.987   4.586  14.463  2.2963 -2.1867 -1.7220
 6610SOL     OW31462   2.823   3.342   7.515  0.3274 -0.3731  0.0776
 6610SOL    HW131463   2.866   3.301   7.589 -0.3240  0.4341  0.8994
 6610SOL    HW231464   2.736   3.313   7.543  1.4184 -3.4235  0.2673
 6611SOL     OW31465   2.105   2.838   0.154  0.0383  0.6306  0.4055
 6611SOL    HW131466   2.020   2.841   0.110 -0.0733  0.8902  0.6446
 6611SOL    HW231467   2.089   2.776   0.225 -0.4836 -1.7069 -1.7021
 6612SOL     OW31468   0.787   1.401   3.503 -0.2334  0.8313  0.3420
 6612SOL    HW131469   0.739   1.322   3.525 -0.9693  0.8216 -1.3179
 6612SOL    HW231470   0.863   1.388   3.559 -0.4216 -1.5175  0.0460
 6613SOL     OW31471   0.010   4.596   6.912  0.1950  0.0751  0.0043
 6613SOL    HW131472   0.094   4.587   6.958 -0.6886 -0.6955  1.4928
 6613SOL    HW231473   0.041   4.629   6.828 -0.8131 -0.3841 -0.5448
 6614SOL     OW31474   0.885   0.301   5.477  0.3980  0.5047 -0.6643
 6614SOL    HW131475   0.916   0.391   5.467  1.7154 -0.1295 -2.3431
 6614SOL    HW231476   0.961   0.247   5.452 -0.8762 -1.0655 -1.1486
 6615SOL     OW31477   1.414   3.426   9.022  0.4347  0.6001  0.4622
 6615SOL    HW131478   1.503   3.391   9.027 -1.4513 -4.3749 -0.6020
 6615SOL    HW231479   1.421   3.521   9.023  1.3401  0.5337  0.2677
 6616SOL     OW31480   3.044   2.823   9.314 -0.1085  0.1190  0.7374
 6616SOL    HW131481   2.991   2.830   9.393  1.4224 -0.3408  1.8175
 6616SOL    HW231482   3.036   2.912   9.281 -2.1241  0.1758  1.3828
 6617SOL     OW31483   4.610   3.397   5.875  0.4997 -0.0123  0.2163
 6617SOL    HW131484   4.577   3.450   5.803  1.6478 -0.5550 -0.7033
 6617SOL    HW231485   4.692   3.358   5.844 -0.2390 -0.4420 -1.1777
 6618SOL     OW31486   0.280   4.121   1.879 -0.6075  0.6983 -0.2210
 6618SOL    HW131487   0.336   4.044   1.874 -0.9706  0.4679 -0.7413
 6618SOL    HW231488   0.292   4.160   1.966 -0.6546 -1.0883  0.6014
 6619SOL     OW31489   0.271   2.998   2.782 -0.2692 -0.0010  0.1548
 6619SOL    HW131490   0.234   3.001   2.871  1.4342 -0.0225  0.8567
 6619SOL    HW231491   0.236   2.918   2.743 -0.8235 -1.5759  3.8935
 6620SOL     OW31492   4.682   0.563   8.983 -0.3445 -0.2298  0.0617
 6620SOL    HW131493   4.650   0.474   9.000 -1.2827  0.5407  2.2911
 6620SOL    HW231494   4.644   0.603   9.061 -0.7983  2.3655 -1.4847
 6621SOL     OW31495   4.347   1.105   9.799 -0.1614 -0.8203 -0.2635
 6621SOL    HW131496   4.294   1.026   9.814  0.4891 -1.7246 -2.8534
 6621SOL    HW231497   4.291   1.167   9.751 -1.4053 -2.6186 -1.1455
 6622SOL     OW31498   2.177   1.975   7.567 -0.1959 -0.3321  0.3258
 6622SOL    HW131499   2.146   1.901   7.515  1.1712 -0.1206 -0.7898
 6622SOL    HW231500   2.171   1.946   7.659 -0.8357 -1.8959 -0.1979
 6623SOL     OW31501   1.496   1.945   8.308 -0.6559 -0.5712  0.4887
 6623SOL    HW131502   1.473   1.874   8.248 -2.1625 -0.2160  0.6451
 6623SOL    HW231503   1.557   1.990   8.251 -2.2829  0.6399 -0.2905
 6624SOL     OW31504   3.228   0.736   8.390  0.0483  0.4129  0.5215
 6624SOL    HW131505   3.267   0.650   8.373  2.6121  1.5549  0.5669
 6624SOL    HW231506   3.138   0.708   8.371 -0.1337  1.2273  0.2010
 6625SOL     OW31507   3.864   1.072   2.254 -0.0099 -0.0071  0.1818
 6625SOL    HW131508   3.798   1.063   2.324  2.0382 -0.1490  2.0958
 6625SOL    HW231509   3.818   1.120   2.185  3.2433 -0.7998 -2.5062
 6626SOL     OW31510   1.004   0.965   1.975 -0.3601 -0.5303 -0.0686
 6626SOL    HW131511   0.927   1.019   1.961 -0.1043  0.9767  4.2683
 6626SOL    HW231512   0.961   0.879   1.978 -0.4185 -0.5357 -1.2411
 6627SOL     OW31513   2.497   3.805   1.775 -0.2488 -0.4421  0.2651
 6627SOL    HW131514   2.523   3.894   1.754 -2.6421  0.9116  2.9648
 6627SOL    HW231515   2.405   3.807   1.748  0.3905  1.8005 -1.7512
 6628SOL     OW31516   0.086   3.785   3.201 -0.3752  0.0353 -0.2893
 6628SOL    HW131517   0.064   3.767   3.109  0.6699 -1.6820 -0.1981
 6628SOL    HW231518   0.095   3.880   3.207  0.2970 -0.1019  0.7286
 6629SOL     OW31519   3.296   2.966   4.971  0.0571 -0.2397  0.1797
 6629SOL    HW131520   3.231   2.981   4.902 -0.5053  1.2117  1.0085
 6629SOL    HW231521   3.269   2.877   4.997 -2.3036  0.6285  0.7582
 6630SOL     OW31522   0.802   4.311   8.554 -0.0077  0.3360 -0.2951
 6630SOL    HW131523   0.889   4.327   8.593 -0.4624 -2.2869  1.7873
 6630SOL    HW231524   0.772   4.402   8.548 -0.7269 -0.0101 -1.8580
 6631SOL     OW31525   4.438   2.526   3.000 -0.0071 -0.5130 -0.2007
 6631SOL    HW131526   4.440   2.444   3.050 -2.1439  0.9787  2.2867
 6631SOL    HW231527   4.354   2.517   2.955  0.3482  2.6611 -1.4972
 6632SOL     OW31528   0.791   4.371   9.410 -0.1360  0.0001  0.2782
 6632SOL    HW131529   0.785   4.278   9.434 -0.7062  0.1072  0.5384
 6632SOL    HW231530   0.710   4.405   9.446  0.9782  1.4146  1.4040
 6633SOL     OW31531   3.820   3.630  11.606 -0.3569 -0.6915  0.1142
 6633SOL    HW131532   3.896   3.593  11.649 -0.6991 -2.4808 -0.8082
 6633SOL    HW231533   3.850   3.715  11.572 -0.4489 -1.2269 -1.3232
 6634SOL     OW31534   4.269   2.661   6.609  0.0808 -0.1088 -0.3688
 6634SOL    HW131535   4.312   2.705   6.682 -0.8216 -0.3136  0.2871
 6634SOL    HW231536   4.231   2.734   6.560 -1.5286 -1.4256 -1.0716
 6635SOL     OW31537   1.313   3.652   7.390 -0.0304 -0.5300  0.2922
 6635SOL    HW131538   1.367   3.729   7.410  0.6169 -0.2566 -2.5522
 6635SOL    HW231539   1.303   3.614   7.477 -0.7226  2.3888  1.4836
 6636SOL     OW31540   0.473   1.294   0.653 -0.1997 -0.1585 -0.4606
 6636SOL    HW131541   0.499   1.224   0.593  0.4703 -0.9700  0.7800
 6636SOL    HW231542   0.436   1.243   0.725 -1.5613 -1.5776 -2.1959
 6637SOL     OW31543   1.508   2.142   6.174 -0.3447 -0.0684 -0.0454
 6637SOL    HW131544   1.493   2.182   6.260  1.1516 -0.5956  0.4706
 6637SOL    HW231545   1.589   2.094   6.193  0.3676  0.4207 -1.8881
 6638SOL     OW31546   3.724   2.045  14.166 -0.0237  0.0792  0.7043
 6638SOL    HW131547   3.758   1.991  14.095  0.1947  2.6990 -1.1912
 6638SOL    HW231548   3.781   2.122  14.159  0.2254 -0.2415 -0.9309
 6639SOL     OW31549   2.365   2.258   4.491 -0.2974  0.0079 -0.7196
 6639SOL    HW131550   2.398   2.168   4.492  0.1523  0.1747 -0.6857
 6639SOL    HW231551   2.291   2.247   4.552 -0.3202 -0.7375 -0.8840
 6640SOL     OW31552   1.085   0.685   2.301 -0.1754 -0.3983 -0.1852
 6640SOL    HW131553   1.050   0.738   2.373 -1.9052 -0.1814 -1.1708
 6640SOL    HW231554   1.175   0.666   2.327  0.1091  2.4371  0.9557
 6641SOL     OW31555   2.726   3.084   9.454 -0.3430 -0.7369  0.2889
 6641SOL    HW131556   2.821   3.077   9.446 -0.4978  1.6846 -3.8565
 6641SOL    HW231557   2.718   3.045   9.541 -0.4957 -1.6376 -0.1260
 6642SOL     OW31558   2.120   4.210   8.753 -0.4895 -0.0450 -0.4191
 6642SOL    HW131559   2.094   4.151   8.824  0.3065 -0.6228 -0.6097
 6642SOL    HW231560   2.175   4.153   8.699  2.0262  1.3114  0.7394
 6643SOL     OW31561   4.683   2.744   1.061 -0.4964  0.1197  0.3555
 6643SOL    HW131562   4.680   2.838   1.045 -2.5206  0.5489  3.1389
 6643SOL    HW231563   0.030   2.725   1.098 -0.6927 -1.1394  0.1744
 6644SOL     OW31564   4.657   1.939   5.368 -0.1296 -0.0678 -0.0311
 6644SOL    HW131565   4.690   1.995   5.298  1.9254  1.0672  1.8509
 6644SOL    HW231566   4.659   1.858   5.317 -0.2254 -0.1091  0.0309
 6645SOL     OW31567   0.866   2.459   4.910 -0.3154  0.0457  0.1248
 6645SOL    HW131568   0.934   2.439   4.846  0.0064 -1.2041  0.8471
 6645SOL    HW231569   0.914   2.522   4.963 -0.1470 -0.0553  0.0934
 6646SOL     OW31570   0.542   1.277   3.614 -0.1435  0.3532  0.6847
 6646SOL    HW131571   0.517   1.197   3.659 -1.5940  0.4690  0.0957
 6646SOL    HW231572   0.456   1.319   3.622  0.5704  1.5975  2.0605
 6647SOL     OW31573   4.431   2.064   5.879  0.3790 -0.0112 -0.1009
 6647SOL    HW131574   4.382   2.109   5.948 -1.8547  1.0114 -2.3275
 6647SOL    HW231575   4.464   1.996   5.937 -0.5472 -0.2905  0.1116
 6648SOL     OW31576   4.640   2.203   9.000  0.1167  0.1451  0.0028
 6648SOL    HW131577   4.546   2.223   8.995  0.1697 -0.0406 -2.0372
 6648SOL    HW231578   4.644   2.133   9.065 -2.4239 -0.5943 -0.6440
 6649SOL     OW31579   2.927   3.593   7.622  0.2730 -0.4632  0.5038
 6649SOL    HW131580   2.907   3.661   7.557 -0.8454 -3.3009 -2.1442
 6649SOL    HW231581   2.926   3.509   7.577  2.1584  0.5769 -1.5583
 6650SOL     OW31582   0.133   1.280  10.019  0.3736  0.0341 -0.0073
 6650SOL    HW131583   0.039   1.268  10.008  0.3458  0.1569  0.0963
 6650SOL    HW231584   0.165   1.209  10.075  0.3141  1.4957  1.8792
 6651SOL     OW31585   0.147   1.961  16.141  0.2059  0.0359 -0.6828
 6651SOL    HW131586   0.225   1.927  16.096  0.5306 -0.1976  0.0481
 6651SOL    HW231587   0.175   1.948  16.232  0.3688  1.0585 -0.5916
 6652SOL     OW31588   4.727   0.844   2.735  0.3756 -0.3387  0.0751
 6652SOL    HW131589   4.643   0.845   2.689  1.2213 -0.3674 -1.4508
 6652SOL    HW231590   4.717   0.922   2.790  0.2304  0.5494 -1.1957
 6653SOL     OW31591   2.252   0.443   6.445  0.1930 -0.0177 -0.1215
 6653SOL    HW131592   2.158   0.443   6.464  0.0761  0.9501 -0.7059
 6653SOL    HW231593   2.302   0.432   6.526  0.8507 -1.0880 -0.6702
 6654SOL     OW31594   4.355   1.088   8.047 -0.0679  0.3578  0.0774
 6654SOL    HW131595   4.312   1.172   8.067 -0.2231 -0.0997  1.6784
 6654SOL    HW231596   4.445   1.116   8.035  0.4282 -1.3467 -0.1614
 6655SOL     OW31597   2.305   0.723   4.986 -0.1795  0.3744  0.0974
 6655SOL    HW131598   2.267   0.712   5.073  2.3615  2.9614  1.5026
 6655SOL    HW231599   2.359   0.802   4.985  1.3040 -0.6242  1.2208
 6656SOL     OW31600   1.875   4.572   3.391 -0.2099 -0.1842  0.1992
 6656SOL    HW131601   1.939   4.621   3.442 -2.4334  1.6452  1.1850
 6656SOL    HW231602   1.934   4.523   3.334 -0.7147  1.3885 -1.6456
 6657SOL     OW31603   1.657   1.757   3.093  0.0561  0.0803 -0.0683
 6657SOL    HW131604   1.712   1.705   3.035  0.5858 -1.3918  1.7572
 6657SOL    HW231605   1.591   1.695   3.125  0.9296 -0.9678 -0.3064
 6658SOL     OW31606   4.364   4.658   2.342 -0.0314 -0.3023 -0.0454
 6658SOL    HW131607   4.347   4.699   2.426  0.4678  3.1304 -1.6228
 6658SOL    HW231608   4.388   4.731   2.284  2.4053 -0.2984  0.9558
 6659SOL     OW31609   2.484   4.273  17.167 -0.3061 -0.1982 -0.0227
 6659SOL    HW131610   2.394   4.289  17.194  0.4171  1.2726  1.5120
 6659SOL    HW231611   2.495   4.355  17.119 -0.3845 -0.4389 -0.4626
 6660SOL     OW31612   3.948   1.149   5.170 -0.6822 -0.1609 -0.0146
 6660SOL    HW131613   3.976   1.201   5.095 -1.8125 -0.6753 -0.8016
 6660SOL    HW231614   3.994   1.187   5.244  0.5716 -0.8185 -0.4563
 6661SOL     OW31615   1.667   2.369   3.191  0.9481 -0.2266  0.7595
 6661SOL    HW131616   1.675   2.457   3.156 -1.2804 -0.8897 -1.4836
 6661SOL    HW231617   1.750   2.332   3.162  0.4141  0.8377 -2.1176
 6662SOL     OW31618   4.052   2.953  13.285  0.0454 -0.4240 -0.0876
 6662SOL    HW131619   4.055   2.883  13.219  0.7439 -0.8936  0.4416
 6662SOL    HW231620   4.140   2.987  13.267  0.6381 -1.4407  0.9126
 6663SOL     OW31621   1.831   3.444   1.405 -0.7452 -0.7974 -0.9482
 6663SOL    HW131622   1.913   3.460   1.358 -0.4928  0.0293 -0.2262
 6663SOL    HW231623   1.862   3.468   1.493 -0.4264 -1.2591 -0.9355
 6664SOL     OW31624   4.412   3.867   1.419 -0.1660  0.3537  0.6430
 6664SOL    HW131625   4.447   3.934   1.361  0.8612 -1.9167 -1.3742
 6664SOL    HW231626   4.321   3.857   1.388 -0.9493 -0.1244  3.1016
 6665SOL     OW31627   2.049   2.311   4.508 -0.3108  0.4185  0.3848
 6665SOL    HW131628   2.095   2.384   4.465 -0.8333  0.2265 -0.4895
 6665SOL    HW231629   2.100   2.305   4.589  1.3956 -2.0620 -0.8870
 6666SOL     OW31630   0.265   1.303   9.674 -0.4420  0.7808 -0.7612
 6666SOL    HW131631   0.338   1.289   9.613 -1.3431 -2.7792 -1.0517
 6666SOL    HW231632   0.226   1.383   9.640  1.8094  1.9099 -0.6496
 6667SOL     OW31633   2.984   2.371   3.254  0.1460 -0.1106 -0.1495
 6667SOL    HW131634   2.995   2.366   3.349  0.4528  0.2830 -0.1681
 6667SOL    HW231635   2.890   2.386   3.251 -0.0762 -1.5911 -1.2052
 6668SOL     OW31636   0.122   0.930  17.699  0.0830  0.2049 -0.1354
 6668SOL    HW131637   0.060   0.987  17.654 -1.1007 -1.3896 -0.5564
 6668SOL    HW231638   0.171   0.917  17.618  0.2662  2.6576 -0.4200
 6669SOL     OW31639   0.366   3.278   6.141 -0.4936 -0.3705  0.3205
 6669SOL    HW131640   0.348   3.201   6.194 -0.2074  0.3146  1.4143
 6669SOL    HW231641   0.277   3.309   6.119 -0.1058 -0.6856 -1.7477
 6670SOL     OW31642   1.936   2.848   7.443  0.2513  0.0373  0.5614
 6670SOL    HW131643   1.978   2.762   7.439 -1.4596 -0.7320 -1.0010
 6670SOL    HW231644   1.897   2.843   7.356 -0.5575  0.2026  0.9116
 6671SOL     OW31645   2.351   0.771   5.869  0.7220 -0.3359 -0.1298
 6671SOL    HW131646   2.389   0.759   5.956  1.3157  0.5535 -0.2659
 6671SOL    HW231647   2.394   0.850   5.835 -0.8071 -0.4592 -2.3024
 6672SOL     OW31648   3.514   3.001   7.375 -0.0641 -0.1186  0.6506
 6672SOL    HW131649   3.527   2.906   7.375  2.3273  0.2152 -0.6396
 6672SOL    HW231650   3.550   3.023   7.289  0.5611  1.1591  1.2427
 6673SOL     OW31651   4.291   1.470   1.502 -0.4392 -0.2447  0.2407
 6673SOL    HW131652   4.290   1.414   1.580 -0.3209 -1.0026 -0.3107
 6673SOL    HW231653   4.252   1.548   1.542 -2.3285  0.8534 -3.7227
 6674SOL     OW31654   0.119   3.201   2.596 -0.0131 -0.3660 -0.2230
 6674SOL    HW131655   0.155   3.132   2.540 -1.1203 -0.8344 -0.3683
 6674SOL    HW231656   0.049   3.162   2.650  0.6381 -1.3808 -0.1094
 6675SOL     OW31657   0.555   3.845   2.124 -0.6627 -0.3112  0.1531
 6675SOL    HW131658   0.572   3.843   2.030  0.2064  0.5499  0.2936
 6675SOL    HW231659   0.549   3.750   2.135  0.4004 -0.6727 -2.4255
 6676SOL     OW31660   1.583   0.981  11.238 -0.1217  0.3936 -0.2393
 6676SOL    HW131661   1.649   0.955  11.174  0.4231 -0.3582  0.6187
 6676SOL    HW231662   1.555   1.068  11.211  0.4537 -0.3100 -3.1017
 6677SOL     OW31663   4.330   2.835   5.225 -0.5669  0.5138 -0.0693
 6677SOL    HW131664   4.338   2.747   5.188  1.8099  0.9885 -0.7246
 6677SOL    HW231665   4.320   2.819   5.319 -0.3752  0.1753 -0.1043
 6678SOL     OW31666   3.858   0.790   7.860 -0.1091 -0.3172 -0.1753
 6678SOL    HW131667   3.915   0.766   7.933 -0.7848 -1.6392 -0.0851
 6678SOL    HW231668   3.926   0.821   7.799 -1.3033  0.3548 -1.1696
 6679SOL     OW31669   2.904   4.186   0.004  0.4282  0.0136  0.1225
 6679SOL    HW131670   2.912   4.148  17.672  1.1056  0.7975 -0.1538
 6679SOL    HW231671   2.989   4.196   0.047  0.2983 -0.0529  0.3936
 6680SOL     OW31672   1.490   3.421   2.520  0.6803  0.0959  0.3573
 6680SOL    HW131673   1.479   3.443   2.427 -2.3588 -1.1043  0.4259
 6680SOL    HW231674   1.499   3.326   2.508  1.2753  0.2174 -0.2002
 6681SOL     OW31675   4.374   3.559   2.118 -0.0800  0.0731 -0.3434
 6681SOL    HW131676   4.316   3.628   2.150 -0.4005  0.4682 -1.7595
 6681SOL    HW231677   4.432   3.555   2.194 -0.6939 -0.0225  0.1201
 6682SOL     OW31678   4.221   1.373   1.758  0.1186  0.2772  0.0610
 6682SOL    HW131679   4.194   1.295   1.709  0.8051  0.3206 -0.3947
 6682SOL    HW231680   4.148   1.362   1.819 -1.0534 -1.0655 -1.5681
 6683SOL     OW31681   0.133   2.550   6.741 -0.3674 -0.0880  0.0594
 6683SOL    HW131682   0.057   2.495   6.760  1.1448 -1.5349  1.9191
 6683SOL    HW231683   0.173   2.567   6.827  1.0369  1.2388 -0.8498
 6684SOL     OW31684   3.620   3.682   4.557  0.2879 -0.8789 -0.1384
 6684SOL    HW131685   3.612   3.587   4.558 -0.0695 -0.8285  1.7624
 6684SOL    HW231686   3.534   3.712   4.585  1.5447  2.3566  0.3275
 6685SOL     OW31687   4.158   2.129  12.236  0.5515  0.5048  0.0469
 6685SOL    HW131688   4.157   2.208  12.183 -1.2409 -0.4630 -1.3583
 6685SOL    HW231689   4.213   2.079  12.175  1.8317 -0.1657  1.7465
 6686SOL     OW31690   3.878   0.706   3.418 -0.1099 -0.2101  0.0772
 6686SOL    HW131691   3.916   0.618   3.424 -1.3337 -0.7889 -0.4819
 6686SOL    HW231692   3.859   0.695   3.325 -0.4968 -2.4705  0.4216
 6687SOL     OW31693   1.288   1.621  15.711 -0.0095  0.6142  0.2538
 6687SOL    HW131694   1.233   1.546  15.734 -0.7477  1.1608  0.2607
 6687SOL    HW231695   1.375   1.598  15.745  0.8188  0.7007 -1.7666
 6688SOL     OW31696   0.834   1.135  15.367 -0.5183 -0.2318  0.6128
 6688SOL    HW131697   0.817   1.066  15.431 -0.7454  0.8426  1.7013
 6688SOL    HW231698   0.881   1.203  15.416 -0.2068 -0.1181  0.1580
 6689SOL     OW31699   2.508   0.141   4.099  0.2994 -0.4401  0.1405
 6689SOL    HW131700   2.476   0.168   4.185 -0.9695  0.2668 -0.5481
 6689SOL    HW231701   2.446   0.070   4.080  0.4342 -0.5089 -0.0310
 6690SOL     OW31702   1.311   2.727   4.675 -0.4116  0.0427  0.2123
 6690SOL    HW131703   1.334   2.711   4.767  2.6743 -1.0581 -0.7519
 6690SOL    HW231704   1.247   2.798   4.683  0.1779  0.3936  2.0475
 6691SOL     OW31705   3.308   1.472   6.764  0.0184 -0.4478 -0.3488
 6691SOL    HW131706   3.299   1.560   6.728  1.1336  0.1800  0.9045
 6691SOL    HW231707   3.229   1.476   6.818 -0.7173  0.3557 -1.4925
 6692SOL     OW31708   3.600   1.409   7.768 -0.5682 -0.0520 -0.5613
 6692SOL    HW131709   3.577   1.469   7.696 -1.3173 -0.5801 -0.7582
 6692SOL    HW231710   3.521   1.397   7.822  0.0391  3.0926  1.0636
 6693SOL     OW31711   4.383   1.917   4.299 -0.0427 -0.1762 -0.5409
 6693SOL    HW131712   4.370   1.874   4.383 -0.9074 -0.9226 -1.0593
 6693SOL    HW231713   4.367   2.009   4.322  0.6474 -0.1772 -0.0274
 6694SOL     OW31714   4.435   0.723   4.467 -0.3163  0.1105  0.0342
 6694SOL    HW131715   4.446   0.818   4.463  0.9638  0.0063  1.1228
 6694SOL    HW231716   4.461   0.716   4.559  0.6528 -0.1462 -0.2526
 6695SOL     OW31717   2.335   0.456   7.446  0.8626  0.7056  0.3418
 6695SOL    HW131718   2.368   0.539   7.481  0.7899  1.2620 -0.9399
 6695SOL    HW231719   2.264   0.451   7.510  0.0648 -1.8001 -0.7586
 6696SOL     OW31720   2.222   3.268  13.655 -0.7753  0.6576 -0.2986
 6696SOL    HW131721   2.315   3.249  13.641 -0.7862  0.1287  0.3250
 6696SOL    HW231722   2.199   3.286  13.564  0.4422 -1.5525 -1.0471
 6697SOL     OW31723   1.632   3.553   4.184 -0.3913 -0.2430 -0.3341
 6697SOL    HW131724   1.711   3.607   4.186 -0.4419 -0.2338  1.3315
 6697SOL    HW231725   1.665   3.468   4.211 -1.4146 -0.5039  0.0779
 6698SOL     OW31726   0.258   1.093   2.473 -0.2204  1.0248  0.4211
 6698SOL    HW131727   0.196   1.026   2.501 -2.2478  2.4214 -0.7896
 6698SOL    HW231728   0.282   1.079   2.382 -1.0005 -0.1980  0.4005
 6699SOL     OW31729   0.505   2.408   9.142 -0.2954  0.0180  0.4490
 6699SOL    HW131730   0.560   2.402   9.221 -0.1972 -1.0072  0.3061
 6699SOL    HW231731   0.569   2.358   9.090 -1.6602  0.0697 -1.2508
 6700SOL     OW31732   1.532   3.179   2.034 -0.0150  0.0237 -0.1985
 6700SOL    HW131733   1.453   3.134   2.005  0.3504  0.0418 -1.2088
 6700SOL    HW231734   1.591   3.123   1.984  0.0592  1.7370 -2.0035
 6701SOL     OW31735   0.009   1.141   9.777 -0.2428 -0.0856 -0.4084
 6701SOL    HW131736   4.696   1.218   9.797  0.2248  0.2281 -0.4040
 6701SOL    HW231737   0.084   1.175   9.728  0.3312  0.2695  0.7348
 6702SOL     OW31738   4.566   4.010   4.275  0.3561  0.5579  0.1374
 6702SOL    HW131739   4.620   3.958   4.215 -1.5986 -0.5492 -0.6665
 6702SOL    HW231740   4.635   4.032   4.338  1.2901  2.2339 -1.4652
 6703SOL     OW31741   1.931   2.150   0.201 -0.1128 -0.2969 -0.6428
 6703SOL    HW131742   2.014   2.103   0.191 -1.2522 -2.4530  0.2929
 6703SOL    HW231743   1.890   2.100   0.271  1.7793 -0.7014  0.1783
 6704SOL     OW31744   4.484   4.304  15.409 -0.4953 -0.1744 -0.5084
 6704SOL    HW131745   4.571   4.344  15.418  0.2704 -2.3263  1.5597
 6704SOL    HW231746   4.428   4.371  15.448  0.7918  1.5133 -1.5802
 6705SOL     OW31747   4.510   3.905  14.426  0.1526  0.0580 -0.3560
 6705SOL    HW131748   4.555   3.958  14.360 -1.5745 -1.7671 -3.0051
 6705SOL    HW231749   4.585   3.852  14.455  0.6416  1.8500  1.6441
 6706SOL     OW31750   3.967   0.446   9.301 -0.4919 -0.2392  0.1348
 6706SOL    HW131751   4.055   0.422   9.330  0.2760  0.3949 -1.6638
 6706SOL    HW231752   3.989   0.503   9.228 -0.2453 -0.1803  0.2560
 6707SOL     OW31753   3.168   0.885   9.576  0.0158 -0.0833 -0.2983
 6707SOL    HW131754   3.235   0.820   9.598  0.0160  0.0654  0.1486
 6707SOL    HW231755   3.138   0.851   9.492 -0.1621 -0.5560 -0.0475
 6708SOL     OW31756   0.083   4.644   8.786  0.6164 -0.0318 -0.5147
 6708SOL    HW131757   0.105   4.603   8.870 -0.1628 -0.5274 -0.5598
 6708SOL    HW231758   0.149   4.714   8.783  0.1270  0.4549 -0.0131
 6709SOL     OW31759   4.390   2.935  12.652 -0.1964 -0.4604  0.5894
 6709SOL    HW131760   4.413   2.924  12.560  3.7508  0.2855  1.4911
 6709SOL    HW231761   4.447   3.007  12.676  1.5814 -2.1761  1.5082
 6710SOL     OW31762   1.987   1.596   6.912 -0.2238  0.6093 -0.4131
 6710SOL    HW131763   1.946   1.531   6.968  2.3698 -0.8003 -0.1647
 6710SOL    HW231764   2.066   1.614   6.963  0.1097 -2.2899  0.0933
 6711SOL     OW31765   0.294   1.485  17.245 -0.5933  0.4194 -0.3602
 6711SOL    HW131766   0.331   1.542  17.177  1.8701 -0.1662  0.4894
 6711SOL    HW231767   0.228   1.543  17.285  0.3581  0.9575  0.4274
 6712SOL     OW31768   2.916   0.823   1.432 -0.2555 -0.2943  0.1315
 6712SOL    HW131769   2.876   0.804   1.517  1.7583 -0.9905  0.9239
 6712SOL    HW231770   3.010   0.830   1.448 -0.2818  0.0979  0.1301
 6713SOL     OW31771   4.216   2.032  14.239  0.0802  0.3748 -0.0856
 6713SOL    HW131772   4.274   1.965  14.205  2.4740  1.9671  0.8988
 6713SOL    HW231773   4.145   2.018  14.176 -0.1739 -1.0818  0.5245
 6714SOL     OW31774   0.777   2.501   0.326 -0.2809  0.1331  0.3234
 6714SOL    HW131775   0.858   2.510   0.275  0.6146 -0.1159  1.7227
 6714SOL    HW231776   0.794   2.572   0.387  0.2663 -0.8596  1.3122
 6715SOL     OW31777   0.232   1.922   8.516 -0.5528 -0.1814  0.0017
 6715SOL    HW131778   0.184   1.843   8.493 -0.7720 -0.2622  0.7443
 6715SOL    HW231779   0.308   1.889   8.563  0.0202  0.2894 -0.5814
 6716SOL     OW31780   2.054   4.000  14.231  0.0033 -0.6091  0.1463
 6716SOL    HW131781   2.052   4.075  14.291 -0.6283 -0.6244  0.1408
 6716SOL    HW231782   1.962   3.977  14.228 -0.5888  2.0085 -1.8959
 6717SOL     OW31783   3.261   1.911  10.008  0.1152  0.1756  0.1710
 6717SOL    HW131784   3.284   1.866   9.927  0.0251  0.2523  0.1027
 6717SOL    HW231785   3.344   1.956  10.025 -0.8739  1.4885  1.5840
 6718SOL     OW31786   1.842   2.411   8.649 -0.5796  0.1114 -0.4104
 6718SOL    HW131787   1.912   2.359   8.688 -1.5451  0.6983  2.1182
 6718SOL    HW231788   1.769   2.348   8.651 -0.7776  0.2564 -2.2338
 6719SOL     OW31789   1.071   1.508  11.151 -0.6309 -0.4200 -0.1528
 6719SOL    HW131790   1.147   1.452  11.139  0.1340  0.7177 -0.5766
 6719SOL    HW231791   1.050   1.498  11.244 -0.8290  0.8417 -0.0650
 6720SOL     OW31792   2.814   3.080  16.679 -0.4060 -0.0578  0.3763
 6720SOL    HW131793   2.841   3.097  16.769  1.2785 -0.4316 -0.0706
 6720SOL    HW231794   2.742   3.017  16.690  1.5758 -2.4454 -0.3587
 6721SOL     OW31795   2.059   2.188   2.845 -0.1112  0.9225  0.0162
 6721SOL    HW131796   2.131   2.126   2.850 -0.8883  0.0821  0.9105
 6721SOL    HW231797   1.987   2.128   2.864 -1.1805  2.5280  1.0509
 6722SOL     OW31798   2.628   4.221  12.036  0.6166  0.4788 -0.3716
 6722SOL    HW131799   2.722   4.205  12.032  0.7053  0.8207  0.2053
 6722SOL    HW231800   2.592   4.132  12.032  1.7546  0.0844 -1.5730
 6723SOL     OW31801   3.556   1.572   2.328  0.6333 -0.6287  0.3380
 6723SOL    HW131802   3.602   1.527   2.257  2.1734  1.7355 -0.1728
 6723SOL    HW231803   3.601   1.656   2.324  2.6375 -1.6888  0.5152
 6724SOL     OW31804   2.028   1.433   5.679  0.3643  0.5820 -0.3401
 6724SOL    HW131805   1.999   1.509   5.628  0.5969  0.3797 -0.7789
 6724SOL    HW231806   2.115   1.410   5.644  1.4027 -0.6214  3.0799
 6725SOL     OW31807   2.009   2.574   1.085 -0.5418 -0.1661 -0.2450
 6725SOL    HW131808   1.945   2.630   1.128 -1.4214 -2.5468  1.5249
 6725SOL    HW231809   1.955   2.534   1.016 -1.4015 -0.1160  0.4092
 6726SOL     OW31810   1.705   1.084   3.572 -0.1342 -0.2432  0.1390
 6726SOL    HW131811   1.658   1.071   3.490  2.5842  1.7288 -1.7369
 6726SOL    HW231812   1.791   1.086   3.530 -0.2827  0.2482 -0.1505
 6727SOL     OW31813   0.035   3.794  12.691  0.3823  0.3419  0.8831
 6727SOL    HW131814   0.014   3.730  12.759  0.8025  1.6602  2.2393
 6727SOL    HW231815   4.721   3.773  12.614  1.4780 -5.0633  1.6042
 6728SOL     OW31816   3.892   3.692   1.363 -0.0634  0.7996  0.0946
 6728SOL    HW131817   3.896   3.675   1.457 -0.2196 -0.1100 -0.0632
 6728SOL    HW231818   3.797   3.694   1.349 -0.1620  0.8908  0.8048
 6729SOL     OW31819   3.342   4.251   2.386 -0.4486 -0.3596  0.1078
 6729SOL    HW131820   3.293   4.199   2.450 -1.9949  1.0589  0.0807
 6729SOL    HW231821   3.328   4.203   2.304 -2.6872  0.4108  0.0526
 6730SOL     OW31822   0.085   3.206   7.518  0.2928 -0.2092  0.6754
 6730SOL    HW131823   0.009   3.245   7.474  0.9991 -1.2637 -1.4646
 6730SOL    HW231824   0.055   3.115   7.525  0.8160 -0.2154  2.8222
 6731SOL     OW31825   1.584   1.873   2.836 -0.6730  0.4037 -0.6999
 6731SOL    HW131826   1.573   1.793   2.784  0.7929 -0.4971  0.3899
 6731SOL    HW231827   1.492   1.885   2.860 -0.7032  0.7469 -0.9794
 6732SOL     OW31828   1.956   0.375   8.614 -0.6447 -0.0103 -0.2609
 6732SOL    HW131829   1.968   0.405   8.524 -1.0236  2.9773  0.6565
 6732SOL    HW231830   2.017   0.303   8.625 -0.1169  0.4056 -0.4920
 6733SOL     OW31831   3.591   3.891   2.530 -0.5622 -0.0118  0.0915
 6733SOL    HW131832   3.616   3.813   2.481 -1.2555 -0.5606  0.6227
 6733SOL    HW231833   3.498   3.869   2.538 -0.0426 -2.5659 -0.7847
 6734SOL     OW31834   2.187   0.934   8.480 -0.6905  0.2900  0.3280
 6734SOL    HW131835   2.138   0.875   8.424  0.7419  0.5097 -1.1661
 6734SOL    HW231836   2.160   0.906   8.567  0.4674  1.2814  0.9971
 6735SOL     OW31837   2.672   1.497   4.910 -0.3415 -0.3704  0.3063
 6735SOL    HW131838   2.756   1.543   4.907 -0.3607 -0.1615  3.0274
 6735SOL    HW231839   2.712   1.415   4.942  1.2704 -0.2583 -1.3927
 6736SOL     OW31840   2.030   0.940  14.908  0.1409 -0.1906 -0.3020
 6736SOL    HW131841   2.061   0.951  14.818  0.3763 -0.8533 -0.3057
 6736SOL    HW231842   2.090   0.867  14.928  1.0671  1.1036  1.6633
 6737SOL     OW31843   4.560   1.211   8.321 -0.9559  0.4453 -0.1582
 6737SOL    HW131844   4.639   1.250   8.285 -0.7355 -0.7397 -0.9756
 6737SOL    HW231845   4.578   1.117   8.308  1.4741  0.9911 -0.6369
 6738SOL     OW31846   2.616   1.823  14.931  0.2090 -0.4525 -0.3482
 6738SOL    HW131847   2.538   1.800  14.881 -0.9400 -0.5504  1.5208
 6738SOL    HW231848   2.674   1.751  14.906 -0.3713 -1.1607  0.3549
 6739SOL     OW31849   0.331   1.790   3.698 -0.2622 -0.4410  0.3788
 6739SOL    HW131850   0.359   1.830   3.780  0.2636 -2.3674  1.1437
 6739SOL    HW231851   0.299   1.866   3.650  1.7882 -0.9593 -1.8039
 6740SOL     OW31852   1.647   3.122   9.849 -0.0118 -0.3435  0.1829
 6740SOL    HW131853   1.605   3.191   9.797  1.6146  1.0238  0.6833
 6740SOL    HW231854   1.590   3.132   9.926 -2.7583  1.6068 -2.1003
 6741SOL     OW31855   2.549   4.240   1.211  0.4361  0.0196 -0.0731
 6741SOL    HW131856   2.476   4.301   1.213  2.1605  2.0678  0.2942
 6741SOL    HW231857   2.556   4.254   1.117 -1.2283  0.8691 -0.0642
 6742SOL     OW31858   2.230   2.417   6.700  0.4528  0.6729 -0.2157
 6742SOL    HW131859   2.201   2.443   6.787  3.1942  1.5724  0.4364
 6742SOL    HW231860   2.325   2.412   6.714 -0.0346 -4.2448  0.9745
 6743SOL     OW31861   2.119   4.232   1.461  0.2167  0.6605 -0.4333
 6743SOL    HW131862   2.079   4.312   1.427  0.6184  1.1467  0.2362
 6743SOL    HW231863   2.204   4.273   1.480  0.2489 -1.1667  3.2905
 6744SOL     OW31864   3.148   3.037   6.575 -0.4850  0.4639 -0.1890
 6744SOL    HW131865   3.177   2.964   6.520  1.1675 -0.8210  2.4134
 6744SOL    HW231866   3.078   3.075   6.521 -0.3811 -0.0043 -0.6456
 6745SOL     OW31867   3.347   1.642   4.176 -0.1288  0.3854 -0.2631
 6745SOL    HW131868   3.385   1.700   4.242  1.3646  0.6515 -1.3510
 6745SOL    HW231869   3.383   1.663   4.090  0.3158  0.0306 -0.1644
 6746SOL     OW31870   0.882   3.831  14.617  0.5551 -0.4199  0.6517
 6746SOL    HW131871   0.887   3.905  14.677 -1.0139 -0.1888  0.4889
 6746SOL    HW231872   0.926   3.766  14.672  0.6597 -1.1052 -0.2586
 6747SOL     OW31873   4.002   2.820   7.648 -0.1103 -0.0085  0.0710
 6747SOL    HW131874   3.990   2.890   7.711  0.2997  3.0912 -3.3119
 6747SOL    HW231875   4.098   2.816   7.646 -0.2165 -2.6287 -0.4973
 6748SOL     OW31876   1.086   2.115   1.559  0.1037  0.5600 -0.6621
 6748SOL    HW131877   1.072   2.036   1.612 -0.7693  0.5676 -0.8917
 6748SOL    HW231878   1.172   2.150   1.583  0.1512  0.0436 -0.0815
 6749SOL     OW31879   1.158   4.045   6.924 -0.2857  0.1393  0.1550
 6749SOL    HW131880   1.062   4.040   6.928 -0.2772 -0.7686 -0.7684
 6749SOL    HW231881   1.186   4.032   7.015 -1.0111  0.9603  0.4991
 6750SOL     OW31882   3.802   0.659   4.932  0.1724  0.3654 -0.1858
 6750SOL    HW131883   3.823   0.660   5.026 -0.1282 -1.7226 -0.0925
 6750SOL    HW231884   3.802   0.566   4.908  0.4960 -0.0853  1.5371
 6751SOL     OW31885   1.051   2.010   7.087  0.4474 -0.3319 -0.4701
 6751SOL    HW131886   1.027   2.003   7.179  0.8237 -1.8605 -0.4757
 6751SOL    HW231887   0.979   1.962   7.048 -0.8636  0.4617  0.9687
 6752SOL     OW31888   0.036   2.142   9.890 -0.2977  0.5903 -0.5264
 6752SOL    HW131889   0.129   2.160   9.876 -0.0537 -1.6066 -1.7134
 6752SOL    HW231890   0.040   2.107   9.978 -1.4191 -1.2005 -1.1868
 6753SOL     OW31891   2.702   3.755   5.861 -0.0649 -0.7063  0.4012
 6753SOL    HW131892   2.726   3.833   5.910 -0.4009  0.0722 -0.6853
 6753SOL    HW231893   2.641   3.793   5.798  1.4120  0.2627 -0.4532
 6754SOL     OW31894   1.135   2.985   3.818 -0.3216  0.3741  0.0145
 6754SOL    HW131895   1.137   2.971   3.723 -1.1367  0.5925 -0.0343
 6754SOL    HW231896   1.128   3.081   3.820 -0.3246  0.3883 -0.6611
 6755SOL     OW31897   1.532   0.533   1.809 -0.1972 -0.2842  0.7191
 6755SOL    HW131898   1.595   0.471   1.772 -0.2981 -0.8441  1.4911
 6755SOL    HW231899   1.446   0.505   1.777 -0.2550 -0.1343  0.7400
 6756SOL     OW31900   3.116   0.127   5.217  0.6734 -0.7404  0.0559
 6756SOL    HW131901   3.181   0.063   5.246  0.5403 -0.5080  0.8753
 6756SOL    HW231902   3.044   0.086   5.264  0.5415  0.9271  1.3165
 6757SOL     OW31903   2.748   1.981  15.928  0.1907  0.3419  0.6253
 6757SOL    HW131904   2.787   2.067  15.944  1.1273  0.3131 -1.5094
 6757SOL    HW231905   2.688   1.976  16.002 -0.9706  1.2542 -0.2324
 6758SOL     OW31906   1.843   2.939   9.814  0.7016  0.6612 -0.2778
 6758SOL    HW131907   1.800   2.910   9.733  0.8623 -0.9599  0.2006
 6758SOL    HW231908   1.778   3.005   9.838 -1.0600 -1.7732  1.6574
 6759SOL     OW31909   3.247   1.548   9.859 -0.0462  0.2627  0.2723
 6759SOL    HW131910   3.199   1.477   9.902 -1.4993  1.1923  0.1671
 6759SOL    HW231911   3.281   1.599   9.933  2.2795 -0.3406 -0.4032
 6760SOL     OW31912   2.346   1.690   1.508  0.2298  0.3372  0.1467
 6760SOL    HW131913   2.265   1.652   1.475  0.3929 -2.3228  2.8342
 6760SOL    HW231914   2.394   1.621   1.554 -0.1521 -0.5913 -0.8503
 6761SOL     OW31915   4.028   2.167   5.216  0.7892  0.0297  0.2618
 6761SOL    HW131916   4.057   2.089   5.263 -0.0041 -0.7044 -0.4641
 6761SOL    HW231917   3.948   2.182   5.266  0.4865  1.7600 -0.6965
 6762SOL     OW31918   0.587   1.739   7.837  0.9759  0.1636 -0.5853
 6762SOL    HW131919   0.619   1.805   7.775 -0.3265 -1.2540 -2.7766
 6762SOL    HW231920   0.569   1.786   7.918  0.4132  1.2367 -1.3345
 6763SOL     OW31921   1.380   3.844  16.856 -0.3619  0.5592 -0.1601
 6763SOL    HW131922   1.312   3.905  16.882 -0.2301  0.6667 -0.0683
 6763SOL    HW231923   1.409   3.870  16.769 -0.0954  1.0450  0.0761
 6764SOL     OW31924   2.140   4.222   9.260 -0.2787  0.3395  0.3208
 6764SOL    HW131925   2.177   4.233   9.173  2.9078  0.6148  1.7106
 6764SOL    HW231926   2.132   4.127   9.264  0.0311  0.2400 -1.9951
 6765SOL     OW31927   4.471   3.909   2.212  0.2281  0.1490  0.1177
 6765SOL    HW131928   4.429   3.918   2.126  0.7312  3.3001  0.2047
 6765SOL    HW231929   4.448   3.821   2.241  0.1182  0.2692  0.3987
 6766SOL     OW31930   1.986   2.543   7.764 -0.2985  0.4039 -0.2937
 6766SOL    HW131931   1.900   2.576   7.790 -0.8418 -0.5557 -0.8686
 6766SOL    HW231932   2.018   2.509   7.847  3.4078 -0.2513 -1.9921
 6767SOL     OW31933   4.457   3.781   5.965  0.3242  0.1343 -0.4478
 6767SOL    HW131934   4.398   3.798   6.039 -0.5590  1.2106 -1.3906
 6767SOL    HW231935   4.517   3.856   5.969 -1.1765  1.3102 -0.2142
 6768SOL     OW31936   1.335   3.747   0.163 -0.3606  0.1279  0.7908
 6768SOL    HW131937   1.427   3.720   0.159 -0.3816 -0.0151  1.3531
 6768SOL    HW231938   1.324   3.769   0.070  1.8614 -3.9266 -0.4230
 6769SOL     OW31939   4.253   0.833   5.795  0.0576 -0.4634  0.0743
 6769SOL    HW131940   4.321   0.822   5.861  0.9018  0.8932 -0.5722
 6769SOL    HW231941   4.195   0.757   5.796  0.2224 -0.5680  1.1256
 6770SOL     OW31942   2.285   2.260   5.632  0.2418  0.3069 -0.0004
 6770SOL    HW131943   2.317   2.230   5.718 -0.3334  2.7507  1.0635
 6770SOL    HW231944   2.223   2.325   5.666  0.0914  0.1338  0.0563
 6771SOL     OW31945   4.424   1.755   6.289 -0.1263 -0.3344  0.0323
 6771SOL    HW131946   4.450   1.678   6.339 -1.2237 -1.0030 -0.4007
 6771SOL    HW231947   4.504   1.807   6.287  0.1679 -0.8680 -3.4840
 6772SOL     OW31948   2.220   2.296   2.191 -0.3956 -0.1530  0.3905
 6772SOL    HW131949   2.134   2.322   2.224 -0.2299 -0.6996  1.2637
 6772SOL    HW231950   2.182   2.269   2.108  1.0690  0.1011 -0.3495
 6773SOL     OW31951   3.315   2.025   3.158 -0.3117 -0.7295  0.2567
 6773SOL    HW131952   3.235   2.010   3.209 -1.8670 -0.9111 -2.2484
 6773SOL    HW231953   3.324   1.933   3.132 -0.6975 -0.7621  0.2432
 6774SOL     OW31954   3.581   2.788   3.501  0.4611  0.5698  0.3502
 6774SOL    HW131955   3.549   2.805   3.412  2.2451 -1.4517 -0.6692
 6774SOL    HW231956   3.559   2.696   3.515 -1.8104  1.4724  2.7834
 6775SOL     OW31957   1.718   2.697   6.300 -0.0488  0.1403  0.1732
 6775SOL    HW131958   1.787   2.737   6.353 -0.5134  0.7991  0.2888
 6775SOL    HW231959   1.754   2.689   6.211 -0.4807  1.1787 -0.1069
 6776SOL     OW31960   2.691   1.866  16.400 -0.2379  0.5518 -0.5346
 6776SOL    HW131961   2.688   1.880  16.495 -1.1171 -0.0767 -0.4690
 6776SOL    HW231962   2.756   1.796  16.401 -1.2707 -0.3658  1.9918
 6777SOL     OW31963   2.451   1.030  17.642  0.5738  0.1127  0.0333
 6777SOL    HW131964   2.477   0.976  17.567 -0.9077  0.3318 -0.6528
 6777SOL    HW231965   2.531   1.056  17.687  0.9128 -0.3505 -0.3014
 6778SOL     OW31966   1.303   4.027   9.084  0.1601 -0.2000  0.1245
 6778SOL    HW131967   1.367   4.089   9.050 -0.1798  1.0828  1.8190
 6778SOL    HW231968   1.273   4.081   9.157 -0.4953  1.0941 -1.1121
 6779SOL     OW31969   1.067   4.636   4.871  0.0877  0.0720  0.2259
 6779SOL    HW131970   1.125   4.694   4.920 -1.4451  0.6903  1.3050
 6779SOL    HW231971   0.985   4.682   4.892  0.5360  0.1714  1.7614
 6780SOL     OW31972   2.977   1.053   5.092  0.0677 -0.1590 -0.6909
 6780SOL    HW131973   3.056   1.034   5.144 -1.3643 -1.4317  1.0300
 6780SOL    HW231974   2.936   0.966   5.095 -1.0902  0.4595  0.9326
 6781SOL     OW31975   1.213   1.936   8.943 -0.0657  0.2619  0.2335
 6781SOL    HW131976   1.119   1.937   8.924 -0.2218  0.2828  0.9784
 6781SOL    HW231977   1.230   2.019   8.987  2.2947 -1.4406  2.5347
 6782SOL     OW31978   1.643   0.688   4.545  0.3263  0.5419  0.4080
 6782SOL    HW131979   1.618   0.778   4.562  2.2277  0.9735  0.9858
 6782SOL    HW231980   1.733   0.681   4.577  0.6192  0.6135 -0.4092
 6783SOL     OW31981   0.555   1.686   2.270 -0.0930 -0.3140 -0.3681
 6783SOL    HW131982   0.498   1.665   2.344  2.4424  2.6372  2.4327
 6783SOL    HW231983   0.626   1.621   2.270 -0.7131 -0.9865 -0.0592
 6784SOL     OW31984   2.283   1.547   1.768 -0.3571  0.4306 -0.2480
 6784SOL    HW131985   2.330   1.552   1.851 -1.0284 -1.8067  0.2682
 6784SOL    HW231986   2.250   1.636   1.769  1.2357  1.0519 -2.9083
 6785SOL     OW31987   2.398   1.555   6.249 -0.7033 -0.6223  0.3271
 6785SOL    HW131988   2.319   1.589   6.292 -1.0825 -2.5449  1.1726
 6785SOL    HW231989   2.372   1.572   6.159  0.0177 -0.5143  0.1462
 6786SOL     OW31990   1.229   0.013   8.647 -0.6960  0.9093 -0.7755
 6786SOL    HW131991   1.258   4.697   8.575 -1.2470 -2.5827  1.6599
 6786SOL    HW231992   1.137   0.021   8.623 -0.9005  0.6021 -0.1179
 6787SOL     OW31993   0.049   3.065   3.446 -0.2331 -0.2583 -0.1620
 6787SOL    HW131994   0.044   3.133   3.378 -1.8643 -1.6194 -1.3964
 6787SOL    HW231995   4.718   3.085   3.508 -0.8722  0.0853 -0.9974
 6788SOL     OW31996   1.933   0.105   8.859  0.5022  0.0644  0.2848
 6788SOL    HW131997   1.856   0.159   8.840  1.0520  0.9039  0.4421
 6788SOL    HW231998   1.961   0.162   8.931 -0.9110  0.2953  0.6608
 6789SOL     OW31999   2.627   0.758   4.813  0.0890 -0.2202  0.0176
 6789SOL    HW132000   2.563   0.796   4.873  1.9547  1.0073  1.2390
 6789SOL    HW232001   2.577   0.745   4.732 -2.1428 -1.1509  1.5445
 6790SOL     OW32002   2.745   2.589   2.445 -0.5006 -0.1706 -0.1853
 6790SOL    HW132003   2.652   2.601   2.423 -0.2729  2.0933  0.0436
 6790SOL    HW232004   2.771   2.553   2.360 -0.6269  1.5109 -0.9520
 6791SOL     OW32005   2.299   2.750  10.360  0.1253 -0.0656 -0.3280
 6791SOL    HW132006   2.362   2.679  10.350 -0.4204 -0.6227  0.1479
 6791SOL    HW232007   2.324   2.815  10.294 -0.5476  0.4148 -0.1158
 6792SOL     OW32008   1.960   1.988  12.746 -0.2305  0.2162  0.5537
 6792SOL    HW132009   1.942   1.991  12.840  2.4378 -1.3360  1.1133
 6792SOL    HW232010   1.908   2.066  12.727  0.1660  0.4450  0.3890
 6793SOL     OW32011   1.358   0.129   3.287  0.4394 -0.2580 -0.6867
 6793SOL    HW132012   1.367   0.216   3.326 -0.9867  0.4901 -2.0317
 6793SOL    HW232013   1.390   0.084   3.364 -2.6478  0.0245  0.7484
 6794SOL     OW32014   0.435   4.491   4.387 -0.3696  0.3585  0.1782
 6794SOL    HW132015   0.381   4.439   4.448  0.4095  0.5691  1.0442
 6794SOL    HW232016   0.432   4.440   4.307 -1.2482  0.3397  0.2229
 6795SOL     OW32017   0.727   3.448   5.457  0.3820 -0.9754  0.2089
 6795SOL    HW132018   0.708   3.531   5.414  0.0752 -0.4380  1.3885
 6795SOL    HW232019   0.820   3.448   5.436  0.3533 -1.7708  0.0672
 6796SOL     OW32020   0.431   1.166   6.891 -0.5701 -0.0455  0.5348
 6796SOL    HW132021   0.472   1.252   6.902 -0.0978 -0.3494  1.2275
 6796SOL    HW232022   0.505   1.109   6.911  0.3379  1.2986  1.0299
 6797SOL     OW32023   2.317   1.010  11.147  0.2690  0.6364 -0.1477
 6797SOL    HW132024   2.272   1.094  11.150  0.7864  0.9276 -0.5733
 6797SOL    HW232025   2.404   1.024  11.183 -0.5812  0.1607  2.0848
 6798SOL     OW32026   3.857   1.647  14.999  0.1322 -0.3086  0.5508
 6798SOL    HW132027   3.889   1.659  15.089 -0.9854  2.4933  0.5791
 6798SOL    HW232028   3.785   1.709  14.991 -0.9027 -1.6216 -0.2827
 6799SOL     OW32029   2.822   3.570  16.929  0.4517  0.6380  0.1071
 6799SOL    HW132030   2.816   3.583  17.024  1.7260 -0.1099  0.2870
 6799SOL    HW232031   2.762   3.632  16.888  0.5498  0.5426 -0.1830
 6800SOL     OW32032   1.364   4.605   6.421 -0.1398 -0.4601  0.3263
 6800SOL    HW132033   1.313   4.561   6.352 -1.1719  1.3190 -0.0343
 6800SOL    HW232034   1.449   4.614   6.378  0.9174 -1.4755  2.2263
 6801SOL     OW32035   3.694   3.426   8.819 -0.2101  0.1631 -0.2080
 6801SOL    HW132036   3.769   3.410   8.876 -0.6104 -1.5646 -0.1905
 6801SOL    HW232037   3.693   3.522   8.825  1.3343  0.2336 -0.9570
 6802SOL     OW32038   2.001   4.396   1.017 -0.5700  0.5251  0.3590
 6802SOL    HW132039   2.022   4.307   1.046 -2.2448 -0.7465 -2.3451
 6802SOL    HW232040   1.999   4.373   0.925  2.5673 -2.0734  0.9692
 6803SOL     OW32041   0.778   0.113   6.569  0.3150 -0.6228 -0.0420
 6803SOL    HW132042   0.873   0.118   6.571  0.4888 -2.2425 -2.9508
 6803SOL    HW232043   0.753   0.110   6.661  1.6145 -0.9852  0.3008
 6804SOL     OW32044   1.468   3.478   5.679 -0.6217 -0.1557 -0.5310
 6804SOL    HW132045   1.475   3.404   5.619  0.0522 -1.7540  1.5196
 6804SOL    HW232046   1.536   3.534   5.642  0.3612 -0.5681  0.6705
 6805SOL     OW32047   2.131   0.285   5.731 -0.2079  0.1709  0.2680
 6805SOL    HW132048   2.142   0.359   5.671  1.8758  0.3227  0.8193
 6805SOL    HW232049   2.045   0.307   5.765 -0.3389 -2.5851  1.7134
 6806SOL     OW32050   3.019   3.802   4.398 -0.1591  0.2964  0.5438
 6806SOL    HW132051   2.994   3.801   4.306  0.4212 -1.2908  0.3984
 6806SOL    HW232052   2.934   3.812   4.441  0.3904  0.1830  1.6409
 6807SOL     OW32053   2.759   4.582   6.291  0.1681 -0.2044  0.1513
 6807SOL    HW132054   2.666   4.566   6.277  0.3997  0.6214 -2.3832
 6807SOL    HW232055   2.801   4.497   6.309  1.5815  0.1991 -1.2194
 6808SOL     OW32056   1.305   0.596  11.545 -0.0078 -0.0155  0.3971
 6808SOL    HW132057   1.383   0.619  11.496 -0.6322 -0.1125 -0.6496
 6808SOL    HW232058   1.314   0.501  11.542 -2.6642 -0.3607  2.2957
 6809SOL     OW32059   4.246   2.428   6.406  0.1152 -0.0286 -0.6934
 6809SOL    HW132060   4.245   2.489   6.480 -0.7718 -2.0998  1.0187
 6809SOL    HW232061   4.301   2.482   6.350 -2.5319  1.5840 -1.7625
 6810SOL     OW32062   4.552   3.261  16.188 -0.3302 -0.0819  0.5100
 6810SOL    HW132063   4.643   3.253  16.215 -0.2655  1.2538  0.6688
 6810SOL    HW232064   4.562   3.238  16.096 -0.3274 -3.3009  1.3085
 6811SOL     OW32065   1.677   1.924   2.358  0.7409 -0.4469 -0.5457
 6811SOL    HW132066   1.609   1.956   2.298  0.1283  1.4467  1.1475
 6811SOL    HW232067   1.649   1.970   2.438  0.0083 -1.4293 -0.2304
 6812SOL     OW32068   3.080   4.131   1.044  0.3284  0.2402  0.0655
 6812SOL    HW132069   3.012   4.164   1.102 -1.8494 -1.9775 -1.1705
 6812SOL    HW232070   3.096   4.211   0.994 -0.1077  0.7550  0.7582
 6813SOL     OW32071   4.339   3.309   5.560  0.2225 -0.2391  0.0573
 6813SOL    HW132072   4.348   3.224   5.516  1.1266  0.2482 -0.6891
 6813SOL    HW232073   4.431   3.325   5.579 -0.1633  0.8835  0.9745
 6814SOL     OW32074   1.604   1.021  17.401  0.0505  0.2826  0.1621
 6814SOL    HW132075   1.648   0.957  17.457  0.0889 -0.8673 -1.1626
 6814SOL    HW232076   1.632   1.112  17.413  0.5194  0.4358 -1.9804
 6815SOL     OW32077   2.699   1.686  16.758  0.4149 -0.0340 -0.4962
 6815SOL    HW132078   2.691   1.766  16.810  1.3530 -0.2434 -0.0351
 6815SOL    HW232079   2.606   1.683  16.738  0.5408 -0.8836 -0.9235
 6816SOL     OW32080   4.035   1.594   4.127 -0.2772 -0.4657  0.4376
 6816SOL    HW132081   4.108   1.656   4.135 -0.5296  0.1561 -2.2968
 6816SOL    HW232082   4.068   1.526   4.069  1.4161  1.8452 -1.2961
 6817SOL     OW32083   2.740   0.017  12.424  0.2272 -0.1855  0.2673
 6817SOL    HW132084   2.726   0.050  12.513  2.7493  0.3385  0.4850
 6817SOL    HW232085   2.778   4.670  12.437 -2.7333 -1.8097 -2.0013
 6818SOL     OW32086   4.280   2.794   4.147  0.2676  0.3953 -0.1810
 6818SOL    HW132087   4.364   2.796   4.194 -0.5655 -2.3862  1.3905
 6818SOL    HW232088   4.293   2.705   4.116 -2.3405 -0.3175  0.8194
 6819SOL     OW32089   0.557   3.044   4.541 -0.0449 -0.0734  0.1221
 6819SOL    HW132090   0.627   2.992   4.502 -1.1296 -1.0224 -0.5988
 6819SOL    HW232091   0.610   3.111   4.583  1.4565 -1.5351  0.5203
 6820SOL     OW32092   3.597   0.566   9.941  0.3786 -0.1652  0.2601
 6820SOL    HW132093   3.509   0.582   9.974  0.3518 -0.1152  0.1651
 6820SOL    HW232094   3.641   0.645   9.972  2.0646 -0.4797 -1.3509
 6821SOL     OW32095   2.685   2.067   3.192  0.3175 -0.1876 -0.3630
 6821SOL    HW132096   2.616   2.036   3.250  0.1007 -0.2302 -0.6424
 6821SOL    HW232097   2.728   1.982   3.186  2.0350  0.7356 -1.1425
 6822SOL     OW32098   2.907   4.079  13.375 -0.4617  0.3471  0.1698
 6822SOL    HW132099   2.850   4.016  13.332 -1.1782 -0.8894  2.9304
 6822SOL    HW232100   2.993   4.075  13.333 -0.8566 -1.2822 -0.4835
 6823SOL     OW32101   2.805   1.536   4.486  0.2762  0.3860  0.6341
 6823SOL    HW132102   2.827   1.443   4.483 -0.7007  0.2169 -1.2660
 6823SOL    HW232103   2.715   1.533   4.519 -0.1482 -1.2031 -0.6266
 6824SOL     OW32104   3.005   0.835   6.182  0.0558 -0.5112 -0.1504
 6824SOL    HW132105   3.022   0.868   6.093  1.6256  1.3337  0.8453
 6824SOL    HW232106   3.058   0.890   6.240 -1.8018  0.3103  0.7675
 6825SOL     OW32107   1.644   1.675   7.645 -0.6172 -0.1220  0.3097
 6825SOL    HW132108   1.610   1.637   7.564 -1.0604 -2.8397  1.7721
 6825SOL    HW232109   1.698   1.606   7.684 -0.4912 -0.8071 -1.1082
 6826SOL     OW32110   0.264   1.793   4.862  0.8498 -0.1621 -0.0619
 6826SOL    HW132111   0.184   1.746   4.838  0.8643  0.8341 -2.1308
 6826SOL    HW232112   0.318   1.730   4.909  2.2913  0.9088 -0.3053
 6827SOL     OW32113   2.672   0.453   4.444 -0.4339 -0.1776 -0.1928
 6827SOL    HW132114   2.642   0.510   4.373  0.2887 -0.6119 -0.8537
 6827SOL    HW232115   2.767   0.467   4.451 -0.5156 -1.1629  2.9866
 6828SOL     OW32116   3.769   3.677   8.011  0.2054 -0.1394 -0.4401
 6828SOL    HW132117   3.811   3.759   8.037  2.6257 -1.5123 -0.0143
 6828SOL    HW232118   3.837   3.617   8.041 -1.0095 -0.9784  0.6263
 6829SOL     OW32119   2.677   3.231   4.723 -0.1186  0.1269  0.2463
 6829SOL    HW132120   2.727   3.150   4.720  3.1652  2.2678 -2.7925
 6829SOL    HW232121   2.751   3.291   4.724 -0.3717  0.4247  1.1817
 6830SOL     OW32122   0.487   1.310   8.237  0.4978  0.4355  0.0911
 6830SOL    HW132123   0.545   1.386   8.237  0.9082  0.1229  0.1694
 6830SOL    HW232124   0.539   1.245   8.188  1.0211  1.0380 -0.1492
 6831SOL     OW32125   2.713   3.397  15.893  0.0022  0.0220  0.1080
 6831SOL    HW132126   2.666   3.316  15.871  0.8773 -0.3801 -0.3037
 6831SOL    HW232127   2.655   3.467  15.863  1.3198  0.7654 -0.6909
 6832SOL     OW32128   0.215   1.033   3.652  0.1341  0.2841  0.2486
 6832SOL    HW132129   0.309   1.024   3.639 -0.0098 -0.5641 -0.2073
 6832SOL    HW232130   0.219   1.113   3.705 -0.8432  0.0072  0.7506
 6833SOL     OW32131   4.460   3.404  10.003  0.3101  0.1721 -0.3466
 6833SOL    HW132132   4.461   3.495  10.034 -1.0516  0.9979 -2.7169
 6833SOL    HW232133   4.507   3.411   9.920 -0.4007 -0.6611 -0.8301
 6834SOL     OW32134   2.074   1.044   2.688 -0.0276 -0.5103 -0.5753
 6834SOL    HW132135   2.013   1.058   2.616  0.2534  0.1618 -0.6890
 6834SOL    HW232136   2.034   1.087   2.764  2.2537  1.5669 -0.5170
 6835SOL     OW32137   2.542   4.401  15.596  0.0722  0.0917  0.6292
 6835SOL    HW132138   2.578   4.364  15.515 -1.6084 -0.4030  0.1067
 6835SOL    HW232139   2.465   4.346  15.608 -0.6090  0.4510 -2.1778
 6836SOL     OW32140   2.545   1.005   2.706  0.1296 -0.1796  0.0528
 6836SOL    HW132141   2.533   1.000   2.611  0.1922 -2.6637  0.1836
 6836SOL    HW232142   2.638   1.027   2.715  0.1895 -0.0740 -0.7882
 6837SOL     OW32143   2.030   1.825   5.890 -0.2379 -0.1794  0.0350
 6837SOL    HW132144   2.039   1.894   5.956  0.7744  0.3774 -0.6977
 6837SOL    HW232145   2.115   1.839   5.847 -1.3667 -1.0225 -2.4959
 6838SOL     OW32146   3.411   2.685   2.966  0.3791  0.0548  0.2874
 6838SOL    HW132147   3.442   2.719   2.882  0.4991  0.6104  0.5555
 6838SOL    HW232148   3.350   2.617   2.937  1.9943 -1.1499 -0.3230
 6839SOL     OW32149   0.022   4.062   8.137  0.2259  0.5631  0.1813
 6839SOL    HW132150   0.095   4.037   8.082  1.8169  1.4235  1.9035
 6839SOL    HW232151   4.687   4.086   8.081 -0.1350 -0.5608  0.1686
 6840SOL     OW32152   2.493   2.873   2.518 -0.1834 -0.2322 -0.1383
 6840SOL    HW132153   2.585   2.902   2.516  0.5527 -2.4448  1.9058
 6840SOL    HW232154   2.489   2.789   2.473 -1.2967 -0.7882  1.0088
 6841SOL     OW32155   0.852   2.117   5.427 -0.1673  0.4807  0.3354
 6841SOL    HW132156   0.897   2.175   5.489 -0.1009  0.2153  0.5318
 6841SOL    HW232157   0.891   2.156   5.348 -2.0920 -0.0957 -0.9207
 6842SOL     OW32158   2.768   3.664   2.592  0.1138  1.1106 -0.4679
 6842SOL    HW132159   2.745   3.580   2.551 -0.2974  0.7094  0.5902
 6842SOL    HW232160   2.681   3.701   2.581  0.3026  1.9222  0.7779
 6843SOL     OW32161   0.247   4.007   6.341 -0.0278 -0.2588  0.6357
 6843SOL    HW132162   0.209   3.927   6.304  0.2885 -1.4636  2.9322
 6843SOL    HW232163   0.339   3.990   6.320 -0.4119  0.2348 -1.4845
 6844SOL     OW32164   2.701   3.545   6.744 -0.3343 -0.3450  0.3510
 6844SOL    HW132165   2.608   3.552   6.769 -0.3975  2.5052 -0.7123
 6844SOL    HW232166   2.726   3.605   6.815  0.9903  0.3712 -0.7162
 6845SOL     OW32167   0.134   1.165  13.216 -0.3478 -0.4061 -0.3932
 6845SOL    HW132168   0.190   1.216  13.275 -0.9100 -0.0674 -0.1517
 6845SOL    HW232169   0.048   1.181  13.255 -0.0129  2.9716 -1.1219
 6846SOL     OW32170   0.281   4.427  11.453  0.1276  0.0760  0.6713
 6846SOL    HW132171   0.275   4.507  11.504  0.2059  0.9053 -0.6014
 6846SOL    HW232172   0.205   4.377  11.483 -0.5959  1.0170  0.3864
 6847SOL     OW32173   3.324   4.004   8.047  0.1463 -0.9372 -0.0791
 6847SOL    HW132174   3.375   3.930   8.080 -0.6740 -2.2676 -1.8027
 6847SOL    HW232175   3.233   3.973   8.053  0.4034 -1.5629  0.5963
 6848SOL     OW32176   4.240   0.002   6.486 -0.0775 -0.6484 -0.0914
 6848SOL    HW132177   4.278   0.082   6.449  0.0485 -0.7143 -0.1065
 6848SOL    HW232178   4.177   4.710   6.421 -1.3950  1.3689  0.2292
 6849SOL     OW32179   0.456   1.201   5.332 -0.2403  0.6673 -0.3086
 6849SOL    HW132180   0.437   1.109   5.350 -0.8819  1.1422  1.4913
 6849SOL    HW232181   0.369   1.243   5.332 -0.4430  0.2481 -0.2173
 6850SOL     OW32182   3.541   2.604  11.071 -0.6361 -0.5306 -0.4163
 6850SOL    HW132183   3.548   2.604  11.166  1.4409  1.8147 -0.5713
 6850SOL    HW232184   3.551   2.510  11.056  0.2510 -0.7109  1.3091
 6851SOL     OW32185   4.515   4.448   7.990  0.0829 -0.1360 -0.5194
 6851SOL    HW132186   4.440   4.488   8.034 -0.3010  1.1287 -2.2964
 6851SOL    HW232187   4.471   4.373   7.949  0.7780 -0.5289 -0.5419
 6852SOL     OW32188   1.973   4.634   9.419  0.0445  0.1601  0.3130
 6852SOL    HW132189   2.007   4.550   9.453  0.5055  0.8231  1.5015
 6852SOL    HW232190   2.043   4.667   9.363 -0.1887  0.4099  0.1731
 6853SOL     OW32191   4.639   2.276   4.083 -0.4762 -0.0517 -0.3156
 6853SOL    HW132192   4.559   2.266   4.136  0.1367 -0.2858  0.5620
 6853SOL    HW232193   4.704   2.280   4.153  0.3131 -0.2305 -1.0412
 6854SOL     OW32194   3.993   2.418  11.845 -0.0091  0.3810  0.6186
 6854SOL    HW132195   3.986   2.451  11.934  0.8990  0.9513  0.4726
 6854SOL    HW232196   4.083   2.392  11.829  0.4389  1.5074  1.3712
 6855SOL     OW32197   1.912   2.236   8.875  0.0261  0.1820 -0.0567
 6855SOL    HW132198   1.869   2.151   8.878  3.3528 -1.5547 -0.9196
 6855SOL    HW232199   1.864   2.275   8.948  0.5388  0.3525  0.1927
 6856SOL     OW32200   2.642   3.729   2.308 -0.0469 -0.1578 -0.1387
 6856SOL    HW132201   2.596   3.740   2.391  0.4951  3.5642 -0.3161
 6856SOL    HW232202   2.580   3.672   2.262  0.9638 -0.7895 -0.7027
 6857SOL     OW32203   4.295   2.580  10.145  0.2935 -0.6116 -0.1613
 6857SOL    HW132204   4.389   2.578  10.126  0.7852 -1.6416  2.3323
 6857SOL    HW232205   4.291   2.567  10.240 -1.0079 -0.7225 -0.2363
 6858SOL     OW32206   3.846   2.294  14.181  0.2060  0.2172 -0.3336
 6858SOL    HW132207   3.796   2.350  14.122 -2.5742 -2.6942 -0.7805
 6858SOL    HW232208   3.908   2.356  14.220 -1.8961  1.8937  0.3502
 6859SOL     OW32209   1.503   2.799   2.479  0.0657 -0.9071  0.1559
 6859SOL    HW132210   1.563   2.851   2.532 -1.4865 -1.3357  2.3491
 6859SOL    HW232211   1.518   2.711   2.514 -1.1733 -2.3546 -2.9539
 6860SOL     OW32212   1.590   3.140   7.106 -0.0328  0.2434  0.1051
 6860SOL    HW132213   1.602   3.065   7.048  2.2657 -1.1197  2.3635
 6860SOL    HW232214   1.635   3.115   7.187 -0.1814  2.4348  0.8789
 6861SOL     OW32215   2.605   3.236   8.695 -0.2875  0.2628  0.3830
 6861SOL    HW132216   2.595   3.210   8.604 -0.5044  0.3330  0.3868
 6861SOL    HW232217   2.561   3.161   8.736  0.6445 -0.5883 -0.1727
 6862SOL     OW32218   2.622   2.179  17.213 -0.3701 -0.5615 -0.2280
 6862SOL    HW132219   2.539   2.217  17.242 -0.4342 -1.3420  0.6180
 6862SOL    HW232220   2.584   2.100  17.175  0.7280 -0.4656 -1.4999
 6863SOL     OW32221   2.032   2.817   3.334  0.3955  0.2312 -0.1675
 6863SOL    HW132222   1.985   2.739   3.365 -1.1232  1.7863  1.4486
 6863SOL    HW232223   2.048   2.872   3.411 -0.3060 -1.3124  1.0753
 6864SOL     OW32224   0.023   0.645   7.759 -0.0526 -0.0225  0.4423
 6864SOL    HW132225   4.685   0.697   7.783 -1.0458 -1.5274  0.5001
 6864SOL    HW232226   4.718   0.578   7.706 -0.9414  1.4354 -0.6529
 6865SOL     OW32227   1.756   2.925  11.313  0.1833 -0.5253 -0.4109
 6865SOL    HW132228   1.772   2.837  11.345 -0.3512  0.2148  1.8919
 6865SOL    HW232229   1.745   2.969  11.397  2.2827 -2.6110  0.9451
 6866SOL     OW32230   0.481   0.830   8.037  0.2732 -0.2179  0.3863
 6866SOL    HW132231   0.518   0.856   8.121 -0.1200  2.6295 -0.3214
 6866SOL    HW232232   0.393   0.802   8.063 -0.5578  0.4462 -1.7220
 6867SOL     OW32233   0.837   0.136   7.177  0.6952 -0.6661  0.4778
 6867SOL    HW132234   0.746   0.112   7.190 -0.1487  0.5358 -3.2732
 6867SOL    HW232235   0.831   0.165   7.086  0.8410 -0.5613  0.5013
 6868SOL     OW32236   4.082   3.976   3.460 -0.0519 -0.0401 -0.1709
 6868SOL    HW132237   3.991   4.006   3.450  0.2513  0.8550 -0.3159
 6868SOL    HW232238   4.113   3.999   3.372  0.6207 -0.3427 -0.0036
 6869SOL     OW32239   0.931   1.903   2.721 -0.1615 -0.3376 -0.6741
 6869SOL    HW132240   0.856   1.951   2.757 -1.2667 -0.6510 -2.5468
 6869SOL    HW232241   0.895   1.882   2.634  0.2283  0.0326 -0.9225
 6870SOL     OW32242   1.652   1.036   2.453 -0.1541  0.2116 -0.0911
 6870SOL    HW132243   1.567   1.068   2.424 -0.2388 -0.2449 -0.3464
 6870SOL    HW232244   1.674   0.959   2.400 -0.7092  0.0558 -0.0883
 6871SOL     OW32245   0.147   0.018  15.771  0.1773 -0.2759 -0.0275
 6871SOL    HW132246   0.231   0.041  15.732  0.7696 -0.4257  1.1560
 6871SOL    HW232247   0.079   0.076  15.737  0.1028 -0.7496 -0.6803
 6872SOL     OW32248   2.070   3.111   4.525  0.3135 -0.7150  0.1120
 6872SOL    HW132249   1.980   3.117   4.558 -0.4269  0.4965 -2.0951
 6872SOL    HW232250   2.080   3.024   4.486  1.2420 -1.7407  2.6349
 6873SOL     OW32251   2.763   2.678  11.567  0.0041  0.3162 -0.0810
 6873SOL    HW132252   2.719   2.763  11.564  0.2839  0.4778  0.3742
 6873SOL    HW232253   2.816   2.682  11.488 -0.6973 -1.1246 -0.6136
 6874SOL     OW32254   3.376   3.567  14.950  0.3005 -0.4983  0.0541
 6874SOL    HW132255   3.293   3.542  14.910 -0.4399  0.0657  1.2570
 6874SOL    HW232256   3.383   3.658  14.919 -1.0777 -0.9635 -1.6083
 6875SOL     OW32257   4.724   2.569   5.123 -0.5451 -0.5390  0.5180
 6875SOL    HW132258   4.723   2.602   5.212 -4.6161  1.3758 -0.2317
 6875SOL    HW232259   0.079   2.551   5.124 -0.4627 -0.2779 -1.8379
 6876SOL     OW32260   0.554   0.733   5.590 -0.3848 -0.2082  0.8195
 6876SOL    HW132261   0.639   0.697   5.565 -1.4015 -1.1949 -1.1646
 6876SOL    HW232262   0.576   0.787   5.666  1.4362  1.9916 -1.2785
 6877SOL     OW32263   2.867   2.972  12.597 -0.1628  0.7751 -0.1054
 6877SOL    HW132264   2.881   2.883  12.565  0.5888  0.7107  0.3965
 6877SOL    HW232265   2.952   2.988  12.639 -0.4236 -2.7547  1.7445
 6878SOL     OW32266   1.338   2.869   9.319  0.2436 -0.1746  0.2064
 6878SOL    HW132267   1.351   2.896   9.409 -0.2415  1.4986 -0.2220
 6878SOL    HW232268   1.403   2.926   9.278 -0.7857  1.0952  0.3431
 6879SOL     OW32269   1.207   0.820   2.934 -0.0396  0.1861 -0.6903
 6879SOL    HW132270   1.287   0.827   2.881  1.3022 -1.6604  1.0996
 6879SOL    HW232271   1.177   0.731   2.914 -1.1491  0.6639 -1.1297
 6880SOL     OW32272   2.733   2.820   4.096 -0.3812  0.4241  0.1130
 6880SOL    HW132273   2.682   2.755   4.145 -0.6950 -0.6884 -1.7137
 6880SOL    HW232274   2.753   2.888   4.160  0.0032  1.0830 -0.7189
 6881SOL     OW32275   3.705   0.368  13.612 -0.7191 -0.2060  0.1194
 6881SOL    HW132276   3.663   0.361  13.526 -0.4150 -4.2887  0.2697
 6881SOL    HW232277   3.717   0.274  13.625  0.3959  0.0069  0.5733
 6882SOL     OW32278   4.621   4.603   0.127 -0.3907  0.3303 -0.6286
 6882SOL    HW132279   4.613   4.553   0.046 -2.8146 -0.3126  0.0183
 6882SOL    HW232280   4.649   4.541   0.194  2.4544  1.8733 -0.3733
 6883SOL     OW32281   1.348   3.075   1.698  0.8793 -0.0485 -0.2637
 6883SOL    HW132282   1.375   3.027   1.777  0.9334 -0.8731 -0.7847
 6883SOL    HW232283   1.262   3.108   1.726  0.6108 -0.9820  0.0387
 6884SOL     OW32284   1.795   1.809   6.250 -0.5250  0.0965  0.1365
 6884SOL    HW132285   1.816   1.894   6.211 -1.2731  1.0818  1.8445
 6884SOL    HW232286   1.875   1.763   6.225  0.2620  1.5831 -0.1248
 6885SOL     OW32287   0.124   3.517   5.394 -0.4513 -0.2434  0.2079
 6885SOL    HW132288   0.103   3.487   5.305 -1.7817  1.0110  0.0965
 6885SOL    HW232289   0.032   3.526   5.419 -0.9933 -3.6993 -0.6060
 6886SOL     OW32290   1.087   1.654   9.036 -0.1540  0.1597  0.2435
 6886SOL    HW132291   1.066   1.643   9.129  2.2478 -0.5365  0.6994
 6886SOL    HW232292   1.146   1.729   9.037  1.2626 -0.9588 -0.0904
 6887SOL     OW32293   2.656   1.680   2.286 -0.3813  0.1033 -0.0760
 6887SOL    HW132294   2.690   1.676   2.375 -2.7806  0.6985  0.8765
 6887SOL    HW232295   2.643   1.774   2.273 -1.0982 -0.0791 -0.7102
 6888SOL     OW32296   1.390   3.578  11.003  0.1550  0.4601  0.4519
 6888SOL    HW132297   1.392   3.626  11.086  1.8981 -0.9773  1.2374
 6888SOL    HW232298   1.353   3.651  10.952 -1.5192 -0.6116  0.1526
 6889SOL     OW32299   0.694   0.605  12.480  0.0255 -0.2330  0.6155
 6889SOL    HW132300   0.600   0.595  12.490 -0.2278  0.8569 -0.6724
 6889SOL    HW232301   0.698   0.672  12.412 -1.8627  0.0677  0.8194
 6890SOL     OW32302   2.269   0.061   7.186  0.2169 -0.1204  0.0025
 6890SOL    HW132303   2.304   0.009   7.114  3.1548  0.4240  1.0403
 6890SOL    HW232304   2.347   0.087   7.235 -0.1306 -0.8545  0.9408
 6891SOL     OW32305   1.698   0.893  12.061  0.2333 -0.5551  0.2502
 6891SOL    HW132306   1.721   0.875  12.152 -0.5721 -3.5973 -0.1607
 6891SOL    HW232307   1.783   0.891  12.016  0.5674 -1.2015  0.9048
 6892SOL     OW32308   4.408   0.773  16.269  0.0353 -0.2318 -0.1094
 6892SOL    HW132309   4.392   0.680  16.286  1.4837 -0.3925  0.3323
 6892SOL    HW232310   4.412   0.812  16.356  0.5151  0.0799 -0.2709
 6893SOL     OW32311   1.103   3.955   6.504  0.3671  0.1463  0.1955
 6893SOL    HW132312   1.177   4.010   6.532  0.3738  0.6678 -0.8314
 6893SOL    HW232313   1.037   4.019   6.531 -0.6286 -1.0510  0.5834
 6894SOL     OW32314   1.025   1.442   7.199  0.2098 -0.2246 -0.1498
 6894SOL    HW132315   1.007   1.474   7.111 -2.3556 -0.7386  0.1925
 6894SOL    HW232316   0.964   1.487   7.257  0.1567  0.0251 -0.4010
 6895SOL     OW32317   2.880   3.298   8.246  0.1075  0.5470  0.3664
 6895SOL    HW132318   2.905   3.261   8.162 -1.4907 -0.8807  0.5301
 6895SOL    HW232319   2.963   3.324   8.287 -0.1445 -0.3572  1.4545
 6896SOL     OW32320   3.955   3.767   0.582 -0.4629  0.1120 -0.4403
 6896SOL    HW132321   4.006   3.793   0.659 -1.8754 -1.0219  0.8540
 6896SOL    HW232322   3.873   3.811   0.605  0.1334 -0.1084  2.1507
 6897SOL     OW32323   1.971   3.210   5.380  0.2533 -0.6490 -0.0327
 6897SOL    HW132324   2.052   3.165   5.402  0.5205 -0.7888 -1.2761
 6897SOL    HW232325   1.927   3.145   5.325  0.0482 -1.4314  1.0707
 6898SOL     OW32326   4.604   1.311  10.571 -0.0556  0.0922 -0.3126
 6898SOL    HW132327   4.679   1.342  10.624  0.3294 -0.7135 -0.3884
 6898SOL    HW232328   4.656   1.248  10.521 -0.1155  0.8817 -1.3790
 6899SOL     OW32329   0.388   0.462   8.950  0.2487  0.0975  0.3325
 6899SOL    HW132330   0.344   0.416   8.878  0.2775  1.2583 -0.4439
 6899SOL    HW232331   0.341   0.546   8.948 -0.5246 -0.3446 -0.1985
 6900SOL     OW32332   0.674   0.225   9.227 -0.1962 -0.1115 -0.4048
 6900SOL    HW132333   0.732   0.174   9.171  1.1036  1.2943 -0.3263
 6900SOL    HW232334   0.669   0.158   9.296 -3.8461 -1.2507 -1.7922
 6901SOL     OW32335   0.260   3.533   3.885  0.3447  0.1378 -0.9363
 6901SOL    HW132336   0.192   3.598   3.866 -0.5102 -1.0587 -1.9156
 6901SOL    HW232337   0.238   3.460   3.828  0.5993 -0.3471 -0.4127
 6902SOL     OW32338   4.448   0.211   1.906  0.3544  0.3271 -0.5764
 6902SOL    HW132339   4.432   0.204   1.812 -2.2848 -2.1187  0.0410
 6902SOL    HW232340   4.540   0.237   1.905  0.6326 -0.6715 -0.9784
 6903SOL     OW32341   3.310   3.783   3.055 -0.2740 -0.4223  0.0027
 6903SOL    HW132342   3.304   3.711   3.118  0.3172  1.2472  2.0043
 6903SOL    HW232343   3.238   3.766   2.994 -0.1464  0.5858 -0.4293
 6904SOL     OW32344   0.205   1.060   7.259  0.3864 -0.5532 -0.0181
 6904SOL    HW132345   0.157   1.138   7.289  1.0580  0.9553 -2.9064
 6904SOL    HW232346   0.286   1.096   7.223 -0.4691  0.3949 -0.9989
 6905SOL     OW32347   1.194   3.119   7.008  0.6885 -0.0322  0.5376
 6905SOL    HW132348   1.235   3.203   6.989 -0.3580  0.0935 -1.2638
 6905SOL    HW232349   1.175   3.083   6.921  1.0405 -0.3138  0.5781
 6906SOL     OW32350   3.478   3.837  14.562  0.6905  0.7231 -0.0182
 6906SOL    HW132351   3.477   3.927  14.529 -1.9024  1.1772  1.3043
 6906SOL    HW232352   3.432   3.789  14.493 -0.4514  2.2087 -0.2931
 6907SOL     OW32353   0.929   1.707   3.985  0.4690 -0.2181  0.4927
 6907SOL    HW132354   0.875   1.686   3.909  3.1871 -1.1206 -1.1815
 6907SOL    HW232355   1.005   1.750   3.946 -0.2065 -1.7527 -2.5296
 6908SOL     OW32356   4.419   2.678   4.718 -0.4485 -0.5625 -0.0808
 6908SOL    HW132357   4.505   2.703   4.751 -0.0045 -2.6270  0.3368
 6908SOL    HW232358   4.388   2.610   4.778 -0.7660  1.0666  1.6428
 6909SOL     OW32359   2.686   3.355   7.944  0.9733 -0.8355  0.6745
 6909SOL    HW132360   2.773   3.317   7.954  0.4221 -2.1564  0.3299
 6909SOL    HW232361   2.704   3.444   7.912  0.2234 -1.1022 -0.4830
 6910SOL     OW32362   3.275   0.751   3.794 -0.6375  0.2305 -0.1255
 6910SOL    HW132363   3.345   0.705   3.839 -2.0590 -0.8747  0.9878
 6910SOL    HW232364   3.212   0.685   3.823 -0.1771 -0.2070 -0.1263
 6911SOL     OW32365   3.875   3.194   4.464 -0.5234  0.3502  0.5965
 6911SOL    HW132366   3.895   3.287   4.466 -0.6804  0.4208 -1.2427
 6911SOL    HW232367   3.884   3.172   4.371 -0.5352  0.6490  0.5245
 6912SOL     OW32368   1.469   3.417  10.265  0.2696  0.2347 -0.3287
 6912SOL    HW132369   1.551   3.377  10.295 -0.1385  0.5561  1.2028
 6912SOL    HW232370   1.451   3.481  10.334  0.7812  0.3164 -0.2716
 6913SOL     OW32371   2.050   2.931   1.711  0.7034 -0.1240  0.3090
 6913SOL    HW132372   2.096   2.865   1.659 -0.7230 -0.1440 -0.9221
 6913SOL    HW232373   1.983   2.961   1.650  0.7215 -0.8529 -0.0716
 6914SOL     OW32374   1.716   3.590  14.921 -0.0857  0.0434  0.3653
 6914SOL    HW132375   1.721   3.532  14.997 -0.9343  1.2141  1.3189
 6914SOL    HW232376   1.652   3.654  14.954  0.4817  0.2157  1.1314
 6915SOL     OW32377   4.213   2.644   2.422 -0.3495  0.7316 -0.8567
 6915SOL    HW132378   4.231   2.691   2.340 -0.8828 -0.0698 -1.4346
 6915SOL    HW232379   4.293   2.595   2.435 -1.1787 -0.7570 -1.3591
 6916SOL     OW32380   3.720   1.211   1.966 -0.8131  0.2262 -0.4030
 6916SOL    HW132381   3.808   1.210   1.929 -0.1370  0.0925  1.2317
 6916SOL    HW232382   3.659   1.174   1.901 -0.4661 -0.5048 -0.3136
 6917SOL     OW32383   2.372   3.281   3.708 -0.4588 -0.1447  0.4188
 6917SOL    HW132384   2.362   3.303   3.616 -2.4838 -1.7049  0.2903
 6917SOL    HW232385   2.462   3.315   3.716 -0.4925 -0.3832  1.7900
 6918SOL     OW32386   3.914   1.667  15.264 -0.0539  0.3515  0.4896
 6918SOL    HW132387   3.873   1.691  15.347 -0.0369  0.4211  0.4778
 6918SOL    HW232388   3.944   1.577  15.277 -1.2324 -0.6190 -3.4302
 6919SOL     OW32389   0.739   4.214   9.138 -0.1440 -0.6508  0.5064
 6919SOL    HW132390   0.805   4.269   9.094 -2.0966  0.0484 -1.5590
 6919SOL    HW232391   0.753   4.129   9.097  2.0683 -0.3395  0.6263
 6920SOL     OW32392   4.354   1.245   2.559  0.5871  0.0074 -0.3865
 6920SOL    HW132393   4.335   1.290   2.642 -1.7837 -1.5638 -0.0524
 6920SOL    HW232394   4.344   1.320   2.501  0.5277  0.4652  0.2095
 6921SOL     OW32395   0.575   2.175   1.047  0.2168  0.5951 -0.5974
 6921SOL    HW132396   0.601   2.086   1.022 -1.6710 -0.4456  1.1229
 6921SOL    HW232397   0.483   2.178   1.021  0.3528  3.9798 -0.6961
 6922SOL     OW32398   1.208   2.791   9.095  0.2496 -0.1393 -0.2200
 6922SOL    HW132399   1.223   2.816   9.186 -0.7442  0.3839 -0.1995
 6922SOL    HW232400   1.297   2.785   9.059  0.8565  0.6465  1.1355
 6923SOL     OW32401   3.704   1.945  12.616  0.3223 -0.1996  0.2861
 6923SOL    HW132402   3.711   1.849  12.618  0.2323 -0.2251 -0.9404
 6923SOL    HW232403   3.783   1.972  12.664  0.7794 -3.0364  1.1946
 6924SOL     OW32404   2.483   3.211   7.812 -0.1639  0.2222 -0.4741
 6924SOL    HW132405   2.526   3.244   7.890 -1.7264 -2.6758  1.5917
 6924SOL    HW232406   2.445   3.295   7.785 -0.0744  1.0765  2.0811
 6925SOL     OW32407   2.298   3.894   6.420 -0.3387  0.3337 -0.0313
 6925SOL    HW132408   2.361   3.867   6.487  0.7191 -1.6723 -1.8119
 6925SOL    HW232409   2.325   3.983   6.398  1.7525  0.2749  2.3466
 6926SOL     OW32410   3.425   0.435   9.757  0.3917  0.0943  0.1442
 6926SOL    HW132411   3.492   0.481   9.808  0.4189  0.4335 -0.1966
 6926SOL    HW232412   3.403   0.375   9.829  0.3696  0.3379  0.3444
 6927SOL     OW32413   4.456   2.601   5.862 -0.7597 -0.2272 -0.0281
 6927SOL    HW132414   4.380   2.636   5.909 -2.0354 -2.8657 -0.1337
 6927SOL    HW232415   4.410   2.554   5.793 -1.3351  0.7502 -0.3184
 6928SOL     OW32416   0.272   0.123   6.564 -0.0705  0.4358  0.4994
 6928SOL    HW132417   0.353   0.131   6.513  1.4550 -2.4009  2.4940
 6928SOL    HW232418   0.207   0.091   6.500  0.3208 -0.6820  0.6655
 6929SOL     OW32419   4.533   1.122   7.013 -0.3977 -0.1430  0.2367
 6929SOL    HW132420   4.490   1.040   7.038 -1.7582  0.3433 -0.4992
 6929SOL    HW232421   4.574   1.100   6.929  0.1938 -0.6359  0.6462
 6930SOL     OW32422   3.895   0.448  13.337  0.1471  0.0660  0.2764
 6930SOL    HW132423   3.826   0.384  13.355  0.9406 -1.6498 -2.6713
 6930SOL    HW232424   3.918   0.424  13.247 -0.4732 -0.9336  0.3804
 6931SOL     OW32425   1.081   3.160   7.531  0.3034 -0.2488 -0.8184
 6931SOL    HW132426   1.167   3.199   7.519 -0.5535  0.6966 -3.7412
 6931SOL    HW232427   1.038   3.172   7.446 -0.5424 -1.0706 -0.5136
 6932SOL     OW32428   3.206   2.765  15.726  0.2790  0.0555  0.6165
 6932SOL    HW132429   3.283   2.821  15.715  0.1360  0.5216  1.9458
 6932SOL    HW232430   3.160   2.820  15.789 -1.4843 -0.7484  0.0233
 6933SOL     OW32431   1.494   1.614   5.451 -0.6089 -0.2059  0.5556
 6933SOL    HW132432   1.577   1.644   5.414 -0.8165  1.5274  1.4620
 6933SOL    HW232433   1.457   1.573   5.373  0.4069  0.6616 -0.3840
 6934SOL     OW32434   2.591   2.044  12.553  1.3354 -0.3217  0.0806
 6934SOL    HW132435   2.640   1.980  12.501 -2.2465 -2.6743 -0.4085
 6934SOL    HW232436   2.589   1.997  12.636  0.4294  0.8756  0.7342
 6935SOL     OW32437   1.183   4.165   3.431 -0.0615  0.0445  0.1187
 6935SOL    HW132438   1.226   4.211   3.503 -0.7840 -0.2699  0.7416
 6935SOL    HW232439   1.163   4.085   3.481  2.0999  0.4688  1.6759
 6936SOL     OW32440   4.325   1.513  16.304  0.2773 -0.6518  0.4230
 6936SOL    HW132441   4.384   1.588  16.318  1.7247 -1.5658 -0.7984
 6936SOL    HW232442   4.383   1.444  16.336 -0.1384 -1.9189 -1.5679
 6937SOL     OW32443   3.515   3.146   6.680 -0.2646  0.0867  0.1263
 6937SOL    HW132444   3.482   3.072   6.731  0.7330 -1.0260 -0.8403
 6937SOL    HW232445   3.599   3.154   6.724 -0.1452 -0.9936  0.1035
 6938SOL     OW32446   1.572   3.269   1.707  0.0086 -0.3631  0.0740
 6938SOL    HW132447   1.502   3.205   1.714 -1.6968  1.3023 -1.6699
 6938SOL    HW232448   1.535   3.347   1.665  0.9970  0.6857  1.1202
 6939SOL     OW32449   1.371   1.564  16.869 -0.0819  0.2467 -0.2576
 6939SOL    HW132450   1.343   1.557  16.960  2.1674  0.4359  0.4714
 6939SOL    HW232451   1.370   1.659  16.855 -1.3899  0.3453  0.5659
 6940SOL     OW32452   0.123   1.522   3.812 -0.1691 -0.2065 -0.6168
 6940SOL    HW132453   0.079   1.594   3.767  2.6688  1.9335  0.0631
 6940SOL    HW232454   0.046   1.472   3.841  0.2638 -1.4873 -1.7106
 6941SOL     OW32455   3.431   0.800  15.351  0.2845 -0.0690  0.0071
 6941SOL    HW132456   3.436   0.757  15.265 -1.0976  1.1596 -0.7063
 6941SOL    HW232457   3.388   0.878  15.315 -0.6135 -0.4616  0.2112
 6942SOL     OW32458   2.147   4.408   9.470  0.4497 -0.6848  0.0370
 6942SOL    HW132459   2.237   4.416   9.503  0.3857 -1.1753  0.3280
 6942SOL    HW232460   2.153   4.337   9.406 -0.2161 -0.1679 -0.5953
 6943SOL     OW32461   3.235   1.676   6.260 -0.1257  0.0476 -0.1298
 6943SOL    HW132462   3.262   1.716   6.343 -0.2320 -0.2814  0.0643
 6943SOL    HW232463   3.200   1.750   6.210 -0.1244  0.0066 -0.1912
 6944SOL     OW32464   0.377   3.100   8.459  0.5434  0.0679  0.0737
 6944SOL    HW132465   0.287   3.066   8.460  0.1639  1.1265  3.0802
 6944SOL    HW232466   0.411   3.044   8.389 -1.5636  0.1963 -1.0587
 6945SOL     OW32467   3.875   2.390  13.391  0.0023 -0.4067  0.3435
 6945SOL    HW132468   3.862   2.360  13.301  1.0703  0.4285 -0.0843
 6945SOL    HW232469   3.962   2.429  13.382  0.0977 -0.1340  2.3045
 6946SOL     OW32470   3.319   1.513   4.517 -0.4429  0.9897 -0.2588
 6946SOL    HW132471   3.245   1.571   4.499 -1.0120  0.5771  0.7390
 6946SOL    HW232472   3.364   1.553   4.591 -1.1112 -0.5219  0.9730
 6947SOL     OW32473   3.855   0.835   9.254  0.1833  0.3855 -0.5362
 6947SOL    HW132474   3.921   0.887   9.299  1.2285 -0.9634 -0.5030
 6947SOL    HW232475   3.799   0.817   9.330 -1.2945  1.1337 -1.4429
 6948SOL     OW32476   2.695   2.057  16.941  0.9220  0.4518 -0.2038
 6948SOL    HW132477   2.706   2.004  17.019  0.7950 -0.5829 -0.8933
 6948SOL    HW232478   2.664   2.143  16.972 -0.4361 -0.8843  2.1500
 6949SOL     OW32479   3.730   4.509   8.073 -0.9592 -0.2869  0.3985
 6949SOL    HW132480   3.730   4.443   8.142  3.6025 -1.5179 -0.7357
 6949SOL    HW232481   3.636   4.515   8.053 -1.1290 -2.1831  0.6641
 6950SOL     OW32482   1.604   3.560   1.279 -0.2168 -0.6254  0.1577
 6950SOL    HW132483   1.552   3.526   1.352 -1.1299  0.3281 -0.0459
 6950SOL    HW232484   1.691   3.539   1.314 -0.0375 -0.8733 -0.4498
 6951SOL     OW32485   0.663   0.798   4.896  0.4491 -0.1190 -0.1494
 6951SOL    HW132486   0.659   0.855   4.973  0.5627 -0.3064 -0.0056
 6951SOL    HW232487   0.577   0.755   4.894  0.8490 -0.8152 -2.1785
 6952SOL     OW32488   2.611   4.351  15.254 -0.1685 -0.0147 -0.2920
 6952SOL    HW132489   2.683   4.313  15.202 -0.4191  0.4943 -0.9969
 6952SOL    HW232490   2.624   4.440  15.223  0.3672  0.2933  0.8187
 6953SOL     OW32491   0.690   2.069   9.377  0.0875  0.3003 -0.3123
 6953SOL    HW132492   0.749   2.065   9.301  1.1723  1.6544  0.4540
 6953SOL    HW232493   0.704   2.159   9.409 -0.6383 -0.2480  1.5509
 6954SOL     OW32494   2.130   4.462  14.992  0.3715 -0.5567 -0.2907
 6954SOL    HW132495   2.061   4.404  14.960  0.4740 -0.4872 -0.6435
 6954SOL    HW232496   2.105   4.454  15.084  0.6213 -1.7761 -0.3184
 6955SOL     OW32497   3.248   0.875   0.982  0.1877  0.1939 -0.1486
 6955SOL    HW132498   3.244   0.827   0.899  2.0981 -0.6904  0.2611
 6955SOL    HW232499   3.163   0.881   1.025  0.4881 -1.2823  0.6411
 6956SOL     OW32500   1.090   1.742   2.253  0.0766 -0.1296  0.0400
 6956SOL    HW132501   1.127   1.788   2.328  2.4146  0.1444 -1.3111
 6956SOL    HW232502   1.104   1.651   2.276 -1.4905 -0.6099 -0.9164
 6957SOL     OW32503   2.648   4.711   2.930 -1.0817 -0.2773  0.7612
 6957SOL    HW132504   2.570   4.659   2.910 -0.3187 -2.1661  2.5901
 6957SOL    HW232505   2.715   4.663   2.881 -2.0454 -1.6461  0.7651
 6958SOL     OW32506   3.091   4.181   8.315 -0.4583  0.3269  1.1654
 6958SOL    HW132507   3.096   4.276   8.305 -0.7847  0.2821  0.5788
 6958SOL    HW232508   3.182   4.152   8.318 -0.0320  1.3645 -2.2923
 6959SOL     OW32509   3.677   2.405   7.675  0.0256  0.3629 -0.2311
 6959SOL    HW132510   3.630   2.322   7.663 -2.2311  1.6965 -0.6221
 6959SOL    HW232511   3.750   2.393   7.615 -1.4150  0.0220 -1.9241
 6960SOL     OW32512   2.705   4.712   3.396 -0.0930 -0.2390  0.3218
 6960SOL    HW132513   2.642   4.730   3.327  0.2259  1.2516  0.4354
 6960SOL    HW232514   2.788   4.726   3.352  0.6920 -0.4859  1.7299
 6961SOL     OW32515   2.526   1.459   2.212 -1.0261  0.1775  0.4547
 6961SOL    HW132516   2.561   1.546   2.231 -1.3374  0.0000  1.8313
 6961SOL    HW232517   2.440   1.486   2.183 -0.7809  0.2256 -0.2197
 6962SOL     OW32518   1.075   0.996   6.090  0.3996 -0.5639 -0.0414
 6962SOL    HW132519   1.084   1.047   6.009 -2.0376 -0.8191 -0.4856
 6962SOL    HW232520   0.981   1.002   6.105  0.6748 -0.8784  1.7103
 6963SOL     OW32521   1.904   0.754   7.326  0.4652 -1.0619 -0.5547
 6963SOL    HW132522   1.957   0.733   7.403  2.4819  2.7833 -0.8880
 6963SOL    HW232523   1.895   0.661   7.306 -0.5354 -0.6862 -1.8374
 6964SOL     OW32524   2.525   3.781   2.540 -0.4042 -0.1289  0.1871
 6964SOL    HW132525   2.525   3.874   2.565 -0.5622 -0.3505  1.0146
 6964SOL    HW232526   2.437   3.760   2.570 -0.5367  0.2944  0.0976
 6965SOL     OW32527   2.567   2.378   5.092 -0.2534  0.1814 -0.8626
 6965SOL    HW132528   2.522   2.441   5.148  1.1256  0.2381  0.1858
 6965SOL    HW232529   2.655   2.398   5.124 -0.1658 -1.6020  0.0375
 6966SOL     OW32530   0.230   3.600   2.945  0.7837 -0.5777 -0.2446
 6966SOL    HW132531   0.249   3.678   2.894  2.9415 -0.6807  0.4206
 6966SOL    HW232532   0.227   3.531   2.880 -0.6468 -0.4860 -0.2810
 6967SOL     OW32533   4.064   2.539   7.503  0.5036 -0.0558 -0.4079
 6967SOL    HW132534   4.112   2.600   7.559  1.2796 -0.4378 -0.6663
 6967SOL    HW232535   4.044   2.476   7.572 -1.8374  1.3310  0.2107
 6968SOL     OW32536   3.760   2.438  15.096 -0.4687 -0.3077  0.5760
 6968SOL    HW132537   3.824   2.489  15.046 -0.9533 -0.2423  0.0236
 6968SOL    HW232538   3.814   2.368  15.134 -1.1750 -2.0664 -1.6570
 6969SOL     OW32539   1.968   2.571  16.284 -0.1354  0.2536 -0.0712
 6969SOL    HW132540   2.016   2.646  16.247 -1.0998  0.8204 -0.1612
 6969SOL    HW232541   1.985   2.499  16.223  0.0666  1.2901 -1.2245
 6970SOL     OW32542   3.147   0.882   5.954 -0.1367 -0.1833  0.1859
 6970SOL    HW132543   3.135   0.856   5.862 -2.1161  2.4455 -0.2920
 6970SOL    HW232544   3.190   0.966   5.944  2.5540 -1.4635  1.1475
 6971SOL     OW32545   4.201   1.837   2.812  0.1907 -0.0665  0.2040
 6971SOL    HW132546   4.164   1.751   2.795  2.1957 -0.4953 -1.8912
 6971SOL    HW232547   4.244   1.825   2.897  0.0524  3.4255  0.7800
 6972SOL     OW32548   0.134   3.356   3.707 -0.3029  0.3995  0.0094
 6972SOL    HW132549   0.045   3.366   3.672 -0.0599  0.7662 -0.5178
 6972SOL    HW232550   0.142   3.261   3.696 -1.4125  0.2636  0.3969
 6973SOL     OW32551   2.654   3.240   6.331 -0.6156  0.1391  0.0093
 6973SOL    HW132552   2.567   3.259   6.296 -0.5053  1.1698  0.2920
 6973SOL    HW232553   2.673   3.309   6.394 -2.8065  1.2997 -0.5989
 6974SOL     OW32554   4.364   1.730   1.671  0.3029  0.0854 -0.2743
 6974SOL    HW132555   4.299   1.800   1.661 -0.5576 -0.5938  0.5502
 6974SOL    HW232556   4.319   1.662   1.720 -0.3105  0.3385 -0.4843
 6975SOL     OW32557   3.835   0.148   5.612  0.1095  0.2924 -0.4314
 6975SOL    HW132558   3.783   0.198   5.675  0.2973 -0.9590  0.7273
 6975SOL    HW232559   3.919   0.193   5.604  0.0728  0.4907  0.3281
 6976SOL     OW32560   3.693   2.916   0.627  0.1427 -0.4079  0.1788
 6976SOL    HW132561   3.614   2.862   0.636  0.2325 -0.5672  0.0069
 6976SOL    HW232562   3.730   2.892   0.542  1.7415  0.8421  0.5382
 6977SOL     OW32563   3.841   0.044   9.224  0.2309  0.0561 -0.2484
 6977SOL    HW132564   3.789   0.037   9.304  1.9156 -1.8306  0.6697
 6977SOL    HW232565   3.831   0.133   9.188 -1.6947  0.6864  1.8174
 6978SOL     OW32566   0.147   0.981   8.820  0.1464  0.1969  0.2619
 6978SOL    HW132567   0.242   0.986   8.809  0.0324  0.6350 -0.5343
 6978SOL    HW232568   0.123   1.045   8.754  0.3418 -2.2930 -2.2301
 6979SOL     OW32569   0.687   4.675   5.282 -0.2497  0.0010  0.0758
 6979SOL    HW132570   0.632   4.651   5.356 -2.2654  1.1427 -1.0474
 6979SOL    HW232571   0.647   4.627   5.209  1.5946  0.9447 -1.5655
 6980SOL     OW32572   0.176   0.490   2.366 -0.0857 -0.5174 -0.5756
 6980SOL    HW132573   0.179   0.446   2.452 -1.9706 -1.2408 -0.8635
 6980SOL    HW232574   0.168   0.580   2.398  1.8097 -0.9995  1.2616
 6981SOL     OW32575   0.445   3.873   1.777 -0.2239  0.0761 -0.2870
 6981SOL    HW132576   0.520   3.823   1.811  0.1195 -0.1923 -1.4280
 6981SOL    HW232577   0.498   3.934   1.727  2.7110 -0.9622  1.5077
 6982SOL     OW32578   0.531   4.066   6.982  0.1537  0.5284  0.1474
 6982SOL    HW132579   0.475   3.988   6.978 -0.5228  1.0533 -0.6756
 6982SOL    HW232580   0.478   4.105   7.052  1.4286 -2.3239  2.6675
 6983SOL     OW32581   1.537   3.969   5.163 -0.5639  0.7605  0.4907
 6983SOL    HW132582   1.505   4.058   5.176 -1.0450  0.8299 -1.1742
 6983SOL    HW232583   1.518   3.940   5.252  1.0906  0.0675  0.6221
 6984SOL     OW32584   1.525   4.121   1.681 -0.1625  0.4853 -0.0969
 6984SOL    HW132585   1.467   4.193   1.704 -0.5031 -0.0763  0.8226
 6984SOL    HW232586   1.535   4.093   1.772 -0.4093 -0.5250 -0.3765
 6985SOL     OW32587   1.478   0.300   3.974 -0.2201  0.1454 -0.5372
 6985SOL    HW132588   1.390   0.278   4.004  0.1954  0.6561  1.0533
 6985SOL    HW232589   1.486   0.379   4.026  0.3430 -0.8171  0.8339
 6986SOL     OW32590   3.106   3.634   4.665  0.4695 -0.2138  0.0476
 6986SOL    HW132591   3.139   3.546   4.645  0.7127 -0.2470  0.5939
 6986SOL    HW232592   3.034   3.616   4.726  0.1632 -0.6146 -0.4303
 6987SOL     OW32593   2.899   4.590  14.628  0.2872 -0.2336  0.0576
 6987SOL    HW132594   2.824   4.537  14.600 -0.9230  0.5632  1.7752
 6987SOL    HW232595   2.900   4.660  14.563  0.6376  0.3137  0.6596
 6988SOL     OW32596   4.431   2.468   1.918 -0.0564  0.4866  0.3965
 6988SOL    HW132597   4.399   2.384   1.952 -1.7255  1.1152  0.4109
 6988SOL    HW232598   4.427   2.444   1.825 -0.6664  3.0128 -0.2111
 6989SOL     OW32599   4.138   4.568   0.352  0.3637 -0.4455 -0.8768
 6989SOL    HW132600   4.109   4.501   0.289  0.3011  1.4284 -2.8239
 6989SOL    HW232601   4.165   4.524   0.433  0.4549  3.3744  1.1464
 6990SOL     OW32602   1.418   2.594   9.376 -0.1598 -0.2865 -0.5742
 6990SOL    HW132603   1.504   2.619   9.409  0.5828 -2.6446 -0.7044
 6990SOL    HW232604   1.393   2.676   9.333 -2.8135 -0.7098  0.1268
 6991SOL     OW32605   4.069   1.308  12.181 -0.1473 -0.2660 -0.0921
 6991SOL    HW132606   4.132   1.377  12.202 -0.6057  0.5382 -1.3884
 6991SOL    HW232607   4.024   1.347  12.107  0.6837  0.9803  0.0611
 6992SOL     OW32608   0.467   2.930   5.866  0.0705 -0.1939 -0.1617
 6992SOL    HW132609   0.553   2.972   5.872 -1.7069  3.2404  1.1021
 6992SOL    HW232610   0.490   2.843   5.834  0.7059  0.0750 -0.4259
 6993SOL     OW32611   3.835   3.200   3.171  0.6803  0.3974 -0.3622
 6993SOL    HW132612   3.771   3.129   3.184 -1.7302  2.2991 -1.8443
 6993SOL    HW232613   3.779   3.256   3.117  2.3572  2.4227 -0.0005
 6994SOL     OW32614   2.531   1.901   9.527  0.3760 -0.7511 -0.1366
 6994SOL    HW132615   2.489   1.845   9.461 -0.5757 -1.1444  0.8015
 6994SOL    HW232616   2.582   1.844   9.584 -0.4132 -1.4240 -0.0956
 6995SOL     OW32617   1.720   1.257  11.295 -0.8051 -0.0556 -1.2782
 6995SOL    HW132618   1.735   1.229  11.205 -0.7672  0.1342 -1.3298
 6995SOL    HW232619   1.751   1.178  11.341 -0.0161  0.6217 -0.6485
 6996SOL     OW32620   3.236   4.387  17.691  0.1666  0.3579 -0.7841
 6996SOL    HW132621   3.223   4.298  17.726  2.3142  0.0644 -0.7697
 6996SOL    HW232622   3.145   4.413  17.706  0.9112  1.6822  1.4449
 6997SOL     OW32623   3.881   3.913   6.683  0.0058  0.2392 -0.2975
 6997SOL    HW132624   3.886   3.947   6.773  1.0453  1.1400 -0.6898
 6997SOL    HW232625   3.891   3.999   6.641  0.9927  0.4427  0.3431
 6998SOL     OW32626   3.350   0.142   3.561  0.1372  0.0817 -0.0707
 6998SOL    HW132627   3.409   0.068   3.572 -0.1426 -0.4985 -2.4273
 6998SOL    HW232628   3.287   0.134   3.632 -0.0788  1.0819 -0.1379
 6999SOL     OW32629   3.373   3.385  15.541 -0.3242  0.5485  0.2301
 6999SOL    HW132630   3.348   3.427  15.459 -1.5014 -0.0423  0.2771
 6999SOL    HW232631   3.330   3.441  15.606  0.9588  2.1700 -0.3319
 7000SOL     OW32632   1.689   1.048   6.018  0.0103  0.8523 -0.4720
 7000SOL    HW132633   1.750   1.030   5.946 -0.7676 -1.1678 -0.6207
 7000SOL    HW232634   1.752   1.069   6.087  2.4138 -0.5634 -2.2230
 7001SOL     OW32635   0.155   2.022   9.422 -0.1811 -0.0168  0.4454
 7001SOL    HW132636   0.158   1.928   9.402  1.0830  0.0984  0.0646
 7001SOL    HW232637   0.132   2.028   9.515  0.4520 -0.7686  0.6495
 7002SOL     OW32638   3.402   3.340   6.300  0.3228  0.6375  0.0471
 7002SOL    HW132639   3.370   3.330   6.389  0.6443  1.0901  0.2168
 7002SOL    HW232640   3.356   3.423   6.289 -1.5808 -0.3941  0.3442
 7003SOL     OW32641   2.085   3.681   2.444 -0.2025 -0.3097 -0.6036
 7003SOL    HW132642   2.134   3.656   2.522 -0.7245  0.7939  0.0750
 7003SOL    HW232643   2.039   3.762   2.465  0.0756  0.4934 -3.0528
 7004SOL     OW32644   3.348   4.492  17.090 -0.4521 -0.5119 -0.2281
 7004SOL    HW132645   3.331   4.478  17.183 -0.0698  1.6530  0.1608
 7004SOL    HW232646   3.307   4.577  17.074 -0.5172 -0.4160  0.4536
 7005SOL     OW32647   2.460   2.840   9.603 -0.0381  0.3412  0.2714
 7005SOL    HW132648   2.556   2.848   9.602  0.0498 -0.4556  2.7694
 7005SOL    HW232649   2.452   2.770   9.668  2.3950 -1.3658 -1.2381
 7006SOL     OW32650   3.434   3.307   4.378 -0.1821  0.1545  0.4573
 7006SOL    HW132651   3.430   3.213   4.396  1.9652 -0.7544 -3.9742
 7006SOL    HW232652   3.340   3.322   4.372 -0.2614 -0.1691  0.9408
 7007SOL     OW32653   3.601   1.284  17.611  0.3732  0.3179 -0.3701
 7007SOL    HW132654   3.693   1.308  17.629  0.8036 -0.4833 -1.5172
 7007SOL    HW232655   3.597   1.189  17.618 -0.3817  0.2528 -1.6384
 7008SOL     OW32656   3.448   0.645  16.237 -0.2107  0.0101 -0.5010
 7008SOL    HW132657   3.398   0.601  16.169 -2.5335 -0.7280  1.6699
 7008SOL    HW232658   3.474   0.719  16.183 -2.5097  1.2895  0.1787
 7009SOL     OW32659   4.013   3.134   1.658 -0.1565 -0.3312  0.8206
 7009SOL    HW132660   4.078   3.175   1.717 -1.3242 -1.4372  2.8637
 7009SOL    HW232661   3.941   3.196   1.664  0.2533 -0.0043  2.4308
 7010SOL     OW32662   3.870   2.511   1.492 -0.2746  0.2846 -0.4483
 7010SOL    HW132663   3.933   2.582   1.487 -1.7796  1.5876 -1.1514
 7010SOL    HW232664   3.919   2.429   1.483 -0.8361  0.1561 -2.3366
 7011SOL     OW32665   0.964   0.690   6.932  0.2571  1.0679 -0.5135
 7011SOL    HW132666   1.026   0.662   6.865 -0.2187  1.1351 -0.9773
 7011SOL    HW232667   0.922   0.762   6.885 -0.7179 -0.1355 -1.4970
 7012SOL     OW32668   0.122   1.236   0.582 -0.0175  0.1270  0.1486
 7012SOL    HW132669   0.132   1.143   0.602  2.2609  0.3637  0.2042
 7012SOL    HW232670   0.138   1.277   0.667 -0.9407  1.5035 -0.3480
 7013SOL     OW32671   4.448   1.372   2.065  0.2975 -0.7918 -0.3408
 7013SOL    HW132672   4.517   1.316   2.029  0.4221 -0.5696 -0.4483
 7013SOL    HW232673   4.440   1.346   2.156  0.1135  0.5813  0.0322
 7014SOL     OW32674   1.165   3.336   7.778  0.0741 -0.0660  0.4231
 7014SOL    HW132675   1.216   3.285   7.715  1.5229  1.1435  0.6272
 7014SOL    HW232676   1.171   3.279   7.854  1.0940  0.6735  0.8862
 7015SOL     OW32677   4.380   2.752   3.353 -0.3546  0.3127 -0.1306
 7015SOL    HW132678   4.356   2.775   3.263  0.2532  3.7733  0.5916
 7015SOL    HW232679   4.428   2.829   3.383 -1.3295  1.0455 -0.4301
 7016SOL     OW32680   4.128   3.568   4.792 -0.7558  0.5489  0.1288
 7016SOL    HW132681   4.104   3.643   4.738  0.8181  0.2496 -0.9913
 7016SOL    HW232682   4.143   3.505   4.721  0.4210  1.1511 -0.1577
 7017SOL     OW32683   3.656   3.463   1.653 -0.0357 -0.3179 -0.5424
 7017SOL    HW132684   3.571   3.432   1.621 -1.6546  2.6833  0.8802
 7017SOL    HW232685   3.689   3.464   1.564  0.9314  3.7686 -0.1547
 7018SOL     OW32686   1.837   2.969  17.583  0.5607  0.0585 -0.0244
 7018SOL    HW132687   1.878   3.041  17.534 -0.8637  1.2876  0.5943
 7018SOL    HW232688   1.774   2.939  17.517  0.6573 -0.4327  0.1120
 7019SOL     OW32689   1.034   2.000   6.122  0.0466 -0.2243 -0.4571
 7019SOL    HW132690   0.938   1.996   6.123 -0.0451  2.6639  1.5037
 7019SOL    HW232691   1.049   2.089   6.092  2.2901 -1.0832 -1.8489
 7020SOL     OW32692   4.427   3.758   3.436  0.3860  0.3042 -0.0086
 7020SOL    HW132693   4.342   3.728   3.406 -0.2930  1.8107  0.4145
 7020SOL    HW232694   4.467   3.766   3.349 -4.1907 -1.2130 -2.2441
 7021SOL     OW32695   1.611   3.788   3.105 -0.0563  0.3471 -0.0210
 7021SOL    HW132696   1.610   3.880   3.132  0.1260  0.4245 -0.2752
 7021SOL    HW232697   1.524   3.749   3.110 -0.2260  0.7028 -0.2317
 7022SOL     OW32698   2.685   3.689  12.045 -0.2717  0.3138 -0.2455
 7022SOL    HW132699   2.757   3.747  12.020  0.6028 -0.9825 -0.7373
 7022SOL    HW232700   2.619   3.755  12.024 -1.8820 -1.4353 -0.6389
 7023SOL     OW32701   2.384   0.279   0.043  0.5694 -0.3651 -0.0675
 7023SOL    HW132702   2.467   0.322   0.020  1.1205 -1.5692 -0.3297
 7023SOL    HW232703   2.389   0.295   0.137 -0.5026  0.1887 -0.1070
 7024SOL     OW32704   3.801   3.830  16.764 -0.2116 -0.2666 -0.0747
 7024SOL    HW132705   3.858   3.789  16.829  0.0186  0.5226  0.2244
 7024SOL    HW232706   3.864   3.836  16.692 -1.8981 -0.6367 -1.5601
 7025SOL     OW32707   2.389   2.327  13.222 -0.7080  0.3523  0.1015
 7025SOL    HW132708   2.371   2.361  13.135  0.0097  0.4773  0.0019
 7025SOL    HW232709   2.331   2.387  13.269 -1.2084  0.7009 -0.9771
 7026SOL     OW32710   2.971   0.858   8.443 -0.5163  0.4243  0.1077
 7026SOL    HW132711   3.033   0.929   8.462  1.0243 -1.8284  3.6692
 7026SOL    HW232712   2.948   0.839   8.534 -3.1389  0.6660 -0.4985
 7027SOL     OW32713   3.456   0.017   2.268  0.4132 -0.5333 -0.1565
 7027SOL    HW132714   3.443   4.665   2.293 -0.1588 -0.6990 -1.0979
 7027SOL    HW232715   3.376   0.027   2.217  1.3569 -3.6237 -2.2599
 7028SOL     OW32716   3.320   4.660   4.029  0.1056 -0.6616  0.1937
 7028SOL    HW132717   3.248   4.621   3.979  0.5795 -2.2409  0.7410
 7028SOL    HW232718   3.393   4.644   3.969  0.4356 -1.1431  0.7236
 7029SOL     OW32719   3.061   2.759   5.592 -0.1283 -0.5991  0.2099
 7029SOL    HW132720   3.075   2.823   5.662  0.4651  1.9279 -2.2371
 7029SOL    HW232721   3.047   2.671   5.627  0.3392 -0.3593  1.0044
 7030SOL     OW32722   4.603   1.846   9.485  0.2168  0.7652  0.2983
 7030SOL    HW132723   4.633   1.769   9.534  0.1801  0.5111 -0.0773
 7030SOL    HW232724   4.662   1.912   9.521  0.8614  0.3361  0.0539
 7031SOL     OW32725   2.112   4.680  16.782  0.2398 -0.1520 -0.3122
 7031SOL    HW132726   2.016   4.678  16.780  0.3033 -1.9071 -1.8365
 7031SOL    HW232727   2.132   4.590  16.756 -0.2216 -0.4621  0.4437
 7032SOL     OW32728   2.748   0.641   6.182 -0.4397 -0.1303 -0.0736
 7032SOL    HW132729   2.769   0.552   6.155 -0.8147  0.5066 -2.4119
 7032SOL    HW232730   2.822   0.695   6.156  1.0226 -0.6593  2.9246
 7033SOL     OW32731   4.210   0.479   3.252 -0.1461  0.5051  0.0442
 7033SOL    HW132732   4.172   0.457   3.166 -0.8909 -0.7342  0.6956
 7033SOL    HW232733   4.193   0.572   3.237  0.7110  0.3995 -1.6754
 7034SOL     OW32734   1.358   1.228  12.927  0.0773  0.3247 -0.0942
 7034SOL    HW132735   1.272   1.247  12.888 -0.3980  0.1954  0.8683
 7034SOL    HW232736   1.361   1.133  12.928 -0.4304  0.2962 -1.5578
 7035SOL     OW32737   1.222   3.909  14.680  0.1525 -0.4863  0.3967
 7035SOL    HW132738   1.245   3.904  14.587  1.1899  0.2291  0.6143
 7035SOL    HW232739   1.133   3.943  14.672  0.0059 -0.9055  0.2227
 7036SOL     OW32740   2.119   0.844   4.267 -0.2887  0.0139  0.8022
 7036SOL    HW132741   2.074   0.872   4.188 -0.5339  1.7819  1.5731
 7036SOL    HW232742   2.099   0.915   4.328  0.1750  1.9163 -1.2856
 7037SOL     OW32743   1.371   2.416   5.017 -0.1885  0.1245  0.7301
 7037SOL    HW132744   1.344   2.421   5.109 -1.7293  1.7070  0.2070
 7037SOL    HW232745   1.382   2.510   5.005 -3.6237  0.3155 -1.0032
 7038SOL     OW32746   1.565   4.364  10.837 -0.0434 -0.6089  0.2930
 7038SOL    HW132747   1.505   4.384  10.765 -0.6752 -0.6779  0.8028
 7038SOL    HW232748   1.606   4.447  10.861  1.9334 -1.6901  0.6907
 7039SOL     OW32749   1.800   0.618   8.029 -0.1292 -0.0025  0.0903
 7039SOL    HW132750   1.827   0.707   8.054  1.8495 -0.3310 -0.8334
 7039SOL    HW232751   1.825   0.567   8.106  2.1575  1.7912  0.5519
 7040SOL     OW32752   2.637   3.294   3.378 -0.0443  0.1315 -0.2896
 7040SOL    HW132753   2.700   3.245   3.325 -1.3910 -2.4054  0.4041
 7040SOL    HW232754   2.597   3.228   3.435 -0.4253  0.9679  0.4098
 7041SOL     OW32755   4.208   2.053  14.500  0.1636 -0.1620 -0.3591
 7041SOL    HW132756   4.217   2.025  14.409 -0.2984 -2.2140  0.2056
 7041SOL    HW232757   4.203   1.969  14.546 -1.8372  0.1906  0.0746
 7042SOL     OW32758   2.635   0.300   3.684  0.3396  0.5705  0.4847
 7042SOL    HW132759   2.700   0.315   3.616 -3.1154 -0.9396 -3.2100
 7042SOL    HW232760   2.563   0.359   3.662 -0.4653 -0.6704 -0.2638
 7043SOL     OW32761   4.378   0.662   2.943 -0.6375  0.1663  0.0900
 7043SOL    HW132762   4.364   0.567   2.946  0.7266 -0.1342 -3.0856
 7043SOL    HW232763   4.431   0.664   3.022 -0.7673 -2.2311  0.2422
 7044SOL     OW32764   1.996   3.317   3.738 -0.2583  0.4783 -0.1705
 7044SOL    HW132765   1.990   3.329   3.643 -1.5034  0.5899 -0.0782
 7044SOL    HW232766   2.067   3.381   3.749  0.1431  0.3640 -1.9615
 7045SOL     OW32767   3.712   4.416   7.047 -0.0683 -0.4188 -0.1375
 7045SOL    HW132768   3.774   4.470   7.097 -1.6385 -0.3471  1.7558
 7045SOL    HW232769   3.649   4.387   7.113 -0.5581  1.5003  0.2415
 7046SOL     OW32770   4.135   3.801   5.631 -0.3970  0.3405  0.0269
 7046SOL    HW132771   4.059   3.744   5.634 -2.1565  2.7424  0.6832
 7046SOL    HW232772   4.195   3.729   5.611 -0.0578  0.2151  1.4777
 7047SOL     OW32773   4.071   0.918   7.620  0.1427 -0.2783  0.1687
 7047SOL    HW132774   4.099   1.007   7.600 -0.0569 -0.2943 -0.1808
 7047SOL    HW232775   3.979   0.913   7.593  1.1780 -2.4537 -2.9970
 7048SOL     OW32776   3.741   2.974   8.222 -0.2031 -0.1529 -0.6232
 7048SOL    HW132777   3.729   3.068   8.232 -0.6903 -0.3751  0.9304
 7048SOL    HW232778   3.737   2.964   8.127 -3.3420 -3.2534 -0.2044
 7049SOL     OW32779   3.524   3.017   5.684  0.0438 -0.1416  0.5668
 7049SOL    HW132780   3.472   2.967   5.746  0.1363 -2.1946 -1.0408
 7049SOL    HW232781   3.601   2.960   5.686  0.2305  0.0641 -0.6072
 7050SOL     OW32782   2.700   2.557  16.172  0.9110  0.1515  0.9171
 7050SOL    HW132783   2.667   2.593  16.089  0.1657 -1.0120  0.7046
 7050SOL    HW232784   2.772   2.615  16.194 -1.8646  3.9696 -0.1940
 7051SOL     OW32785   1.900   2.073   0.935 -0.1713 -0.2450 -0.1094
 7051SOL    HW132786   1.840   2.001   0.955 -0.1096  0.1374  1.4281
 7051SOL    HW232787   1.966   2.017   0.894  0.8024  1.9686 -1.5148
 7052SOL     OW32788   2.959   3.906   3.789  0.3182 -0.6962  0.8231
 7052SOL    HW132789   2.912   3.838   3.837 -0.2932 -0.6389  0.3121
 7052SOL    HW232790   2.980   3.852   3.712 -0.2480 -0.5428  0.5553
 7053SOL     OW32791   1.662   0.308   6.174 -0.1486 -0.2905 -0.0970
 7053SOL    HW132792   1.676   0.402   6.180  0.5927 -0.3773 -0.5327
 7053SOL    HW232793   1.735   0.284   6.230  0.5995  0.7937 -0.6091
 7054SOL     OW32794   4.465   2.406   1.660 -0.1850  0.4378 -0.1172
 7054SOL    HW132795   4.540   2.423   1.602 -0.1180 -1.6116 -0.6250
 7054SOL    HW232796   4.465   2.311   1.670 -0.3108  0.3807 -0.6471
 7055SOL     OW32797   4.478   4.423   7.087 -0.3633 -0.5921 -0.4969
 7055SOL    HW132798   4.498   4.355   7.152 -1.7144 -1.0792 -0.5790
 7055SOL    HW232799   4.554   4.479   7.104  0.6027 -1.2311 -2.7379
 7056SOL     OW32800   1.179   1.730   8.356  0.4840  0.2944 -0.0561
 7056SOL    HW132801   1.103   1.704   8.409  0.6654 -2.2617 -1.0649
 7056SOL    HW232802   1.222   1.645   8.346 -1.0307 -0.4601 -0.1365
 7057SOL     OW32803   0.324   3.657  10.971  0.1719  0.1188 -0.6698
 7057SOL    HW132804   0.287   3.581  10.927  1.7769 -1.2401  0.3230
 7057SOL    HW232805   0.410   3.671  10.932  0.1401  2.9484  0.2778
 7058SOL     OW32806   4.335   3.835   9.892 -0.3462 -0.2847 -0.3976
 7058SOL    HW132807   4.391   3.772   9.846 -0.0193 -1.1284  1.1392
 7058SOL    HW232808   4.363   3.809   9.980 -0.1034 -0.1362 -0.4308
 7059SOL     OW32809   0.790   0.344  10.053 -0.0883 -0.1195  0.0509
 7059SOL    HW132810   0.845   0.269  10.073  0.9820  0.5920 -0.2528
 7059SOL    HW232811   0.761   0.333   9.963  1.9788  3.7095 -1.0689
 7060SOL     OW32812   3.352   1.721   3.112 -0.4298 -0.2785  0.8416
 7060SOL    HW132813   3.272   1.740   3.062  0.6815 -1.9034 -1.5525
 7060SOL    HW232814   3.402   1.678   3.043 -0.1439 -0.2932  1.0577
 7061SOL     OW32815   4.090   2.735  13.093  0.3632  0.1182 -0.0050
 7061SOL    HW132816   4.182   2.712  13.081  0.5264  1.9225 -2.2294
 7061SOL    HW232817   4.057   2.651  13.125  1.2839 -0.0345  0.5419
 7062SOL     OW32818   2.559   2.664  10.787  0.0950  0.2587  0.3112
 7062SOL    HW132819   2.576   2.709  10.704  1.7162 -0.0615  0.4840
 7062SOL    HW232820   2.565   2.572  10.763 -0.0874  0.8545 -2.0302
 7063SOL     OW32821   3.879   1.576  16.025  0.4197  0.0072  0.5757
 7063SOL    HW132822   3.969   1.607  16.026 -0.0971  1.5266  1.0123
 7063SOL    HW232823   3.838   1.617  16.102  0.9755  1.4231  0.1242
 7064SOL     OW32824   3.071   2.526   9.960  0.1787  0.1342 -0.4270
 7064SOL    HW132825   3.045   2.602  10.011  1.2540  0.1380  0.1253
 7064SOL    HW232826   3.081   2.465  10.033 -2.0524 -1.5328 -1.5229
 7065SOL     OW32827   4.418   4.374   4.477  0.0411 -0.2885  0.4659
 7065SOL    HW132828   4.351   4.442   4.468 -0.8097 -1.1119  0.6973
 7065SOL    HW232829   4.362   4.299   4.495 -0.9637  0.3014 -0.1448
 7066SOL     OW32830   0.380   1.989  10.248  0.1670  0.0067  0.0093
 7066SOL    HW132831   0.324   2.034  10.311  0.5031 -1.5214  1.4102
 7066SOL    HW232832   0.323   1.962  10.175 -0.6867  0.5323  0.4802
 7067SOL     OW32833   0.182   4.669  15.097  0.4825  0.7152  0.2212
 7067SOL    HW132834   0.127   4.592  15.081 -0.3623  1.1297  1.0926
 7067SOL    HW232835   0.271   4.636  15.101  0.4310  0.4007 -1.1323
 7068SOL     OW32836   3.520   1.339  13.521 -0.0590  0.2487 -0.5771
 7068SOL    HW132837   3.439   1.297  13.492 -0.3629  0.8682 -0.6297
 7068SOL    HW232838   3.534   1.301  13.608 -0.2723 -0.1155 -0.6995
 7069SOL     OW32839   3.760   2.522   4.804  0.4602 -0.4161 -0.5475
 7069SOL    HW132840   3.800   2.561   4.881 -1.4757  0.7465 -0.1196
 7069SOL    HW232841   3.809   2.440   4.811  1.4522  0.4589  2.4543
 7070SOL     OW32842   3.223   2.681  10.998  0.3530 -0.7778  0.1422
 7070SOL    HW132843   3.241   2.713  11.086  2.9166 -0.2391 -0.5663
 7070SOL    HW232844   3.215   2.587  11.012  0.4451 -0.7948  0.0874
 7071SOL     OW32845   4.433   3.398   9.131  0.8490 -0.8834  0.3083
 7071SOL    HW132846   4.515   3.381   9.178  0.7644 -1.5020  0.2368
 7071SOL    HW232847   4.465   3.451   9.058 -1.3289 -1.4802 -1.0756
 7072SOL     OW32848   4.376   0.980  10.341  0.1570 -0.2580 -0.1548
 7072SOL    HW132849   4.329   0.910  10.386 -1.8486  0.8825 -0.4857
 7072SOL    HW232850   4.364   1.057  10.397 -2.0292 -1.5730  1.1694
 7073SOL     OW32851   3.094   1.252   2.590  0.2299 -0.7306 -0.0139
 7073SOL    HW132852   3.134   1.301   2.517 -0.5220  0.3593  0.2988
 7073SOL    HW232853   3.152   1.176   2.582  0.6459 -0.4890  0.7615
 7074SOL     OW32854   3.191   2.965  12.199 -0.3463  0.2021  0.5665
 7074SOL    HW132855   3.131   2.925  12.137  0.8626 -0.0581 -0.4394
 7074SOL    HW232856   3.194   2.888  12.256 -1.0864  0.5411  1.0656
 7075SOL     OW32857   3.849   3.280   9.310  0.4843 -0.2552  0.0898
 7075SOL    HW132858   3.808   3.202   9.348 -0.1250 -0.5520 -1.1649
 7075SOL    HW232859   3.883   3.254   9.224 -1.5946 -1.5417 -0.3605
 7076SOL     OW32860   1.230   2.814   6.295  0.4057 -0.2136  0.0350
 7076SOL    HW132861   1.299   2.860   6.248 -3.3040  2.6241 -2.6227
 7076SOL    HW232862   1.231   2.736   6.238  0.2171  1.1901 -1.9059
 7077SOL     OW32863   1.162   4.599   7.704  0.3180  0.2705  0.4946
 7077SOL    HW132864   1.152   4.684   7.749  0.5265  0.3280  0.4284
 7077SOL    HW232865   1.186   4.544   7.778 -3.3417 -1.1357  0.6510
 7078SOL     OW32866   0.201   3.591   4.162  0.4820 -0.3749 -0.1544
 7078SOL    HW132867   0.231   3.596   4.071  0.2989 -1.2801 -0.2637
 7078SOL    HW232868   0.121   3.542   4.145 -0.2467 -0.2052  2.7389
 7079SOL     OW32869   1.262   0.917   7.052 -0.3181  0.5267  0.9015
 7079SOL    HW132870   1.168   0.931   7.065 -1.1840 -1.2046 -3.3817
 7079SOL    HW232871   1.298   0.992   7.098 -1.7758  0.8253  1.5380
 7080SOL     OW32872   1.348   1.772  16.182 -0.1377  0.3187  0.3478
 7080SOL    HW132873   1.256   1.790  16.203 -0.5251 -1.9020  0.5524
 7080SOL    HW232874   1.347   1.797  16.089  0.3713 -1.9405 -0.2678
 7081SOL     OW32875   0.484   1.464   2.661 -0.0329 -0.3737  0.2929
 7081SOL    HW132876   0.515   1.374   2.657 -0.5571 -0.5497  0.1866
 7081SOL    HW232877   0.501   1.482   2.753 -1.6363  0.3836  0.4324
 7082SOL     OW32878   0.653   2.550   4.744  0.3923 -0.6417  0.2603
 7082SOL    HW132879   0.697   2.533   4.827  2.0140 -1.7226 -0.8359
 7082SOL    HW232880   0.676   2.462   4.713 -0.4073 -0.9534  0.5573
 7083SOL     OW32881   3.977   0.466  10.483 -0.3086  0.3254  0.0716
 7083SOL    HW132882   3.994   0.426  10.568 -1.4352  1.0260  0.6264
 7083SOL    HW232883   4.058   0.435  10.442 -0.4942  1.2616 -1.0003
 7084SOL     OW32884   1.244   4.469   8.948 -0.1515 -0.0456  0.1815
 7084SOL    HW132885   1.333   4.434   8.940 -0.5501 -0.9782 -0.2149
 7084SOL    HW232886   1.233   4.479   9.042  0.3515 -1.7057  0.4232
 7085SOL     OW32887   0.754   0.500   1.967 -0.2156 -0.0359  0.0005
 7085SOL    HW132888   0.728   0.529   2.055 -3.0143  0.0423 -0.8573
 7085SOL    HW232889   0.668   0.464   1.945  0.4484 -1.1609 -0.7828
 7086SOL     OW32890   2.850   1.013  13.474  0.1841  0.0029 -0.2401
 7086SOL    HW132891   2.796   0.939  13.499 -0.2641  0.9096  1.4623
 7086SOL    HW232892   2.922   0.963  13.436 -0.1152 -0.8657  0.3609
 7087SOL     OW32893   2.232   2.991   9.523 -0.3247 -0.4066 -0.0746
 7087SOL    HW132894   2.304   2.947   9.568 -1.3139 -0.8793  1.0462
 7087SOL    HW232895   2.157   2.933   9.529 -0.2987 -0.1638  2.8559
 7088SOL     OW32896   1.065   0.114   5.420  0.2867  0.5141 -0.1325
 7088SOL    HW132897   1.000   0.101   5.351  0.7770  1.8354 -0.8417
 7088SOL    HW232898   1.061   0.024   5.453 -1.1721  1.1076  1.2845
 7089SOL     OW32899   1.035   0.172   3.245 -0.0484  0.0463  1.1700
 7089SOL    HW132900   1.129   0.158   3.255 -0.0937 -0.3363  1.0347
 7089SOL    HW232901   1.001   0.151   3.332  0.6304  1.5749  1.8045
 7090SOL     OW32902   0.835   4.005   3.193 -0.2942  0.2307 -0.9120
 7090SOL    HW132903   0.794   3.926   3.229  1.6829  0.2851  1.4715
 7090SOL    HW232904   0.813   4.070   3.260 -2.0013  0.2089 -1.4496
 7091SOL     OW32905   0.823   0.230   6.229 -0.6862  0.4600  0.1797
 7091SOL    HW132906   0.847   0.210   6.319  1.2265 -0.3510 -0.5199
 7091SOL    HW232907   0.897   0.273   6.187  0.0987 -0.8604  0.2202
 7092SOL     OW32908   0.023   2.698   2.011 -0.0461 -0.0736  0.4889
 7092SOL    HW132909   0.093   2.750   1.973 -0.3040 -1.0692 -1.3426
 7092SOL    HW232910   0.067   2.654   2.084 -0.7435 -2.2159 -0.3661
 7093SOL     OW32911   1.672   1.870   6.498 -0.0320  0.4879 -0.5453
 7093SOL    HW132912   1.617   1.803   6.540  0.9767  0.7299  1.1692
 7093SOL    HW232913   1.708   1.836   6.416 -0.1167  2.3140 -1.3268
 7094SOL     OW32914   4.654   1.620   5.257  0.2666 -0.5224 -0.1097
 7094SOL    HW132915   4.626   1.545   5.206  1.9182 -1.6197  0.5715
 7094SOL    HW232916   4.739   1.640   5.216  1.4780  0.7582  2.9889
 7095SOL     OW32917   2.544   1.597  16.089 -0.7526  0.4285 -0.5722
 7095SOL    HW132918   2.525   1.678  16.137 -1.3368 -0.4385  0.6593
 7095SOL    HW232919   2.479   1.598  16.018 -2.9517 -0.4317  1.4246
 7096SOL     OW32920   2.985   2.590   0.453  0.0329 -0.0919  0.0677
 7096SOL    HW132921   2.920   2.519   0.452  0.0855 -0.1612  1.5856
 7096SOL    HW232922   2.970   2.632   0.537 -0.8567  0.9846 -0.6274
 7097SOL     OW32923   2.883   1.453  11.655  0.2618  0.0795 -0.1004
 7097SOL    HW132924   2.953   1.408  11.607 -1.4742 -2.8199  0.1002
 7097SOL    HW232925   2.887   1.409  11.740  0.9565  0.5020  0.0871
 7098SOL     OW32926   1.647   0.858   7.390  0.1435 -0.6666  0.0642
 7098SOL    HW132927   1.732   0.815   7.396  0.5440  0.1153  0.0039
 7098SOL    HW232928   1.669   0.938   7.343 -4.0158  0.6475  0.3460
 7099SOL     OW32929   1.684   4.154   3.544  0.2840  0.7036  0.0492
 7099SOL    HW132930   1.750   4.217   3.570  0.4370  0.7570 -0.4596
 7099SOL    HW232931   1.656   4.110   3.624  1.0631  0.4794  0.1909
 7100SOL     OW32932   0.746   4.302   6.109  0.2830  0.3589  0.2527
 7100SOL    HW132933   0.786   4.281   6.025  2.2902 -1.6675  1.7367
 7100SOL    HW232934   0.825   4.327   6.157  0.5456  2.4126 -1.2285
 7101SOL     OW32935   4.361   0.502   8.883  0.2043  0.4355 -0.0188
 7101SOL    HW132936   4.270   0.481   8.906 -0.1003 -1.8095 -3.3238
 7101SOL    HW232937   4.402   0.479   8.966 -1.2727 -0.1396  0.5555
 7102SOL     OW32938   0.462   4.256   9.239 -0.5246 -0.1099 -0.1528
 7102SOL    HW132939   0.543   4.294   9.206 -0.4796 -0.6125 -0.6244
 7102SOL    HW232940   0.494   4.179   9.287 -1.4823  0.1807  0.9304
 7103SOL     OW32941   2.487   3.025   9.356 -0.3703  0.2360  0.6117
 7103SOL    HW132942   2.570   3.030   9.404  0.1105  0.1113 -0.2145
 7103SOL    HW232943   2.429   3.012   9.431  0.2040  0.0120  1.0253
 7104SOL     OW32944   1.761   2.451   4.167 -0.1382 -0.2782 -0.3552
 7104SOL    HW132945   1.847   2.491   4.155  0.2754 -1.0874 -0.1050
 7104SOL    HW232946   1.708   2.491   4.099 -2.7577  0.2102  1.9716
 7105SOL     OW32947   0.533   4.633   5.790  0.4141  0.0603  0.4766
 7105SOL    HW132948   0.490   4.548   5.793 -0.6928  0.5803 -1.1057
 7105SOL    HW232949   0.609   4.618   5.847  0.7099 -0.8963 -0.1609
 7106SOL     OW32950   2.110   0.195   6.960  0.0768  0.1737 -0.2306
 7106SOL    HW132951   2.031   0.146   6.936 -0.3065 -0.0591  1.5018
 7106SOL    HW232952   2.140   0.142   7.033  0.9973  0.5204 -0.3553
 7107SOL     OW32953   1.535   1.511   4.173 -0.0109  0.1331 -0.3081
 7107SOL    HW132954   1.557   1.600   4.145  0.6037  0.2495  0.5515
 7107SOL    HW232955   1.592   1.455   4.121 -0.5798 -2.5444  1.9724
 7108SOL     OW32956   2.112   2.896   3.982  0.5623  0.1036 -0.3068
 7108SOL    HW132957   2.094   2.812   4.025  2.8404  0.2660  1.0137
 7108SOL    HW232958   2.033   2.909   3.931  0.3775  2.1156  0.5104
 7109SOL     OW32959   2.633   1.082   7.966 -0.0191  0.0488 -0.4813
 7109SOL    HW132960   2.670   1.031   8.038 -1.3666  1.5956  1.3136
 7109SOL    HW232961   2.582   1.020   7.914 -1.6057  0.5574  0.4980
 7110SOL     OW32962   0.121   3.880   7.653  0.1020 -0.3502  0.0483
 7110SOL    HW132963   0.204   3.870   7.607  0.9336 -0.4984  1.5690
 7110SOL    HW232964   0.070   3.803   7.627 -0.1182 -0.6719  1.4406
 7111SOL     OW32965   3.818   2.533   2.963  0.1809  0.7632 -0.6376
 7111SOL    HW132966   3.762   2.550   2.888 -0.2650 -0.6041 -0.6145
 7111SOL    HW232967   3.836   2.444   2.935 -0.6672 -0.8150  3.7885
 7112SOL     OW32968   2.829   4.419   8.800 -0.3396 -0.3051  0.1906
 7112SOL    HW132969   2.867   4.345   8.755  1.6554  0.8863 -0.0831
 7112SOL    HW232970   2.750   4.431   8.747  0.3975 -0.5433 -0.9291
 7113SOL     OW32971   3.173   2.384   1.866  0.0855 -0.3604  0.1406
 7113SOL    HW132972   3.190   2.461   1.812  0.4493 -1.1694 -0.8851
 7113SOL    HW232973   3.261   2.373   1.902  0.1055  0.5354  0.3823
 7114SOL     OW32974   1.002   2.043  15.357 -0.1597  0.1728 -0.6078
 7114SOL    HW132975   0.961   2.129  15.358  1.2244  0.8374 -2.0910
 7114SOL    HW232976   1.091   2.067  15.335  0.2257  0.4715  1.3080
 7115SOL     OW32977   4.153   2.928   0.196  0.4737  0.2728  0.2879
 7115SOL    HW132978   4.074   2.893   0.154  0.4446 -0.9657  1.3549
 7115SOL    HW232979   4.213   2.854   0.184  0.3978  0.4750 -1.2875
 7116SOL     OW32980   0.709   3.705   5.391 -0.2655  0.1979 -0.7576
 7116SOL    HW132981   0.792   3.734   5.353  0.8005 -1.0372  0.6218
 7116SOL    HW232982   0.662   3.775   5.347 -0.1749  0.4791 -0.4073
 7117SOL     OW32983   1.359   2.325   7.979  0.1570  0.1744  0.8787
 7117SOL    HW132984   1.449   2.345   8.004  0.0783  1.6912 -0.0450
 7117SOL    HW232985   1.355   2.369   7.893  0.1774 -0.8203  0.3706
 7118SOL     OW32986   0.103   2.303   0.370 -0.3242  0.0898  0.4851
 7118SOL    HW132987   0.082   2.275   0.459 -1.6548 -1.4521 -0.3303
 7118SOL    HW232988   0.199   2.307   0.368 -0.3543 -0.1312 -0.9140
 7119SOL     OW32989   0.381   1.436  10.724 -0.1695 -0.7782 -0.2086
 7119SOL    HW132990   0.419   1.348  10.734 -1.0446 -1.1135  0.1170
 7119SOL    HW232991   0.429   1.476  10.797 -0.9097 -0.9715  0.3829
 7120SOL     OW32992   2.110   4.012   6.828  0.0655  0.0969  0.2246
 7120SOL    HW132993   2.139   3.934   6.875 -0.2944  0.1389  0.5222
 7120SOL    HW232994   2.097   3.984   6.738  1.2407  1.0612 -0.2413
 7121SOL     OW32995   3.643   2.852   9.503 -0.2862 -0.0487  0.2307
 7121SOL    HW132996   3.600   2.865   9.588 -0.5657  1.1409 -0.0930
 7121SOL    HW232997   3.708   2.783   9.521  0.1821  0.8755  2.0966
 7122SOL     OW32998   3.801   3.393   2.470  0.1062 -0.4770 -0.2065
 7122SOL    HW132999   3.872   3.415   2.530  0.7876 -0.1432 -1.1276
 7122SOL    HW233000   3.851   3.357   2.396 -2.5422 -0.2076 -2.1308
 7123SOL     OW33001   0.033   1.976   4.272 -0.0034  0.6084  0.5306
 7123SOL    HW133002   0.064   2.066   4.283  2.5665 -0.0797 -1.0991
 7123SOL    HW233003   0.017   1.956   4.364  2.7144 -1.4184  0.5730
 7124SOL     OW33004   2.086   4.605   1.593  0.0334  0.4318 -0.0578
 7124SOL    HW133005   2.163   4.572   1.639 -0.1595 -0.5046 -0.4084
 7124SOL    HW233006   2.010   4.574   1.642  0.5575 -2.1415 -0.8676
 7125SOL     OW33007   3.115   0.132  10.428 -0.1175  0.1265  0.3235
 7125SOL    HW133008   3.069   0.060  10.471 -0.4784 -0.4625 -1.0320
 7125SOL    HW233009   3.199   0.085  10.423 -0.2813 -0.1373  0.0603
 7126SOL     OW33010   4.293   1.347   3.309 -0.5540  0.4757  0.1806
 7126SOL    HW133011   4.219   1.402   3.335  0.8684  2.0970  0.7641
 7126SOL    HW233012   4.260   1.270   3.356  0.6268 -0.1063  0.0611
 7127SOL     OW33013   4.046   2.946   4.810 -0.2314  0.0491 -0.2007
 7127SOL    HW133014   4.079   2.891   4.881 -0.3222 -1.4696 -1.3257
 7127SOL    HW233015   4.062   2.891   4.733  0.5178  0.5870 -0.4376
 7128SOL     OW33016   3.315   3.480   8.147 -0.0699  0.1436  0.4451
 7128SOL    HW133017   3.397   3.438   8.124 -0.6291 -0.0795 -1.1100
 7128SOL    HW233018   3.247   3.413   8.137 -0.4309  0.7053 -0.8528
 7129SOL     OW33019   1.585   1.654  12.572  0.4844  0.2077 -0.1238
 7129SOL    HW133020   1.634   1.664  12.490 -1.5579  0.5430 -1.3116
 7129SOL    HW233021   1.658   1.652  12.634  1.8078 -3.1166 -1.8100
 7130SOL     OW33022   4.120   3.337   4.296  0.2540 -0.1301  0.2319
 7130SOL    HW133023   4.061   3.403   4.332 -1.8439 -0.8034 -1.9048
 7130SOL    HW233024   4.090   3.335   4.205 -1.2929  0.4032  0.7206
 7131SOL     OW33025   2.002   2.376   5.143  0.3309  0.3796  0.4278
 7131SOL    HW133026   2.060   2.435   5.190  1.9345 -0.8170 -0.0510
 7131SOL    HW233027   2.020   2.402   5.053  1.7165 -0.2263  0.5202
 7132SOL     OW33028   2.771   2.323   7.595  0.1463 -0.4680  0.1340
 7132SOL    HW133029   2.678   2.306   7.607  0.1580 -1.2122 -0.8231
 7132SOL    HW233030   2.808   2.290   7.678 -1.3638  1.6153  1.6355
 7133SOL     OW33031   0.621   1.355   5.602 -0.2156  0.5680  0.2038
 7133SOL    HW133032   0.626   1.276   5.657  1.1300  0.8649  0.4811
 7133SOL    HW233033   0.639   1.424   5.666  0.3689 -0.4366  1.1289
 7134SOL     OW33034   1.154   4.275  17.233 -0.3010  0.0559  0.1042
 7134SOL    HW133035   1.165   4.362  17.271  0.1192 -1.2583  2.9521
 7134SOL    HW233036   1.136   4.293  17.141  0.6758 -0.2238 -0.1443
 7135SOL     OW33037   1.025   1.857   9.451  0.1938  0.6173 -0.4527
 7135SOL    HW133038   1.015   1.855   9.546 -0.2114 -0.4807 -0.5257
 7135SOL    HW233039   1.005   1.764   9.443  0.9104  0.4486 -0.3570
 7136SOL     OW33040   1.907   0.133  11.659  0.0854  0.0424 -0.6120
 7136SOL    HW133041   1.985   0.174  11.697  0.5447 -0.7478 -0.6902
 7136SOL    HW233042   1.934   0.094  11.576 -0.8508  1.0396 -1.3667
 7137SOL     OW33043   2.795   0.400   8.226  0.2664 -0.0781 -0.0917
 7137SOL    HW133044   2.776   0.422   8.317  0.2299 -0.8224  0.0825
 7137SOL    HW233045   2.779   0.305   8.224 -2.6325  0.3772  1.9102
 7138SOL     OW33046   4.424   3.344   7.609 -0.1719  0.8148  0.0735
 7138SOL    HW133047   4.510   3.357   7.569 -1.0699  1.4047 -1.6353
 7138SOL    HW233048   4.447   3.366   7.699  1.4945 -1.7535  0.2807
 7139SOL     OW33049   3.435   0.543   5.511  0.4815 -0.0526  0.0680
 7139SOL    HW133050   3.398   0.590   5.585  4.4219  1.5906  0.9868
 7139SOL    HW233051   3.493   0.609   5.473  1.1215  1.0416  2.9509
 7140SOL     OW33052   3.819   3.047  15.137 -0.2904  0.0975 -0.1729
 7140SOL    HW133053   3.904   3.003  15.140 -1.6350 -2.4328  0.7139
 7140SOL    HW233054   3.764   2.973  15.112 -0.6285  0.1929  0.2885
 7141SOL     OW33055   4.359   0.980   4.332  0.5968 -0.2768  0.1707
 7141SOL    HW133056   4.395   1.062   4.364  2.1272 -0.9822  0.2173
 7141SOL    HW233057   4.389   0.981   4.241 -0.8906 -1.9830 -0.3544
 7142SOL     OW33058   4.427   0.017   9.341 -0.3992  0.4589 -0.7658
 7142SOL    HW133059   4.449   0.017   9.247 -2.1430  0.1246 -1.1668
 7142SOL    HW233060   4.443   0.111   9.352 -2.0559  0.7035 -0.4226
 7143SOL     OW33061   3.995   4.000   4.070 -0.0721  0.3322  0.2829
 7143SOL    HW133062   3.972   4.093   4.066  0.3463  0.3497 -1.6435
 7143SOL    HW233063   3.934   3.959   4.131 -0.0686  1.7783  1.2883
 7144SOL     OW33064   4.075   2.755   9.771  0.2444 -0.0746 -0.2744
 7144SOL    HW133065   4.104   2.845   9.786  1.0210 -0.4259  0.3807
 7144SOL    HW233066   4.137   2.710   9.830 -0.2447 -0.4433 -0.0361
 7145SOL     OW33067   4.334   3.021   4.851  0.0646  0.8959  0.6577
 7145SOL    HW133068   4.399   3.038   4.783 -1.1214  0.2079 -0.6480
 7145SOL    HW233069   4.287   2.953   4.802  2.0252  0.4412 -0.6005
 7146SOL     OW33070   2.353   4.616   7.433  0.4913  0.1202 -0.1749
 7146SOL    HW133071   2.367   4.522   7.445  0.9161  0.0139 -1.5107
 7146SOL    HW233072   2.353   4.639   7.526 -0.2949 -0.1627 -0.1009
 7147SOL     OW33073   3.321   3.222   5.724  0.7986  0.8693  0.1401
 7147SOL    HW133074   3.392   3.188   5.669 -0.7452 -1.0368 -0.6685
 7147SOL    HW233075   3.353   3.186   5.806  0.0367  1.0416  0.5174
 7148SOL     OW33076   2.231   1.952   1.552 -0.4219 -0.5047 -0.1276
 7148SOL    HW133077   2.254   1.866   1.517 -0.9738 -0.5967 -0.2738
 7148SOL    HW233078   2.250   2.012   1.480 -2.1794 -1.0597 -1.0772
 7149SOL     OW33079   1.896   1.038  17.526 -0.3118 -0.2848  0.0874
 7149SOL    HW133080   1.880   1.040  17.431 -1.9409 -2.1494  0.3372
 7149SOL    HW233081   1.960   1.109  17.528  1.4479 -1.8042 -2.4973
 7150SOL     OW33082   0.102   2.024   2.151 -0.0105 -0.0526  0.6329
 7150SOL    HW133083   0.089   2.106   2.102 -0.5457 -0.3016  0.3537
 7150SOL    HW233084   0.093   2.053   2.241 -1.9235 -1.1416  0.7868
 7151SOL     OW33085   0.190   1.562   5.148  0.1008 -0.4610  0.6432
 7151SOL    HW133086   0.132   1.498   5.106  1.1670 -1.6474  0.9783
 7151SOL    HW233087   0.273   1.522   5.173  0.1666  0.1902  1.4391
 7152SOL     OW33088   1.921   0.318   3.397  0.1189 -0.3309  0.4847
 7152SOL    HW133089   1.842   0.275   3.432  0.4194  0.8368  2.6052
 7152SOL    HW233090   1.892   0.314   3.306  1.7184 -1.0564  0.0088
 7153SOL     OW33091   2.753   2.987   2.747 -0.1901  0.0281 -0.0191
 7153SOL    HW133092   2.782   2.985   2.656  0.2996 -0.2204  0.1457
 7153SOL    HW233093   2.840   2.990   2.788  0.1390 -0.1186 -0.7215
 7154SOL     OW33094   3.090   2.218   2.788 -0.0033  0.3470 -0.1837
 7154SOL    HW133095   3.085   2.202   2.882  1.8383  0.4518 -0.0821
 7154SOL    HW233096   3.013   2.176   2.749  0.0349 -0.9024  1.0826
 7155SOL     OW33097   3.960   3.466   1.227 -0.2266 -0.0604 -0.0257
 7155SOL    HW133098   4.039   3.425   1.263 -0.0239  1.4182  1.2470
 7155SOL    HW233099   3.963   3.546   1.281 -2.9762 -0.1065  0.1916
 7156SOL     OW33100   3.359   4.101   8.340 -0.1790 -0.0084 -0.0068
 7156SOL    HW133101   3.362   4.017   8.385 -0.5614  0.2414  0.4893
 7156SOL    HW233102   3.399   4.073   8.258  0.5604  0.0682  0.3253
 7157SOL     OW33103   4.570   3.643   8.359 -0.6719  0.3613 -0.5018
 7157SOL    HW133104   4.539   3.628   8.449 -3.0628 -0.4771 -1.4382
 7157SOL    HW233105   4.612   3.560   8.336 -0.6822  0.5563 -1.2320
 7158SOL     OW33106   0.686   2.496   3.853  0.1796  0.2532 -0.5092
 7158SOL    HW133107   0.733   2.536   3.779 -0.3369 -2.0480 -2.0907
 7158SOL    HW233108   0.760   2.450   3.893 -1.5856 -0.6029  1.7883
 7159SOL     OW33109   3.250   3.115   2.909 -1.0886 -0.4103 -0.4321
 7159SOL    HW133110   3.294   3.089   2.828  1.3455 -0.7024  0.9723
 7159SOL    HW233111   3.294   3.050   2.965  1.1535  2.0247  0.6413
 7160SOL     OW33112   3.227   4.115   2.184  0.2284 -0.3194 -0.2892
 7160SOL    HW133113   3.221   4.089   2.092 -0.4609  0.6600 -0.5120
 7160SOL    HW233114   3.184   4.044   2.232  1.8941  0.0229  1.6678
 7161SOL     OW33115   4.545   1.489  10.301 -0.2961  0.1527 -0.1955
 7161SOL    HW133116   4.505   1.438  10.230  0.2944 -0.9153  0.2397
 7161SOL    HW233117   4.601   1.423  10.342  1.0806  2.5974  1.8428
 7162SOL     OW33118   4.288   3.566   5.550 -0.3478  0.0678  0.1052
 7162SOL    HW133119   4.351   3.580   5.621 -0.0828 -0.4181 -0.0326
 7162SOL    HW233120   4.282   3.471   5.541 -1.0596 -0.1113  2.3886
 7163SOL     OW33121   4.472   4.099   3.807 -0.2478  0.2690  0.3889
 7163SOL    HW133122   4.395   4.046   3.826  0.0450  0.0351  0.9158
 7163SOL    HW233123   4.476   4.106   3.712 -0.4893  0.9763  0.4226
 7164SOL     OW33124   0.211   3.652   3.580 -0.4002  0.1848  0.1421
 7164SOL    HW133125   0.184   3.700   3.658 -1.5009  0.7692 -0.6056
 7164SOL    HW233126   0.181   3.562   3.591  0.2205  0.4106  3.5713
 7165SOL     OW33127   4.460   2.712   6.810  0.0762  0.1573  0.5294
 7165SOL    HW133128   4.549   2.688   6.836  0.0753 -0.3781  0.0513
 7165SOL    HW233129   4.420   2.755   6.885 -0.5596  1.0249 -0.3075
 7166SOL     OW33130   1.127   4.225   3.177  0.2430  0.4071  0.1490
 7166SOL    HW133131   1.127   4.319   3.194  0.7767  0.9033 -2.4896
 7166SOL    HW233132   1.161   4.196   3.261 -2.7488 -0.0707  1.2048
 7167SOL     OW33133   1.686   0.126   3.085 -0.2287 -0.4797  0.0229
 7167SOL    HW133134   1.701   0.033   3.098  0.8614 -0.2943  0.0777
 7167SOL    HW233135   1.601   0.123   3.041  0.9205 -2.4416 -2.0364
 7168SOL     OW33136   2.532   4.187   5.894  0.2660 -0.2131  0.5176
 7168SOL    HW133137   2.542   4.281   5.909 -1.4860  0.2245 -1.0670
 7168SOL    HW233138   2.472   4.167   5.965  1.5637 -0.7977  1.4458
 7169SOL     OW33139   0.630   0.204  15.912  0.2029 -0.0435 -0.2338
 7169SOL    HW133140   0.535   0.212  15.916  0.1349 -0.9996  0.0346
 7169SOL    HW233141   0.663   0.282  15.956 -3.4336  1.0031  0.5930
 7170SOL     OW33142   4.723   2.828   4.140  0.2737  0.2229 -0.0242
 7170SOL    HW133143   0.041   2.771   4.191  1.4288 -0.5089 -2.1304
 7170SOL    HW233144   0.025   2.816   4.054 -0.9037 -0.6275 -0.4718
 7171SOL     OW33145   3.424   0.326   4.340 -0.0541  0.1572 -0.2774
 7171SOL    HW133146   3.457   0.283   4.419 -1.2615 -0.8556 -0.3050
 7171SOL    HW233147   3.338   0.284   4.345 -0.4979  1.3089  1.7717
 7172SOL     OW33148   1.068   0.667  10.243 -0.8092  0.2508 -0.3371
 7172SOL    HW133149   1.052   0.596  10.305 -0.5709  0.7107  0.2596
 7172SOL    HW233150   0.989   0.683  10.192  0.3057 -0.3563 -2.2640
 7173SOL     OW33151   1.690   3.016   2.646 -0.5796 -0.1957 -0.3194
 7173SOL    HW133152   1.736   3.100   2.646  1.4470 -1.2899 -0.4905
 7173SOL    HW233153   1.616   3.042   2.591  0.1463  0.2759 -1.0829
 7174SOL     OW33154   1.018   0.397   8.362 -1.0265  0.3480  0.3548
 7174SOL    HW133155   1.104   0.375   8.326 -1.1891 -1.1338  0.8746
 7174SOL    HW233156   0.977   0.425   8.280 -0.5425 -1.2545 -0.4255
 7175SOL     OW33157   1.353   1.376   8.471  0.3330 -0.1910  0.5931
 7175SOL    HW133158   1.276   1.373   8.414 -1.9522  0.8440  3.5983
 7175SOL    HW233159   1.351   1.465   8.505  0.9302 -0.6837  1.9164
 7176SOL     OW33160   3.273   3.740   6.066  0.6698 -0.2075  0.2108
 7176SOL    HW133161   3.363   3.718   6.088  0.4283 -0.8007  0.6268
 7176SOL    HW233162   3.225   3.692   6.134 -1.0037 -1.9376 -2.1609
 7177SOL     OW33163   2.140   0.433   7.197 -0.1316  0.6910 -0.6949
 7177SOL    HW133164   2.228   0.429   7.235 -0.5723  1.1718  0.3893
 7177SOL    HW233165   2.104   0.347   7.218 -0.3427  1.3318  1.5846
 7178SOL     OW33166   3.824   0.789   8.208  1.1006 -0.1661  0.2594
 7178SOL    HW133167   3.893   0.756   8.264  0.5745 -0.7241  0.5768
 7178SOL    HW233168   3.853   0.878   8.190  1.3390  0.0600  1.8418
 7179SOL     OW33169   2.261   3.750   7.633  0.7395  0.2698  0.0628
 7179SOL    HW133170   2.185   3.692   7.633 -0.7949  2.2894 -1.1264
 7179SOL    HW233171   2.326   3.710   7.575 -1.3339 -1.1404 -1.2886
 7180SOL     OW33172   0.916   2.082   4.663 -0.6458  0.0669  0.3311
 7180SOL    HW133173   0.825   2.081   4.691 -1.1535  2.3387 -1.2234
 7180SOL    HW233174   0.942   2.174   4.669  1.5083 -0.5933  1.3364
 7181SOL     OW33175   0.195   4.662  12.152  0.0722 -0.4329 -0.0638
 7181SOL    HW133176   0.257   4.620  12.212  3.6108  2.1443 -1.8979
 7181SOL    HW233177   0.110   4.623  12.173 -0.1119 -2.0842 -3.8059
 7182SOL     OW33178   1.838   4.606   0.869 -0.2107  0.5649 -0.0344
 7182SOL    HW133179   1.887   4.530   0.902  1.1505  1.2709 -0.4119
 7182SOL    HW233180   1.765   4.587   0.929  0.9413 -0.0271  1.1917
 7183SOL     OW33181   2.921   2.951   4.268  0.9292 -0.0891  0.1615
 7183SOL    HW133182   2.932   2.976   4.177  0.1895 -3.2476 -0.8140
 7183SOL    HW233183   2.994   2.894   4.293 -1.0898 -1.6018  2.6142
 7184SOL     OW33184   1.289   0.061   6.604 -0.0910 -0.0041 -0.2109
 7184SOL    HW133185   1.320   0.021   6.685 -1.3210 -0.4484  0.0423
 7184SOL    HW233186   1.320   4.735   6.540  0.6157 -1.3561  1.5191
 7185SOL     OW33187   2.900   0.934  14.997 -1.0141 -0.5908  0.2917
 7185SOL    HW133188   2.846   0.885  15.058 -0.6803 -2.5211 -0.9464
 7185SOL    HW233189   2.923   0.858  14.943 -1.3659 -0.1869 -0.4330
 7186SOL     OW33190   2.448   0.903   7.836 -0.0838  0.1303 -0.7577
 7186SOL    HW133191   2.438   0.838   7.906 -1.9317 -0.4898 -1.6172
 7186SOL    HW233192   2.361   0.899   7.798 -0.2591 -1.6752 -0.1935
 7187SOL     OW33193   3.608   3.300  15.383  0.3363  0.2529 -0.0770
 7187SOL    HW133194   3.651   3.380  15.410  1.8611 -1.5603  2.8973
 7187SOL    HW233195   3.522   3.314  15.423  0.5740 -0.4102  0.6755
 7188SOL     OW33196   1.009   2.799  13.272  0.2231  0.4903 -0.7577
 7188SOL    HW133197   0.965   2.882  13.254 -0.8640  0.6205  2.3961
 7188SOL    HW233198   1.008   2.798  13.368  0.3128 -1.3960 -0.7831
 7189SOL     OW33199   2.555   4.588   5.217 -0.4695  0.1053  0.2956
 7189SOL    HW133200   2.467   4.561   5.241 -0.7261 -0.1098 -0.9038
 7189SOL    HW233201   2.535   4.631   5.134 -1.8878  0.4671  0.8302
 7190SOL     OW33202   1.376   4.101   4.810 -0.3370  0.2309 -0.2496
 7190SOL    HW133203   1.445   4.135   4.753  0.0595  0.8305  0.5865
 7190SOL    HW233204   1.330   4.055   4.739  0.7307  0.3723 -1.0277
 7191SOL     OW33205   3.233   2.101   5.966  0.1235  0.2330 -0.0885
 7191SOL    HW133206   3.308   2.148   6.001 -0.4688  2.1568 -1.3490
 7191SOL    HW233207   3.159   2.154   5.997  1.1902  1.5184  0.2642
 7192SOL     OW33208   0.857   1.777   5.904  0.1851 -0.1913 -0.3215
 7192SOL    HW133209   0.816   1.824   5.976 -1.8535 -1.6193 -0.5458
 7192SOL    HW233210   0.939   1.757   5.949 -0.0293  0.5378  0.3856
 7193SOL     OW33211   0.158   3.706  14.744  0.1589 -0.0567  0.1256
 7193SOL    HW133212   0.236   3.754  14.715  1.2778  0.9029  4.8432
 7193SOL    HW233213   0.129   3.761  14.816  0.2741  0.8096 -0.4855
 7194SOL     OW33214   4.224   3.095  15.992  0.0984  0.0649  0.3046
 7194SOL    HW133215   4.140   3.089  16.038  0.4100  0.6180  0.9497
 7194SOL    HW233216   4.281   3.031  16.034  0.5087  0.6101  0.5799
 7195SOL     OW33217   2.328   2.214   7.508 -0.0014 -0.3072 -0.2690
 7195SOL    HW133218   2.276   2.138   7.534  1.1325 -0.5594  1.2988
 7195SOL    HW233219   2.272   2.253   7.441  1.2045  1.1313 -0.4374
 7196SOL     OW33220   1.962   3.185   2.014  0.2549 -0.4292 -0.0221
 7196SOL    HW133221   1.935   3.218   1.929 -0.8310 -1.0380  0.0890
 7196SOL    HW233222   1.965   3.092   1.991  1.7759 -0.5759  0.7503
 7197SOL     OW33223   1.990   1.481   6.490 -0.2393  0.0375  0.1276
 7197SOL    HW133224   2.072   1.529   6.501  0.0154 -0.3805  0.0714
 7197SOL    HW233225   1.936   1.538   6.544  3.5186  1.6989  2.0967
 7198SOL     OW33226   3.511   2.442   0.209  0.3102 -0.0280 -0.6634
 7198SOL    HW133227   3.478   2.380   0.275  1.4718 -0.1258 -0.1788
 7198SOL    HW233228   3.434   2.458   0.154  0.1869 -0.9198 -0.7588
 7199SOL     OW33229   3.612   4.271   1.230 -0.1414  0.3926  0.0131
 7199SOL    HW133230   3.667   4.192   1.230  0.7184  0.9741 -2.6625
 7199SOL    HW233231   3.688   4.326   1.210 -0.2013  0.5144  0.1234
 7200SOL     OW33232   2.001   1.648   5.506 -0.0904 -0.3289 -0.0282
 7200SOL    HW133233   1.919   1.685   5.474  1.0911  0.4772 -2.1238
 7200SOL    HW233234   2.026   1.725   5.558 -0.3467 -1.3200  1.5514
 7201SOL     OW33235   1.447   2.406   7.099  0.1273  0.1685 -0.2391
 7201SOL    HW133236   1.383   2.352   7.145 -0.9675  0.2406 -1.6845
 7201SOL    HW233237   1.521   2.393   7.158  0.7053 -1.3377 -1.3017
 7202SOL     OW33238   2.875   4.209   8.479  0.5404 -0.0124  0.1004
 7202SOL    HW133239   2.843   4.120   8.493 -2.1159  0.4793 -2.8949
 7202SOL    HW233240   2.951   4.192   8.422  0.9264  1.0459  0.2909
 7203SOL     OW33241   4.276   1.160   7.329  0.1602 -0.1694  0.0991
 7203SOL    HW133242   4.180   1.162   7.329  0.2181  2.9389  1.2205
 7203SOL    HW233243   4.282   1.080   7.277 -1.2026 -0.0954 -0.1889
 7204SOL     OW33244   2.464   2.788   5.679  0.1561  0.0548 -0.0141
 7204SOL    HW133245   2.457   2.692   5.677  1.3284  0.0015 -1.5997
 7204SOL    HW233246   2.550   2.798   5.719  0.7165 -1.6263 -0.7872
 7205SOL     OW33247   2.954   1.826   4.724 -0.1291  0.6638 -0.7681
 7205SOL    HW133248   3.026   1.878   4.760 -0.1613  0.6635 -0.7024
 7205SOL    HW233249   2.990   1.783   4.646 -0.2860  1.5826 -1.3413
 7206SOL     OW33250   3.876   3.634   3.568 -0.0137 -0.0613 -0.1980
 7206SOL    HW133251   3.796   3.583   3.578  0.2382 -0.4580 -0.1997
 7206SOL    HW233252   3.949   3.576   3.545  0.0766 -0.3430  0.7707
 7207SOL     OW33253   2.558   2.510  13.448  0.5467 -0.8553 -0.2226
 7207SOL    HW133254   2.584   2.565  13.374 -0.3169  0.7653  0.6521
 7207SOL    HW233255   2.492   2.455  13.406 -1.9908  2.1654 -0.1984
 7208SOL     OW33256   2.268   1.275   9.776  0.0505 -0.2723  0.2048
 7208SOL    HW133257   2.329   1.290   9.848  1.1145  0.4984 -0.8499
 7208SOL    HW233258   2.285   1.351   9.721 -1.1194 -0.2848 -0.1831
 7209SOL     OW33259   4.369   1.072  15.216  0.2229  0.0583  0.0026
 7209SOL    HW133260   4.464   1.063  15.211  0.1833  0.5812 -1.6462
 7209SOL    HW233261   4.352   0.987  15.257 -2.1014  1.8377  2.7455
 7210SOL     OW33262   2.042   3.857   3.791  0.2694 -0.2579 -0.1596
 7210SOL    HW133263   2.088   3.916   3.732  1.6344 -0.5447  0.6199
 7210SOL    HW233264   1.957   3.900   3.794  1.2470  1.6865 -0.4992
 7211SOL     OW33265   3.662   0.970  10.718  0.3673  1.0702  0.2680
 7211SOL    HW133266   3.707   0.922  10.788  0.8003  0.8937 -0.1335
 7211SOL    HW233267   3.690   0.921  10.641 -0.6598 -0.5929  0.9593
 7212SOL     OW33268   2.755   3.053  10.067  0.2051 -0.1179  0.2222
 7212SOL    HW133269   2.726   3.000  10.140 -3.1122  1.0828 -0.2078
 7212SOL    HW233270   2.677   3.047  10.011 -2.4633  1.1581  3.7777
 7213SOL     OW33271   2.841   2.730  13.775 -0.2898  0.2458  0.0462
 7213SOL    HW133272   2.838   2.634  13.766  0.1632  0.3806 -1.4911
 7213SOL    HW233273   2.826   2.753  13.684 -0.3847  0.2566  0.0643
 7214SOL     OW33274   0.141   3.534   9.743 -0.0960 -0.1424 -0.4744
 7214SOL    HW133275   0.210   3.472   9.717  1.3515  1.6973 -0.9920
 7214SOL    HW233276   0.192   3.579   9.811  0.7926 -1.1306 -0.4795
 7215SOL     OW33277   1.566   2.097  10.658  0.2091 -0.3441  0.4722
 7215SOL    HW133278   1.531   2.009  10.644 -1.1451  0.3513 -0.5126
 7215SOL    HW233279   1.657   2.069  10.652  0.4221  0.1784  1.2076
 7216SOL     OW33280   2.985   4.370   3.410  0.4771  0.0843  0.1557
 7216SOL    HW133281   2.964   4.436   3.476 -1.1595 -3.1063  2.8283
 7216SOL    HW233282   2.898   4.361   3.370  1.1024  0.8668 -1.3689
 7217SOL     OW33283   1.755   2.716   2.700 -0.4085  0.0497 -0.4455
 7217SOL    HW133284   1.809   2.719   2.779  1.9148  2.0320 -2.1205
 7217SOL    HW233285   1.747   2.805   2.667  2.6877  0.3118 -0.4862
 7218SOL     OW33286   0.711   3.892   7.722  0.1967 -0.1764 -0.1235
 7218SOL    HW133287   0.756   3.824   7.670 -1.3629 -2.2676  1.2509
 7218SOL    HW233288   0.707   3.859   7.811  3.1027 -1.5063 -0.4891
 7219SOL     OW33289   0.576   1.728  15.645  0.0057  0.0416  0.8280
 7219SOL    HW133290   0.631   1.805  15.658  0.0806  0.0547  0.4344
 7219SOL    HW233291   0.495   1.764  15.681 -0.5118  1.3554 -1.6369
 7220SOL     OW33292   4.453   2.503  13.308  0.2671 -0.0437 -0.0952
 7220SOL    HW133293   4.501   2.520  13.227  0.0937  0.2631 -0.1321
 7220SOL    HW233294   4.444   2.590  13.347  0.0318  0.5988 -1.5819
 7221SOL     OW33295   2.428   2.331   8.829  0.1361 -0.0420 -0.0947
 7221SOL    HW133296   2.455   2.274   8.901  1.1715  0.7143  0.1164
 7221SOL    HW233297   2.475   2.413   8.846 -1.0011  0.9859 -1.8745
 7222SOL     OW33298   2.762   2.248  14.440  0.2687  0.2811  0.7499
 7222SOL    HW133299   2.804   2.213  14.360 -1.7280  0.8127 -0.5269
 7222SOL    HW233300   2.707   2.323  14.417  1.2351  0.3909 -1.2257
 7223SOL     OW33301   4.584   0.075   6.339 -0.0937  0.2559  0.5246
 7223SOL    HW133302   4.505   0.119   6.373 -0.7494 -0.3822 -0.1672
 7223SOL    HW233303   4.574   0.088   6.245  3.1143 -2.1583 -0.1198
 7224SOL     OW33304   3.339   0.038   8.341 -0.2562 -0.8979 -0.4840
 7224SOL    HW133305   3.271   0.101   8.314  0.2835 -0.0717  0.0920
 7224SOL    HW233306   3.349   0.053   8.435 -0.1501  2.4222 -1.0098
 7225SOL     OW33307   4.667   1.359   8.560 -0.0417 -0.0404 -0.5278
 7225SOL    HW133308   4.634   1.297   8.495  0.4813  0.4718 -1.2880
 7225SOL    HW233309   4.610   1.431   8.531  0.8936 -0.4250 -3.3391
 7226SOL     OW33310   2.381   4.399  15.057 -0.7209  0.3369 -0.1641
 7226SOL    HW133311   2.293   4.429  15.036  0.0101  2.3958 -0.2240
 7226SOL    HW233312   2.371   4.305  15.073  0.2030  0.0604 -1.2304
 7227SOL     OW33313   4.183   3.198   1.844  0.5962  0.0333  0.0875
 7227SOL    HW133314   4.161   3.284   1.878  0.4810  0.3149 -0.7052
 7227SOL    HW233315   4.279   3.195   1.843  0.5958 -0.6857  1.5480
 7228SOL     OW33316   3.804   1.048   8.411 -0.0411  0.2170  0.1863
 7228SOL    HW133317   3.797   1.140   8.385  3.2179  0.1309 -0.9533
 7228SOL    HW233318   3.722   1.011   8.378  0.8495  0.1710 -1.9948
 7229SOL     OW33319   2.105   0.761   5.768  0.9101  0.2075  0.0079
 7229SOL    HW133320   2.187   0.782   5.811  0.6866  0.3851  0.3465
 7229SOL    HW233321   2.095   0.836   5.710 -0.2217 -0.3619 -0.5514
 7230SOL     OW33322   2.599   4.299  11.234 -0.2463 -0.3822  0.0726
 7230SOL    HW133323   2.521   4.343  11.200 -0.2836 -0.7382 -0.2930
 7230SOL    HW233324   2.571   4.284  11.325  1.0383  0.6793  0.6451
 7231SOL     OW33325   3.165   0.272   4.421 -0.3915  1.1504  0.0008
 7231SOL    HW133326   3.085   0.246   4.377  0.0484  1.0946 -0.7569
 7231SOL    HW233327   3.125   0.311   4.500  1.3115  2.0148  0.4442
 7232SOL     OW33328   0.380   2.940   9.641  0.6257 -0.0469 -0.0393
 7232SOL    HW133329   0.461   2.988   9.659  0.3716  0.0875  0.7500
 7232SOL    HW233330   0.368   2.958   9.548 -0.0799  1.2610  0.3078
 7233SOL     OW33331   4.029   2.510  12.393  0.0584 -0.2917 -0.0747
 7233SOL    HW133332   4.083   2.437  12.424  0.3410  0.2138  0.6063
 7233SOL    HW233333   4.089   2.583  12.379  1.0378 -0.2665  4.2123
 7234SOL     OW33334   4.384   1.673   5.212 -0.8936  0.1965  0.4967
 7234SOL    HW133335   4.479   1.664   5.211 -1.1056 -2.7837  3.6462
 7234SOL    HW233336   4.366   1.581   5.190  0.1442  0.9699 -3.3963
 7235SOL     OW33337   3.736   0.217   7.068 -0.5245  0.8202  0.0001
 7235SOL    HW133338   3.666   0.270   7.030 -2.3853 -0.5437  1.5255
 7235SOL    HW233339   3.758   0.174   6.986 -2.0381  1.0861 -0.5501
 7236SOL     OW33340   0.357   0.070   3.431  0.7327  0.3010 -0.2646
 7236SOL    HW133341   0.294   0.049   3.500  1.0792  1.1178  0.3022
 7236SOL    HW233342   0.387   4.732   3.384 -1.9994 -0.6887 -0.4255
 7237SOL     OW33343   1.360   1.848   6.993  0.4370  0.7318 -0.2435
 7237SOL    HW133344   1.362   1.863   6.899  1.5135  0.4468 -0.2695
 7237SOL    HW233345   1.450   1.820   7.010  0.2306 -0.0580 -0.4407
 7238SOL     OW33346   3.263   4.632  10.348 -0.6026  0.1486 -1.0498
 7238SOL    HW133347   3.264   4.549  10.395 -0.9937  0.9662  0.4034
 7238SOL    HW233348   3.333   4.682  10.389 -2.2342  0.9211  0.7645
 7239SOL     OW33349   2.702   4.585   7.620 -0.1586 -0.1549 -0.3969
 7239SOL    HW133350   2.706   4.558   7.528 -1.4075  2.0692 -1.1136
 7239SOL    HW233351   2.774   4.530   7.650 -1.6224 -1.3805  0.8493
 7240SOL     OW33352   4.705   2.529  12.181  0.0137  0.1266 -0.1757
 7240SOL    HW133353   0.026   2.543  12.109 -0.4824 -2.0877 -1.0109
 7240SOL    HW233354   4.644   2.463  12.148 -0.9234 -0.1630  2.1525
 7241SOL     OW33355   1.897   2.931   4.239 -0.2483  0.0390  0.1932
 7241SOL    HW133356   1.924   2.849   4.281  0.2866 -0.0052 -0.2433
 7241SOL    HW233357   1.980   2.978   4.236 -0.7997  1.0067  0.0035
 7242SOL     OW33358   0.983   2.548   1.320  0.1023  0.3348 -0.5259
 7242SOL    HW133359   1.013   2.457   1.326 -2.3380 -0.3560  1.2960
 7242SOL    HW233360   1.052   2.595   1.366  0.5223  1.1980 -2.0287
 7243SOL     OW33361   3.658   3.842  12.552 -0.1066  0.0916 -0.3676
 7243SOL    HW133362   3.601   3.885  12.488 -1.2128  0.2222  0.6928
 7243SOL    HW233363   3.642   3.751  12.525  2.6193 -0.6193  0.4490
 7244SOL     OW33364   2.234   2.008   4.543  0.0571 -0.1938 -0.1481
 7244SOL    HW133365   2.164   2.046   4.596  2.1346  0.3039  2.2391
 7244SOL    HW233366   2.195   1.924   4.520 -1.2247  0.6316 -1.0181
 7245SOL     OW33367   1.505   2.321   5.299  0.3454 -0.3512  0.6568
 7245SOL    HW133368   1.559   2.336   5.221 -0.0599  3.9069  1.1857
 7245SOL    HW233369   1.424   2.282   5.265  0.9070  0.4886 -1.6522
 7246SOL     OW33370   1.496   0.191   5.981  0.7435 -0.0734  0.3552
 7246SOL    HW133371   1.470   0.276   5.944  1.7311 -0.1855 -0.6025
 7246SOL    HW233372   1.564   0.210   6.046  1.3597 -1.0675  0.0031
 7247SOL     OW33373   1.042   4.387   8.647  0.2167 -0.0070 -0.1004
 7247SOL    HW133374   1.062   4.460   8.706  0.5683  0.8521 -1.2836
 7247SOL    HW233375   1.082   4.419   8.566 -0.7061  0.3350 -0.4258
 7248SOL     OW33376   1.723   1.878   0.937 -0.2592 -0.1515 -0.2554
 7248SOL    HW133377   1.743   1.839   0.852  1.5462 -3.0988  1.5289
 7248SOL    HW233378   1.636   1.915   0.920 -0.0297  0.0574 -0.9928
 7249SOL     OW33379   4.328   1.944   6.717 -0.5206 -0.3390 -0.7091
 7249SOL    HW133380   4.297   1.947   6.807  2.2045 -2.4252  0.2995
 7249SOL    HW233381   4.319   2.033   6.685 -0.7759 -0.3505 -0.6635
 7250SOL     OW33382   2.407   0.909   2.412 -0.2532 -0.3046  0.1982
 7250SOL    HW133383   2.435   0.972   2.346 -0.2325 -0.9893 -0.4379
 7250SOL    HW233384   2.313   0.928   2.417 -0.3366 -0.7955  0.5887
 7251SOL     OW33385   4.088   3.503   8.606 -0.4300 -0.2258 -0.1504
 7251SOL    HW133386   3.997   3.508   8.578 -0.5180 -0.8027  0.0237
 7251SOL    HW233387   4.121   3.447   8.535 -0.0829  0.2129 -0.3319
 7252SOL     OW33388   1.442   1.205   3.649 -0.0855  0.0582  0.2986
 7252SOL    HW133389   1.384   1.195   3.573  0.3688  3.0631 -0.4648
 7252SOL    HW233390   1.525   1.182   3.608  0.1734  1.3093  0.1127
 7253SOL     OW33391   0.663   0.473   7.323  0.1519  0.4553 -0.4753
 7253SOL    HW133392   0.644   0.468   7.230 -1.9632  0.4383 -0.0395
 7253SOL    HW233393   0.727   0.543   7.309 -0.8417  1.1275 -1.7073
 7254SOL     OW33394   2.557   4.416  14.830  0.5223 -0.1803 -0.1253
 7254SOL    HW133395   2.522   4.396  14.917  0.5840 -1.0338 -0.3064
 7254SOL    HW233396   2.481   4.426  14.774 -0.6575 -2.4886  1.0741
 7255SOL     OW33397   2.229   0.506   6.057 -0.8152 -0.5043  0.4256
 7255SOL    HW133398   2.256   0.559   6.132  1.6258 -1.4148  0.1610
 7255SOL    HW233399   2.139   0.532   6.038 -0.2792  0.3498 -0.9519
 7256SOL     OW33400   2.524   4.196   7.658  0.0964  0.1654 -0.5377
 7256SOL    HW133401   2.604   4.151   7.684 -1.5563 -1.7149  1.2621
 7256SOL    HW233402   2.466   4.126   7.630  0.5087 -1.1704  1.9739
 7257SOL     OW33403   1.675   4.040   3.834 -0.2088 -0.0750 -0.2973
 7257SOL    HW133404   1.754   4.094   3.826  0.1944 -0.8135 -1.3125
 7257SOL    HW233405   1.654   4.058   3.926  0.9165 -0.3783  0.0203
 7258SOL     OW33406   0.752   0.794  12.285  0.0519 -0.0149 -0.2574
 7258SOL    HW133407   0.842   0.826  12.283  0.0388  0.1292  0.9220
 7258SOL    HW233408   0.715   0.818  12.200 -0.1947  1.7006  0.3333
 7259SOL     OW33409   0.736   1.167   8.805 -0.3204  0.7153 -0.1829
 7259SOL    HW133410   0.688   1.185   8.724 -0.6945 -1.4112 -0.4165
 7259SOL    HW233411   0.715   1.250   8.850  1.2828  1.2218 -0.3815
 7260SOL     OW33412   3.446   4.701   4.282 -0.1291  0.4501  0.4536
 7260SOL    HW133413   3.480   4.615   4.258  3.5809  1.4236  2.1757
 7260SOL    HW233414   3.390   4.714   4.206 -2.3843 -1.2593  1.8396
 7261SOL     OW33415   0.042   2.564   7.771 -0.1806  0.2310  0.4866
 7261SOL    HW133416   0.099   2.564   7.694 -1.2767 -1.1559 -0.3267
 7261SOL    HW233417   0.071   2.486   7.819  0.5751 -0.9177 -1.8060
 7262SOL     OW33418   2.767   2.212   4.186 -0.3899  0.6877  0.0291
 7262SOL    HW133419   2.803   2.163   4.260  0.1432  1.4634  0.2845
 7262SOL    HW233420   2.741   2.136   4.134 -2.2727  0.5378  1.1862
 7263SOL     OW33421   4.371   2.479   4.874  0.1269 -0.1980  0.1018
 7263SOL    HW133422   4.398   2.390   4.898  0.8772  0.9167  3.3334
 7263SOL    HW233423   4.351   2.517   4.960  0.3055 -1.4884  0.7157
 7264SOL     OW33424   1.428   0.085   3.017 -0.5643 -0.5482 -0.5432
 7264SOL    HW133425   1.337   0.097   2.989 -0.2817  1.9854 -0.4111
 7264SOL    HW233426   1.409   0.089   3.111  0.0661 -3.2442 -0.3213
 7265SOL     OW33427   0.396   3.202   2.388 -0.0075 -0.2983 -0.0161
 7265SOL    HW133428   0.376   3.289   2.352  3.2014  0.0786 -0.8594
 7265SOL    HW233429   0.461   3.163   2.329  2.4455  1.4159  1.5492
 7266SOL     OW33430   4.317   0.413  12.252 -0.7353  0.7233 -0.8479
 7266SOL    HW133431   4.269   0.364  12.319  2.7151 -0.4975  0.6923
 7266SOL    HW233432   4.285   0.372  12.171 -1.2356 -1.6050  0.5690
 7267SOL     OW33433   2.891   2.859  10.649  0.1105  0.0057 -0.1305
 7267SOL    HW133434   2.902   2.951  10.625  1.4328 -0.2329 -0.4493
 7267SOL    HW233435   2.942   2.820  10.579 -1.8646 -2.6172 -0.0936
 7268SOL     OW33436   3.991   2.491  14.339 -0.7803 -0.3426  0.1786
 7268SOL    HW133437   4.080   2.525  14.331 -0.5836 -0.9591 -0.3266
 7268SOL    HW233438   3.945   2.556  14.286 -2.5189 -0.4236  1.5848
 7269SOL     OW33439   3.015   4.255   5.377  0.4956  0.1106  0.6392
 7269SOL    HW133440   2.987   4.247   5.286 -0.8434  0.3520  1.0329
 7269SOL    HW233441   3.052   4.171   5.406  0.8892  0.5519  1.4310
 7270SOL     OW33442   0.415   3.904   3.143 -0.1674  0.1179 -0.4814
 7270SOL    HW133443   0.398   3.863   3.059 -2.7447 -1.4045  0.8104
 7270SOL    HW233444   0.381   3.844   3.208  0.3581 -0.3181 -0.6103
 7271SOL     OW33445   2.283   1.826   4.932  0.2303  1.0680 -0.2087
 7271SOL    HW133446   2.255   1.755   4.990 -0.9839  2.0572  0.4172
 7271SOL    HW233447   2.279   1.770   4.854 -0.3988  0.6543  0.1175
 7272SOL     OW33448   4.541   4.700   7.368 -0.0047  0.0655  0.2089
 7272SOL    HW133449   4.504   4.662   7.447  0.0248  3.0360  1.6421
 7272SOL    HW233450   4.615   4.732   7.418 -1.1770  1.2930  1.1715
 7273SOL     OW33451   2.557   1.696   6.466  0.1601 -0.1817 -0.3935
 7273SOL    HW133452   2.529   1.764   6.405 -2.0322  0.0820  0.9309
 7273SOL    HW233453   2.602   1.637   6.405  0.1459  0.9056 -1.4554
 7274SOL     OW33454   2.434   4.522   2.910 -0.2036  0.2848  0.1617
 7274SOL    HW133455   2.416   4.511   2.817  0.5004  0.0376  0.0549
 7274SOL    HW233456   2.354   4.543   2.958  0.0313  1.5251 -0.0084
 7275SOL     OW33457   4.157   3.816   7.344  0.1932  0.3519 -0.2701
 7275SOL    HW133458   4.192   3.796   7.431 -0.4399 -1.9016 -0.5245
 7275SOL    HW233459   4.140   3.733   7.298  0.0148  0.7870 -0.9805
 7276SOL     OW33460   3.378   1.805  15.438  0.3587  0.5948 -0.6394
 7276SOL    HW133461   3.426   1.785  15.358 -2.5252 -1.5030 -1.8740
 7276SOL    HW233462   3.402   1.738  15.502  0.2474  1.3841  0.2241
 7277SOL     OW33463   3.510   3.394   7.184 -0.9769 -0.0515 -0.7570
 7277SOL    HW133464   3.558   3.390   7.101  0.3136  0.3641 -0.0246
 7277SOL    HW233465   3.568   3.436   7.247  0.1071 -2.8580  0.0993
 7278SOL     OW33466   3.651   4.626  12.428 -0.0332  0.1036 -0.0109
 7278SOL    HW133467   3.746   4.622  12.415 -0.0315 -2.8459  0.9606
 7278SOL    HW233468   3.654   4.703  12.485 -0.0406 -0.6217  0.9687
 7279SOL     OW33469   0.840   4.082   9.424  0.1250  0.0134 -0.2106
 7279SOL    HW133470   0.799   4.089   9.338  0.3568  3.1212 -0.0595
 7279SOL    HW233471   0.930   4.064   9.399 -0.1884  0.2853 -1.5058
 7280SOL     OW33472   4.587   2.838   0.791 -0.4169 -0.0086  0.6225
 7280SOL    HW133473   4.681   2.822   0.790 -0.3572  0.6536 -2.6645
 7280SOL    HW233474   4.573   2.801   0.878  1.4692 -0.7405  0.6163
 7281SOL     OW33475   0.794   2.287  14.742  0.4413 -0.0727 -0.2486
 7281SOL    HW133476   0.717   2.231  14.750  1.8020 -1.9672 -0.2463
 7281SOL    HW233477   0.784   2.326  14.655  0.9163  1.0803  0.2213
 7282SOL     OW33478   4.576   2.722   8.371 -0.4131 -0.0059  0.4407
 7282SOL    HW133479   4.641   2.677   8.317 -0.6224  0.9066 -0.5925
 7282SOL    HW233480   4.630   2.762   8.439  0.3611 -0.4082  0.0577
 7283SOL     OW33481   3.889   4.654   8.676 -0.8403 -0.0036  1.1210
 7283SOL    HW133482   3.868   4.564   8.654  0.6620  0.2047 -1.1408
 7283SOL    HW233483   3.809   4.706   8.680 -0.1673  1.1816 -1.2439
 7284SOL     OW33484   1.274   3.467   4.645 -0.1244  0.0466  0.2707
 7284SOL    HW133485   1.344   3.430   4.592  0.0676 -1.3493  1.5025
 7284SOL    HW233486   1.331   3.513   4.708  1.7029 -0.7992 -0.7699
 7285SOL     OW33487   0.516   2.119   6.743  0.6659 -0.0951  0.0130
 7285SOL    HW133488   0.542   2.208   6.766 -0.8564  0.6909 -1.2265
 7285SOL    HW233489   0.427   2.135   6.710 -0.0720 -2.4126  0.8931
 7286SOL     OW33490   3.858   0.630  12.708 -0.2770  0.4669 -0.1550
 7286SOL    HW133491   3.951   0.652  12.713 -0.0955 -0.7204  1.9829
 7286SOL    HW233492   3.854   0.561  12.775 -1.5241 -0.0852 -0.7976
 7287SOL     OW33493   2.770   4.178   0.745 -0.2806 -0.0235  0.2017
 7287SOL    HW133494   2.802   4.266   0.763  0.3700 -0.1667 -0.2117
 7287SOL    HW233495   2.761   4.193   0.651  1.3418  0.4008  0.1042
 7288SOL     OW33496   2.049   4.523   7.543 -0.2090 -0.1509  0.3625
 7288SOL    HW133497   2.021   4.455   7.604  0.5116  0.6132  1.5563
 7288SOL    HW233498   2.107   4.578   7.596 -0.1893 -0.2528  0.4462
 7289SOL     OW33499   2.027   1.211   6.475  0.1180 -0.3991 -0.2242
 7289SOL    HW133500   2.015   1.301   6.504  2.9046 -1.0376  2.9077
 7289SOL    HW233501   1.983   1.164   6.545  2.4944 -2.4767 -0.1283
 7290SOL     OW33502   2.295   1.562  11.362 -0.0095 -0.4166  0.4083
 7290SOL    HW133503   2.389   1.552  11.347 -0.2029  0.4631 -1.4032
 7290SOL    HW233504   2.264   1.612  11.286 -1.0395  0.6223  1.5135
 7291SOL     OW33505   3.975   3.685   8.239 -0.0389  0.0263  0.0395
 7291SOL    HW133506   3.902   3.688   8.301  0.3238 -1.8153  0.5380
 7291SOL    HW233507   3.965   3.770   8.196 -0.2378  0.4024  0.8264
 7292SOL     OW33508   3.820   3.426   5.027 -0.1026  0.4839 -0.5482
 7292SOL    HW133509   3.767   3.386   4.958  1.4610 -0.6561 -1.0996
 7292SOL    HW233510   3.894   3.371   5.001  0.8859  1.6350 -0.1917
 7293SOL     OW33511   3.041   1.882   5.047  0.5163 -0.0930 -0.4668
 7293SOL    HW133512   2.968   1.875   5.109 -0.9716  2.4919 -1.9025
 7293SOL    HW233513   3.005   1.955   4.996 -1.7535 -0.2583  0.9377
 7294SOL     OW33514   1.863   1.824   7.748  0.1017  0.1267  0.3139
 7294SOL    HW133515   1.791   1.794   7.693 -0.4158 -0.2560  1.2121
 7294SOL    HW233516   1.814   1.892   7.795 -2.2744 -1.2035 -0.2877
 7295SOL     OW33517   3.020   4.587   3.601  0.0692  0.3101 -0.5196
 7295SOL    HW133518   2.983   4.675   3.589  0.2103  0.3781 -0.4638
 7295SOL    HW233519   3.038   4.592   3.695  0.8333 -2.1293 -0.5356
 7296SOL     OW33520   4.268   4.380   6.558 -0.5136 -0.2416  0.3584
 7296SOL    HW133521   4.358   4.348   6.557  0.5690  2.7948 -1.0517
 7296SOL    HW233522   4.265   4.419   6.645 -0.7973 -0.5097  0.4663
 7297SOL     OW33523   1.016   2.675  13.026 -0.4000  0.3203  0.0407
 7297SOL    HW133524   0.982   2.717  13.106 -2.4740 -0.6396 -0.3388
 7297SOL    HW233525   1.108   2.699  13.037 -0.3436 -1.0843  2.5037
 7298SOL     OW33526   4.679   2.674  12.434  0.1554  0.5718 -0.8776
 7298SOL    HW133527   4.589   2.708  12.430  0.0208  0.2333 -0.7228
 7298SOL    HW233528   4.687   2.639  12.346 -0.8646 -0.1516 -0.6877
 7299SOL     OW33529   1.814   4.190   6.789 -0.2467  0.3980  0.4588
 7299SOL    HW133530   1.737   4.134   6.777  0.8005 -1.2263  1.3884
 7299SOL    HW233531   1.886   4.138   6.826 -0.3823  0.2994  0.5844
 7300SOL     OW33532   0.190   4.467   7.811  0.4129 -0.5741 -0.0458
 7300SOL    HW133533   0.101   4.496   7.790  1.6555  2.1728 -1.5084
 7300SOL    HW233534   0.238   4.498   7.734  1.4169 -3.3040 -0.4976
 7301SOL     OW33535   2.597   0.971   9.041  0.0622 -0.0947 -0.1171
 7301SOL    HW133536   2.612   0.892   8.989  1.4633 -0.0285  0.1639
 7301SOL    HW233537   2.670   0.982   9.102  0.3940  0.7497 -0.6515
 7302SOL     OW33538   3.108   0.093   4.130  0.1378  0.9675  0.4954
 7302SOL    HW133539   3.164   0.019   4.151 -1.8938  0.3359  3.6056
 7302SOL    HW233540   3.057   0.117   4.207  0.0470  3.0060 -0.1902
 7303SOL     OW33541   4.293   4.378  16.378  0.1473  0.3348  0.2679
 7303SOL    HW133542   4.243   4.452  16.413  0.3979  1.1576 -1.1561
 7303SOL    HW233543   4.347   4.433  16.322 -2.1800  0.9193 -1.3795
 7304SOL     OW33544   4.493   4.229   7.284 -0.5721  0.3177  0.1783
 7304SOL    HW133545   4.499   4.136   7.304  1.1759  0.8392  2.0231
 7304SOL    HW233546   4.400   4.252   7.286 -0.4757  0.8228 -1.4496
 7305SOL     OW33547   3.826   3.067   6.490 -0.3308 -0.1077 -0.0596
 7305SOL    HW133548   3.759   3.027   6.546  0.4583 -0.5412  0.5695
 7305SOL    HW233549   3.777   3.067   6.408 -0.6359  0.6694  0.1224
 7306SOL     OW33550   0.341   3.216   5.143  0.1100  0.1697  0.0404
 7306SOL    HW133551   0.398   3.269   5.198  0.1071 -0.9222  1.0876
 7306SOL    HW233552   0.276   3.286   5.130  0.4049  0.4430  0.0175
 7307SOL     OW33553   0.553   2.261   7.852  0.1763 -0.2735 -0.0167
 7307SOL    HW133554   0.611   2.189   7.879  0.7028  0.8014  1.7260
 7307SOL    HW233555   0.534   2.306   7.934 -0.4761 -1.4047  0.4489
 7308SOL     OW33556   1.698   0.789   4.250  0.0088 -0.1074  0.4518
 7308SOL    HW133557   1.789   0.760   4.247  0.4693  1.1875  2.3758
 7308SOL    HW233558   1.658   0.707   4.279 -1.6535  0.8280  0.7939
 7309SOL     OW33559   3.534   3.896   8.568  0.1035  0.1613  0.7407
 7309SOL    HW133560   3.467   3.938   8.623  0.0971  2.0106 -0.6861
 7309SOL    HW233561   3.515   3.803   8.578  0.6003  0.0744  0.8745
 7310SOL     OW33562   0.888   3.027   5.892  0.5943 -0.2128 -0.1441
 7310SOL    HW133563   0.818   3.059   5.949 -1.8500 -2.1847 -2.0098
 7310SOL    HW233564   0.955   3.095   5.896 -0.6105  0.8784  1.5605
 7311SOL     OW33565   1.882   3.645   4.511 -0.6997  0.4093  0.4166
 7311SOL    HW133566   1.939   3.587   4.562  0.5094  2.4173  1.3216
 7311SOL    HW233567   1.797   3.602   4.496 -0.2521  0.2723 -1.7406
 7312SOL     OW33568   3.060   2.551   7.738 -0.0328  0.5411  0.5636
 7312SOL    HW133569   3.141   2.534   7.787 -0.7239  0.7771  1.7812
 7312SOL    HW233570   3.078   2.521   7.649 -0.5401 -0.7252  0.8906
 7313SOL     OW33571   2.431   4.282  12.462 -0.0105 -0.3542  0.0911
 7313SOL    HW133572   2.481   4.338  12.523 -2.6337  1.1386  0.8653
 7313SOL    HW233573   2.449   4.323  12.378 -3.0202  1.2513  0.2105
 7314SOL     OW33574   1.625   2.082   5.137 -0.3524  0.1941 -1.0163
 7314SOL    HW133575   1.539   2.124   5.150 -1.2939 -1.2640 -2.5609
 7314SOL    HW233576   1.678   2.129   5.202 -0.3267 -1.7572  0.3952
 7315SOL     OW33577   2.123   4.320  11.109 -0.4221 -0.7819 -0.7043
 7315SOL    HW133578   2.187   4.292  11.043  2.0076  1.4363  0.7101
 7315SOL    HW233579   2.074   4.239  11.116 -0.3728 -0.5758  2.0551
 7316SOL     OW33580   2.062   4.036   7.809 -0.9963 -0.0205  0.5269
 7316SOL    HW133581   2.072   3.956   7.862  0.4597 -0.3219 -0.2265
 7316SOL    HW233582   2.018   4.088   7.876  1.3338 -0.6199  2.4898
 7317SOL     OW33583   1.464   4.066  15.723 -0.0831 -0.1279 -0.2963
 7317SOL    HW133584   1.409   4.144  15.732 -0.7394 -0.7399  0.9868
 7317SOL    HW233585   1.392   4.002  15.721 -0.9530  0.7628  2.0399
 7318SOL     OW33586   3.751   1.979  17.747 -0.7151 -0.5809 -0.6117
 7318SOL    HW133587   3.703   2.060   0.003 -1.3998 -1.0192 -0.3745
 7318SOL    HW233588   3.680   1.915   0.001 -1.9749  0.6963 -1.5082
 7319SOL     OW33589   0.157   3.860   1.724 -0.7924 -0.0654 -0.2645
 7319SOL    HW133590   0.101   3.922   1.769 -3.3523 -1.0995 -2.0084
 7319SOL    HW233591   0.250   3.880   1.740 -1.0540  0.3644  0.6622
 7320SOL     OW33592   1.842   4.004   9.715  0.0507  0.3298  0.1525
 7320SOL    HW133593   1.793   4.086   9.707 -2.8685 -1.4952 -0.8995
 7320SOL    HW233594   1.921   4.014   9.662  0.7523  0.5761  1.2463
 7321SOL     OW33595   1.117   3.894   4.824 -0.1327 -0.2597 -0.1084
 7321SOL    HW133596   1.039   3.877   4.771 -0.3224 -1.2994  0.5078
 7321SOL    HW233597   1.165   3.957   4.770 -2.7477  0.0065 -2.1269
 7322SOL     OW33598   4.659   2.968   3.693  0.2544  0.4021  0.4968
 7322SOL    HW133599   4.610   2.990   3.772 -1.2622 -1.2349  0.0238
 7322SOL    HW233600   4.637   2.875   3.682  0.0178  0.7231 -1.7034
 7323SOL     OW33601   0.468   0.478   9.776  0.2811  0.6909  0.2219
 7323SOL    HW133602   0.468   0.500   9.683  0.6956  0.4553  0.1675
 7323SOL    HW233603   0.373   0.467   9.788  0.4851 -1.6398 -0.2139
 7324SOL     OW33604   1.892   1.845   9.403  0.2420 -0.2574  0.0798
 7324SOL    HW133605   1.875   1.760   9.363 -0.9279 -0.3488  0.7925
 7324SOL    HW233606   1.887   1.824   9.497 -0.0306  0.6202  0.2633
 7325SOL     OW33607   4.200   3.820   0.174 -0.2148 -0.2356 -0.0351
 7325SOL    HW133608   4.164   3.757   0.237 -1.0100 -0.5259 -0.7978
 7325SOL    HW233609   4.155   3.787   0.097  0.5997  1.7802 -1.3833
 7326SOL     OW33610   4.476   1.868   6.051 -0.0795 -0.2380  0.1498
 7326SOL    HW133611   4.407   1.827   6.102  0.4096  0.4191  1.3410
 7326SOL    HW233612   4.555   1.838   6.095 -0.0705  1.7976  1.5278
 7327SOL     OW33613   0.747   2.910   7.559 -0.3312  0.4225 -0.0037
 7327SOL    HW133614   0.762   3.002   7.537  1.6251  0.2070  0.3985
 7327SOL    HW233615   0.659   2.912   7.597 -0.9458  1.3427 -1.4666
 7328SOL     OW33616   3.487   0.411   6.452  0.1705 -0.5082 -0.4520
 7328SOL    HW133617   3.412   0.459   6.417 -0.0804 -0.9526 -0.5266
 7328SOL    HW233618   3.498   0.355   6.375  1.2949 -0.3096 -0.4467
 7329SOL     OW33619   3.215   3.596   9.897  0.3427 -0.5061 -0.2476
 7329SOL    HW133620   3.274   3.600   9.972 -0.8418  0.2175  0.6392
 7329SOL    HW233621   3.135   3.567   9.941 -1.5756  1.5199 -2.3964
 7330SOL     OW33622   2.729   2.283   6.113  0.4953 -0.1781  0.1571
 7330SOL    HW133623   2.724   2.376   6.136 -0.1633 -0.0316 -0.5727
 7330SOL    HW233624   2.726   2.238   6.197  0.9547 -1.3627 -0.4584
 7331SOL     OW33625   2.672   4.079   9.612 -0.0112 -0.0878 -0.4042
 7331SOL    HW133626   2.735   4.147   9.593 -0.2181  0.2324  0.0603
 7331SOL    HW233627   2.696   4.025   9.537 -0.1122 -0.1716 -0.3764
 7332SOL     OW33628   2.002   2.301  12.491  0.3248 -0.3189 -0.1556
 7332SOL    HW133629   1.975   2.361  12.421  0.3530 -0.6902 -0.4860
 7332SOL    HW233630   1.924   2.244  12.497 -0.2985  0.7325  1.6395
 7333SOL     OW33631   3.026   0.147   6.281 -0.0516  0.1692  0.4334
 7333SOL    HW133632   3.017   0.111   6.193 -0.6589 -0.9807  0.9664
 7333SOL    HW233633   2.933   0.140   6.304  0.3413 -2.1471  1.3399
 7334SOL     OW33634   2.974   3.483   5.440 -0.6107  0.5573  0.2408
 7334SOL    HW133635   3.041   3.524   5.386  0.0281 -1.6154 -0.6294
 7334SOL    HW233636   2.936   3.559   5.484  0.3935  1.7039 -0.8734
 7335SOL     OW33637   0.777   0.751   3.235  0.1493  0.5322 -0.1870
 7335SOL    HW133638   0.800   0.736   3.144 -0.0920 -2.3490  0.2141
 7335SOL    HW233639   0.835   0.686   3.275 -0.6731  0.2003  0.4731
 7336SOL     OW33640   2.401   1.758   9.321  0.4565  0.1230 -0.8594
 7336SOL    HW133641   2.424   1.675   9.279  1.3128 -0.5213  0.8851
 7336SOL    HW233642   2.305   1.761   9.322  0.4125 -1.3004 -0.5925
 7337SOL     OW33643   3.489   4.298   4.663  0.0824 -0.2052 -0.3827
 7337SOL    HW133644   3.422   4.271   4.600 -0.7309  1.3250 -0.1813
 7337SOL    HW233645   3.459   4.376   4.709 -0.1715  0.9719 -2.5575
 7338SOL     OW33646   0.515   1.038   3.736  0.0756 -0.0839 -0.3789
 7338SOL    HW133647   0.514   1.038   3.831 -0.8485  1.2396 -0.3862
 7338SOL    HW233648   0.586   0.977   3.711  1.3430  0.6651  1.4255
 7339SOL     OW33649   1.515   3.084   5.134 -0.1101  0.2868  0.0578
 7339SOL    HW133650   1.443   3.098   5.196 -1.7468  0.5347 -1.8908
 7339SOL    HW233651   1.489   3.156   5.076  0.2234  0.3456 -0.0207
 7340SOL     OW33652   3.738   1.146   2.792  0.1491  0.6312 -0.2987
 7340SOL    HW133653   3.793   1.102   2.857  0.0078  0.0730 -0.5571
 7340SOL    HW233654   3.755   1.236   2.817  0.1328  0.9188 -1.3340
 7341SOL     OW33655   2.375   1.007   8.251 -0.1013 -0.0748 -0.4912
 7341SOL    HW133656   2.319   1.007   8.328  0.5614  0.6509 -0.0009
 7341SOL    HW233657   2.320   1.051   8.186 -1.5443 -0.3668  0.5300
 7342SOL     OW33658   2.485   3.356  16.788  0.0989  0.3160 -0.0818
 7342SOL    HW133659   2.528   3.315  16.713 -0.2963  0.5824 -0.4528
 7342SOL    HW233660   2.415   3.292  16.802  1.2101 -1.3911 -2.5280
 7343SOL     OW33661   2.323   0.150   5.865 -0.2314 -0.9408  0.5398
 7343SOL    HW133662   2.265   0.200   5.808 -0.7273 -2.8256 -0.5856
 7343SOL    HW233663   2.382   0.105   5.805 -1.0164  0.0138 -0.9409
 7344SOL     OW33664   3.054   1.147   8.261 -0.5185  0.3223 -0.1349
 7344SOL    HW133665   2.976   1.198   8.283 -0.1053 -0.2497  2.6029
 7344SOL    HW233666   3.068   1.186   8.174  0.3394  2.2962  0.9023
 7345SOL     OW33667   1.066   1.422   8.478  0.1056 -0.3251 -0.0234
 7345SOL    HW133668   1.014   1.415   8.558  0.9876  0.1736  0.6031
 7345SOL    HW233669   1.009   1.477   8.425  2.5303  0.3087 -1.9576
 7346SOL     OW33670   0.438   4.607   6.453  0.7532 -0.5727 -0.3885
 7346SOL    HW133671   0.528   4.577   6.439  1.8356  1.7566  1.4038
 7346SOL    HW233672   0.394   4.557   6.385 -0.6113 -0.0381  0.1091
 7347SOL     OW33673   2.157   4.606   3.241  0.0757 -0.0227  0.4159
 7347SOL    HW133674   2.126   4.517   3.223  0.8356  0.0692 -1.4170
 7347SOL    HW233675   2.151   4.656   3.159 -2.5362  1.6254  1.6495
 7348SOL     OW33676   2.976   0.135   3.548 -0.2870  0.1184  0.3169
 7348SOL    HW133677   2.999   0.137   3.641  1.1561 -1.1434 -0.0026
 7348SOL    HW233678   2.906   0.199   3.534 -0.2128  0.2181  0.4114
 7349SOL     OW33679   3.137   0.439  16.852 -0.5032  0.8204 -0.1923
 7349SOL    HW133680   3.218   0.460  16.900 -0.6843 -0.7623  0.7898
 7349SOL    HW233681   3.093   0.524  16.843  2.5718  2.5224  0.7644
 7350SOL     OW33682   2.668   4.108   3.105  0.2931  0.3238 -0.3698
 7350SOL    HW133683   2.684   4.038   3.041 -1.2997 -0.6131  0.2487
 7350SOL    HW233684   2.727   4.171   3.064  0.9345 -0.5617 -0.8282
 7351SOL     OW33685   3.633   3.920   1.697  0.1792  0.3012 -0.3752
 7351SOL    HW133686   3.566   3.883   1.640 -2.7465  2.3198  1.7269
 7351SOL    HW233687   3.649   3.846   1.757  1.4006  2.1565  1.6015
 7352SOL     OW33688   1.121   1.693   3.584 -0.2334 -0.4519  0.8255
 7352SOL    HW133689   1.090   1.772   3.629 -0.1783  0.4749 -0.7745
 7352SOL    HW233690   1.065   1.626   3.624  0.8780 -0.4190  2.4118
 7353SOL     OW33691   1.875   3.037  10.442 -0.0828  0.2331 -0.1737
 7353SOL    HW133692   1.968   3.016  10.449 -0.2438 -1.5649 -3.7264
 7353SOL    HW233693   1.846   2.950  10.469  2.3616 -1.3702 -2.7019
 7354SOL     OW33694   4.550   1.475   7.885 -0.0740 -0.2648 -0.3674
 7354SOL    HW133695   4.558   1.531   7.808 -1.3006 -2.1064 -1.8271
 7354SOL    HW233696   4.579   1.538   7.951  0.9280 -0.1639 -0.9106
 7355SOL     OW33697   4.558   0.905   8.914 -0.2537  0.7578 -0.3056
 7355SOL    HW133698   4.479   0.863   8.881  1.8959 -2.5426 -1.2139
 7355SOL    HW233699   4.621   0.869   8.852 -1.1226 -1.4677  0.0939
 7356SOL     OW33700   3.861   4.342   3.591  0.3818 -0.1074 -0.1059
 7356SOL    HW133701   3.843   4.388   3.509  0.0764 -0.5286 -0.2740
 7356SOL    HW233702   3.855   4.250   3.563 -1.2604  0.7290 -2.4797
 7357SOL     OW33703   3.181   2.087   1.907 -0.5163 -0.3728  0.0948
 7357SOL    HW133704   3.159   2.174   1.875  2.1217  1.1953  2.5132
 7357SOL    HW233705   3.230   2.066   1.828 -1.0813 -0.1965 -0.2995
 7358SOL     OW33706   0.386   3.721   1.521 -0.9539 -0.0910  0.8558
 7358SOL    HW133707   0.368   3.740   1.613 -1.5648 -0.9725  0.9163
 7358SOL    HW233708   0.471   3.766   1.513 -0.4300 -0.8674  2.0320
 7359SOL     OW33709   1.841   0.238   2.472 -0.4985  0.6561  0.3321
 7359SOL    HW133710   1.832   0.326   2.509 -0.8222  0.1543  1.4471
 7359SOL    HW233711   1.934   0.237   2.449 -0.6456  0.0724 -0.2401
 7360SOL     OW33712   2.493   2.259   4.167  0.0456 -0.4265  0.4625
 7360SOL    HW133713   2.575   2.289   4.206 -0.1856  0.4678  0.2542
 7360SOL    HW233714   2.472   2.189   4.228 -1.3872 -2.5317 -2.4238
 7361SOL     OW33715   2.886   3.634   8.525 -0.2272 -0.5095 -0.0236
 7361SOL    HW133716   2.885   3.624   8.430 -1.7271 -0.4567 -0.0116
 7361SOL    HW233717   2.906   3.549   8.564  2.0930 -0.2691 -0.7171
 7362SOL     OW33718   3.760   0.733   5.939  0.4150 -0.0817  0.4367
 7362SOL    HW133719   3.691   0.799   5.928 -0.9683 -1.3462  1.5917
 7362SOL    HW233720   3.736   0.670   5.871 -1.9429  1.9782 -0.6539
 7363SOL     OW33721   2.317   4.711   4.079 -0.3489  0.0300 -0.1598
 7363SOL    HW133722   2.257   4.724   4.005 -0.5550  0.2920  0.0537
 7363SOL    HW233723   2.305   4.623   4.116 -3.1704  1.4750  2.3497
 7364SOL     OW33724   0.352   1.047  16.672  0.1256  0.1404  0.0155
 7364SOL    HW133725   0.263   1.079  16.690  1.2973  4.0252 -0.9647
 7364SOL    HW233726   0.349   0.989  16.596  0.4356 -2.1935  1.7901
 7365SOL     OW33727   1.431   1.969   3.136  0.2605 -0.0169  0.6984
 7365SOL    HW133728   1.465   1.959   3.047 -0.9540 -1.4405  0.4110
 7365SOL    HW233729   1.425   1.880   3.170 -0.9077  0.1809  1.0072
 7366SOL     OW33730   2.339   4.444   1.184 -0.2277 -0.0976 -0.6614
 7366SOL    HW133731   2.279   4.450   1.258 -0.8817  0.4230 -1.2322
 7366SOL    HW233732   2.361   4.536   1.169 -0.6243  0.2005  0.5786
 7367SOL     OW33733   0.102   0.040   6.374 -0.3116 -0.5989  0.0714
 7367SOL    HW133734   0.129   4.731   6.296 -1.8052  1.3740 -1.6767
 7367SOL    HW233735   0.011   0.063   6.354 -0.4807 -0.7243  0.6735
 7368SOL     OW33736   1.168   0.635   6.744  0.0908 -0.3955 -0.2066
 7368SOL    HW133737   1.195   0.675   6.662  2.4013 -1.1231  0.2024
 7368SOL    HW233738   1.239   0.657   6.804  1.2387 -0.1231 -1.6544
 7369SOL     OW33739   4.316   0.271   3.392  0.0572 -0.0297  0.0048
 7369SOL    HW133740   4.277   0.337   3.335  0.1913 -1.1460 -1.3860
 7369SOL    HW233741   4.246   0.211   3.418  1.0494 -0.1655  2.3713
 7370SOL     OW33742   2.375   1.709   6.841 -0.6350 -0.4271  0.4407
 7370SOL    HW133743   2.330   1.645   6.896  2.9735 -2.0844  1.4765
 7370SOL    HW233744   2.440   1.750   6.899  0.8149 -2.7646  0.4802
 7371SOL     OW33745   3.112   2.950  16.716 -0.0543 -0.1274  0.0479
 7371SOL    HW133746   3.142   2.939  16.626  1.2236  0.8153  0.3646
 7371SOL    HW233747   3.032   3.002  16.707 -0.9525 -1.7496 -1.5138
 7372SOL     OW33748   0.187   3.897   5.159 -0.2887  0.5729  0.7368
 7372SOL    HW133749   0.103   3.894   5.206 -0.6561 -2.6811 -0.1283
 7372SOL    HW233750   0.167   3.917   5.067 -1.0731 -3.2076  0.0737
 7373SOL     OW33751   1.340   1.804  15.918 -0.2865 -0.0586 -0.2504
 7373SOL    HW133752   1.332   1.744  15.844 -0.1452 -0.9615  0.4695
 7373SOL    HW233753   1.290   1.876  15.878  0.6437  0.3052 -0.7753
 7374SOL     OW33754   0.924   4.031   2.348 -0.6325  0.0316 -0.8243
 7374SOL    HW133755   0.851   3.975   2.372  1.0704 -2.1244 -0.6876
 7374SOL    HW233756   1.007   3.984   2.359 -1.3828 -0.7977  1.4232
 7375SOL     OW33757   1.993   1.389   5.026  0.0573 -0.5288 -0.2306
 7375SOL    HW133758   1.902   1.417   5.012  0.0890 -0.4594 -0.2988
 7375SOL    HW233759   1.987   1.313   4.968  1.9016 -0.0699 -1.0256
 7376SOL     OW33760   0.525   0.339   4.044  0.3575  0.8893 -0.3864
 7376SOL    HW133761   0.463   0.405   4.014 -0.3695  0.8146  0.9286
 7376SOL    HW233762   0.464   0.265   4.052 -0.3599  1.4956 -0.2547
 7377SOL     OW33763   0.741   2.342   8.987  0.2091  0.1091  0.3797
 7377SOL    HW133764   0.728   2.393   8.907 -1.5771 -0.3078  0.3995
 7377SOL    HW233765   0.807   2.392   9.034 -0.0241  0.5249  0.2686
 7378SOL     OW33766   1.888   3.287   0.059  0.0160  0.4178  0.2373
 7378SOL    HW133767   1.912   3.355  17.751 -2.2765  2.6856  1.8331
 7378SOL    HW233768   1.969   3.241   0.078 -0.8011 -0.8910  0.5512
 7379SOL     OW33769   4.137   0.031   7.953 -0.3357  0.5947 -0.1944
 7379SOL    HW133770   4.168   0.095   8.017 -1.7631 -0.8343  1.9398
 7379SOL    HW233771   4.115   0.093   7.883  0.9369  1.4588  0.1774
 7380SOL     OW33772   4.606   0.989  14.681  0.2034  0.3134 -0.1407
 7380SOL    HW133773   4.544   1.050  14.642 -0.8981 -0.5053  0.3609
 7380SOL    HW233774   4.598   1.019  14.771  1.5208 -0.6493  0.3071
 7381SOL     OW33775   0.704   2.247   4.913 -0.1958  0.3221 -0.1485
 7381SOL    HW133776   0.753   2.329   4.910 -1.2352  0.9788  1.0153
 7381SOL    HW233777   0.665   2.262   4.826 -0.8667 -0.1935  0.0554
 7382SOL     OW33778   2.489   1.538   9.197  0.3066  0.0928 -0.0851
 7382SOL    HW133779   2.452   1.459   9.160 -2.7068  1.5052 -0.0843
 7382SOL    HW233780   2.544   1.493   9.261  1.7693  0.3090 -1.2001
 7383SOL     OW33781   2.452   1.970   9.102 -0.7586  0.7668  0.1962
 7383SOL    HW133782   2.484   2.042   9.157  0.7568 -0.2385  0.6441
 7383SOL    HW233783   2.396   1.934   9.170 -1.4228  0.1659 -0.6889
 7384SOL     OW33784   2.919   0.762  12.066 -0.4004  0.1402  0.4118
 7384SOL    HW133785   2.989   0.788  12.126  0.1076 -1.0200  0.3291
 7384SOL    HW233786   2.952   0.689  12.015 -2.2322 -0.0130 -0.5650
 7385SOL     OW33787   3.207   4.430  10.574 -0.1275  0.3536 -0.2327
 7385SOL    HW133788   3.205   4.354  10.632 -3.4636  2.0293  1.8010
 7385SOL    HW233789   3.230   4.489  10.645  1.0002 -0.6066  0.1919
 7386SOL     OW33790   0.522   3.078   9.122 -0.4170 -0.1106 -0.2654
 7386SOL    HW133791   0.575   3.156   9.136 -1.4673  0.3859  0.9376
 7386SOL    HW233792   0.537   3.072   9.027  1.5145 -1.5242  0.1471
 7387SOL     OW33793   2.221   3.902   1.725  0.6183 -0.3498 -0.1396
 7387SOL    HW133794   2.208   3.964   1.652 -2.1383  0.0515  0.6880
 7387SOL    HW233795   2.192   3.819   1.688 -2.7132  1.4512 -1.6719
 7388SOL     OW33796   0.459   2.165   8.656 -0.0343 -0.0537 -0.3870
 7388SOL    HW133797   0.528   2.202   8.711  0.6609  0.1517 -1.3961
 7388SOL    HW233798   0.381   2.209   8.691  0.5444 -0.2570  1.1811
 7389SOL     OW33799   3.209   4.532   9.821  0.0977  0.8651 -0.4840
 7389SOL    HW133800   3.198   4.568   9.908  3.3132  1.5212 -0.3464
 7389SOL    HW233801   3.298   4.500   9.833 -0.2794 -0.4074 -1.0758
 7390SOL     OW33802   2.809   1.619  10.179  0.3838  0.2974 -0.2402
 7390SOL    HW133803   2.862   1.690  10.216  0.4936 -0.1412  0.4395
 7390SOL    HW233804   2.885   1.561  10.167 -0.9546 -1.2398 -1.2381
 7391SOL     OW33805   3.714   3.436  10.903  0.3311  0.0833 -0.2103
 7391SOL    HW133806   3.740   3.522  10.937  2.5203 -0.5137 -0.3349
 7391SOL    HW233807   3.685   3.390  10.982  0.6733  3.6238  1.9626
 7392SOL     OW33808   4.211   2.141   3.266 -0.5510  0.0037  0.2815
 7392SOL    HW133809   4.158   2.130   3.345 -1.2093  0.6674 -0.0735
 7392SOL    HW233810   4.151   2.177   3.201 -0.3733 -3.2958 -1.7130
 7393SOL     OW33811   1.161   3.419   6.073 -0.0604 -0.1247  0.0614
 7393SOL    HW133812   1.119   3.478   6.010 -0.7431 -1.9212 -1.1779
 7393SOL    HW233813   1.255   3.439   6.071 -0.0649 -0.2739 -2.2664
 7394SOL     OW33814   0.197   4.036   7.418 -0.0172  0.2936  0.1690
 7394SOL    HW133815   0.106   4.012   7.401  0.3116 -0.9270  0.1929
 7394SOL    HW233816   0.231   3.947   7.420 -0.2344  0.1954 -0.3847
 7395SOL     OW33817   2.125   2.134   3.199  0.1505  0.3084 -0.0519
 7395SOL    HW133818   2.078   2.052   3.187 -1.9858  1.5700 -0.3522
 7395SOL    HW233819   2.178   2.114   3.275 -1.5901  2.4131  1.7189
 7396SOL     OW33820   1.319   1.250   5.603 -0.1687 -0.0571 -0.3658
 7396SOL    HW133821   1.308   1.182   5.670  1.6004  1.1974  1.2073
 7396SOL    HW233822   1.265   1.314   5.648 -0.7239 -0.3286 -0.6517
 7397SOL     OW33823   3.757   1.860   5.644  0.5005  0.1298  0.3127
 7397SOL    HW133824   3.824   1.892   5.705  0.2821  4.2607 -1.5912
 7397SOL    HW233825   3.798   1.778   5.616 -0.8777 -0.8909  1.2995
 7398SOL     OW33826   4.603   0.494  12.904  0.0135  0.1229  0.1043
 7398SOL    HW133827   4.550   0.418  12.927  0.3339 -0.3421 -0.7029
 7398SOL    HW233828   4.686   0.446  12.901  0.9936  1.7835  0.2521
 7399SOL     OW33829   2.549   3.944   4.029  0.1364 -0.2951  0.8207
 7399SOL    HW133830   2.506   4.005   3.970  0.5604 -2.0225 -1.2838
 7399SOL    HW233831   2.483   3.874   4.028  0.1419 -0.3030  1.1987
 7400SOL     OW33832   1.659   0.021   9.574  0.4837 -0.8936 -0.3207
 7400SOL    HW133833   1.649   4.687   9.635  0.1442 -0.7136 -0.1600
 7400SOL    HW233834   1.750   0.048   9.589  0.2228  0.1835 -0.6904
 7401SOL     OW33835   3.441   2.701   7.711  0.0613 -0.1445  0.2667
 7401SOL    HW133836   3.422   2.621   7.760 -1.5198  1.0962  1.7015
 7401SOL    HW233837   3.372   2.750   7.756  1.2853  0.5539  1.3675
 7402SOL     OW33838   3.999   0.128  10.411 -0.1488 -0.7304 -0.0985
 7402SOL    HW133839   3.973   0.200  10.354  0.3187 -0.2258  0.3286
 7402SOL    HW233840   4.060   0.175  10.467 -1.4641  0.8998 -0.0371
 7403SOL     OW33841   2.458   0.453   7.126  0.2809  0.0577 -0.4519
 7403SOL    HW133842   2.481   0.521   7.063  1.5566  0.4082  0.3926
 7403SOL    HW233843   2.480   0.491   7.211 -1.2952 -0.9882  0.4208
 7404SOL     OW33844   2.996   1.174  13.655  0.0520  0.0923 -0.0939
 7404SOL    HW133845   2.967   1.109  13.592  0.1481  1.8761 -1.9987
 7404SOL    HW233846   2.933   1.245  13.643 -0.5250 -0.1701  1.3025
 7405SOL     OW33847   2.187   3.321   2.086  0.0922  0.3042  0.0938
 7405SOL    HW133848   2.104   3.273   2.087 -0.3151  1.0194  1.0353
 7405SOL    HW233849   2.230   3.277   2.013  0.7219 -0.5663  0.9797
 7406SOL     OW33850   0.590   0.476   5.054 -0.3377  0.3417  0.2636
 7406SOL    HW133851   0.572   0.443   4.965  1.1595  0.3217 -0.0267
 7406SOL    HW233852   0.547   0.407   5.104 -0.2836  0.0247 -0.1271
 7407SOL     OW33853   2.204   0.023  17.035  0.0018  0.2190  0.4769
 7407SOL    HW133854   2.176   0.112  17.056  0.5084  0.7644 -1.2100
 7407SOL    HW233855   2.179   0.017  16.943 -0.5709  1.0546  0.5839
 7408SOL     OW33856   4.440   3.020   9.723 -0.6735  0.2018  0.0984
 7408SOL    HW133857   4.522   3.061   9.695 -0.5910 -0.7857 -1.0850
 7408SOL    HW233858   4.456   2.958   9.794 -0.0259 -1.5243 -1.5590
 7409SOL     OW33859   2.103   3.790  11.020 -0.4118  0.1898 -0.0424
 7409SOL    HW133860   2.159   3.722  11.058 -0.2189  0.7403  0.6562
 7409SOL    HW233861   2.018   3.747  11.030 -0.0720 -0.9710 -2.3397
 7410SOL     OW33862   3.160   3.050   2.616  0.3886 -0.4095  0.0431
 7410SOL    HW133863   3.173   3.076   2.524 -1.2297  1.3717  0.3268
 7410SOL    HW233864   3.114   2.967   2.602 -0.3870  0.1436 -0.6811
 7411SOL     OW33865   3.869   2.686   9.563  0.6663 -0.2681 -0.0058
 7411SOL    HW133866   3.915   2.760   9.524  0.2037  0.6511  1.1779
 7411SOL    HW233867   3.927   2.680   9.639  0.8309 -0.0565 -0.1165
 7412SOL     OW33868   3.510   1.829   5.809 -0.0332 -0.0722  0.1913
 7412SOL    HW133869   3.498   1.740   5.774  2.6918 -0.9689  1.5425
 7412SOL    HW233870   3.595   1.850   5.771 -0.4631  0.3846 -0.4938
 7413SOL     OW33871   2.241   1.744   3.536 -0.0996 -0.0244  0.0310
 7413SOL    HW133872   2.325   1.724   3.496 -0.2661 -0.8269  0.0763
 7413SOL    HW233873   2.236   1.682   3.608 -1.5064 -0.0055 -0.0501
 7414SOL     OW33874   2.548   1.422   3.096 -0.1292 -0.5281  0.8735
 7414SOL    HW133875   2.487   1.496   3.091  2.2588  1.3949  0.4770
 7414SOL    HW233876   2.572   1.417   3.003 -0.9415 -0.8137  0.6691
 7415SOL     OW33877   1.829   3.303   2.287  0.4245  0.3843 -0.3880
 7415SOL    HW133878   1.887   3.294   2.212  0.3137  0.8142 -0.5233
 7415SOL    HW233879   1.804   3.213   2.307 -0.8781  0.8578  0.1000
 7416SOL     OW33880   1.366   3.544   1.938 -0.7239 -0.1569 -0.2307
 7416SOL    HW133881   1.447   3.492   1.932 -0.5888 -0.2178  2.2638
 7416SOL    HW233882   1.406   3.631   1.943  0.8656 -1.2164  4.9782
 7417SOL     OW33883   4.675   3.610  15.320  0.2189  0.2526  0.3098
 7417SOL    HW133884   4.674   3.706  15.326  0.1869  0.3258 -0.8133
 7417SOL    HW233885   0.029   3.602  15.300 -0.3617 -1.1683 -1.7845
 7418SOL     OW33886   1.492   3.773   2.809 -0.4105  0.4521 -0.4970
 7418SOL    HW133887   1.433   3.698   2.811  1.2168 -0.8470 -1.2913
 7418SOL    HW233888   1.512   3.788   2.902  1.5379 -1.3476 -0.6173
 7419SOL     OW33889   0.449   0.977   9.292  0.2262 -0.1542  0.0033
 7419SOL    HW133890   0.392   1.041   9.249 -0.5783  0.2598  1.7191
 7419SOL    HW233891   0.435   0.897   9.242 -0.4241 -1.5901  2.4999
 7420SOL     OW33892   1.211   1.180   4.507 -0.5660  0.0761  0.0151
 7420SOL    HW133893   1.132   1.223   4.475 -0.8335  0.3580  1.0648
 7420SOL    HW233894   1.274   1.230   4.455 -1.5284  0.2391 -0.9889
 7421SOL     OW33895   4.266   2.607   8.970 -0.3038 -0.0363 -0.3121
 7421SOL    HW133896   4.285   2.515   8.954 -1.0685  0.5079 -4.3357
 7421SOL    HW233897   4.310   2.607   9.055 -0.6842  0.7975 -0.1181
 7422SOL     OW33898   3.613   2.310  14.812 -0.8297  0.1497  0.0955
 7422SOL    HW133899   3.680   2.375  14.832 -2.2841  1.5484  0.4575
 7422SOL    HW233900   3.548   2.328  14.881 -0.5502 -1.0173  0.6657
 7423SOL     OW33901   0.206   4.186   5.484  0.0681 -0.1463  0.4032
 7423SOL    HW133902   0.156   4.159   5.407 -0.1302  1.5538 -0.0616
 7423SOL    HW233903   0.139   4.172   5.551 -1.2962  0.0335 -0.9378
 7424SOL     OW33904   1.430   4.000   5.870  0.1688  0.1084 -0.1592
 7424SOL    HW133905   1.476   4.084   5.862  1.4660 -0.5140  0.6776
 7424SOL    HW233906   1.353   4.014   5.815  1.1015 -3.0594 -2.2380
 7425SOL     OW33907   4.571   3.044  15.644 -0.0043 -0.2564  0.5825
 7425SOL    HW133908   4.498   2.989  15.671 -1.1293  0.2528 -1.4600
 7425SOL    HW233909   4.636   2.973  15.646 -1.1975 -1.3753 -0.2034
 7426SOL     OW33910   3.594   3.789  10.775 -0.4461  0.3464  0.2330
 7426SOL    HW133911   3.537   3.843  10.721  1.1213  1.8676  0.1156
 7426SOL    HW233912   3.568   3.701  10.747  1.6341 -0.8313  1.9629
 7427SOL     OW33913   2.466   0.322   7.692  0.0952  0.7558  0.2312
 7427SOL    HW133914   2.559   0.340   7.678 -0.1044  0.0344 -2.1227
 7427SOL    HW233915   2.424   0.366   7.618  0.3575 -1.6251 -1.3382
 7428SOL     OW33916   2.699   0.675   4.249  0.2628 -0.1852 -0.4786
 7428SOL    HW133917   2.654   0.680   4.164  1.4832  1.2738 -1.0257
 7428SOL    HW233918   2.784   0.692   4.208 -0.4903 -0.3357 -2.0845
 7429SOL     OW33919   1.504   0.871  15.925 -0.3562  0.2293 -0.2646
 7429SOL    HW133920   1.496   0.963  15.951 -0.0633 -0.0465  0.8034
 7429SOL    HW233921   1.513   0.896  15.833  1.3115  2.1505  0.4492
 7430SOL     OW33922   2.588   1.333   7.025 -0.6996 -0.3013 -0.4679
 7430SOL    HW133923   2.618   1.420   7.051 -1.2199 -0.1482 -0.3834
 7430SOL    HW233924   2.592   1.341   6.930  1.1703  2.1346 -0.1713
 7431SOL     OW33925   3.606   0.452  13.862  0.7255 -0.0522 -0.1924
 7431SOL    HW133926   3.640   0.426  13.776  1.2702  2.6114 -0.7924
 7431SOL    HW233927   3.688   0.484  13.898  0.5670  0.7172 -0.4974
 7432SOL     OW33928   3.714   1.184   9.793  0.2851 -0.4031 -0.7489
 7432SOL    HW133929   3.727   1.101   9.839 -0.7021 -0.3248 -0.3153
 7432SOL    HW233930   3.623   1.204   9.816  0.7419  0.4275  0.3594
 7433SOL     OW33931   1.680   2.838   4.004  0.1966 -0.5964  0.1825
 7433SOL    HW133932   1.639   2.865   3.923  0.4394  0.1696  0.3106
 7433SOL    HW233933   1.614   2.874   4.064  2.2618 -1.6273  3.0918
 7434SOL     OW33934   2.789   2.918   0.940  0.4662  0.1705  0.0507
 7434SOL    HW133935   2.724   2.848   0.940  0.9609 -0.2873 -0.4155
 7434SOL    HW233936   2.741   2.985   0.989  0.9641 -1.7225  3.1672
 7435SOL     OW33937   0.356   0.683   4.986 -0.2618  0.5184  0.2589
 7435SOL    HW133938   0.276   0.633   5.002 -0.6966  0.3898 -2.2625
 7435SOL    HW233939   0.427   0.639   5.031 -0.0553 -0.4331 -0.9938
 7436SOL     OW33940   3.929   1.242   6.961  0.0808 -0.0592  0.1164
 7436SOL    HW133941   3.914   1.149   6.979  0.4221 -0.1991 -0.3035
 7436SOL    HW233942   4.018   1.250   6.928 -0.1188  2.5450  0.2240
 7437SOL     OW33943   2.935   2.057   5.439  0.2496 -0.1040  0.6444
 7437SOL    HW133944   2.989   2.049   5.518  0.4712 -1.3880  0.3649
 7437SOL    HW233945   2.857   2.092   5.481  1.3795  1.8943  1.1202
 7438SOL     OW33946   3.731   3.304   0.299  0.6601  0.0266  0.1352
 7438SOL    HW133947   3.644   3.294   0.260  1.0539 -1.6036 -0.3443
 7438SOL    HW233948   3.759   3.214   0.315 -2.8195 -1.1215 -0.1703
 7439SOL     OW33949   2.826   3.116   3.971 -0.1585 -0.3619  0.1383
 7439SOL    HW133950   2.830   3.102   3.877 -0.6783  2.3174 -0.2865
 7439SOL    HW233951   2.732   3.133   3.975 -0.1127 -0.1214  0.2109
 7440SOL     OW33952   2.954   0.838   7.379  0.4439 -0.4251  0.5642
 7440SOL    HW133953   3.029   0.879   7.422  0.2837 -1.1185  1.4983
 7440SOL    HW233954   2.994   0.803   7.299  2.1987  2.2822  0.2524
 7441SOL     OW33955   0.805   3.955   5.694  0.4922  0.1407 -0.0407
 7441SOL    HW133956   0.814   3.860   5.704 -1.5914 -0.1245 -0.7882
 7441SOL    HW233957   0.874   3.977   5.631 -0.9272  1.9599 -0.9496
 7442SOL     OW33958   1.514   1.548   6.667  0.2967  0.5819 -0.2506
 7442SOL    HW133959   1.530   1.551   6.572  1.0021 -2.0267 -0.2163
 7442SOL    HW233960   1.454   1.474   6.674  2.3836 -1.1215 -0.4316
 7443SOL     OW33961   1.071   0.249  16.229  0.4236 -0.3810  0.2018
 7443SOL    HW133962   0.988   0.232  16.274 -0.5387  1.6424 -0.7652
 7443SOL    HW233963   1.048   0.325  16.175 -0.7204 -0.4876  0.5314
 7444SOL     OW33964   2.466   1.122   4.676 -0.2221 -0.4285  0.2027
 7444SOL    HW133965   2.505   1.199   4.635  0.4506 -0.1376  1.3983
 7444SOL    HW233966   2.517   1.052   4.633 -0.0936  0.7201 -1.5128
 7445SOL     OW33967   3.968   3.748   7.029 -0.2394 -0.0656 -0.7622
 7445SOL    HW133968   3.947   3.841   7.026 -0.4124 -0.1023 -0.6862
 7445SOL    HW233969   3.957   3.724   7.121  0.4871  1.6700 -0.2218
 7446SOL     OW33970   3.940   1.703   7.030 -0.3157  0.2559 -0.2044
 7446SOL    HW133971   3.896   1.637   6.978 -2.1096  0.4439  1.0747
 7446SOL    HW233972   3.925   1.782   6.977 -0.9517  1.8564  2.3213
 7447SOL     OW33973   3.844   4.035  12.653  0.4591  0.0402  0.2121
 7447SOL    HW133974   3.798   3.952  12.654 -2.3611  1.6083  0.8738
 7447SOL    HW233975   3.803   4.073  12.575  0.7666  0.7566  0.4006
 7448SOL     OW33976   4.293   2.474   7.380  0.2895 -0.0660 -0.7405
 7448SOL    HW133977   4.324   2.406   7.440 -0.2107 -0.2946 -0.7424
 7448SOL    HW233978   4.201   2.476   7.405 -0.4870 -1.0832 -3.5749
 7449SOL     OW33979   1.458   3.296   3.228  0.4985 -0.0371  0.4250
 7449SOL    HW133980   1.447   3.284   3.134 -0.1792  2.3944  0.1847
 7449SOL    HW233981   1.392   3.230   3.246 -0.6482  1.3724  1.3467
 7450SOL     OW33982   1.862   2.182   8.382 -0.3179 -0.0565 -0.5427
 7450SOL    HW133983   1.897   2.187   8.471 -1.4234  3.5257 -0.3195
 7450SOL    HW233984   1.940   2.171   8.327 -0.2122  3.7174 -1.1369
 7451SOL     OW33985   4.112   3.585   6.145 -0.1751  0.4759  0.1724
 7451SOL    HW133986   4.071   3.528   6.210 -0.2909  0.1626 -0.1730
 7451SOL    HW233987   4.182   3.621   6.199 -0.6769  0.5233  0.8000
 7452SOL     OW33988   2.609   0.708   9.307 -0.2433  0.9645 -0.3148
 7452SOL    HW133989   2.674   0.715   9.237  2.6048  1.9426  2.4466
 7452SOL    HW233990   2.667   0.714   9.383 -1.9184  1.3698  0.9539
 7453SOL     OW33991   4.256   3.719   9.338  0.4193  0.5945  0.3524
 7453SOL    HW133992   4.267   3.772   9.260 -3.0293 -1.4122 -1.5222
 7453SOL    HW233993   4.338   3.670   9.342 -0.0915 -0.2977 -0.0293
 7454SOL     OW33994   1.499   4.285   1.442 -0.5573  0.4434  0.0150
 7454SOL    HW133995   1.485   4.252   1.531 -1.6883 -1.3726 -0.8441
 7454SOL    HW233996   1.592   4.263   1.431 -0.6559  0.0839 -0.0715
 7455SOL     OW33997   1.535   2.464   2.638 -0.3062  0.4690  0.0224
 7455SOL    HW133998   1.469   2.521   2.679 -1.8541 -0.5023 -1.1004
 7455SOL    HW233999   1.493   2.379   2.648  0.0928  0.2032 -0.5327
 7456SOL     OW34000   2.778   3.344  10.240 -0.1379 -0.1914  0.3991
 7456SOL    HW134001   2.721   3.268  10.252 -2.1202  1.0810 -0.7878
 7456SOL    HW234002   2.762   3.363  10.148 -0.5184  1.0450  0.7089
 7457SOL     OW34003   2.971   0.924   7.892  0.4252  0.2380 -0.3556
 7457SOL    HW134004   3.032   0.907   7.964  1.5225 -2.3943 -1.8930
 7457SOL    HW234005   3.000   1.010   7.863  2.2327 -0.0003  0.6814
 7458SOL     OW34006   1.442   1.766   5.680  0.5129 -0.8031  0.4201
 7458SOL    HW134007   1.471   1.720   5.601 -1.1581 -1.0246 -0.0660
 7458SOL    HW234008   1.366   1.799   5.631  1.3702 -1.2874 -1.2501
 7459SOL     OW34009   4.236   1.745   0.815  0.3981 -0.0668 -0.5114
 7459SOL    HW134010   4.142   1.739   0.797  0.5532 -2.2181 -0.6442
 7459SOL    HW234011   4.259   1.836   0.796  3.6080 -0.6802  0.4610
 7460SOL     OW34012   3.519   3.303   8.667 -0.6803  0.0491  0.1452
 7460SOL    HW134013   3.581   3.341   8.730 -1.4921  1.9633 -0.2215
 7460SOL    HW234014   3.518   3.216   8.707  0.7241 -0.1800 -0.3156
 7461SOL     OW34015   2.569   4.125   0.298  0.2697  0.3360  0.2212
 7461SOL    HW134016   2.579   4.167   0.212  1.3918 -1.1006 -0.3331
 7461SOL    HW234017   2.520   4.046   0.275  0.7857  0.3122 -0.8098
 7462SOL     OW34018   0.738   4.419  11.381  0.0000 -0.4241  0.2869
 7462SOL    HW134019   0.766   4.489  11.322 -0.1186 -0.5581  0.0744
 7462SOL    HW234020   0.730   4.466  11.464  1.3137 -1.0687  0.7904
 7463SOL     OW34021   3.775   4.628   5.693  0.1721 -0.1167 -0.7192
 7463SOL    HW134022   3.805   4.710   5.654  3.4346 -1.1595 -0.3728
 7463SOL    HW234023   3.688   4.618   5.654  0.2378  3.6576 -1.8518
 7464SOL     OW34024   2.740   2.368   3.951  0.4622 -0.1057 -0.2150
 7464SOL    HW134025   2.778   2.303   4.010  0.6479  1.3346  1.2549
 7464SOL    HW234026   2.670   2.320   3.908 -0.3826 -1.4769  2.6750
 7465SOL     OW34027   1.657   3.801   8.533  0.0523  0.2722  0.1779
 7465SOL    HW134028   1.573   3.810   8.489  1.5595  0.7903 -2.5672
 7465SOL    HW234029   1.627   3.799   8.624  0.9766  0.5510  0.4906
 7466SOL     OW34030   1.436   2.402  13.139 -0.2869 -0.2295 -0.0448
 7466SOL    HW134031   1.429   2.443  13.053  2.1580 -0.3732 -0.3153
 7466SOL    HW234032   1.469   2.468  13.199 -4.8723  0.9955  1.1171
 7467SOL     OW34033   1.563   2.527   1.371  0.8802  0.0323 -0.1006
 7467SOL    HW134034   1.641   2.557   1.418  1.3324 -0.6876 -0.4083
 7467SOL    HW234035   1.594   2.443   1.340 -0.0650 -1.0034  1.7662
 7468SOL     OW34036   4.191   0.731   5.504 -0.0294  0.0135  0.1330
 7468SOL    HW134037   4.157   0.674   5.572 -1.5740 -1.2912 -1.7218
 7468SOL    HW234038   4.137   0.808   5.525 -0.0485  0.2321 -0.7069
 7469SOL     OW34039   2.652   0.963   5.178  0.0568 -0.2870 -0.1564
 7469SOL    HW134040   2.703   1.028   5.228 -0.4080  0.5392 -0.7570
 7469SOL    HW234041   2.715   0.908   5.133  2.8463  3.0402 -0.3380
 7470SOL     OW34042   0.718   0.501   4.733 -0.1938  0.0943  0.0806
 7470SOL    HW134043   0.624   0.514   4.724  0.1458  0.9761 -2.2161
 7470SOL    HW234044   0.744   0.573   4.791 -1.4759  0.9796 -0.4589
 7471SOL     OW34045   4.067   3.942   2.621  0.0443 -0.4096  0.8646
 7471SOL    HW134046   4.059   4.037   2.613 -2.3828 -0.6956 -0.1537
 7471SOL    HW234047   3.979   3.911   2.641 -0.7692  1.0629 -0.4614
 7472SOL     OW34048   4.692   2.670   4.778  0.8913 -0.2354  0.0822
 7472SOL    HW134049   0.044   2.645   4.765  1.4653  1.2243  1.2645
 7472SOL    HW234050   4.701   2.762   4.804  2.4897 -0.5308  0.5582
 7473SOL     OW34051   3.524   4.135  15.094 -0.2937  0.0343 -0.3230
 7473SOL    HW134052   3.566   4.220  15.107  0.0244 -0.0046 -1.1437
 7473SOL    HW234053   3.473   4.115  15.173  0.5134 -0.1604  0.1584
 7474SOL     OW34054   0.213   0.295   4.379  0.2405 -0.0266  0.5836
 7474SOL    HW134055   0.162   0.290   4.298  1.3769 -0.6796 -0.0898
 7474SOL    HW234056   0.226   0.390   4.388 -0.2589  0.2751 -1.8207
 7475SOL     OW34057   3.910   1.506   0.349  0.0466 -0.3715 -0.0141
 7475SOL    HW134058   3.978   1.517   0.283  1.3149  0.3653  1.4130
 7475SOL    HW234059   3.832   1.483   0.299  0.3514  0.9174 -1.0899
 7476SOL     OW34060   3.539   4.113   0.381  0.0018  0.2632  0.3796
 7476SOL    HW134061   3.449   4.087   0.361 -0.1464  0.0638  1.2820
 7476SOL    HW234062   3.586   4.032   0.401 -1.2086 -0.9094 -1.5042
 7477SOL     OW34063   1.893   4.676   1.171  0.3908 -0.5566 -0.2588
 7477SOL    HW134064   1.902   0.029   1.195  0.3992 -0.0246 -2.2673
 7477SOL    HW234065   1.810   4.675   1.124 -0.7052  0.9114  1.6404
 7478SOL     OW34066   3.090   4.582  10.912 -0.0490 -0.1558 -0.2546
 7478SOL    HW134067   3.099   4.586  10.817  0.5074 -1.2893 -0.2461
 7478SOL    HW234068   3.068   4.491  10.934 -0.0942 -0.3740 -1.2313
 7479SOL     OW34069   2.967   4.029  15.316 -0.1145  0.4319 -0.2017
 7479SOL    HW134070   2.930   4.115  15.300  1.0218  1.1823  1.2354
 7479SOL    HW234071   3.054   4.053  15.348  0.7526 -2.6849 -0.2095
 7480SOL     OW34072   4.718   3.862   2.404 -0.1285  0.5854  0.0648
 7480SOL    HW134073   4.652   3.914   2.449  1.6236  2.0263  0.9572
 7480SOL    HW234074   0.012   3.928   2.344  0.3971 -0.0473 -0.3491
 7481SOL     OW34075   2.424   4.013   8.388 -0.1386 -0.3826  0.4352
 7481SOL    HW134076   2.447   3.923   8.362 -0.1018 -0.0957 -0.5211
 7481SOL    HW234077   2.394   4.059   8.310 -1.2612  0.9408  1.6743
 7482SOL     OW34078   1.051   0.024   5.873  0.0233  0.0582  0.6266
 7482SOL    HW134079   0.996   0.051   5.799 -2.0522 -1.5843  1.5675
 7482SOL    HW234080   1.129   0.074   5.850  0.2170 -1.4140 -1.8594
 7483SOL     OW34081   4.593   3.150  13.476  0.1842  0.0269  0.1204
 7483SOL    HW134082   4.680   3.110  13.481  0.9994  1.9229  0.9229
 7483SOL    HW234083   4.535   3.090  13.429 -2.1628  1.7014  0.9043
 7484SOL     OW34084   2.863   2.062  13.713  0.5192  0.6682 -0.1662
 7484SOL    HW134085   2.944   2.020  13.744 -0.1872 -0.3684  0.2696
 7484SOL    HW234086   2.881   2.153  13.737  1.5001 -0.2470  2.5519
 7485SOL     OW34087   4.287   2.457  11.803 -0.2731  0.5420  0.0252
 7485SOL    HW134088   4.375   2.441  11.836  0.2092  2.3166 -0.4447
 7485SOL    HW234089   4.288   2.537  11.751  0.7927  0.5356  0.0466
 7486SOL     OW34090   4.453   1.559   3.499  0.4116 -0.1822  0.0594
 7486SOL    HW134091   4.434   1.534   3.408  1.2873  0.7697 -0.3836
 7486SOL    HW234092   4.482   1.649   3.496  2.2616 -0.8349 -1.7470
 7487SOL     OW34093   2.172   3.910  16.679 -0.1411  0.5112  0.3876
 7487SOL    HW134094   2.257   3.955  16.678 -0.9020  1.9245 -0.1126
 7487SOL    HW234095   2.195   3.824  16.644  0.5242  0.3872  1.1169
 7488SOL     OW34096   3.603   4.356  14.449 -0.7078 -0.0081 -0.8014
 7488SOL    HW134097   3.682   4.403  14.474 -0.3564 -0.9123 -0.2117
 7488SOL    HW234098   3.592   4.379  14.356  0.7610  0.5972 -0.8075
 7489SOL     OW34099   3.546   4.136   6.736  0.0943  0.0718  0.7625
 7489SOL    HW134100   3.475   4.157   6.796 -1.4968 -1.1452 -0.6909
 7489SOL    HW234101   3.621   4.181   6.775  0.3240 -0.0934  0.5137
 7490SOL     OW34102   0.611   1.864  16.026 -0.7976  0.0176 -0.3647
 7490SOL    HW134103   0.519   1.882  16.008 -1.0013 -0.7612 -0.0920
 7490SOL    HW234104   0.606   1.806  16.102 -0.7607  1.1764  0.5341
 7491SOL     OW34105   0.698   0.180   3.612  0.1048  0.4198  0.2817
 7491SOL    HW134106   0.652   0.136   3.684 -0.2792  0.6538  0.1752
 7491SOL    HW234107   0.639   0.251   3.587 -0.4605 -0.9217 -2.1079
 7492SOL     OW34108   4.288   2.437   5.713  0.2985  0.1787  0.2477
 7492SOL    HW134109   4.221   2.407   5.774  0.6386 -1.7167 -0.3032
 7492SOL    HW234110   4.296   2.355   5.663  1.4037  1.0110 -0.9398
 7493SOL     OW34111   4.564   0.110   5.361  0.4435 -0.0479  0.2937
 7493SOL    HW134112   4.658   0.123   5.372  0.2844  0.8140  0.5853
 7493SOL    HW234113   4.528   0.198   5.352 -0.3793 -0.3056  1.0768
 7494SOL     OW34114   4.225   3.440   2.857 -0.0110  0.4840  0.3796
 7494SOL    HW134115   4.193   3.377   2.792  2.1686 -0.5580  0.2747
 7494SOL    HW234116   4.154   3.463   2.917  1.6437  2.0961  1.7401
 7495SOL     OW34117   2.871   2.118   8.990  0.0671  0.9864  0.0937
 7495SOL    HW134118   2.920   2.044   9.027 -1.4762  1.3862  2.9338
 7495SOL    HW234119   2.930   2.193   8.997  1.3487  0.2383 -2.5161
 7496SOL     OW34120   2.528   1.252  17.472 -0.2278  0.4406  0.2537
 7496SOL    HW134121   2.528   1.199  17.392  2.9766  0.5235  0.1804
 7496SOL    HW234122   2.503   1.184  17.534  0.5081 -1.1170 -1.1554
 7497SOL     OW34123   0.611   1.598   6.632 -0.2470 -1.0670 -0.2925
 7497SOL    HW134124   0.654   1.629   6.712 -0.6420 -0.1834 -0.4164
 7497SOL    HW234125   0.681   1.564   6.577  2.0598  1.9195  0.7938
 7498SOL     OW34126   3.323   1.577   0.205 -0.3998  0.7347  0.1010
 7498SOL    HW134127   3.246   1.631   0.185  0.7762  2.7245  0.9682
 7498SOL    HW234128   3.357   1.567   0.116 -0.1007  0.7644  0.2127
 7499SOL     OW34129   2.459   2.262   3.226  0.0796 -0.2646  0.0158
 7499SOL    HW134130   2.446   2.187   3.284  0.4251 -1.1383 -1.0363
 7499SOL    HW234131   2.520   2.310   3.282  1.0584 -0.9534 -0.4667
 7500SOL     OW34132   0.556   4.724   4.025  0.0590  0.2486  0.1246
 7500SOL    HW134133   0.556   4.628   4.031  1.0219  0.1366 -1.6341
 7500SOL    HW234134   0.649   0.004   4.041  0.2188 -1.2030  1.0150
 7501SOL     OW34135   3.252   3.523   3.850  0.9411  0.2027  0.5893
 7501SOL    HW134136   3.256   3.427   3.856 -0.7166  0.0430 -0.8620
 7501SOL    HW234137   3.251   3.525   3.754 -0.0240  1.3947  0.6215
 7502SOL     OW34138   0.401   2.061   5.594 -0.0436 -0.5045 -0.1753
 7502SOL    HW134139   0.336   2.060   5.665 -0.4719 -0.5500 -0.5709
 7502SOL    HW234140   0.434   2.150   5.597 -1.3217 -0.0171 -0.4691
 7503SOL     OW34141   2.923   2.066  14.638  0.0107  0.5234  0.4753
 7503SOL    HW134142   2.986   2.138  14.645  2.3362 -1.5317  0.8463
 7503SOL    HW234143   2.855   2.108  14.586 -0.8955  1.5502  2.4802
 7504SOL     OW34144   0.493   4.497  13.290  0.2508  0.0826 -0.1017
 7504SOL    HW134145   0.463   4.585  13.267  3.0782  0.9588 -0.4552
 7504SOL    HW234146   0.433   4.476  13.361  0.5736 -0.5720 -0.0244
 7505SOL     OW34147   4.703   1.268   7.153  0.1638  0.1163  0.1487
 7505SOL    HW134148   4.637   1.335   7.139  0.4419  0.1753 -0.8785
 7505SOL    HW234149   4.653   1.195   7.117  1.9166 -0.1995 -1.6340
 7506SOL     OW34150   2.003   4.367   3.253  0.3297 -0.1349  0.0898
 7506SOL    HW134151   2.028   4.288   3.301  0.5325 -0.0807  0.0739
 7506SOL    HW234152   1.948   4.326   3.186  0.7550 -0.7773  0.1377
 7507SOL     OW34153   0.245   2.340   3.686  0.1178 -0.2418  0.1535
 7507SOL    HW134154   0.150   2.353   3.675  0.1421 -0.9534 -0.9699
 7507SOL    HW234155   0.261   2.356   3.779 -0.9510 -0.1397  0.3230
 7508SOL     OW34156   3.667   4.089   2.324 -0.2013  0.5615 -0.1233
 7508SOL    HW134157   3.645   4.050   2.409 -0.4847  1.5946  0.2870
 7508SOL    HW234158   3.762   4.099   2.326 -0.3099  1.6352 -0.0643
 7509SOL     OW34159   0.512   1.129   6.032 -1.0174 -0.0317  0.7267
 7509SOL    HW134160   0.504   1.224   6.019 -1.4371 -0.2316 -0.4391
 7509SOL    HW234161   0.454   1.086   5.969 -2.4281  2.3268  0.4175
 7510SOL     OW34162   4.052   0.508   3.904  0.0874  0.3766  0.0968
 7510SOL    HW134163   4.097   0.439   3.952  1.9655  1.0891 -0.6266
 7510SOL    HW234164   3.977   0.462   3.867  0.2260 -0.2687  0.6126
 7511SOL     OW34165   2.786   0.696   9.113 -0.0075 -0.4842  0.0994
 7511SOL    HW134166   2.806   0.604   9.095  1.5967 -0.6093  2.5475
 7511SOL    HW234167   2.736   0.721   9.036  0.5961 -1.3454 -0.5642
 7512SOL     OW34168   0.166   1.152  15.183  0.2499  0.0371  0.3155
 7512SOL    HW134169   0.167   1.237  15.228  1.4788 -0.0376  0.4100
 7512SOL    HW234170   0.195   1.166  15.093 -0.1023  2.4293  0.5751
 7513SOL     OW34171   2.524   1.627   5.876 -0.3228  0.8317 -0.1229
 7513SOL    HW134172   2.469   1.695   5.837 -0.1555  0.9306 -0.1816
 7513SOL    HW234173   2.492   1.632   5.966  1.2535  2.6965  0.3206
 7514SOL     OW34174   4.230   2.924  14.975 -0.6660 -0.9430  0.0407
 7514SOL    HW134175   4.152   2.896  14.927 -0.9972  0.3972 -0.2040
 7514SOL    HW234176   4.281   2.940  14.896 -1.1964 -2.0782 -0.5208
 7515SOL     OW34177   2.254   1.275   1.179  0.1144 -0.5684 -0.1474
 7515SOL    HW134178   2.211   1.192   1.159  0.3538 -0.4213 -1.2574
 7515SOL    HW234179   2.293   1.305   1.098 -2.9299  1.1172 -0.9969
 7516SOL     OW34180   2.075   2.013  14.079 -0.0811 -0.1876 -0.1693
 7516SOL    HW134181   2.080   1.926  14.041 -0.9572 -0.5973  0.6474
 7516SOL    HW234182   2.072   2.066  13.999 -0.0111  2.4506  1.5600
 7517SOL     OW34183   3.849   0.550  13.959  0.2834 -0.3954 -0.1848
 7517SOL    HW134184   3.915   0.582  13.897 -0.6695  0.1609 -0.9239
 7517SOL    HW234185   3.879   0.583  14.044  1.0283 -0.5390 -0.3907
 7518SOL     OW34186   3.371   1.070   5.970  0.1341  0.2972 -0.2572
 7518SOL    HW134187   3.380   1.073   6.066  1.5306 -0.4304 -0.3662
 7518SOL    HW234188   3.292   1.122   5.985  0.0949  0.7153 -1.9673
 7519SOL     OW34189   4.627   1.747   0.527  0.3580  0.2040  0.6747
 7519SOL    HW134190   4.678   1.718   0.451 -1.6094 -2.0929  0.2287
 7519SOL    HW234191   4.565   1.677   0.546  1.2336  0.1669  3.4548
 7520SOL     OW34192   1.015   0.863   4.697 -0.2523 -0.0728  0.0338
 7520SOL    HW134193   0.931   0.908   4.696 -0.6852 -0.8424  1.3186
 7520SOL    HW234194   1.019   0.828   4.786 -1.9012  0.3472  0.2649
 7521SOL     OW34195   3.420   3.946  17.097 -0.5634  0.0856  0.4108
 7521SOL    HW134196   3.473   4.026  17.102  0.0935 -0.3931  1.0494
 7521SOL    HW234197   3.337   3.977  17.134 -0.5882  1.0383 -0.4265
 7522SOL     OW34198   2.242   3.118  16.268  0.3652 -0.1984 -0.2896
 7522SOL    HW134199   2.196   3.168  16.201 -1.8751  0.6612  1.8580
 7522SOL    HW234200   2.181   3.134  16.341 -2.3641 -0.9466 -2.4179
 7523SOL     OW34201   2.647   2.014   6.589  0.5706 -0.0384  0.5781
 7523SOL    HW134202   2.698   1.946   6.633  0.8745  0.3894  0.8890
 7523SOL    HW234203   2.560   1.977   6.605  0.5498 -0.3885 -0.3609
 7524SOL     OW34204   1.743   2.658   8.929 -1.3432 -0.1285 -0.0991
 7524SOL    HW134205   1.711   2.575   8.964 -1.0144 -0.4470 -0.5493
 7524SOL    HW234206   1.701   2.670   8.844 -0.4784  3.2181 -0.0571
 7525SOL     OW34207   2.979   2.103   9.962  0.0091  0.1653 -0.2748
 7525SOL    HW134208   3.048   2.045   9.990  0.8827  1.2657 -0.1461
 7525SOL    HW234209   2.901   2.062   9.999 -1.0498  0.8745 -1.7175
 7526SOL     OW34210   0.106   1.614  10.204 -0.7680  0.2571 -0.2913
 7526SOL    HW134211   0.045   1.540  10.213  0.8144 -1.1061 -0.8344
 7526SOL    HW234212   0.192   1.573  10.208  0.3880  2.6403 -1.3324
 7527SOL     OW34213   1.406   2.266   7.532  0.4628 -0.6394  0.3934
 7527SOL    HW134214   1.378   2.332   7.597 -0.1845  2.3908 -2.9361
 7527SOL    HW234215   1.500   2.281   7.537  0.4049 -0.4941  1.1300
 7528SOL     OW34216   4.648   2.761   1.479 -0.0291  0.5566  0.4639
 7528SOL    HW134217   4.736   2.795   1.497 -0.1248 -0.0373  2.0558
 7528SOL    HW234218   4.659   2.666   1.489  0.0777  0.4476 -0.6957
 7529SOL     OW34219   0.398   0.393   7.673 -0.0172  0.4334 -0.3532
 7529SOL    HW134220   0.489   0.385   7.700 -0.5745 -1.9236  0.7849
 7529SOL    HW234221   0.358   0.396   7.760  0.5483  0.3113 -0.0921
 7530SOL     OW34222   0.710   2.905   6.726 -0.0574  0.4396  0.6234
 7530SOL    HW134223   0.764   2.974   6.762  0.6879  0.5239 -0.6592
 7530SOL    HW234224   0.778   2.841   6.707  0.8762  1.4872  0.4846
 7531SOL     OW34225   1.139   0.347  10.244  0.7157 -0.0135  0.0589
 7531SOL    HW134226   1.217   0.320  10.293  0.7102  1.9408  1.1812
 7531SOL    HW234227   1.168   0.365  10.155  0.1867  0.4067 -0.0256
 7532SOL     OW34228   1.470   4.654   7.713  0.0004  0.1624  0.1129
 7532SOL    HW134229   1.424   4.736   7.697  0.0761  0.2558  0.3654
 7532SOL    HW234230   1.408   4.588   7.684  0.2425 -0.0899  0.1662
 7533SOL     OW34231   3.507   0.951   1.087 -0.5993 -0.3036  0.0730
 7533SOL    HW134232   3.477   0.971   1.175  1.3925 -1.3051  0.9780
 7533SOL    HW234233   3.428   0.925   1.040 -0.6447 -0.7271  0.3881
 7534SOL     OW34234   0.875   4.610   8.090  0.1591  0.5358 -0.1270
 7534SOL    HW134235   0.936   4.537   8.103  1.8447  1.3688 -3.3685
 7534SOL    HW234236   0.796   4.558   8.073  1.3719 -1.5795  0.6929
 7535SOL     OW34237   0.217   4.520   4.918  0.5404  0.3238  0.6707
 7535SOL    HW134238   0.148   4.585   4.903 -1.0998 -1.7599 -0.9006
 7535SOL    HW234239   0.163   4.441   4.910 -0.2793  1.0690 -1.1720
 7536SOL     OW34240   4.368   2.356   7.872  0.1856 -0.0887 -0.0291
 7536SOL    HW134241   4.347   2.350   7.779  0.8538  1.8662 -0.3062
 7536SOL    HW234242   4.449   2.305   7.875 -0.2061 -0.8930 -2.5604
 7537SOL     OW34243   0.837   0.322  11.388 -0.3045 -0.4366 -0.3654
 7537SOL    HW134244   0.801   0.312  11.476  0.6671 -0.1106  0.0711
 7537SOL    HW234245   0.778   0.272  11.332 -1.1096 -0.2708  0.3384
 7538SOL     OW34246   1.419   4.390   9.280  0.2706  0.1573  0.2284
 7538SOL    HW134247   1.435   4.469   9.332  1.5330  1.0798 -1.5741
 7538SOL    HW234248   1.496   4.387   9.224  0.2061  0.2215  0.1374
 7539SOL     OW34249   2.089   1.385   2.351 -0.5534 -1.2297 -0.0462
 7539SOL    HW134250   2.132   1.368   2.267  0.0374 -0.9805  0.2013
 7539SOL    HW234251   2.089   1.481   2.357  0.0148 -1.2103 -0.3670
 7540SOL     OW34252   3.727   1.641  16.252 -0.5312 -1.3862 -1.3123
 7540SOL    HW134253   3.635   1.651  16.229 -0.9213 -1.0891  0.3863
 7540SOL    HW234254   3.730   1.545  16.253  0.5603 -1.3346  1.9107
 7541SOL     OW34255   3.061   2.804   2.584  0.0822  0.3746 -0.1101
 7541SOL    HW134256   2.984   2.751   2.606 -0.6398 -0.3340 -4.2037
 7541SOL    HW234257   3.138   2.750   2.568 -0.9057 -0.1005 -3.2427
 7542SOL     OW34258   1.910   0.216   0.604  0.0120  0.2686  0.3422
 7542SOL    HW134259   1.885   0.125   0.588 -1.2803  0.4775  1.2270
 7542SOL    HW234260   1.935   0.249   0.518 -0.1417 -0.1319  0.1427
 7543SOL     OW34261   2.769   1.607  17.019 -0.1848 -0.1305  0.2971
 7543SOL    HW134262   2.802   1.609  16.929 -0.1328 -1.5487  0.2851
 7543SOL    HW234263   2.774   1.512  17.031  1.8125  0.0492  0.9625
 7544SOL     OW34264   0.714   0.860   4.369 -0.2290 -0.0261  0.7947
 7544SOL    HW134265   0.672   0.900   4.445 -0.0896 -1.5482  1.6755
 7544SOL    HW234266   0.771   0.934   4.348 -1.6678  0.8385 -0.0413
 7545SOL     OW34267   0.285   0.606   6.341  0.0637  0.4564  0.0873
 7545SOL    HW134268   0.197   0.618   6.305  0.4571  2.7496 -0.1053
 7545SOL    HW234269   0.321   0.558   6.265  0.2923 -1.1755  1.2212
 7546SOL     OW34270   1.321   3.161   5.811  0.1821 -0.9162  0.5928
 7546SOL    HW134271   1.314   3.097   5.740  1.5642  1.0113 -1.2842
 7546SOL    HW234272   1.371   3.233   5.773  0.5114 -0.4540  1.9091
 7547SOL     OW34273   1.757   0.042   3.959  0.0656 -0.0119 -0.4551
 7547SOL    HW134274   1.729   4.694   3.985 -3.5846  1.1359 -0.5006
 7547SOL    HW234275   1.757   0.036   3.864 -1.1858 -0.8331 -0.4103
 7548SOL     OW34276   0.402   2.319   2.991  0.2907 -0.1353 -0.0432
 7548SOL    HW134277   0.463   2.325   3.065 -0.8637 -0.3309  0.9380
 7548SOL    HW234278   0.330   2.273   3.035  0.0168 -0.8192 -1.2245
 7549SOL     OW34279   3.696   2.469   1.694 -0.1444 -0.2184 -0.1270
 7549SOL    HW134280   3.748   2.421   1.759 -0.0788 -0.6805 -0.5195
 7549SOL    HW234281   3.759   2.486   1.624 -0.8313  1.6240 -0.2867
 7550SOL     OW34282   2.201   3.046   4.854 -0.1207 -0.6156  0.7205
 7550SOL    HW134283   2.206   3.041   4.758  1.7276 -1.8787  0.8987
 7550SOL    HW234284   2.267   3.111   4.876  1.2249 -2.4175  1.9698
 7551SOL     OW34285   1.451   1.924   4.541  0.2329 -0.2658 -0.5944
 7551SOL    HW134286   1.408   1.975   4.473 -3.4991  0.1419  2.0878
 7551SOL    HW234287   1.541   1.955   4.535 -0.3913  1.8581  1.1484
 7552SOL     OW34288   2.793   1.642  14.797  0.3905 -0.0992  0.0413
 7552SOL    HW134289   2.851   1.567  14.787  1.5290  0.7816  0.0305
 7552SOL    HW234290   2.846   1.704  14.746  0.3191  0.5801  0.7946
 7553SOL     OW34291   0.947   4.661   9.592 -0.1994  0.2287 -0.1851
 7553SOL    HW134292   0.867   4.714   9.592  0.2556  0.9070 -1.4513
 7553SOL    HW234293   0.923   4.588   9.649  2.5307 -0.6461 -0.1726
 7554SOL     OW34294   3.386   3.785   5.293  0.7109 -0.2548  0.1025
 7554SOL    HW134295   3.421   3.837   5.221 -1.2272 -0.4500 -0.9800
 7554SOL    HW234296   3.473   3.774   5.331 -0.4556  1.2616  3.2054
 7555SOL     OW34297   0.680   2.744   7.358 -0.1311  0.6223  0.1915
 7555SOL    HW134298   0.706   2.799   7.431  0.3960 -2.0596  2.0418
 7555SOL    HW234299   0.681   2.658   7.400  1.9545  0.1481 -0.8149
 7556SOL     OW34300   4.628   2.904  15.393 -0.0926  0.0667  0.0015
 7556SOL    HW134301   4.678   2.964  15.449  1.3189 -1.2016  0.1127
 7556SOL    HW234302   4.692   2.883  15.325 -1.0224  0.3285 -0.9436
 7557SOL     OW34303   0.377   0.047  15.636  0.1382 -0.0850 -0.0068
 7557SOL    HW134304   0.466   0.079  15.651 -0.8811  1.4887  2.7766
 7557SOL    HW234305   0.390   0.043  15.541  0.0232 -0.3746 -0.0094
 7558SOL     OW34306   0.202   3.060   3.705 -0.2399  0.4630 -0.0188
 7558SOL    HW134307   0.128   3.026   3.655 -1.2430 -0.8265  2.3694
 7558SOL    HW234308   0.172   3.057   3.796 -0.8068  3.0673 -0.1209
 7559SOL     OW34309   3.756   2.983   3.574 -0.5069  0.2617  0.1691
 7559SOL    HW134310   3.832   2.985   3.515  1.3126 -0.7146  2.4953
 7559SOL    HW234311   3.724   2.895   3.557 -0.1221  0.3050 -0.7727
 7560SOL     OW34312   3.652   3.045  13.210  0.0270 -0.2051 -0.0606
 7560SOL    HW134313   3.707   3.012  13.138  0.4589  0.5259 -0.0588
 7560SOL    HW234314   3.699   3.005  13.284 -1.7166 -1.7325  0.2125
 7561SOL     OW34315   0.468   3.870   7.865 -0.3047 -0.2006 -0.2959
 7561SOL    HW134316   0.420   3.789   7.877  2.5992 -1.8594  0.0644
 7561SOL    HW234317   0.431   3.909   7.785  0.8104 -0.7343 -1.0701
 7562SOL     OW34318   2.997   1.404   5.868 -1.1114 -0.0752 -0.2789
 7562SOL    HW134319   2.932   1.451   5.816 -0.0070  0.6138 -1.0355
 7562SOL    HW234320   3.074   1.457   5.847 -0.7324 -1.2001 -1.6918
 7563SOL     OW34321   2.843   2.925   3.141 -0.0181  0.4842 -1.0366
 7563SOL    HW134322   2.873   2.865   3.073  0.2574  0.8105 -1.2083
 7563SOL    HW234323   2.812   2.862   3.205 -1.1870  1.8602 -0.2438
 7564SOL     OW34324   2.229   0.179   4.297 -0.5407 -0.2363 -0.3439
 7564SOL    HW134325   2.225   0.239   4.223  2.7635  1.6912  1.0344
 7564SOL    HW234326   2.210   0.095   4.256  0.7858 -0.8306  0.2625
 7565SOL     OW34327   0.262   1.514   8.603 -0.6321 -0.6173 -0.0629
 7565SOL    HW134328   0.262   1.427   8.563 -3.6288 -0.1325 -1.1200
 7565SOL    HW234329   0.180   1.547   8.565 -0.6788  1.9900  2.3157
 7566SOL     OW34330   1.050   1.162   7.821  0.0464 -0.6515 -0.1072
 7566SOL    HW134331   1.104   1.101   7.871  2.7482  1.2751 -0.7279
 7566SOL    HW234332   1.029   1.113   7.741 -0.2078 -0.4565 -0.1621
 7567SOL     OW34333   2.931   3.529   2.229 -0.0126  0.1294 -0.1997
 7567SOL    HW134334   3.007   3.472   2.220  0.8243  1.1356  0.7160
 7567SOL    HW234335   2.864   3.477   2.274 -0.0977  0.2347 -0.2048
 7568SOL     OW34336   2.584   2.797   6.876  0.3382  0.0343  0.2620
 7568SOL    HW134337   2.507   2.853   6.889 -0.4354 -0.8656 -0.3996
 7568SOL    HW234338   2.652   2.859   6.850  2.0101 -0.4101  3.5570
 7569SOL     OW34339   3.466   0.953  15.087  0.2031  0.0156 -0.1259
 7569SOL    HW134340   3.414   1.011  15.031  0.1299 -0.9508 -1.0792
 7569SOL    HW234341   3.538   0.922  15.032  0.9847  0.7440  0.5137
 7570SOL     OW34342   2.562   0.957   4.158 -0.1130 -0.1022 -0.0840
 7570SOL    HW134343   2.650   0.928   4.136 -0.1882  1.3671 -2.3550
 7570SOL    HW234344   2.524   0.967   4.071 -0.7203  0.4354  0.2434
 7571SOL     OW34345   1.107   3.365   0.422 -0.1818 -0.5773 -0.2307
 7571SOL    HW134346   1.190   3.316   0.419 -0.2847 -0.6721 -1.3425
 7571SOL    HW234347   1.142   3.449   0.393  1.0395 -1.0121 -0.0450
 7572SOL     OW34348   2.803   1.302   2.593 -0.0377  0.1102 -0.0954
 7572SOL    HW134349   2.736   1.255   2.543  1.7907 -2.1608 -0.3616
 7572SOL    HW234350   2.879   1.277   2.541  0.0725 -0.0869  0.1647
 7573SOL     OW34351   3.087   3.393  13.943 -0.4861  0.2001  0.2519
 7573SOL    HW134352   3.044   3.312  13.971  2.7690 -1.5380  0.3281
 7573SOL    HW234353   3.166   3.382  13.997  0.3705  0.5981 -0.9259
 7574SOL     OW34354   1.644   3.663   8.219 -0.2205 -0.3173 -0.0906
 7574SOL    HW134355   1.734   3.632   8.210 -0.2509 -0.5201  0.3000
 7574SOL    HW234356   1.608   3.624   8.140 -2.3697  1.9931 -0.2463
 7575SOL     OW34357   3.337   2.734   0.411  0.6347 -0.5294  0.3783
 7575SOL    HW134358   3.302   2.655   0.368  0.0521 -0.7813  1.3153
 7575SOL    HW234359   3.264   2.759   0.467  0.9237  0.3871  0.3375
 7576SOL     OW34360   1.353   2.980  14.623  0.0623  0.6488 -0.1719
 7576SOL    HW134361   1.263   2.973  14.590  0.0344  2.4938 -0.4713
 7576SOL    HW234362   1.356   2.909  14.687  1.0547  0.4078 -0.4860
 7577SOL     OW34363   1.293   0.664   4.437 -0.1752  0.3581  0.5331
 7577SOL    HW134364   1.294   0.723   4.513 -1.2088  0.8645  0.1491
 7577SOL    HW234365   1.229   0.708   4.382  1.1022  0.4608 -0.8854
 7578SOL     OW34366   0.429   3.049   3.048 -0.3486 -0.3091  0.0133
 7578SOL    HW134367   0.383   3.062   3.131  0.6935  1.3198  0.3377
 7578SOL    HW234368   0.384   3.104   2.984  1.2300  0.2691 -0.6176
 7579SOL     OW34369   3.673   3.292   6.323  0.1900 -0.5865  0.4017
 7579SOL    HW134370   3.680   3.196   6.316 -4.4933 -0.8156 -1.1497
 7579SOL    HW234371   3.579   3.309   6.322  0.9673  3.5257  0.5593
 7580SOL     OW34372   2.463   3.397   6.930 -0.3683  0.1057 -0.6267
 7580SOL    HW134373   2.520   3.438   6.995 -1.7308  2.6314 -0.9837
 7580SOL    HW234374   2.377   3.407   6.970  0.8246  0.5452  1.7841
 7581SOL     OW34375   1.405   3.769   9.100 -0.8554  0.6463 -0.1532
 7581SOL    HW134376   1.380   3.858   9.074 -0.6874  1.5763  2.9145
 7581SOL    HW234377   1.316   3.735   9.106 -0.6969  0.2615 -0.0284
 7582SOL     OW34378   0.034   2.531  12.862  0.3602 -0.2725  0.0779
 7582SOL    HW134379   0.002   2.611  12.903 -2.3678 -0.9203 -0.7927
 7582SOL    HW234380   0.007   2.543  12.771  1.5796 -0.1914 -0.2705
 7583SOL     OW34381   0.415   3.311   1.173  0.0570  0.2320 -0.1650
 7583SOL    HW134382   0.322   3.296   1.193 -0.3160  0.8137 -1.4054
 7583SOL    HW234383   0.413   3.309   1.077  0.1922 -0.2993 -0.1563
 7584SOL     OW34384   0.917   4.599   4.649 -0.0382  0.0223 -0.3290
 7584SOL    HW134385   0.921   4.688   4.613  0.4163  0.0618 -0.1726
 7584SOL    HW234386   0.994   4.599   4.706 -0.5479  0.6550  0.3541
 7585SOL     OW34387   4.403   4.329  11.936 -0.7101  0.2493  0.2394
 7585SOL    HW134388   4.345   4.388  11.887  1.7588  0.9564 -1.8310
 7585SOL    HW234389   4.337   4.284  11.989 -2.1593  0.3221 -1.4978
 7586SOL     OW34390   2.646   2.367   3.406  0.5036 -0.0390 -0.3838
 7586SOL    HW134391   2.682   2.281   3.426  1.5815  0.5505  0.2133
 7586SOL    HW234392   2.601   2.377   3.490 -0.5835 -0.5733 -0.8930
 7587SOL     OW34393   0.872   1.858   8.039 -0.0164 -0.0033 -0.5254
 7587SOL    HW134394   0.894   1.776   7.994  0.6108 -0.3501  0.4110
 7587SOL    HW234395   0.959   1.894   8.057 -0.2940  0.2639  0.2966
 7588SOL     OW34396   4.350   1.298   4.272  0.1539 -0.6005 -0.2888
 7588SOL    HW134397   4.404   1.322   4.197 -0.3788 -0.3282 -0.5754
 7588SOL    HW234398   4.421   1.290   4.336  1.3896  0.1295 -1.5813
 7589SOL     OW34399   3.938   2.149   8.742 -0.6785  0.0318  0.2955
 7589SOL    HW134400   4.024   2.184   8.767  1.0714 -3.9295 -0.2673
 7589SOL    HW234401   3.958   2.117   8.654 -0.3515 -0.6349  0.6107
 7590SOL     OW34402   2.403   3.879   1.082 -0.1650 -0.1889 -0.3571
 7590SOL    HW134403   2.471   3.921   1.029  1.4088 -1.5179  0.6252
 7590SOL    HW234404   2.326   3.929   1.053 -0.5942  0.3909  1.7549
 7591SOL     OW34405   2.486   0.705  16.706 -0.0077 -0.6537  0.0629
 7591SOL    HW134406   2.415   0.649  16.674  0.2026 -1.4718  1.0214
 7591SOL    HW234407   2.485   0.779  16.646  0.4487  0.0039  0.8725
 7592SOL     OW34408   4.264   0.526  16.302  0.2986 -0.4413 -0.4000
 7592SOL    HW134409   4.281   0.475  16.381  0.3726 -0.1893 -0.2539
 7592SOL    HW234410   4.180   0.565  16.328  1.8654  2.0079  0.9512
 7593SOL     OW34411   2.953   3.274   2.956 -0.3871  0.0184 -0.0853
 7593SOL    HW134412   2.967   3.356   2.909  0.6260  0.4179  0.9221
 7593SOL    HW234413   2.959   3.304   3.046 -2.1392 -2.9500  1.0501
 7594SOL     OW34414   1.842   1.733   2.142  0.5528  0.4329  0.3249
 7594SOL    HW134415   1.872   1.758   2.230 -0.5899 -0.6337  1.0094
 7594SOL    HW234416   1.776   1.666   2.156 -0.7288  1.0456 -2.7313
 7595SOL     OW34417   1.237   0.688   3.307 -0.4735  0.0712 -0.3899
 7595SOL    HW134418   1.184   0.762   3.337  1.8539  2.1205 -1.3049
 7595SOL    HW234419   1.235   0.625   3.379  0.2288  0.1776 -0.2759
 7596SOL     OW34420   3.332   0.980   7.964 -0.2952 -0.3789 -0.2554
 7596SOL    HW134421   3.242   0.984   7.998 -0.8384  2.0918 -1.9531
 7596SOL    HW234422   3.361   0.893   7.989 -1.4447 -1.2225 -1.8417
 7597SOL     OW34423   2.318   3.610  10.207  0.4813 -0.4482 -0.1455
 7597SOL    HW134424   2.235   3.625  10.163  0.1675  0.6485  0.8004
 7597SOL    HW234425   2.378   3.664  10.155  3.0999 -1.6944  1.5518
 7598SOL     OW34426   2.644   0.363   4.975 -0.2164 -1.0797 -0.1532
 7598SOL    HW134427   2.607   0.401   4.896  0.0174  0.5544  0.5220
 7598SOL    HW234428   2.568   0.363   5.034 -1.1103  0.7207 -1.3416
 7599SOL     OW34429   4.052   1.472   0.918  0.3348 -0.2790  0.6400
 7599SOL    HW134430   4.037   1.414   0.844 -0.9287  1.1680 -0.2387
 7599SOL    HW234431   3.990   1.433   0.980  0.3064  1.5481  1.7732
 7600SOL     OW34432   2.991   0.569   5.097  0.6068 -0.1833 -0.2040
 7600SOL    HW134433   3.068   0.585   5.042  0.1315  0.6034 -0.6405
 7600SOL    HW234434   2.978   0.474   5.097 -2.3158  0.2233 -1.8992
 7601SOL     OW34435   4.326   1.261  16.741 -0.1904  0.7408  0.2758
 7601SOL    HW134436   4.388   1.331  16.719 -2.5995  1.6608 -3.5363
 7601SOL    HW234437   4.328   1.205  16.664  1.2597 -0.4695  1.1865
 7602SOL     OW34438   3.467   4.292   1.464  0.2483  0.4099  0.2840
 7602SOL    HW134439   3.384   4.262   1.425 -0.0795  0.0110  1.2736
 7602SOL    HW234440   3.528   4.286   1.391  1.0158  1.4691  0.8585
 7603SOL     OW34441   3.666   3.556   2.105  0.3090 -0.2352 -0.3220
 7603SOL    HW134442   3.687   3.615   2.032 -1.9703  0.3208 -0.5342
 7603SOL    HW234443   3.751   3.539   2.145  0.2484 -0.1385 -0.1527
 7604SOL     OW34444   2.142   2.133   6.047  0.5822 -0.5531 -0.9556
 7604SOL    HW134445   2.096   2.150   5.964  1.0456 -2.4367 -1.5996
 7604SOL    HW234446   2.200   2.208   6.060  0.0655  0.0048 -1.8548
 7605SOL     OW34447   3.317   3.514   8.880 -0.0019 -0.4600  0.0487
 7605SOL    HW134448   3.235   3.546   8.916  0.1557 -0.3276  0.2901
 7605SOL    HW234449   3.294   3.433   8.835  0.8543  0.5730 -2.2358
 7606SOL     OW34450   1.777   1.667   8.822 -0.0664  0.2661 -0.1004
 7606SOL    HW134451   1.702   1.609   8.807  1.7189 -1.6577 -1.4746
 7606SOL    HW234452   1.788   1.702   8.734 -0.8148 -1.2794 -0.8158
 7607SOL     OW34453   2.390   3.978  17.124 -0.5952 -0.4105  0.2096
 7607SOL    HW134454   2.354   4.007  17.208  0.5743  0.8939  0.2582
 7607SOL    HW234455   2.307   3.964  17.077 -1.1420 -0.4786  1.1985
 7608SOL     OW34456   0.559   1.514   1.654  0.2718  0.0689  0.2874
 7608SOL    HW134457   0.598   1.599   1.673  1.3504 -0.2495 -0.5178
 7608SOL    HW234458   0.553   1.510   1.558 -1.2295  0.6394  0.3531
 7609SOL     OW34459   4.556   0.276   5.901  0.5196  0.9404 -0.7988
 7609SOL    HW134460   4.581   0.362   5.869  0.1564  1.2598 -0.2280
 7609SOL    HW234461   4.526   0.236   5.820 -4.0109  1.7495  0.4818
 7610SOL     OW34462   4.031   4.717   2.412  0.6294  0.2528 -0.4835
 7610SOL    HW134463   4.101   0.039   2.435  1.8900 -1.1036 -0.6894
 7610SOL    HW234464   3.951   0.028   2.395  1.2836  1.7118  0.7664
 7611SOL     OW34465   3.675   0.431   6.089 -0.0352 -0.0533 -0.3150
 7611SOL    HW134466   3.619   0.374   6.142 -1.9745  0.2389 -2.0541
 7611SOL    HW234467   3.630   0.515   6.095 -0.1426 -0.1152 -0.2512
 7612SOL     OW34468   3.929   2.815   1.276  0.1260  0.0969 -0.3013
 7612SOL    HW134469   3.850   2.763   1.285  0.7401 -0.4661  1.8703
 7612SOL    HW234470   3.891   2.900   1.298 -1.3655 -0.4049 -0.9785
 7613SOL     OW34471   4.362   1.136   2.879 -0.6542  0.5940 -0.3469
 7613SOL    HW134472   4.437   1.183   2.845  0.1077 -1.2751 -1.2521
 7613SOL    HW234473   4.384   1.046   2.854 -0.6717  0.4552  0.1355
 7614SOL     OW34474   0.208   3.501  17.152 -0.1714 -0.1373  0.1634
 7614SOL    HW134475   0.255   3.440  17.096 -0.3718  1.4177 -1.6967
 7614SOL    HW234476   0.239   3.479  17.240  0.8642  1.6859  0.2562
 7615SOL     OW34477   2.034   0.022   5.561  0.1926 -0.2091 -0.4615
 7615SOL    HW134478   2.024   0.055   5.650 -1.6077  0.2410 -0.8368
 7615SOL    HW234479   2.023   0.106   5.517  0.4844 -0.3128 -0.7330
 7616SOL     OW34480   1.574   4.489  14.658 -0.0508 -0.2815 -0.2702
 7616SOL    HW134481   1.487   4.468  14.625 -0.9136 -0.2253  1.9775
 7616SOL    HW234482   1.549   4.560  14.716 -1.9690 -0.9438 -0.3080
 7617SOL     OW34483   4.344   4.067   4.792  0.5566 -0.0026  0.3079
 7617SOL    HW134484   4.292   4.145   4.812  0.8462  0.4615 -0.7367
 7617SOL    HW234485   4.292   4.000   4.836  0.8623  0.7537  1.8076
 7618SOL     OW34486   2.620   0.114   3.162 -0.7758  0.6382  0.0767
 7618SOL    HW134487   2.528   0.106   3.191 -1.0083 -1.9655 -1.3696
 7618SOL    HW234488   2.615   0.071   3.077  1.8577 -1.4948  1.0021
 7619SOL     OW34489   3.745   3.244  11.652  0.2967 -0.4883  0.0829
 7619SOL    HW134490   3.778   3.154  11.649 -1.4855 -1.0451 -2.4399
 7619SOL    HW234491   3.787   3.273  11.733  1.4163  0.8331 -0.9567
 7620SOL     OW34492   0.698   4.415   4.689  0.1916  0.1854  0.2403
 7620SOL    HW134493   0.775   4.471   4.685  1.3039 -1.2038  1.8907
 7620SOL    HW234494   0.641   4.473   4.739 -1.7904 -0.1349 -1.6866
 7621SOL     OW34495   0.731   3.075   6.103  0.3533 -0.3516 -0.3457
 7621SOL    HW134496   0.709   3.107   6.191  1.9274 -2.0933  0.6769
 7621SOL    HW234497   0.696   2.986   6.110 -0.5896 -0.0908 -1.6692
 7622SOL     OW34498   0.913   4.424   4.408  0.3475 -0.5222  0.1778
 7622SOL    HW134499   0.902   4.479   4.486  0.7706 -0.3364  0.1089
 7622SOL    HW234500   0.832   4.373   4.409  1.0614 -1.6165  1.2641
 7623SOL     OW34501   4.668   0.522   3.980  0.3101 -0.3407 -0.0030
 7623SOL    HW134502   4.642   0.433   4.003 -1.0338  0.2744  0.8657
 7623SOL    HW234503   0.019   0.493   3.992  0.3964  0.0152  0.2113
 7624SOL     OW34504   2.024   3.960   5.193  0.0229 -0.0513 -0.3289
 7624SOL    HW134505   2.038   3.991   5.282  1.3526  4.4405 -2.0788
 7624SOL    HW234506   2.039   4.041   5.145 -0.0262 -0.0151 -0.2829
 7625SOL     OW34507   1.176   0.554   2.870  0.1864 -0.2227 -0.0056
 7625SOL    HW134508   1.177   0.531   2.963  0.3669  0.3455  0.1325
 7625SOL    HW234509   1.140   0.476   2.827  1.1657 -0.2607 -0.7547
 7626SOL     OW34510   1.292   4.244   8.345  0.0705 -0.5052 -0.0005
 7626SOL    HW134511   1.268   4.195   8.424 -0.3435 -0.2585  0.0248
 7626SOL    HW234512   1.355   4.301   8.389 -1.1810  0.5268  0.4338
 7627SOL     OW34513   1.758   1.464   5.413  0.2507  0.7812 -0.5243
 7627SOL    HW134514   1.663   1.451   5.415  0.0972  2.1881  1.7257
 7627SOL    HW234515   1.777   1.420   5.497  2.1293  1.9988 -0.3113
 7628SOL     OW34516   2.693   4.574   8.570  0.1000 -0.0792 -0.2425
 7628SOL    HW134517   2.630   4.633   8.527  1.7698  1.4930 -0.5424
 7628SOL    HW234518   2.714   4.507   8.506  3.1708  0.6830 -0.0334
 7629SOL     OW34519   3.673   0.649   5.436  0.3725 -0.1716  0.2858
 7629SOL    HW134520   3.649   0.569   5.389 -0.4234  0.5008 -0.4630
 7629SOL    HW234521   3.753   0.686   5.399 -0.1864  0.0546 -0.7268
 7630SOL     OW34522   4.223   0.384   6.684  0.1495 -0.2367 -0.2410
 7630SOL    HW134523   4.178   0.390   6.769 -0.7319  0.7131 -0.7855
 7630SOL    HW234524   4.314   0.371   6.713 -0.4451 -2.1455  0.7903
 7631SOL     OW34525   3.173   0.151  17.043 -0.2785 -0.2494 -0.3118
 7631SOL    HW134526   3.256   0.110  17.068  0.6114  1.9729  0.3695
 7631SOL    HW234527   3.188   0.161  16.949  2.0887  0.9517  0.1996
 7632SOL     OW34528   1.760   0.508   1.325  0.7178  0.1843  0.6937
 7632SOL    HW134529   1.765   0.584   1.267 -0.3323 -0.4893 -0.2738
 7632SOL    HW234530   1.834   0.540   1.377  0.5051 -1.4933  2.0383
 7633SOL     OW34531   1.995   2.460  14.379 -0.0027 -0.0590 -1.0181
 7633SOL    HW134532   2.007   2.544  14.335 -1.9330  0.9834  0.4428
 7633SOL    HW234533   1.979   2.396  14.309 -0.8391  0.1655 -1.0354
 7634SOL     OW34534   1.377   3.569   8.701 -0.1017 -0.3965 -0.0360
 7634SOL    HW134535   1.396   3.478   8.723  2.1035 -0.2759 -1.5340
 7634SOL    HW234536   1.289   3.568   8.740  0.0411 -0.2879  0.2888
 7635SOL     OW34537   3.785   3.068  10.310  0.4764 -0.1751  0.3908
 7635SOL    HW134538   3.813   3.034  10.225 -1.0100 -0.6158  0.0738
 7635SOL    HW234539   3.751   3.155  10.291  2.1260  0.8302  2.0058
 7636SOL     OW34540   0.595   1.021  12.710  0.0915  0.1834  0.4149
 7636SOL    HW134541   0.649   0.995  12.785 -1.0157 -2.9706  0.1460
 7636SOL    HW234542   0.662   0.986  12.651 -0.4982  0.7479 -0.5937
 7637SOL     OW34543   0.200   4.385   2.070  0.0135 -0.5632 -0.2483
 7637SOL    HW134544   0.266   4.400   2.003  0.2124 -2.2469 -0.4086
 7637SOL    HW234545   0.147   4.464   2.060  1.2568  0.2633 -0.3703
 7638SOL     OW34546   0.232   4.185   7.152  0.1408  0.1608  0.2224
 7638SOL    HW134547   0.222   4.135   7.233  0.4947  0.6769  0.5853
 7638SOL    HW234548   0.250   4.115   7.090 -1.7788  0.9752 -1.2632
 7639SOL     OW34549   1.759   3.629   2.180 -0.4747 -0.0899 -0.1041
 7639SOL    HW134550   1.850   3.640   2.153 -0.2934  0.3801  0.6852
 7639SOL    HW234551   1.779   3.611   2.272 -0.4316 -0.3813 -0.1710
 7640SOL     OW34552   3.674   0.979   3.593  0.1231  0.3749 -0.5150
 7640SOL    HW134553   3.766   0.964   3.618  0.8160  0.5152 -2.9924
 7640SOL    HW234554   3.637   1.000   3.679 -1.4681 -0.7001 -0.9436
 7641SOL     OW34555   4.096   0.471   4.585 -0.6185 -0.5139  0.3547
 7641SOL    HW134556   4.177   0.465   4.536 -1.7671  0.6528 -1.6844
 7641SOL    HW234557   4.131   0.484   4.674 -0.8640  0.0213  0.3778
 7642SOL     OW34558   1.553   4.648   5.123 -0.0799  0.0533  0.1518
 7642SOL    HW134559   1.500   4.584   5.076  0.4028 -0.4139  0.2452
 7642SOL    HW234560   1.534   4.632   5.216 -1.3985 -1.5853 -0.4236
 7643SOL     OW34561   0.304   2.014   4.664 -0.5072  0.3024 -0.6378
 7643SOL    HW134562   0.229   2.073   4.673  0.0435  0.4940  2.8295
 7643SOL    HW234563   0.272   1.947   4.724 -0.2242 -2.1571 -3.2772
 7644SOL     OW34564   1.111   0.338   1.957  0.5148  0.2962  0.2688
 7644SOL    HW134565   1.053   0.268   1.985  1.1667  0.1473  1.2537
 7644SOL    HW234566   1.097   0.406   2.023  2.0764  0.5494  0.3517
 7645SOL     OW34567   0.447   4.568   7.176  0.1893 -0.0998  0.5861
 7645SOL    HW134568   0.490   4.503   7.231 -1.5431 -1.9812 -0.3292
 7645SOL    HW234569   0.400   4.515   7.112  0.4645 -0.3587  0.5979
 7646SOL     OW34570   0.097   2.949  16.739 -0.3102  0.0520 -0.7226
 7646SOL    HW134571   0.008   2.982  16.754  0.1733  0.5319  1.0323
 7646SOL    HW234572   0.096   2.945  16.643  0.1326 -1.1895 -0.6707
 7647SOL     OW34573   2.883   4.290   4.374  0.0340  0.1312  0.1634
 7647SOL    HW134574   2.817   4.332   4.318  1.0344 -1.3572 -2.1538
 7647SOL    HW234575   2.852   4.202   4.352  0.1123 -0.0299  0.7122
 7648SOL     OW34576   3.992   2.355  15.221  0.0336  0.4656 -0.0298
 7648SOL    HW134577   4.082   2.382  15.205 -0.2063  0.6133 -1.0761
 7648SOL    HW234578   3.955   2.426  15.274 -1.4559 -0.2056 -0.1598
 7649SOL     OW34579   3.401   4.684  17.346  0.0397 -0.2333  0.0162
 7649SOL    HW134580   3.307   4.673  17.330 -0.0749 -0.9506  1.1892
 7649SOL    HW234581   3.402   4.657  17.438 -0.0146 -2.7541 -0.7115
 7650SOL     OW34582   0.836   4.065   5.060 -0.2566  0.2733 -0.1812
 7650SOL    HW134583   0.836   4.158   5.083  1.1723 -0.2451  1.8774
 7650SOL    HW234584   0.843   4.079   4.965 -1.2459  1.8124 -0.0318
 7651SOL     OW34585   0.096   1.122  11.538  0.1659 -0.4278  0.9048
 7651SOL    HW134586   0.037   1.066  11.489  1.0350 -1.2776  0.8220
 7651SOL    HW234587   0.127   1.077  11.617  0.7354  1.3266  1.6799
 7652SOL     OW34588   4.217   3.060   4.376 -0.1136 -0.0953  0.3957
 7652SOL    HW134589   4.279   3.064   4.449 -0.1710 -2.1726  0.5609
 7652SOL    HW234590   4.165   3.135   4.405  1.8887  1.4062  0.0798
 7653SOL     OW34591   1.464   2.940   1.909  0.3155 -0.3904  0.4040
 7653SOL    HW134592   1.528   2.918   1.841  0.6341  1.4166  0.1314
 7653SOL    HW234593   1.459   2.853   1.948  2.2792 -1.8414 -2.6006
 7654SOL     OW34594   3.218   2.344   4.939  0.0109 -0.0207 -0.4499
 7654SOL    HW134595   3.221   2.249   4.947 -0.0765 -0.1565 -2.0641
 7654SOL    HW234596   3.311   2.358   4.920  0.2241 -1.9360 -0.8150
 7655SOL     OW34597   3.520   2.424  12.122  0.7374  0.4123 -0.2766
 7655SOL    HW134598   3.432   2.409  12.157  0.3894 -1.8881 -2.1039
 7655SOL    HW234599   3.553   2.340  12.090  0.3129  1.1068 -2.5372
 7656SOL     OW34600   4.239   2.187   4.713 -0.0504 -0.2107 -0.0856
 7656SOL    HW134601   4.245   2.223   4.802  2.7049 -0.7220 -0.0660
 7656SOL    HW234602   4.155   2.226   4.692 -0.5959 -2.3357 -1.9103
 7657SOL     OW34603   2.269   3.908  10.528  0.1211 -0.3311 -0.2039
 7657SOL    HW134604   2.196   3.857  10.492 -0.1047 -1.5417  1.9086
 7657SOL    HW234605   2.250   3.889  10.620 -3.0950  1.5745 -0.4919
 7658SOL     OW34606   2.446   0.923  12.943 -0.3070 -0.3816  0.5032
 7658SOL    HW134607   2.522   0.921  13.001 -0.0760  0.9646  0.2393
 7658SOL    HW234608   2.401   0.989  12.997 -1.9364 -0.5629 -0.6229
 7659SOL     OW34609   3.482   1.001   4.689 -0.1724  1.1813 -0.1551
 7659SOL    HW134610   3.410   0.938   4.688 -1.1092  2.2344  0.4979
 7659SOL    HW234611   3.542   0.933   4.719 -0.6181  0.8734  0.0238
 7660SOL     OW34612   0.989   3.821   9.593 -0.4860  0.7436  0.0992
 7660SOL    HW134613   0.948   3.900   9.628 -2.4891 -0.8209  1.2534
 7660SOL    HW234614   1.012   3.844   9.503 -0.1575 -0.9444 -0.2446
 7661SOL     OW34615   2.876   1.912   9.735 -0.2889 -0.1883 -0.3721
 7661SOL    HW134616   2.859   1.879   9.823  1.6618 -1.2279 -0.4046
 7661SOL    HW234617   2.909   1.832   9.692 -0.8815 -0.3259 -0.5797
 7662SOL     OW34618   0.082   4.271   4.887 -0.2498  0.4079  0.1733
 7662SOL    HW134619   0.102   4.180   4.908 -3.5301 -0.4690 -0.4251
 7662SOL    HW234620   4.727   4.272   4.871 -0.5268 -1.1937  1.7218
 7663SOL     OW34621   4.316   1.790  11.957 -0.1239 -0.2643 -0.2308
 7663SOL    HW134622   4.402   1.761  11.928  0.1668  1.0114 -0.6684
 7663SOL    HW234623   4.286   1.700  11.972  1.9100 -1.0053 -0.6301
 7664SOL     OW34624   2.504   2.661  11.804 -0.1846  0.3839 -0.3582
 7664SOL    HW134625   2.461   2.630  11.724  0.1161 -1.0525  0.0321
 7664SOL    HW234626   2.528   2.751  11.781 -0.2603  1.0366  2.0608
 7665SOL     OW34627   3.283   2.554   9.756  0.1027 -0.3108  0.2149
 7665SOL    HW134628   3.287   2.460   9.739 -2.3170 -0.1341 -1.2122
 7665SOL    HW234629   3.221   2.552   9.828  1.0099 -0.4535  1.0011
 7666SOL     OW34630   2.798   3.141   9.076  0.2041  0.6139  0.2526
 7666SOL    HW134631   2.719   3.087   9.081  0.7071 -0.0606  0.9323
 7666SOL    HW234632   2.765   3.220   9.034  1.9802  0.7107 -0.9734
 7667SOL     OW34633   4.258   2.782   2.210 -0.1364  0.2782  0.3771
 7667SOL    HW134634   4.256   2.878   2.207 -0.2003  0.3185  1.6077
 7667SOL    HW234635   4.328   2.767   2.147 -1.5572  1.6917 -1.5462
 7668SOL     OW34636   1.150   2.963  10.806 -0.1341 -0.3652  0.0817
 7668SOL    HW134637   1.060   2.996  10.802  0.8806  2.3146 -0.8362
 7668SOL    HW234638   1.193   3.047  10.824  0.4237 -0.5400 -0.4427
 7669SOL     OW34639   0.224   3.954   9.356 -0.2306  0.1055  0.4902
 7669SOL    HW134640   0.291   4.022   9.364  2.5919 -2.6416 -0.0198
 7669SOL    HW234641   0.192   3.951   9.447 -3.2641  1.6122 -0.5055
 7670SOL     OW34642   0.643   1.289  10.134  0.4525  0.1830  0.0569
 7670SOL    HW134643   0.618   1.290  10.227 -1.7420  0.5280 -0.5239
 7670SOL    HW234644   0.686   1.204  10.131 -3.9917 -1.9607 -3.4273
 7671SOL     OW34645   4.015   3.200  10.030  0.4138 -0.3666  0.1321
 7671SOL    HW134646   3.937   3.253  10.015  1.0935 -0.0747 -2.4496
 7671SOL    HW234647   4.027   3.210  10.124 -0.9037  1.2371  0.1286
 7672SOL     OW34648   3.540   4.056  13.902  0.0228 -0.4119 -0.1544
 7672SOL    HW134649   3.628   4.021  13.891  0.4713  0.6947 -0.0474
 7672SOL    HW234650   3.515   4.045  13.994 -0.1159  0.3787 -0.0998
 7673SOL     OW34651   2.117   4.287  14.106 -0.0032 -0.2154 -0.2586
 7673SOL    HW134652   2.026   4.269  14.084 -0.1861 -1.5814  1.6295
 7673SOL    HW234653   2.136   4.378  14.082 -1.4545 -0.1303 -1.0885
 7674SOL     OW34654   2.997   3.412   9.552  0.7553 -0.2861 -0.3693
 7674SOL    HW134655   2.999   3.415   9.457 -3.1430  0.2080 -0.4327
 7674SOL    HW234656   2.960   3.498   9.572  4.4342  1.1250  0.3748
 7675SOL     OW34657   2.425   0.625   8.872  0.2283  0.2548  0.5740
 7675SOL    HW134658   2.367   0.701   8.865 -1.9983 -1.5166 -0.2395
 7675SOL    HW234659   2.405   0.577   8.952 -0.1943  0.9302  0.8775
 7676SOL     OW34660   0.852   0.521   5.094  0.4795  0.5085 -0.2374
 7676SOL    HW134661   0.757   0.514   5.089  0.5806 -0.0513 -1.4321
 7676SOL    HW234662   0.877   0.447   5.039 -3.2235 -0.6721 -0.2849
 7677SOL     OW34663   1.903   2.631   5.011  0.5953  0.0496 -0.2414
 7677SOL    HW134664   1.918   2.587   4.927 -0.1168  0.4746 -0.5894
 7677SOL    HW234665   1.950   2.714   5.009  1.1786 -0.2435  1.6405
 7678SOL     OW34666   4.427   2.546   4.168 -0.1764 -0.4092  0.2982
 7678SOL    HW134667   4.384   2.467   4.136  0.3161 -0.2383 -0.7862
 7678SOL    HW234668   4.448   2.515   4.256 -1.7421 -2.9217 -0.1885
 7679SOL     OW34669   3.156   1.565   4.849 -0.1698  0.0224 -0.2991
 7679SOL    HW134670   3.172   1.494   4.912  0.4322  1.7183  1.4485
 7679SOL    HW234671   3.102   1.515   4.787 -1.2463  0.0280  0.6293
 7680SOL     OW34672   4.504   2.819   4.299 -0.4484 -0.4813  0.0270
 7680SOL    HW134673   4.583   2.837   4.248  0.1887 -0.0283  1.1850
 7680SOL    HW234674   4.509   2.892   4.360  2.1159 -1.3470  0.8675
 7681SOL     OW34675   1.055   1.600   5.552  0.5455 -0.1995 -0.1813
 7681SOL    HW134676   1.038   1.691   5.531 -2.0507 -0.1231  2.1564
 7681SOL    HW234677   0.974   1.555   5.527 -1.0133  2.5137  0.0192
 7682SOL     OW34678   3.343   3.097   6.203  0.2206  0.0699  0.5575
 7682SOL    HW134679   3.357   3.188   6.231  2.5417  0.3687 -1.6017
 7682SOL    HW234680   3.376   3.050   6.279  0.4853 -1.5076 -0.5298
 7683SOL     OW34681   0.389   1.771  14.362  0.4110 -0.1200  0.4263
 7683SOL    HW134682   0.349   1.826  14.429 -1.9264 -0.7050 -0.5181
 7683SOL    HW234683   0.348   1.685  14.365  1.5759 -0.6260  1.9928
 7684SOL     OW34684   4.046   2.504   8.766 -0.0906 -0.3807  0.0670
 7684SOL    HW134685   4.122   2.456   8.797  0.2887  0.0293 -0.2371
 7684SOL    HW234686   3.989   2.490   8.842 -1.1479  0.9862 -0.4560
 7685SOL     OW34687   4.545   3.885   4.962  0.3751  0.1887  0.5001
 7685SOL    HW134688   4.530   3.965   5.013  2.1741  0.5765  0.4234
 7685SOL    HW234689   4.458   3.847   4.976  1.4633 -2.3853  0.2609
 7686SOL     OW34690   0.430   0.963  12.507  0.1003  0.0290 -0.1903
 7686SOL    HW134691   0.336   0.984  12.504  0.4967  1.8687  0.2374
 7686SOL    HW234692   0.456   1.001  12.590 -0.9393  0.5344 -0.0888
 7687SOL     OW34693   1.239   4.030   4.595  0.0353  0.8661 -0.6164
 7687SOL    HW134694   1.263   3.969   4.526  0.9850 -0.0438  0.5033
 7687SOL    HW234695   1.144   4.026   4.586  0.2107 -0.6624 -1.6870
 7688SOL     OW34696   1.250   2.056  14.016 -0.1089  1.1234  0.0279
 7688SOL    HW134697   1.190   2.008  14.074  1.4695 -0.3080  0.4663
 7688SOL    HW234698   1.277   1.991  13.951  0.4133  1.5332 -0.1558
 7689SOL     OW34699   1.675   1.354   4.974  0.2698  0.2712 -0.2081
 7689SOL    HW134700   1.591   1.399   4.971 -0.9423 -1.8554  1.8724
 7689SOL    HW234701   1.667   1.320   5.063 -1.7306 -2.6495 -1.5274
 7690SOL     OW34702   2.718   0.319   8.462  0.2793 -0.4807  0.7904
 7690SOL    HW134703   2.733   0.360   8.548 -0.2547  1.9935 -0.3067
 7690SOL    HW234704   2.770   0.240   8.475  0.6915 -0.2222  0.6973
 7691SOL     OW34705   1.317   0.786   9.229 -0.1067 -0.6962  0.0452
 7691SOL    HW134706   1.233   0.831   9.225  0.4308  0.3952  1.3405
 7691SOL    HW234707   1.372   0.838   9.170  2.6193 -0.3704  2.8660
 7692SOL     OW34708   4.198   0.051   1.883 -0.1898  0.6654 -0.0452
 7692SOL    HW134709   4.259   0.106   1.835  2.2712 -2.0549 -0.0180
 7692SOL    HW234710   4.140   0.117   1.921 -0.6810  2.2457 -3.5500
 7693SOL     OW34711   3.332   2.833  16.056 -0.0984 -0.5909  0.6571
 7693SOL    HW134712   3.408   2.864  16.006 -0.8305  2.2325  1.2714
 7693SOL    HW234713   3.287   2.771  15.999 -1.0055  0.4160  0.2659
 7694SOL     OW34714   4.599   0.839   7.473  0.0285  0.1332 -0.3184
 7694SOL    HW134715   4.631   0.773   7.410  0.5586 -0.0740  0.1768
 7694SOL    HW234716   4.567   0.784   7.544 -0.5276 -1.6206 -1.9027
 7695SOL     OW34717   2.386   4.497   2.619 -0.2474 -0.2111 -0.5163
 7695SOL    HW134718   2.402   4.580   2.575  0.5666 -0.5316 -0.8318
 7695SOL    HW234719   2.330   4.449   2.558 -0.4620 -0.3507 -0.2055
 7696SOL     OW34720   1.791   3.712  16.232  0.7366 -0.1552  0.4291
 7696SOL    HW134721   1.696   3.712  16.242  0.8166  0.7994  1.1824
 7696SOL    HW234722   1.799   3.782  16.167 -1.0620 -3.0646 -2.9358
 7697SOL     OW34723   3.323   1.012   6.864  0.1954 -0.7467 -0.3111
 7697SOL    HW134724   3.313   1.084   6.927 -1.2623 -1.5719  0.3920
 7697SOL    HW234725   3.341   1.074   6.793 -0.0548  1.0274  1.1483
 7698SOL     OW34726   1.813   1.423   3.147  0.8996 -0.1064 -0.0660
 7698SOL    HW134727   1.852   1.473   3.075  0.2513  0.2740 -0.1515
 7698SOL    HW234728   1.730   1.402   3.104  0.9329 -0.3113 -0.0289
 7699SOL     OW34729   1.525   1.173  11.057 -0.8861  0.4136  0.5901
 7699SOL    HW134730   1.620   1.177  11.049 -0.9181 -1.7727 -0.7228
 7699SOL    HW234731   1.506   1.161  10.964  0.6803  0.1503  0.2993
 7700SOL     OW34732   2.361   0.702   4.322 -0.2409  0.2337 -0.0630
 7700SOL    HW134733   2.420   0.734   4.254 -0.6754  1.1457 -0.0207
 7700SOL    HW234734   2.286   0.758   4.305 -0.4383  0.0431  0.1763
 7701SOL     OW34735   1.948   3.473   8.973 -0.2339  0.8176  0.2431
 7701SOL    HW134736   1.930   3.477   9.067  1.1567 -1.3057  0.5871
 7701SOL    HW234737   2.035   3.510   8.960  0.8332 -2.0592 -0.7668
 7702SOL     OW34738   1.607   3.738  13.699 -0.6403 -0.1186 -0.3298
 7702SOL    HW134739   1.532   3.703  13.650 -2.7906  3.0570  0.6847
 7702SOL    HW234740   1.634   3.653  13.735 -1.2881 -0.6484 -1.1007
 7703SOL     OW34741   0.227   3.237   4.226  0.2068 -0.1652  0.7893
 7703SOL    HW134742   0.175   3.262   4.302 -1.3255 -2.4858  0.5130
 7703SOL    HW234743   0.315   3.251   4.261  1.1513  0.7365 -1.9425
 7704SOL     OW34744   2.444   0.354   2.279  0.1821  0.0576 -0.1922
 7704SOL    HW134745   2.431   0.259   2.277  1.1732 -0.0810  0.0590
 7704SOL    HW234746   2.405   0.381   2.362 -0.7039  2.3149 -1.3535
 7705SOL     OW34747   4.351   4.580   8.174  0.1515 -0.1896 -0.1830
 7705SOL    HW134748   4.371   4.551   8.263  1.5317 -0.9264 -0.7279
 7705SOL    HW234749   4.282   4.645   8.187  0.9003  1.0701 -2.6041
 7706SOL     OW34750   0.407   1.198   1.911  0.0378  0.1058 -0.3368
 7706SOL    HW134751   0.315   1.179   1.934  1.0790 -3.1977  1.2020
 7706SOL    HW234752   0.446   1.183   1.997 -2.2171 -1.6051  0.3956
 7707SOL     OW34753   3.068   1.513   8.824 -0.2006  0.0455 -0.1633
 7707SOL    HW134754   3.048   1.606   8.808  0.4237  0.2127  0.0277
 7707SOL    HW234755   3.100   1.506   8.914  0.6214 -1.9186 -0.6134
 7708SOL     OW34756   3.802   3.194   5.961  0.3170 -0.0315  0.6198
 7708SOL    HW134757   3.735   3.244   5.913 -0.5962 -0.2127  1.6762
 7708SOL    HW234758   3.786   3.231   6.048 -2.8725 -1.9833  0.8458
 7709SOL     OW34759   3.790   0.292   9.144 -0.2166 -0.5100 -0.5469
 7709SOL    HW134760   3.858   0.342   9.190 -1.2712 -0.8015  1.3345
 7709SOL    HW234761   3.738   0.371   9.132 -0.4794 -0.6539 -0.3529
 7710SOL     OW34762   0.710   3.405  15.789  0.1814  0.7581 -0.0627
 7710SOL    HW134763   0.704   3.346  15.864  1.3903  2.9219  1.7721
 7710SOL    HW234764   0.725   3.489  15.834  1.7228  1.0413 -1.0930
 7711SOL     OW34765   2.946   1.308   3.399  0.4768 -0.0111  0.2449
 7711SOL    HW134766   2.873   1.251   3.377  1.6131 -2.0544  1.8024
 7711SOL    HW234767   2.969   1.273   3.485  0.6685 -0.7734 -0.1195
 7712SOL     OW34768   4.023   2.302   6.989 -0.0759  0.2556  0.1695
 7712SOL    HW134769   4.035   2.273   6.898  0.6643 -2.3862  1.1088
 7712SOL    HW234770   4.034   2.219   7.036  1.0140  0.3574  0.0847
 7713SOL     OW34771   3.192   4.519   1.928 -0.1215 -0.6990  0.0609
 7713SOL    HW134772   3.102   4.488   1.942 -0.0646 -1.5214 -1.4553
 7713SOL    HW234773   3.245   4.441   1.945  0.3360 -0.2380  0.7806
 7714SOL     OW34774   0.392   1.160   8.878 -0.1342 -0.3824 -0.1357
 7714SOL    HW134775   0.348   1.244   8.891 -0.1795 -0.2084 -1.4036
 7714SOL    HW234776   0.441   1.185   8.800  0.1237 -3.3564 -0.9089
 7715SOL     OW34777   0.983   2.258   4.408 -0.0601  0.3227 -0.4911
 7715SOL    HW134778   0.924   2.322   4.369 -2.3832 -2.1872 -1.0679
 7715SOL    HW234779   0.925   2.197   4.455 -0.1776  0.7894 -0.0286
 7716SOL     OW34780   0.479   3.446   6.840 -0.3173 -0.1645 -0.2831
 7716SOL    HW134781   0.388   3.465   6.817  0.1874  3.5515  0.7665
 7716SOL    HW234782   0.532   3.445   6.761 -0.4179 -2.0715 -0.3233
 7717SOL     OW34783   2.070   4.433  14.439 -0.0968 -0.3871 -0.2339
 7717SOL    HW134784   2.071   4.404  14.530  1.4645 -1.3296 -0.5519
 7717SOL    HW234785   2.017   4.512  14.442  0.8825  0.2735 -0.3186
 7718SOL     OW34786   2.322   2.118   5.130 -0.2097  0.6452 -0.3703
 7718SOL    HW134787   2.388   2.119   5.199 -0.3403 -0.6482 -0.2282
 7718SOL    HW234788   2.239   2.108   5.176  0.1819 -1.4435 -0.1190
 7719SOL     OW34789   1.967   0.091   6.077  0.1570  0.0615  0.3997
 7719SOL    HW134790   2.042   0.032   6.087  0.0314 -0.0102  0.9218
 7719SOL    HW234791   1.891   0.035   6.061 -1.3480  2.2012 -0.0333
 7720SOL     OW34792   1.085   0.003   6.136 -0.8253  0.9794 -0.6746
 7720SOL    HW134793   1.170   0.046   6.140 -0.9090  0.9039  1.8606
 7720SOL    HW234794   1.077   0.013   6.041  0.4242  0.6695 -0.8099
 7721SOL     OW34795   2.209   2.905   8.222  0.0932 -0.5727  0.0495
 7721SOL    HW134796   2.142   2.839   8.238  0.5333 -1.0672 -0.1544
 7721SOL    HW234797   2.226   2.902   8.128 -1.1593  1.5985 -0.2493
 7722SOL     OW34798   2.619   1.467   4.083  0.7093  0.4526  0.3984
 7722SOL    HW134799   2.684   1.466   4.013 -0.0681 -2.7285 -0.3012
 7722SOL    HW234800   2.645   1.383   4.121  0.6942  0.3591  0.2039
 7723SOL     OW34801   2.659   2.690  13.273 -0.1057 -0.0896  0.1329
 7723SOL    HW134802   2.730   2.690  13.208  1.8547  0.8523  2.2333
 7723SOL    HW234803   2.616   2.763  13.228 -0.1591 -0.1701  0.0531
 7724SOL     OW34804   4.726   3.116   3.008  0.4792 -0.1093  0.1233
 7724SOL    HW134805   4.643   3.068   3.002  0.0274  0.7023 -0.1356
 7724SOL    HW234806   0.044   3.041   2.991  1.4191  0.5342  0.4916
 7725SOL     OW34807   2.041   2.286   1.468 -0.4494  0.0345 -0.0003
 7725SOL    HW134808   2.123   2.299   1.420 -1.6829  0.0515 -2.1098
 7725SOL    HW234809   1.986   2.349   1.423  0.5822  0.9085 -0.0285
 7726SOL     OW34810   0.198   1.230  10.604 -0.1746 -0.1029  0.3270
 7726SOL    HW134811   0.277   1.225  10.656 -1.5121 -1.1079  2.2694
 7726SOL    HW234812   0.163   1.311  10.641 -0.2949 -0.8921  1.9561
 7727SOL     OW34813   1.359   1.109   0.642  0.0383 -0.0342 -0.2297
 7727SOL    HW134814   1.431   1.048   0.661 -0.4396 -0.5186  0.0158
 7727SOL    HW234815   1.290   1.054   0.680 -0.3769 -0.9740 -2.3660
 7728SOL     OW34816   3.542   1.074   8.279  0.1579 -0.3848 -0.3122
 7728SOL    HW134817   3.544   1.142   8.212  0.3617 -0.4756 -0.3970
 7728SOL    HW234818   3.503   1.120   8.354 -2.4987  0.6629 -2.3580
 7729SOL     OW34819   1.133   0.727   7.281 -0.1607  0.1242  0.6824
 7729SOL    HW134820   1.151   0.807   7.231  0.3360  0.3955  1.2983
 7729SOL    HW234821   1.221   0.703   7.311 -0.7724 -0.7804  1.7067
 7730SOL     OW34822   4.738   2.257  13.249  0.1146 -0.0851  0.3270
 7730SOL    HW134823   0.054   2.332  13.270 -1.6923  0.9864  1.3094
 7730SOL    HW234824   4.653   2.299  13.259  0.3321  0.3430  0.3717
 7731SOL     OW34825   1.335   3.413   7.226 -0.3865 -0.0728 -0.1205
 7731SOL    HW134826   1.413   3.389   7.277 -0.1924  2.4465  0.7688
 7731SOL    HW234827   1.312   3.501   7.257  0.7285  1.1447 -2.6431
 7732SOL     OW34828   1.251   3.605   5.819  0.1903  0.3559  0.3348
 7732SOL    HW134829   1.319   3.554   5.775 -0.0337 -0.8246  1.3427
 7732SOL    HW234830   1.301   3.663   5.876  1.2318 -1.6597  1.4598
 7733SOL     OW34831   1.936   2.202   3.446  0.1159 -0.4360 -0.4444
 7733SOL    HW134832   1.938   2.146   3.368  3.8156 -0.3004 -0.4810
 7733SOL    HW234833   1.845   2.231   3.439  0.2108 -0.2406 -0.9125
 7734SOL     OW34834   1.719   0.255   1.256  0.6790 -0.0196 -0.1877
 7734SOL    HW134835   1.656   0.218   1.318 -1.2861  1.9257 -1.0386
 7734SOL    HW234836   1.734   0.345   1.284  1.7722  0.3094 -1.8144
 7735SOL     OW34837   3.334   0.582   8.936  0.8091  0.7878  0.6240
 7735SOL    HW134838   3.396   0.511   8.918 -0.0652  0.5257 -1.3911
 7735SOL    HW234839   3.382   0.654   8.895  0.7402  1.0361  0.9868
 7736SOL     OW34840   3.755   0.074  12.608 -0.7267 -0.4244  0.0363
 7736SOL    HW134841   3.817   0.005  12.631 -3.1146 -1.8668  2.0972
 7736SOL    HW234842   3.719   0.098  12.693  0.0374  0.1851  0.1866
 7737SOL     OW34843   4.315   2.852  16.073 -0.5897 -0.7445  0.3853
 7737SOL    HW134844   4.406   2.834  16.097 -0.5133  0.2356  0.8707
 7737SOL    HW234845   4.278   2.765  16.090 -2.5446  0.0625  0.3146
 7738SOL     OW34846   2.573   2.205   9.997 -0.2209  0.4935 -0.6823
 7738SOL    HW134847   2.627   2.238   9.925 -0.8768  0.4924 -1.1678
 7738SOL    HW234848   2.494   2.180   9.949 -0.7620 -1.4603  1.2470
 7739SOL     OW34849   3.079   0.616   7.566  0.1646 -0.0472 -0.6430
 7739SOL    HW134850   3.086   0.708   7.594 -3.2216  0.0094  0.1239
 7739SOL    HW234851   2.986   0.622   7.543  0.3709  0.1683 -1.4034
 7740SOL     OW34852   3.408   4.189   3.433 -0.3822 -0.2318  0.2901
 7740SOL    HW134853   3.427   4.216   3.523  2.1314 -0.4364 -0.1797
 7740SOL    HW234854   3.336   4.131   3.457  0.2449 -0.5899  1.3043
 7741SOL     OW34855   3.574   3.198   2.480  0.2993  0.0986  0.2663
 7741SOL    HW134856   3.645   3.261   2.467  1.8072 -1.6247  0.2886
 7741SOL    HW234857   3.577   3.150   2.398 -0.6567 -0.3093  0.4645
 7742SOL     OW34858   0.081   3.434   0.031  0.0217 -0.4100 -0.4117
 7742SOL    HW134859   0.035   3.445   0.115 -1.9456 -2.8006 -1.1491
 7742SOL    HW234860   0.167   3.470   0.049 -0.9933  1.3800  0.9229
 7743SOL     OW34861   3.351   0.600   4.326 -0.0377 -0.4236  0.5695
 7743SOL    HW134862   3.329   0.509   4.305  2.0563 -0.7539 -0.2242
 7743SOL    HW234863   3.348   0.613   4.420  0.1461 -1.5593  0.7297
 7744SOL     OW34864   0.191   3.445  10.873  0.0812 -0.0870  0.6614
 7744SOL    HW134865   0.186   3.435  10.778  0.0358 -0.9099  0.7509
 7744SOL    HW234866   0.108   3.411  10.905  0.0440 -1.4339 -0.8537
 7745SOL     OW34867   3.472   3.456   9.118  0.3086 -0.2720 -0.5445
 7745SOL    HW134868   3.551   3.510   9.115  1.3522 -1.8170 -0.8987
 7745SOL    HW234869   3.442   3.469   9.028  0.9565  0.1070 -0.7059
 7746SOL     OW34870   2.632   1.142   2.460 -0.1879 -0.2284 -0.7251
 7746SOL    HW134871   2.569   1.157   2.389 -0.3345  0.2257 -0.5003
 7746SOL    HW234872   2.689   1.078   2.417  4.2241  0.1798  4.5207
 7747SOL     OW34873   4.477   2.166   3.485  0.3761 -0.6048 -0.7717
 7747SOL    HW134874   4.422   2.104   3.437  2.0121 -0.9031 -2.2736
 7747SOL    HW234875   4.555   2.114   3.502  2.1564  2.0019 -0.9246
 7748SOL     OW34876   0.060   1.198   6.047  0.1199 -0.0468 -0.2084
 7748SOL    HW134877   0.121   1.211   5.974 -0.0717 -4.0690 -1.0745
 7748SOL    HW234878   0.061   1.103   6.044  0.4360 -0.0963  1.5518
 7749SOL     OW34879   2.554   0.422   6.588  0.1142  0.2668 -0.1978
 7749SOL    HW134880   2.636   0.375   6.603  0.4223  0.4975 -1.2143
 7749SOL    HW234881   2.583   0.488   6.526 -0.7287 -1.1220 -2.0433
 7750SOL     OW34882   3.456   1.679   9.251  0.3510  0.2701 -0.6456
 7750SOL    HW134883   3.546   1.676   9.282 -0.1296 -2.0729  0.5222
 7750SOL    HW234884   3.415   1.621   9.315 -1.4386  2.3697  0.1096
 7751SOL     OW34885   4.592   0.663  11.902 -0.0060  0.5494  0.1981
 7751SOL    HW134886   4.553   0.604  11.967  1.6492 -1.5579 -0.7470
 7751SOL    HW234887   4.532   0.738  11.905  0.6159  1.0466  0.1661
 7752SOL     OW34888   2.132   2.321   1.156  0.5929  0.1442 -0.8136
 7752SOL    HW134889   2.046   2.321   1.113 -0.0716 -1.2813  0.5251
 7752SOL    HW234890   2.177   2.402   1.131  0.4959 -0.1667 -2.0107
 7753SOL     OW34891   3.301   4.242   7.545  0.2887 -0.4371 -0.4175
 7753SOL    HW134892   3.219   4.274   7.507  0.6653  2.2465  1.0145
 7753SOL    HW234893   3.275   4.244   7.637 -0.2603 -0.5457 -0.5686
 7754SOL     OW34894   2.284   4.594  10.558 -0.3412 -0.2673 -0.9079
 7754SOL    HW134895   2.273   4.640  10.641  1.4014 -1.5068  0.0094
 7754SOL    HW234896   2.374   4.621  10.543  0.3558 -1.2235  1.5788
 7755SOL     OW34897   3.236   1.099   7.198  0.0099 -0.1945 -0.1133
 7755SOL    HW134898   3.246   1.038   7.271 -0.8086 -1.3465 -0.9715
 7755SOL    HW234899   3.302   1.163   7.225  0.0483 -0.1099 -0.4019
 7756SOL     OW34900   1.771   2.658  11.321  0.1517 -0.3877  0.7022
 7756SOL    HW134901   1.765   2.669  11.416 -1.4743  0.1786  0.5215
 7756SOL    HW234902   1.863   2.635  11.307  0.0275  0.9060 -2.3016
 7757SOL     OW34903   3.289   3.891  16.860 -0.2742 -0.2687 -0.5606
 7757SOL    HW134904   3.336   3.896  16.943  1.6532 -0.7154 -1.6192
 7757SOL    HW234905   3.366   3.885  16.802  0.7240  0.9502  0.6403
 7758SOL     OW34906   1.388   1.720   4.738 -0.1758  0.0842  0.3789
 7758SOL    HW134907   1.366   1.774   4.662  0.1059  1.8082  1.5167
 7758SOL    HW234908   1.478   1.751   4.749  0.0207  0.5657 -2.5323
 7759SOL     OW34909   0.527   1.676   1.906 -0.7165  0.6138 -0.5620
 7759SOL    HW134910   0.450   1.700   1.959  0.2591  1.4542  0.4892
 7759SOL    HW234911   0.506   1.720   1.824 -3.2869  0.9006  0.2217
 7760SOL     OW34912   1.670   0.795   4.959  0.3280 -0.1609  0.3066
 7760SOL    HW134913   1.616   0.801   4.881 -0.9079  0.0462  1.1684
 7760SOL    HW234914   1.625   0.727   5.010 -0.3300 -0.5507 -0.8029
 7761SOL     OW34915   4.167   0.929  16.256 -0.8199 -0.3929 -0.1764
 7761SOL    HW134916   4.244   0.875  16.239  0.7811  0.7719  3.3300
 7761SOL    HW234917   4.194   1.020  16.239  0.1182 -0.1412  2.6306
 7762SOL     OW34918   0.701   2.011   2.901  0.0287  0.1257  0.4652
 7762SOL    HW134919   0.694   2.045   2.990 -2.2916  1.4525 -0.2202
 7762SOL    HW234920   0.616   1.975   2.877  0.6210 -0.9245 -0.1015
 7763SOL     OW34921   1.352   0.160   7.706  0.4890  0.6303 -0.1563
 7763SOL    HW134922   1.288   0.231   7.700  1.1942  1.4977  2.5988
 7763SOL    HW234923   1.435   0.200   7.680 -0.2616  1.0160 -1.9879
 7764SOL     OW34924   1.354   3.397  17.576 -0.1900 -0.1094 -0.5924
 7764SOL    HW134925   1.290   3.328  17.556  0.1408 -0.1950 -1.3579
 7764SOL    HW234926   1.334   3.413  17.668  2.7768 -0.2166  0.0703
 7765SOL     OW34927   2.632   1.104   2.992 -0.6406 -0.2379 -0.9789
 7765SOL    HW134928   2.661   1.160   2.920  0.6572  0.3661  0.0058
 7765SOL    HW234929   2.562   1.054   2.950 -1.6354  0.5474 -0.2471
 7766SOL     OW34930   0.670   3.890   5.983 -0.1415  0.2102 -0.1367
 7766SOL    HW134931   0.705   3.837   6.055  0.1792  0.4513 -0.1116
 7766SOL    HW234932   0.639   3.822   5.924  1.6542 -1.8041  1.2164
 7767SOL     OW34933   2.355   3.579  16.817  0.0446 -0.0314  0.1987
 7767SOL    HW134934   2.387   3.489  16.814  0.0699  0.1067 -3.3783
 7767SOL    HW234935   2.341   3.601  16.725 -0.5627  2.9688  0.9867
 7768SOL     OW34936   4.145   1.702  16.111  0.4967 -0.6884 -0.1326
 7768SOL    HW134937   4.222   1.650  16.132  0.9120 -0.3851 -0.8964
 7768SOL    HW234938   4.115   1.721  16.200  1.0730 -1.5499  0.2373
 7769SOL     OW34939   3.878   1.334  10.887  0.3303  0.5856  0.5513
 7769SOL    HW134940   3.910   1.344  10.976 -0.7149  1.3709  0.8470
 7769SOL    HW234941   3.907   1.245  10.868  0.4880  0.9026 -0.6802
 7770SOL     OW34942   2.573   0.142  15.508 -0.1903  0.0539  0.2463
 7770SOL    HW134943   2.494   0.112  15.462  0.3668 -0.6953 -0.2208
 7770SOL    HW234944   2.590   0.228  15.471 -0.9903 -0.1077 -0.5078
 7771SOL     OW34945   1.701   2.923   8.038 -0.5735  0.3598  0.5109
 7771SOL    HW134946   1.699   2.995   7.976  0.1585 -1.3268 -1.4763
 7771SOL    HW234947   1.794   2.929   8.062 -1.3025  2.4630  2.7429
 7772SOL     OW34948   1.591   3.420   3.790 -0.2187  0.5582 -0.0088
 7772SOL    HW134949   1.597   3.512   3.815  0.0917  0.4458  0.3323
 7772SOL    HW234950   1.590   3.420   3.694  1.8740  0.5954 -0.0234
 7773SOL     OW34951   2.360   3.579   2.293  0.0457 -0.0567 -0.5990
 7773SOL    HW134952   2.334   3.601   2.383 -1.6961  0.3620 -1.2109
 7773SOL    HW234953   2.351   3.664   2.250 -1.1816 -0.0721 -0.3747
 7774SOL     OW34954   2.045   2.067   5.173 -0.5041 -0.4582  0.4099
 7774SOL    HW134955   2.005   2.080   5.259 -1.4029 -0.4163 -0.0061
 7774SOL    HW234956   2.034   2.158   5.144  0.2447 -0.0883  1.2714
 7775SOL     OW34957   1.719   1.353   7.920  0.7298  0.1617 -0.2601
 7775SOL    HW134958   1.692   1.362   8.012  0.7668  0.1863 -0.2517
 7775SOL    HW234959   1.720   1.259   7.904  1.6555 -0.0047  0.8106
 7776SOL     OW34960   1.190   2.247   4.886 -0.4647  0.1648 -0.0609
 7776SOL    HW134961   1.245   2.173   4.862 -1.1728 -0.3709 -0.0135
 7776SOL    HW234962   1.257   2.310   4.912  0.3936 -0.8174  0.1187
 7777SOL     OW34963   0.613   3.944   2.620  0.3139 -0.0842  0.4350
 7777SOL    HW134964   0.660   3.965   2.701  2.0780  0.7947 -0.8288
 7777SOL    HW234965   0.598   3.852   2.640 -0.3217  0.0293  0.4824
 7778SOL     OW34966   0.956   3.553   3.234 -0.1184  0.1357 -0.2084
 7778SOL    HW134967   1.049   3.547   3.212 -0.3333  0.9116 -1.3170
 7778SOL    HW234968   0.934   3.466   3.201  0.7552 -0.5525  0.9920
 7779SOL     OW34969   4.380   0.169   1.148  0.5231  0.0903 -0.0349
 7779SOL    HW134970   4.300   0.212   1.119  1.9053  2.2642 -0.5564
 7779SOL    HW234971   4.441   0.240   1.164 -1.7316  1.4665  2.4864
 7780SOL     OW34972   0.109   4.000   7.902 -0.4082  0.1060 -0.3394
 7780SOL    HW134973   0.128   3.937   7.832 -0.1490 -2.6941  2.2759
 7780SOL    HW234974   0.014   3.986   7.898 -0.5133  0.3553  1.4586
 7781SOL     OW34975   2.880   4.688   6.608  0.2629 -0.0342  0.0215
 7781SOL    HW134976   2.911   0.019   6.665 -3.2144  0.7323  0.9366
 7781SOL    HW234977   2.848   4.739   6.533  0.2161 -1.3113 -0.8225
 7782SOL     OW34978   4.358   1.097   4.059 -0.8356  0.0886  0.1268
 7782SOL    HW134979   4.337   1.133   3.973  1.8284  1.1110 -0.1025
 7782SOL    HW234980   4.335   1.171   4.115  0.7732  2.1751 -1.9520
 7783SOL     OW34981   2.680   0.378  15.277 -0.1670  0.1223  0.6849
 7783SOL    HW134982   2.737   0.428  15.334 -0.5760  1.5605 -0.1649
 7783SOL    HW234983   2.732   0.364  15.198 -0.3761  2.0790  0.1916
 7784SOL     OW34984   1.671   2.017   4.223 -0.4076 -0.3983 -0.0437
 7784SOL    HW134985   1.747   2.020   4.281 -0.0208  1.4899 -0.6427
 7784SOL    HW234986   1.652   2.109   4.208  0.6532 -0.2569 -0.4982
 7785SOL     OW34987   4.586   1.614   4.384 -0.3043  0.1253  0.5057
 7785SOL    HW134988   4.581   1.666   4.304 -2.4726 -0.3706  0.3110
 7785SOL    HW234989   4.506   1.650   4.423 -0.3796  2.0136 -1.4344
 7786SOL     OW34990   3.690   2.770   6.185 -0.1609 -0.2605 -0.2082
 7786SOL    HW134991   3.673   2.680   6.157 -2.5290  0.1896 -0.1900
 7786SOL    HW234992   3.777   2.773   6.145  0.7509 -0.1321  1.7824
 7787SOL     OW34993   3.214   3.477   1.688  0.5230  0.0765 -0.6046
 7787SOL    HW134994   3.277   3.525   1.635  0.7375  0.0882 -0.3349
 7787SOL    HW234995   3.262   3.397   1.709  0.1447 -0.2452 -0.9677
 7788SOL     OW34996   1.385   2.694   4.982  0.3768 -0.4768  0.0254
 7788SOL    HW134997   1.449   2.758   4.950  0.4716 -0.7340 -0.2909
 7788SOL    HW234998   1.344   2.734   5.059 -1.7358 -0.5943 -1.0445
 7789SOL     OW34999   0.110   0.078   8.286  0.1160 -0.3673 -0.0053
 7789SOL    HW135000   0.022   0.090   8.322 -0.2968  2.2110 -1.8569
 7789SOL    HW235001   0.098   4.725   8.268  0.7675 -0.4306 -0.1226
 7790SOL     OW35002   3.120   0.130   8.770  0.5215  0.4175 -0.7220
 7790SOL    HW135003   3.185   0.134   8.700  1.4543  0.3960  0.1427
 7790SOL    HW235004   3.101   0.036   8.772  2.1595  0.1203  2.1118
 7791SOL     OW35005   3.031   1.442   1.871  0.6076 -1.0063  0.0858
 7791SOL    HW135006   2.989   1.527   1.870 -0.7068 -1.6671 -1.6736
 7791SOL    HW235007   3.067   1.447   1.959 -1.0833 -1.9995  0.8196
 7792SOL     OW35008   4.463   1.830   3.535  0.0024  0.5901  0.0460
 7792SOL    HW135009   4.451   1.886   3.458 -1.4868  0.5504  0.2401
 7792SOL    HW235010   4.370   1.829   3.556  0.1918  1.5276  0.9176
 7793SOL     OW35011   3.907   3.689  16.287  0.0326 -0.0764 -0.3729
 7793SOL    HW135012   3.816   3.692  16.315 -0.2015  0.7313 -1.2424
 7793SOL    HW235013   3.935   3.779  16.300 -3.7041  1.0062  0.0702
 7794SOL     OW35014   1.392   2.176   5.798  0.0155 -0.1149 -0.1174
 7794SOL    HW135015   1.404   2.085   5.825 -3.3510 -0.7877 -0.8871
 7794SOL    HW235016   1.463   2.200   5.739 -0.7704 -0.3505 -1.1595
 7795SOL     OW35017   1.601   0.557   7.628  0.0572 -0.4437 -0.3600
 7795SOL    HW135018   1.640   0.643   7.645  1.3891 -1.0723 -0.1733
 7795SOL    HW235019   1.649   0.505   7.692 -4.2665 -1.9912  1.6218
 7796SOL     OW35020   3.445   3.035  12.260 -0.0386  0.8499  0.3553
 7796SOL    HW135021   3.350   3.039  12.256  0.1018  1.4634 -2.0369
 7796SOL    HW235022   3.452   2.981  12.339  1.8797 -0.7051 -0.8781
 7797SOL     OW35023   4.540   0.048   3.425 -0.2714  0.0374  0.3437
 7797SOL    HW135024   4.478   0.102   3.376  0.0882 -0.2291 -0.4009
 7797SOL    HW235025   4.530   4.701   3.385 -1.1580  0.9548 -1.3894
 7798SOL     OW35026   1.700   2.661   7.781  0.8197  0.3808  0.6680
 7798SOL    HW135027   1.655   2.703   7.855 -1.7138  0.5373 -0.9841
 7798SOL    HW235028   1.731   2.734   7.728 -0.7099  1.3830  1.1661
 7799SOL     OW35029   4.629   2.559  13.094  0.5946  0.0564 -0.6909
 7799SOL    HW135030   4.646   2.646  13.058  0.4321  1.3156  2.2480
 7799SOL    HW235031   4.672   2.497  13.035  1.1263 -0.2570  0.0313
 7800SOL     OW35032   3.476   1.727  10.118  0.3691 -0.2944 -0.0672
 7800SOL    HW135033   3.551   1.735  10.177 -0.5593  0.4941  1.0167
 7800SOL    HW235034   3.457   1.817  10.092 -1.5876 -0.9447 -0.8801
 7801SOL     OW35035   0.606   0.433   3.512 -0.0499  0.1677 -0.1670
 7801SOL    HW135036   0.535   0.486   3.476 -0.7123 -1.1761 -0.8059
 7801SOL    HW235037   0.640   0.500   3.572 -0.9646  0.9883 -0.5752
 7802SOL     OW35038   4.644   2.118   7.727  1.0126  0.2982  0.3154
 7802SOL    HW135039   4.610   2.115   7.638  0.0361  1.2749  0.6472
 7802SOL    HW235040   4.724   2.065   7.722  0.3259 -0.8401  1.1495
 7803SOL     OW35041   4.072   2.171   3.027  0.7279  0.1741 -0.9043
 7803SOL    HW135042   4.005   2.192   2.962  0.9252 -0.0592 -1.1836
 7803SOL    HW235043   4.135   2.108   2.992 -0.3962 -1.7198  0.4313
 7804SOL     OW35044   4.494   0.689   4.722 -0.1192  0.2254 -0.3235
 7804SOL    HW135045   4.583   0.690   4.757 -0.3808  1.5520  0.3093
 7804SOL    HW235046   4.467   0.608   4.765 -1.5579  0.4821 -0.7674
 7805SOL     OW35047   1.866   1.949  11.905 -0.5282  0.4077  0.1111
 7805SOL    HW135048   1.823   1.920  11.825 -0.6302 -0.6579  0.5489
 7805SOL    HW235049   1.952   1.973  11.871  0.3996  0.3238  2.3787
 7806SOL     OW35050   3.854   2.918  17.279  0.1769 -0.3144 -0.0592
 7806SOL    HW135051   3.946   2.943  17.281  0.0760 -0.0261  1.5926
 7806SOL    HW235052   3.808   2.998  17.304 -0.5623 -0.1823 -1.8532
 7807SOL     OW35053   4.564   0.330   9.034  0.7330  0.4543 -0.1539
 7807SOL    HW135054   4.593   0.253   8.985  0.0487 -0.3817  0.7553
 7807SOL    HW235055   4.471   0.307   9.041  0.5911  0.7337 -1.1455
 7808SOL     OW35056   3.991   2.851   3.131 -0.0036 -0.4700  0.4692
 7808SOL    HW135057   3.968   2.763   3.159 -0.2068 -0.8498 -0.9148
 7808SOL    HW235058   3.966   2.858   3.039  2.5039  2.4986 -0.0228
 7809SOL     OW35059   0.615   2.048  14.653  0.2749 -0.2400  0.0615
 7809SOL    HW135060   0.675   1.993  14.705  0.8371  1.0389  0.7818
 7809SOL    HW235061   0.667   2.055  14.573  2.2302 -0.4479  1.2844
 7810SOL     OW35062   3.353   1.603   8.267  0.3306  0.0188 -0.4130
 7810SOL    HW135063   3.322   1.570   8.351 -0.4862 -0.8867 -1.0561
 7810SOL    HW235064   3.442   1.613   8.300  1.0421 -2.0909 -1.6538
 7811SOL     OW35065   0.202   3.973   9.634  0.2113 -0.2022  0.5190
 7811SOL    HW135066   0.224   3.963   9.727 -1.4118 -0.6918  0.8559
 7811SOL    HW235067   0.113   4.009   9.641 -0.6325 -2.0478 -0.7125
 7812SOL     OW35068   3.635   3.716   1.363 -0.0059  0.1933  0.1522
 7812SOL    HW135069   3.585   3.669   1.430 -0.6710  0.3063 -0.2669
 7812SOL    HW235070   3.568   3.776   1.332 -0.0827 -0.4498 -0.9485
 7813SOL     OW35071   2.723   2.696   9.441  0.4949 -0.4563 -0.5718
 7813SOL    HW135072   2.746   2.606   9.461 -0.7344 -0.3031  1.5101
 7813SOL    HW235073   2.781   2.741   9.502  0.1689  0.3206 -0.8280
 7814SOL     OW35074   3.642   3.646   7.311 -0.1468  0.1604  0.1184
 7814SOL    HW135075   3.623   3.638   7.217 -0.8619  0.6038  0.2329
 7814SOL    HW235076   3.737   3.643   7.299 -0.1386 -0.2099  0.2596
 7815SOL     OW35077   0.954   2.411  14.909 -0.0964 -0.0093  0.0115
 7815SOL    HW135078   0.896   2.460  14.967 -1.0691  1.4407 -2.1532
 7815SOL    HW235079   0.883   2.367  14.861 -0.2924  0.7425 -0.3765
 7816SOL     OW35080   2.916   2.617   1.836  0.3283 -0.2729  0.1539
 7816SOL    HW135081   3.005   2.600   1.804  0.4898 -0.7586  0.8502
 7816SOL    HW235082   2.897   2.530   1.872  1.7531 -0.8570 -0.4952
 7817SOL     OW35083   2.345   2.615   6.985  0.3793  0.4766  0.0597
 7817SOL    HW135084   2.389   2.634   7.068  2.7193 -0.0292 -1.0616
 7817SOL    HW235085   2.415   2.627   6.920  0.0591 -1.1448 -0.5823
 7818SOL     OW35086   4.309   0.461   5.507  0.3012 -0.2869  0.9599
 7818SOL    HW135087   4.267   0.522   5.446  2.3915  1.0605  0.8727
 7818SOL    HW235088   4.371   0.518   5.551  1.6442 -1.5593  0.7292
 7819SOL     OW35089   3.813   1.789   8.071  0.6722  0.4515 -0.6758
 7819SOL    HW135090   3.782   1.832   7.992  1.6718 -1.1922 -1.9873
 7819SOL    HW235091   3.799   1.696   8.049  0.6178  0.1234  0.7569
 7820SOL     OW35092   0.331   4.639   2.329  0.4590 -0.7345  0.2886
 7820SOL    HW135093   0.245   4.601   2.347  0.0677  0.7242  1.4592
 7820SOL    HW235094   0.335   4.622   2.235  1.5793  0.7670  0.0621
 7821SOL     OW35095   3.903   1.840   6.596 -0.1266 -0.2656  0.1581
 7821SOL    HW135096   3.920   1.822   6.503 -1.3636 -0.0359 -0.1063
 7821SOL    HW235097   3.993   1.812   6.614 -0.4801  0.1310  2.5008
 7822SOL     OW35098   0.374   2.476   4.201  0.0160  0.3210 -0.0518
 7822SOL    HW135099   0.310   2.531   4.246  1.3649  0.8782  1.1784
 7822SOL    HW235100   0.409   2.531   4.130  1.4120  0.2035  0.5496
 7823SOL     OW35101   4.015   3.000   7.883  0.4262 -0.1990  0.1648
 7823SOL    HW135102   4.071   2.966   7.953  0.5570 -0.7425 -0.2066
 7823SOL    HW235103   3.980   3.074   7.933  0.7819  0.7996 -1.0629
 7824SOL     OW35104   0.834   3.291   2.412  0.0978 -0.4528 -0.2201
 7824SOL    HW135105   0.921   3.280   2.450 -0.1804 -1.9578 -0.0289
 7824SOL    HW235106   0.785   3.234   2.470  2.0866 -1.0777  0.8570
 7825SOL     OW35107   4.738   0.719   9.830 -0.4809  0.3716 -0.3829
 7825SOL    HW135108   4.655   0.753   9.797  0.5959  1.1519 -2.2907
 7825SOL    HW235109   4.724   0.739   9.923 -0.7094 -0.3753 -0.2508
 7826SOL     OW35110   3.058   4.310   0.704  0.6473  0.0396 -0.1814
 7826SOL    HW135111   3.120   4.336   0.771  0.5449  1.4376 -0.6304
 7826SOL    HW235112   3.111   4.239   0.667 -0.6029 -1.6678  1.3269
 7827SOL     OW35113   2.426   0.198  10.688 -0.1064  0.1437  0.3868
 7827SOL    HW135114   2.341   0.156  10.704  0.5087 -0.2662  2.6262
 7827SOL    HW235115   2.409   0.210  10.595 -0.0959  1.6068  0.5743
 7828SOL     OW35116   1.368   1.608   2.378 -0.7047  0.0892 -0.2574
 7828SOL    HW135117   1.377   1.514   2.357 -0.8734  0.2302 -0.9609
 7828SOL    HW235118   1.330   1.607   2.465  0.7636  1.5801  0.3975
 7829SOL     OW35119   1.265   2.329  11.569 -0.1149  0.1818 -0.1192
 7829SOL    HW135120   1.345   2.380  11.556 -0.3393  0.8618  1.1557
 7829SOL    HW235121   1.269   2.318  11.664  1.0096  1.0925 -0.0543
 7830SOL     OW35122   1.885   0.954   7.586 -0.3784  0.6793 -0.0835
 7830SOL    HW135123   1.818   0.958   7.655 -0.6026  0.4642 -0.2889
 7830SOL    HW235124   1.921   0.866   7.584 -1.2832  0.3333 -0.9604
 7831SOL     OW35125   2.862   4.132  17.473  0.1646 -0.3879  0.1378
 7831SOL    HW135126   2.774   4.169  17.468  0.0659 -0.7520 -0.7907
 7831SOL    HW235127   2.857   4.103  17.382 -0.3841 -0.2983  0.1410
 7832SOL     OW35128   3.421   2.326   1.949 -0.6617 -0.0282  0.1219
 7832SOL    HW135129   3.446   2.394   2.011 -0.3264 -0.4520  0.4509
 7832SOL    HW235130   3.477   2.254   1.978  0.8650  1.5568  1.0472
 7833SOL     OW35131   1.757   3.906  16.826  0.4480 -0.1902 -0.7759
 7833SOL    HW135132   1.682   3.887  16.770  0.8099 -2.4720 -0.5089
 7833SOL    HW235133   1.709   3.948  16.897  1.5760  0.8588 -0.6276
 7834SOL     OW35134   1.284   0.024  11.832  0.7755 -0.7179 -0.1134
 7834SOL    HW135135   1.244   0.111  11.834  0.7879 -0.7376  1.2029
 7834SOL    HW235136   1.298   4.735  11.922 -1.8016 -0.2839  0.4518
 7835SOL     OW35137   1.462   1.128   5.872 -0.6392  0.4251  0.5557
 7835SOL    HW135138   1.549   1.130   5.911  0.4844  0.2320 -1.9593
 7835SOL    HW235139   1.407   1.186   5.925 -2.1931 -1.6953  1.2790
 7836SOL     OW35140   1.938   1.903   4.718 -0.2755  0.1792 -0.1359
 7836SOL    HW135141   1.971   1.855   4.794  0.3780  1.3767  0.3389
 7836SOL    HW235142   1.929   1.988   4.761 -1.7755 -0.7938  1.4889
 7837SOL     OW35143   4.554   4.625   9.568 -0.6620 -0.4734 -0.0841
 7837SOL    HW135144   4.554   4.709   9.613  0.8697  1.0712 -2.9688
 7837SOL    HW235145   4.508   4.651   9.488  1.2691 -1.0449 -1.3910
 7838SOL     OW35146   3.999   2.002  14.023  0.2234 -0.3289 -0.1195
 7838SOL    HW135147   4.010   1.912  13.992  0.4478  0.4392 -2.2563
 7838SOL    HW235148   3.953   2.031  13.944  0.1524 -0.7615 -0.2361
 7839SOL     OW35149   0.040   2.070   2.404 -0.6160  0.6358  0.5014
 7839SOL    HW135150   0.071   2.086   2.493  3.9589  0.9673 -1.1276
 7839SOL    HW235151   4.704   2.129   2.405  0.2380  1.7082  2.3049
 7840SOL     OW35152   1.061   4.164   4.373  0.2938 -0.2431  0.1516
 7840SOL    HW135153   1.003   4.221   4.322  1.2057  0.7002  0.1701
 7840SOL    HW235154   0.996   4.112   4.420 -0.9717 -0.2660 -1.6207
 7841SOL     OW35155   2.189   2.863   4.390  0.5097 -0.0041  0.1763
 7841SOL    HW135156   2.168   2.924   4.319 -0.4763  0.1183  0.5766
 7841SOL    HW235157   2.260   2.816   4.345  1.0294  1.4489 -0.5283
 7842SOL     OW35158   0.351   3.245   3.264 -0.0698 -0.0593 -0.1676
 7842SOL    HW135159   0.391   3.325   3.298 -1.7036  0.7191 -0.1031
 7842SOL    HW235160   0.268   3.287   3.243 -1.6972 -2.6144  1.1283
 7843SOL     OW35161   3.425   2.405  16.585 -0.4900  0.3533 -0.0787
 7843SOL    HW135162   3.342   2.384  16.543 -0.1038 -1.1703 -0.0736
 7843SOL    HW235163   3.451   2.483  16.536 -0.4486 -0.3866 -1.2174
 7844SOL     OW35164   4.223   1.360   7.991  0.0758  0.4855  0.4500
 7844SOL    HW135165   4.247   1.444   7.951 -0.0179 -0.5773 -1.8454
 7844SOL    HW235166   4.278   1.364   8.070  1.3155  0.9495 -0.4358
 7845SOL     OW35167   1.991   3.203  10.865 -0.1389 -0.1439 -0.2524
 7845SOL    HW135168   1.961   3.161  10.945  2.1943 -0.3563  0.5221
 7845SOL    HW235169   2.012   3.128  10.809 -0.2342  1.7420 -2.8337
 7846SOL     OW35170   1.910   2.508   7.509  0.1832  0.7328 -0.4332
 7846SOL    HW135171   1.944   2.524   7.597  1.3421 -0.2376 -0.7161
 7846SOL    HW235172   1.988   2.463   7.476  0.3717 -0.1324  1.2204
 7847SOL     OW35173   4.342   2.426   6.731  0.3425  0.1857 -0.2597
 7847SOL    HW135174   4.330   2.514   6.696 -4.3764 -0.2309  0.3423
 7847SOL    HW235175   4.306   2.432   6.819 -1.0764 -2.4663 -0.6613
 7848SOL     OW35176   3.707   1.809  14.015  0.2485 -0.0722  0.1646
 7848SOL    HW135177   3.625   1.785  13.973  1.2505  0.6406 -2.2158
 7848SOL    HW235178   3.756   1.727  14.026 -0.7667 -0.9156 -1.5913
 7849SOL     OW35179   0.865   1.494  10.967  0.2726  0.1934  0.1009
 7849SOL    HW135180   0.913   1.520  11.046  0.2226 -1.9236  0.8210
 7849SOL    HW235181   0.777   1.526  10.988  0.4211  0.6390  0.0550
 7850SOL     OW35182   0.725   2.990   3.231  0.0357  0.7253  0.1294
 7850SOL    HW135183   0.708   3.016   3.140 -0.2746 -0.5504 -0.1774
 7850SOL    HW235184   0.789   2.919   3.217  0.6240  1.0563  1.1370
 7851SOL     OW35185   1.623   3.603  14.253  0.4468 -0.8775 -0.3521
 7851SOL    HW135186   1.716   3.579  14.254 -0.0040 -2.4960  2.1440
 7851SOL    HW235187   1.580   3.541  14.311 -0.2375 -0.6943 -0.6594
 7852SOL     OW35188   2.827   4.518   4.646  0.3279 -0.0437  0.1880
 7852SOL    HW135189   2.783   4.538   4.729 -1.0836 -1.6823 -0.1695
 7852SOL    HW235190   2.755   4.524   4.584  0.7853 -2.3913 -0.5409
 7853SOL     OW35191   3.008   2.863  17.022  0.1423 -0.2080 -0.4958
 7853SOL    HW135192   3.005   2.780  17.070  1.2454 -0.2461 -0.4845
 7853SOL    HW235193   3.032   2.830  16.935  1.1520 -2.6382  0.6876
 7854SOL     OW35194   0.196   1.858   6.472  0.1290  0.0706  0.3034
 7854SOL    HW135195   0.283   1.849   6.510  1.1166 -0.3413 -2.0529
 7854SOL    HW235196   0.146   1.778   6.493 -0.1222  0.3968  0.9620
 7855SOL     OW35197   3.312   0.708   6.102 -0.3380 -0.9443 -0.0307
 7855SOL    HW135198   3.236   0.763   6.082  0.6411  0.0561 -1.0002
 7855SOL    HW235199   3.336   0.690   6.011  0.6200 -1.0743  0.2425
 7856SOL     OW35200   2.307   3.471  17.378 -0.1043  0.7556 -0.6727
 7856SOL    HW135201   2.316   3.565  17.361  2.5416  0.6844  0.2408
 7856SOL    HW235202   2.230   3.465  17.434  0.2571 -2.9206 -0.5620
 7857SOL     OW35203   3.974   1.677   8.732  0.1237  0.1961 -0.0729
 7857SOL    HW135204   4.021   1.597   8.756  1.6912  1.7138  1.9493
 7857SOL    HW235205   3.884   1.656   8.758  0.8054 -1.0732  1.2907
 7858SOL     OW35206   1.829   1.591   5.155 -0.0235  0.4470 -0.0537
 7858SOL    HW135207   1.737   1.617   5.159 -0.2007 -0.1566 -0.2287
 7858SOL    HW235208   1.840   1.568   5.247  0.7284  0.2289 -0.1924
 7859SOL     OW35209   1.581   3.740   5.026 -0.1133 -0.2238 -0.4139
 7859SOL    HW135210   1.565   3.826   5.066 -0.0335 -0.6636  0.5835
 7859SOL    HW235211   1.664   3.752   4.981 -0.6685  1.5145 -0.9719
 7860SOL     OW35212   1.565   3.347   2.249 -0.3340  0.3586 -0.5052
 7860SOL    HW135213   1.548   3.285   2.178 -0.6616  0.7072 -0.7310
 7860SOL    HW235214   1.657   3.333   2.271  0.0557  1.9200 -1.1914
 7861SOL     OW35215   0.702   0.962   0.808 -0.2600 -0.2946 -0.5910
 7861SOL    HW135216   0.635   1.011   0.855 -1.6682 -2.2892 -0.4820
 7861SOL    HW235217   0.661   0.876   0.820  0.4573 -0.5391  0.0848
 7862SOL     OW35218   3.548   3.709   6.078 -0.6047 -0.3176  0.2767
 7862SOL    HW135219   3.522   3.619   6.059 -0.4699 -0.5311  1.1398
 7862SOL    HW235220   3.595   3.701   6.160  3.5645 -1.5698 -2.2277
 7863SOL     OW35221   3.472   1.124   2.757 -0.2431 -0.2420 -0.2506
 7863SOL    HW135222   3.560   1.158   2.744 -0.7654  1.4084  0.4711
 7863SOL    HW235223   3.471   1.069   2.679  0.1565  0.5462 -0.8092
 7864SOL     OW35224   3.972   2.748   7.183 -0.1317  0.2897  0.3577
 7864SOL    HW135225   3.961   2.748   7.278  1.0912 -1.9920  0.4932
 7864SOL    HW235226   3.907   2.808   7.146  2.0751  1.7355 -1.2123
 7865SOL     OW35227   2.029   4.145   1.161 -0.8021  0.1558  0.0995
 7865SOL    HW135228   1.964   4.076   1.168  0.4537 -0.9221  1.1859
 7865SOL    HW235229   2.032   4.196   1.242  0.3170 -0.3302  0.3715
 7866SOL     OW35230   2.639   1.491   8.774 -0.1484  0.5252 -0.2463
 7866SOL    HW135231   2.641   1.414   8.831  1.3025  0.9759  0.3147
 7866SOL    HW235232   2.581   1.459   8.705  1.3473  1.4035 -1.9230
 7867SOL     OW35233   2.106   3.744   1.344 -0.1362  0.6098  0.5088
 7867SOL    HW135234   2.066   3.827   1.317 -1.5037 -0.1709  0.1085
 7867SOL    HW235235   2.197   3.774   1.350  0.4294 -1.4282  2.0566
 7868SOL     OW35236   2.531   2.241   3.889 -0.0532  0.0593  0.4610
 7868SOL    HW135237   2.523   2.250   3.984 -0.4792 -2.8973  0.7268
 7868SOL    HW235238   2.467   2.170   3.882  0.0437  0.1478 -1.2840
 7869SOL     OW35239   0.533   0.775   6.267  0.2291 -0.0636  0.1491
 7869SOL    HW135240   0.578   0.704   6.313 -0.5867 -0.9107 -0.3306
 7869SOL    HW235241   0.445   0.761   6.302  0.6263  0.1261  1.2212
 7870SOL     OW35242   0.936   2.335   3.806  0.6275 -0.4982  0.2548
 7870SOL    HW135243   0.869   2.267   3.818 -0.3493 -0.2100 -3.4337
 7870SOL    HW235244   1.007   2.277   3.779  0.6901  0.3552 -1.4703
 7871SOL     OW35245   3.036   1.360   4.728 -0.0032  0.2150 -0.3195
 7871SOL    HW135246   3.037   1.353   4.632  2.1597  1.2992 -0.3799
 7871SOL    HW235247   3.036   1.266   4.749 -0.6055  0.8499  2.3844
 7872SOL     OW35248   3.008   0.050   7.877 -0.2559 -0.2273 -0.2881
 7872SOL    HW135249   2.992   0.072   7.968 -1.2430  1.7640 -0.9500
 7872SOL    HW235250   3.075   4.721   7.869  0.3499  0.1208  1.7549
 7873SOL     OW35251   2.900   4.646   5.029 -0.8517 -0.0870 -0.1108
 7873SOL    HW135252   2.958   4.684   4.963 -0.3923  2.1777  1.5992
 7873SOL    HW235253   2.826   4.627   4.971 -0.7172 -1.7923  0.2541
 7874SOL     OW35254   0.352   3.900  14.649  0.2494  0.3969 -0.2124
 7874SOL    HW135255   0.439   3.868  14.627 -0.1315 -2.0268  1.8417
 7874SOL    HW235256   0.331   3.947  14.569  3.4506 -0.1481 -1.3808
 7875SOL     OW35257   1.735   0.516  16.461  0.0922 -0.3366  0.1210
 7875SOL    HW135258   1.669   0.459  16.422  0.2360 -1.3116  1.3199
 7875SOL    HW235259   1.774   0.540  16.377 -1.1399 -0.3572 -0.4603
 7876SOL     OW35260   1.263   4.150   9.319  0.1212 -0.1008 -0.1810
 7876SOL    HW135261   1.327   4.221   9.313 -0.6705  0.6805  0.4192
 7876SOL    HW235262   1.195   4.208   9.353 -1.4683 -1.6702 -0.6847
 7877SOL     OW35263   4.118   4.580   6.084 -0.2532  0.8424  0.1936
 7877SOL    HW135264   4.066   4.513   6.039  1.9318  0.2447 -1.4515
 7877SOL    HW235265   4.100   4.560   6.176 -1.0224  0.2431 -0.0865
 7878SOL     OW35266   4.080   1.585   3.796 -0.5071 -0.5212 -0.1585
 7878SOL    HW135267   3.991   1.554   3.782 -1.0721 -0.8815  4.2528
 7878SOL    HW235268   4.133   1.525   3.743 -0.4806 -2.1301  1.6489
 7879SOL     OW35269   0.981   0.776   0.489  0.5401  0.1255 -0.2322
 7879SOL    HW135270   0.973   0.700   0.431  1.0133  0.6616 -1.0034
 7879SOL    HW235271   1.012   0.729   0.566  2.8792  0.0984 -1.1874
 7880SOL     OW35272   4.058   3.601  13.633 -0.2442 -0.2674 -0.0002
 7880SOL    HW135273   3.963   3.600  13.649 -0.0439  0.2682  1.2351
 7880SOL    HW235274   4.070   3.650  13.552 -0.4216  0.2056  0.2575
 7881SOL     OW35275   0.183   2.146   3.115 -0.0280 -1.2425 -0.0666
 7881SOL    HW135276   0.099   2.164   3.158  0.5769  0.6245  0.2900
 7881SOL    HW235277   0.171   2.068   3.060 -2.1009 -2.4853  2.1515
 7882SOL     OW35278   4.349   4.613  10.675 -0.6332 -0.4700  0.2055
 7882SOL    HW135279   4.374   4.532  10.720  2.4863  1.0487  1.1942
 7882SOL    HW235280   4.399   4.596  10.596 -3.4744 -0.7393 -1.5479
 7883SOL     OW35281   2.308   2.361   4.929 -0.2579 -1.0059 -0.2382
 7883SOL    HW135282   2.295   2.278   4.975  0.7748 -0.6406  0.7110
 7883SOL    HW235283   2.359   2.406   4.996  0.1510 -2.1078  0.1997
 7884SOL     OW35284   2.878   4.181  14.574 -0.1006  0.3261  0.3062
 7884SOL    HW135285   2.915   4.098  14.604 -0.1648  0.2075  0.0611
 7884SOL    HW235286   2.868   4.168  14.479  1.4665  2.1169 -0.1016
 7885SOL     OW35287   1.914   0.552  13.562  0.2365  0.4628 -0.0970
 7885SOL    HW135288   1.898   0.563  13.468 -2.8783  1.6138  0.5535
 7885SOL    HW235289   1.991   0.608  13.572  0.0644  0.2938  2.2186
 7886SOL     OW35290   4.640   2.112  10.117 -0.6354 -0.0369 -0.2041
 7886SOL    HW135291   4.586   2.094  10.194 -1.1418 -0.8029 -0.7471
 7886SOL    HW235292   4.578   2.112  10.044 -0.1410 -0.4567 -0.6259
 7887SOL     OW35293   3.399   4.302   1.938 -0.0522 -0.4986 -0.4029
 7887SOL    HW135294   3.392   4.267   1.849 -2.4504  0.1237 -0.4740
 7887SOL    HW235295   3.479   4.263   1.973 -1.0285 -0.6771  1.6340
 7888SOL     OW35296   1.208   3.193   9.514 -0.1413 -0.0848 -0.0013
 7888SOL    HW135297   1.225   3.275   9.559  0.2042 -1.1443  1.8044
 7888SOL    HW235298   1.274   3.198   9.444  0.6749  4.4042  1.0900
 7889SOL     OW35299   0.511   3.886   6.690  0.1851  0.5925 -0.1325
 7889SOL    HW135300   0.560   3.941   6.750  1.0079  0.1080 -0.3549
 7889SOL    HW235301   0.507   3.932   6.606  0.4904  1.2439  0.2139
 7890SOL     OW35302   0.295   2.419   5.666 -0.8494 -0.0685 -0.7911
 7890SOL    HW135303   0.231   2.469   5.716 -1.4683 -2.1310  0.4533
 7890SOL    HW235304   0.283   2.451   5.576  0.7037 -0.5875 -1.1815
 7891SOL     OW35305   1.892   1.142   2.497 -0.1352  0.0957  0.6821
 7891SOL    HW135306   1.798   1.122   2.496  0.3492 -2.1149 -0.1439
 7891SOL    HW235307   1.885   1.237   2.485 -2.4804 -0.1729 -0.1081
 7892SOL     OW35308   0.683   1.711  10.248 -0.0275 -0.0557  0.0402
 7892SOL    HW135309   0.771   1.745  10.236 -0.4107  0.9848  0.1334
 7892SOL    HW235310   0.659   1.717  10.340 -0.9851  1.8586 -0.3281
 7893SOL     OW35311   2.472   2.359   2.868 -0.2443  0.6130  0.1193
 7893SOL    HW135312   2.465   2.269   2.901 -1.3469  0.5275 -0.3216
 7893SOL    HW235313   2.397   2.394   2.916 -0.6504  0.9371 -0.7373
 7894SOL     OW35314   1.872   1.546   2.895  0.1795  0.2683  0.4146
 7894SOL    HW135315   1.913   1.557   2.810  4.2354 -0.2464  2.3129
 7894SOL    HW235316   1.791   1.508   2.860 -0.4427  1.7737  0.2210
 7895SOL     OW35317   0.356   1.680   9.025  0.1576 -0.0259  0.3703
 7895SOL    HW135318   0.281   1.688   9.083 -0.0247 -0.3175  0.1744
 7895SOL    HW235319   0.354   1.596   8.979 -0.4370 -0.0932  0.5149
 7896SOL     OW35320   2.224   0.484   4.249 -0.1869  0.3455 -0.6664
 7896SOL    HW135321   2.284   0.532   4.305 -0.4365  0.8067 -0.7970
 7896SOL    HW235322   2.281   0.468   4.173  0.0223  0.3388 -0.5052
 7897SOL     OW35323   0.020   1.354   2.909  0.7109  0.1159 -0.5544
 7897SOL    HW135324   0.057   1.387   2.827  0.1793  0.5775 -0.6098
 7897SOL    HW235325   0.086   1.286   2.921 -0.1498 -0.9089 -1.6823
 7898SOL     OW35326   3.687   1.694   6.692  0.5031 -0.2264 -0.1250
 7898SOL    HW135327   3.741   1.643   6.752  1.6970  0.1737 -0.8798
 7898SOL    HW235328   3.749   1.757   6.656  0.1090 -0.2290 -0.8074
 7899SOL     OW35329   1.902   2.350   5.544  0.4107 -0.1769 -0.4496
 7899SOL    HW135330   1.989   2.381   5.571  0.1752 -0.2713  0.4427
 7899SOL    HW235331   1.849   2.426   5.567  1.0190 -0.0265  0.4829
 7900SOL     OW35332   0.264   0.880   5.580 -0.6805  0.5749 -0.4126
 7900SOL    HW135333   0.310   0.797   5.587 -0.7024  0.5688 -0.3383
 7900SOL    HW235334   0.258   0.905   5.672 -0.9616  1.8573 -0.7803
 7901SOL     OW35335   1.010   1.052   7.126  0.0613 -0.0881 -0.2835
 7901SOL    HW135336   0.920   1.084   7.114 -0.5936 -1.5064  0.8503
 7901SOL    HW235337   1.019   1.091   7.214 -0.9202  1.7003 -0.9597
 7902SOL     OW35338   2.129   3.552   7.036 -0.1979 -0.6553  0.3281
 7902SOL    HW135339   2.075   3.542   7.114  1.5200 -2.5381  1.2664
 7902SOL    HW235340   2.150   3.645   7.035 -2.0467 -0.2489 -1.0810
 7903SOL     OW35341   0.843   3.581   9.347 -0.6320  0.0574 -0.2815
 7903SOL    HW135342   0.916   3.532   9.383  1.5108  3.5413  0.1016
 7903SOL    HW235343   0.779   3.579   9.419  0.4150  0.4754  0.6698
 7904SOL     OW35344   3.138   4.314   2.946  0.4072 -0.6698 -0.4378
 7904SOL    HW135345   3.211   4.285   3.000  0.7357  1.4759  0.2965
 7904SOL    HW235346   3.179   4.395   2.913  0.4641 -0.1651  0.8517
 7905SOL     OW35347   3.771   4.168  13.591  0.0036 -0.5265  0.3860
 7905SOL    HW135348   3.858   4.183  13.552 -0.0641 -0.6369  0.1903
 7905SOL    HW235349   3.791   4.114  13.668  0.0352  0.0924  0.8089
 7906SOL     OW35350   3.415   0.729   7.543  0.9787 -0.0023  0.3307
 7906SOL    HW135351   3.476   0.725   7.616  0.8096 -1.1413  0.4085
 7906SOL    HW235352   3.345   0.670   7.571 -0.4381  1.3801 -0.2649
 7907SOL     OW35353   4.063   2.196   0.342 -0.5855  0.1238 -0.0478
 7907SOL    HW135354   4.013   2.236   0.413 -0.9168  2.3107 -1.5007
 7907SOL    HW235355   4.098   2.116   0.380 -2.7422 -0.5282  0.5615
 7908SOL     OW35356   0.993   0.405   2.310  0.1476 -0.6771 -0.1731
 7908SOL    HW135357   1.037   0.488   2.293  0.0355 -0.3895  0.9738
 7908SOL    HW235358   0.955   0.421   2.396  1.1614  1.9270 -0.2169
 7909SOL     OW35359   2.294   4.627   0.526  0.9155  0.4091  0.2901
 7909SOL    HW135360   2.304   4.532   0.520  0.7594  0.5208 -1.7203
 7909SOL    HW235361   2.336   4.649   0.443  2.8658 -2.9638  0.3928
 7910SOL     OW35362   3.713   2.482   5.375 -0.2122  0.5148  0.1600
 7910SOL    HW135363   3.661   2.490   5.295  1.0992 -0.9976 -0.8430
 7910SOL    HW235364   3.664   2.535   5.437  1.1271  2.8623 -0.8041
 7911SOL     OW35365   3.190   3.637   3.283  1.0594  0.0079  0.0770
 7911SOL    HW135366   3.200   3.617   3.376 -2.1261  0.8801  0.5959
 7911SOL    HW235367   3.140   3.718   3.282 -0.8484 -1.1749 -0.5313
 7912SOL     OW35368   0.894   3.073   6.859 -0.1228 -0.4570  0.2316
 7912SOL    HW135369   0.908   3.070   6.954 -1.1287  2.0268  0.4396
 7912SOL    HW235370   0.948   3.151   6.844  0.2199 -0.8497 -0.5780
 7913SOL     OW35371   3.635   1.852   1.687  0.0526  0.1863  0.1803
 7913SOL    HW135372   3.557   1.903   1.668 -0.8210 -0.9516  0.6972
 7913SOL    HW235373   3.633   1.820   1.778  2.6031  0.7972  0.4618
 7914SOL     OW35374   0.779   3.295   7.822  0.0374  0.0580  0.4857
 7914SOL    HW135375   0.817   3.365   7.769  1.0831  0.4358  1.7139
 7914SOL    HW235376   0.828   3.221   7.785 -1.0487  0.4613 -1.7429
 7915SOL     OW35377   0.355   1.355  13.244  0.1305  0.2893  0.0140
 7915SOL    HW135378   0.288   1.402  13.194 -0.8537 -2.7807 -1.4816
 7915SOL    HW235379   0.433   1.356  13.188 -1.0530 -1.1933 -1.6225
 7916SOL     OW35380   1.120   2.407   3.050  0.1804 -0.8352  0.1158
 7916SOL    HW135381   1.060   2.350   3.001  1.2039 -1.6477 -0.1795
 7916SOL    HW235382   1.145   2.355   3.126 -0.7498  0.7197  1.4929
 7917SOL     OW35383   3.928   3.953   8.145  0.5890  0.9124  0.2867
 7917SOL    HW135384   3.890   4.006   8.075  0.8641  0.1235 -0.4755
 7917SOL    HW235385   3.952   4.009   8.218 -0.4549  0.9616  0.5921
 7918SOL     OW35386   1.230   2.856   8.281  0.5393  0.1853 -0.4626
 7918SOL    HW135387   1.310   2.877   8.234 -0.4360  3.5779 -0.6445
 7918SOL    HW235388   1.174   2.830   8.208 -1.4498  0.1471  1.0693
 7919SOL     OW35389   1.262   3.973   6.116 -0.0951  0.0431  0.0080
 7919SOL    HW135390   1.270   3.894   6.169 -0.1235  0.4782  0.6514
 7919SOL    HW235391   1.327   3.961   6.046  1.1207  1.8659  0.8294
 7920SOL     OW35392   0.655   2.015  10.156  0.5862  0.2371  0.4583
 7920SOL    HW135393   0.702   2.021  10.239  1.7876  2.2311 -0.3537
 7920SOL    HW235394   0.566   1.991  10.180  1.2177 -1.9380  0.6489
 7921SOL     OW35395   2.274   3.119   9.978 -0.6734  0.0510 -0.0194
 7921SOL    HW135396   2.232   3.180  10.039 -2.8148 -0.6696 -0.7656
 7921SOL    HW235397   2.199   3.100   9.921 -1.8052  1.4381  1.0259
 7922SOL     OW35398   3.181   2.651   1.760 -0.7143 -0.0302 -0.6194
 7922SOL    HW135399   3.177   2.711   1.685 -1.5457  3.6635  2.3603
 7922SOL    HW235400   3.275   2.634   1.759 -0.7451 -0.4064  2.0471
 7923SOL     OW35401   4.511   4.212   5.956  0.4141 -0.1381 -0.1861
 7923SOL    HW135402   4.540   4.291   5.911  3.4584 -1.4406 -0.4800
 7923SOL    HW235403   4.434   4.254   5.994  0.8117  0.7060 -0.3210
 7924SOL     OW35404   1.518   1.093   4.559 -0.2168  0.2412  0.2954
 7924SOL    HW135405   1.431   1.084   4.598 -1.3423  1.2708 -1.9916
 7924SOL    HW235406   1.533   1.187   4.573 -0.8842  0.7799 -2.4508
 7925SOL     OW35407   3.863   3.075   9.700 -0.2562 -0.4440 -0.7732
 7925SOL    HW135408   3.843   3.017   9.627 -0.8031 -1.7751  0.4332
 7925SOL    HW235409   3.848   3.027   9.782 -1.0031  1.6220  0.3086
 7926SOL     OW35410   1.858   3.522  12.400 -0.2000 -0.1578 -0.2382
 7926SOL    HW135411   1.895   3.499  12.485  1.9378  1.9886 -0.6225
 7926SOL    HW235412   1.795   3.450  12.398 -0.2396 -0.1504  1.1183
 7927SOL     OW35413   0.320   0.840   8.500  0.1196  0.2245  0.8997
 7927SOL    HW135414   0.348   0.866   8.588  0.0199  0.3319  0.8993
 7927SOL    HW235415   0.405   0.836   8.456 -1.5110 -0.3859 -2.1421
 7928SOL     OW35416   0.864   3.352   8.806  0.1553 -0.4031  0.5942
 7928SOL    HW135417   0.844   3.439   8.841 -1.7664 -0.0012 -1.4599
 7928SOL    HW235418   0.959   3.352   8.797  0.1731 -1.2588  0.7790
 7929SOL     OW35419   2.976   4.545  17.511  0.2015  0.2953  0.0510
 7929SOL    HW135420   2.991   4.590  17.594 -0.2507  1.8083 -0.6885
 7929SOL    HW235421   2.880   4.541  17.511  0.1352  1.8063 -0.5216
 7930SOL     OW35422   3.480   0.501   3.109 -0.5208 -0.0185  0.1041
 7930SOL    HW135423   3.395   0.457   3.115  0.1648 -1.4753 -0.8038
 7930SOL    HW235424   3.465   0.578   3.164 -0.9613 -0.2081  0.2502
 7931SOL     OW35425   2.338   3.545   7.939  0.2078 -0.6215 -0.7351
 7931SOL    HW135426   2.316   3.637   7.928  0.5908 -0.2932  1.3611
 7931SOL    HW235427   2.262   3.516   7.990  0.8890  0.9612  1.1648
 7932SOL     OW35428   3.784   1.318  13.997  0.2336  0.0106  0.8344
 7932SOL    HW135429   3.816   1.230  14.016 -0.6445 -0.3162  0.7759
 7932SOL    HW235430   3.738   1.330  14.080 -2.6441 -0.9248 -0.6361
 7933SOL     OW35431   0.504   3.632   9.109 -0.4499  0.1225  0.0718
 7933SOL    HW135432   0.519   3.719   9.071  0.2624 -0.2150 -0.4221
 7933SOL    HW235433   0.468   3.643   9.198 -0.6261  2.7503 -0.3103
 7934SOL     OW35434   3.877   4.331   5.701  0.2540  0.1609 -0.1484
 7934SOL    HW135435   3.919   4.401   5.652 -0.0115  0.6838  0.3820
 7934SOL    HW235436   3.808   4.295   5.646  1.7485 -0.3300 -1.7165
 7935SOL     OW35437   1.398   2.632   8.733 -0.8152 -0.0409 -0.0392
 7935SOL    HW135438   1.378   2.654   8.642  0.8891  1.8018  0.0386
 7935SOL    HW235439   1.488   2.601   8.723 -1.3535 -1.0844 -1.6444
 7936SOL     OW35440   4.441   0.800  13.974 -0.3382  0.2332 -0.1517
 7936SOL    HW135441   4.406   0.772  13.890 -1.0586 -1.6204  0.7771
 7936SOL    HW235442   4.496   0.871  13.940 -0.1484 -0.7116 -1.8073
 7937SOL     OW35443   1.432   1.674  12.159 -0.0810 -0.3781 -0.1507
 7937SOL    HW135444   1.341   1.686  12.131 -0.1953  2.3292  1.3565
 7937SOL    HW235445   1.474   1.684  12.074 -0.0756 -1.1394 -0.2398
 7938SOL     OW35446   2.784   1.083   8.644  0.0018  0.0955  0.1208
 7938SOL    HW135447   2.707   1.119   8.687 -0.3299 -1.0903  0.5176
 7938SOL    HW235448   2.755   1.066   8.555 -1.3312 -0.4378  0.6594
 7939SOL     OW35449   0.674   4.091  10.327  0.8180  0.5091 -0.2555
 7939SOL    HW135450   0.605   4.026  10.313  1.0217  0.1830  0.2523
 7939SOL    HW235451   0.617   4.155  10.370 -0.5167  0.6058 -2.1406
 7940SOL     OW35452   1.249   1.123  16.712 -0.6808  0.1181  0.3676
 7940SOL    HW135453   1.227   1.215  16.726 -3.9558 -0.9686  2.3675
 7940SOL    HW235454   1.216   1.079  16.791  0.8088  0.5184  1.2242
 7941SOL     OW35455   3.538   3.154  14.860 -0.0267  0.1125  0.2611
 7941SOL    HW135456   3.602   3.214  14.899  1.4863 -1.8061  0.7326
 7941SOL    HW235457   3.537   3.087  14.929  3.9572  0.7056  0.9417
 7942SOL     OW35458   3.501   0.759   8.828  0.3993 -0.4474 -0.2712
 7942SOL    HW135459   3.552   0.773   8.749  1.3305  0.1326  0.4317
 7942SOL    HW235460   3.566   0.783   8.894 -0.8200 -1.5069  1.3424
 7943SOL     OW35461   2.574   1.517   1.321 -0.1412 -0.0150 -0.4898
 7943SOL    HW135462   2.579   1.515   1.416 -3.7559 -1.0957 -0.3245
 7943SOL    HW235463   2.653   1.561   1.288  0.5946  0.3084  1.7025
 7944SOL     OW35464   1.316   2.233   1.700  0.5258  0.1101  0.6378
 7944SOL    HW135465   1.334   2.326   1.711 -3.2292  0.8137  0.8566
 7944SOL    HW235466   1.300   2.213   1.792  2.2674  0.5145  1.0165
 7945SOL     OW35467   1.977   1.593  11.907  0.1046  0.0270  0.5167
 7945SOL    HW135468   1.950   1.503  11.887 -2.7988  0.7645  1.0644
 7945SOL    HW235469   1.958   1.639  11.825 -0.6588  0.7483  1.1009
 7946SOL     OW35470   1.354   0.165   2.288  0.3157  0.1882  0.0151
 7946SOL    HW135471   1.439   0.127   2.267 -0.4434 -1.9834  0.8290
 7946SOL    HW235472   1.307   0.084   2.309  1.6666 -0.4070  0.7204
 7947SOL     OW35473   3.672   1.309   6.851  0.0905  0.0964  0.1496
 7947SOL    HW135474   3.675   1.281   6.760  0.4964 -0.5109  0.3458
 7947SOL    HW235475   3.660   1.220   6.885 -0.0566 -0.9009 -2.4825
 7948SOL     OW35476   2.103   2.147   8.188 -0.0963  0.0528 -0.1514
 7948SOL    HW135477   2.172   2.155   8.254 -1.0154  0.5956  0.7497
 7948SOL    HW235478   2.158   2.137   8.111  2.4749  1.4845  1.4668
 7949SOL     OW35479   4.523   0.446   4.831  0.1039  0.2308 -0.4052
 7949SOL    HW135480   4.602   0.445   4.777 -0.9615  0.0081 -1.9556
 7949SOL    HW235481   4.491   0.358   4.809  0.3974  0.4327 -1.6358
 7950SOL     OW35482   1.993   0.055   2.772 -0.0455 -0.3746  0.1628
 7950SOL    HW135483   1.971   4.720   2.828 -2.0535 -0.8904 -1.3266
 7950SOL    HW235484   2.012   0.012   2.688 -0.5519  2.6437 -1.5020
 7951SOL     OW35485   3.042   4.665   8.296 -0.0904 -0.4279 -0.1035
 7951SOL    HW135486   3.062   0.018   8.279 -0.9547 -0.2798 -0.2844
 7951SOL    HW235487   2.975   4.677   8.363  2.6901  1.3201  2.3709
 7952SOL     OW35488   1.211   0.179   5.707  0.2165 -0.3844 -0.3870
 7952SOL    HW135489   1.186   0.219   5.624 -2.1261 -0.9107  0.0515
 7952SOL    HW235490   1.258   0.251   5.749 -0.6669 -0.2080  0.3052
 7953SOL     OW35491   4.466   1.675  17.506  0.1766  0.3020 -0.1693
 7953SOL    HW135492   4.416   1.756  17.514  0.3127  0.4184 -0.4781
 7953SOL    HW235493   4.552   1.709  17.533 -0.3523  0.8479  0.8097
 7954SOL     OW35494   2.384   3.751   3.231 -0.5082 -0.0084 -0.0437
 7954SOL    HW135495   2.361   3.659   3.237  1.8496 -0.5968 -0.1950
 7954SOL    HW235496   2.449   3.745   3.161 -2.1849  0.2969 -1.6381
 7955SOL     OW35497   0.621   2.003   3.182  0.2273 -0.2530 -0.0024
 7955SOL    HW135498   0.686   1.937   3.208  1.2362 -0.1737 -2.3953
 7955SOL    HW235499   0.543   1.952   3.160 -0.9831  0.5336  2.4207
 7956SOL     OW35500   3.953   2.640  14.094  0.1494 -0.2906  0.3506
 7956SOL    HW135501   3.904   2.639  14.012  0.1199  2.9137  0.3264
 7956SOL    HW235502   4.037   2.622  14.051 -0.3084  0.4644 -0.8684
 7957SOL     OW35503   2.440   1.678   3.148  0.1188 -0.2734 -0.1252
 7957SOL    HW135504   2.514   1.727   3.114  1.8806 -2.1159  1.0717
 7957SOL    HW235505   2.375   1.735   3.105  1.3243  2.0207  1.0726
 7958SOL     OW35506   3.920   1.855  10.030  0.4081  0.0051 -0.1385
 7958SOL    HW135507   3.868   1.836  10.108 -0.4593  1.0095 -0.4652
 7958SOL    HW235508   4.002   1.842  10.078  1.3157 -0.3875 -1.7918
 7959SOL     OW35509   4.440   4.538   4.959  0.5454  0.1322  0.5228
 7959SOL    HW135510   4.465   4.584   5.040 -0.1935 -0.5805  1.1596
 7959SOL    HW235511   4.349   4.526   4.986  0.2533 -1.7018 -1.2552
 7960SOL     OW35512   4.468   0.572   6.233 -0.6030 -0.5670 -0.1080
 7960SOL    HW135513   4.508   0.572   6.320  0.7284  0.6078 -0.7366
 7960SOL    HW235514   4.517   0.499   6.196 -0.6417 -0.0924 -1.0848
 7961SOL     OW35515   4.506   0.731   8.106  0.0000  0.3233  0.0546
 7961SOL    HW135516   4.468   0.663   8.050  0.0077  0.2375  0.1526
 7961SOL    HW235517   4.588   0.681   8.112 -0.5375 -0.6486 -0.7134
 7962SOL     OW35518   1.129   1.434   5.746 -0.2628  0.3818 -0.5605
 7962SOL    HW135519   1.179   1.487   5.808  0.8552 -2.2362  0.7971
 7962SOL    HW235520   1.103   1.493   5.676 -0.2291 -1.0433 -1.7899
 7963SOL     OW35521   4.462   3.004   3.516  0.4195 -0.3257  0.1200
 7963SOL    HW135522   4.403   2.984   3.588  0.8286  0.4090  0.6599
 7963SOL    HW235523   4.540   3.024   3.569  0.8967  0.5890 -0.9207
 7964SOL     OW35524   3.398   1.348   4.105  0.1109 -0.3103 -0.4152
 7964SOL    HW135525   3.368   1.439   4.101  0.9599  0.0373  1.0537
 7964SOL    HW235526   3.387   1.324   4.197 -0.0480  1.8898  0.1435
 7965SOL     OW35527   0.599   1.090   0.540  0.5200  1.0907  0.0583
 7965SOL    HW135528   0.576   1.008   0.583  2.5594 -1.4113 -3.5652
 7965SOL    HW235529   0.693   1.095   0.558  0.2306 -0.4474  1.9812
 7966SOL     OW35530   0.144   1.317   2.128  0.0861 -0.3023 -0.2135
 7966SOL    HW135531   0.210   1.359   2.183  0.3765  1.7650 -2.1241
 7966SOL    HW235532   0.093   1.395   2.104  2.8544  1.9480  1.1194
 7967SOL     OW35533   1.723   3.926   6.305  0.0083  0.1489  0.3506
 7967SOL    HW135534   1.688   3.997   6.358 -1.1961  0.3724 -0.7514
 7967SOL    HW235535   1.680   3.850   6.344 -0.6822 -0.0487 -0.8094
 7968SOL     OW35536   2.877   2.851   7.640 -0.0202 -0.1397  0.6600
 7968SOL    HW135537   2.808   2.876   7.579  0.9850  0.3316 -0.2847
 7968SOL    HW235538   2.854   2.760   7.657 -1.5435  0.1207 -0.0152
 7969SOL     OW35539   0.421   0.925   8.743 -0.5475 -0.1875  0.2055
 7969SOL    HW135540   0.423   1.017   8.768 -0.9516 -0.3311  0.7842
 7969SOL    HW235541   0.495   0.896   8.796  0.2844  0.5993 -0.5275
 7970SOL     OW35542   4.083   0.016   4.046 -0.7468  0.2515  0.0865
 7970SOL    HW135543   4.033   4.722   4.121  1.0868  2.2931  2.1956
 7970SOL    HW235544   4.033   0.091   4.014 -3.5905 -0.1850  3.5086
 7971SOL     OW35545   0.567   0.532   3.041 -0.1474 -0.1993 -0.1305
 7971SOL    HW135546   0.492   0.583   3.072  2.6130  1.9871  3.0097
 7971SOL    HW235547   0.551   0.450   3.086  0.4927 -0.7357 -0.8907
 7972SOL     OW35548   4.519   1.352  14.379  0.5215 -0.3433 -0.3206
 7972SOL    HW135549   4.457   1.376  14.310  2.9204  2.7382 -1.3659
 7972SOL    HW235550   4.588   1.306  14.332  0.4835  0.1056 -0.8155
 7973SOL     OW35551   1.172   1.213   3.839 -0.5395  0.1787  0.1685
 7973SOL    HW135552   1.257   1.209   3.795 -0.9499  2.2078 -0.8440
 7973SOL    HW235553   1.198   1.203   3.931 -0.7442  0.0443  0.2139
 7974SOL     OW35554   3.858   4.609   6.670  0.0001  0.5336 -0.0233
 7974SOL    HW135555   3.850   4.582   6.579  2.5572 -0.6343  0.0939
 7974SOL    HW235556   3.775   4.589   6.715  0.1879 -0.0292  0.0721
 7975SOL     OW35557   4.009   0.301   5.148 -0.1184 -0.0799 -0.3633
 7975SOL    HW135558   3.985   0.266   5.234 -0.9894  0.0089 -0.5640
 7975SOL    HW235559   4.046   0.389   5.158 -1.1662  0.3607 -0.3670
 7976SOL     OW35560   4.511   1.772  15.448  0.4117 -0.3806 -0.7125
 7976SOL    HW135561   4.436   1.812  15.403  0.0905 -0.3910 -0.1885
 7976SOL    HW235562   4.536   1.846  15.503  0.2682 -0.9892  0.1681
 7977SOL     OW35563   0.260   2.543   3.438 -0.1041 -0.2480  0.1387
 7977SOL    HW135564   0.258   2.490   3.517  1.8334  0.8002  0.8807
 7977SOL    HW235565   0.345   2.586   3.435  0.3762 -1.2374 -0.1284
 7978SOL     OW35566   4.066   4.260   9.102 -0.5343 -0.4334 -0.4130
 7978SOL    HW135567   4.080   4.263   9.197 -0.2914  1.7129 -0.5221
 7978SOL    HW235568   4.146   4.215   9.077 -1.0152 -1.9966  0.8682
 7979SOL     OW35569   3.934   2.791   5.482 -0.9897 -0.2164  0.3437
 7979SOL    HW135570   4.024   2.815   5.460 -1.1279  0.4192  0.4745
 7979SOL    HW235571   3.904   2.875   5.516  2.4616  0.9697  0.4411
 7980SOL     OW35572   2.590   0.856  17.141  0.3243 -0.0174 -0.8250
 7980SOL    HW135573   2.628   0.895  17.062 -3.3197  0.9233 -2.1036
 7980SOL    HW235574   2.606   0.761  17.141  4.9453  0.7253  0.3547
 7981SOL     OW35575   1.634   0.179   7.683 -0.4110  0.2189  0.3888
 7981SOL    HW135576   1.707   0.118   7.668 -2.9336 -3.0788  1.6447
 7981SOL    HW235577   1.676   0.241   7.742 -0.2966  0.1628  0.3673
 7982SOL     OW35578   4.590   0.380  13.203 -0.4274 -0.3728  0.3188
 7982SOL    HW135579   4.673   0.425  13.187 -0.5480  0.1237  1.0923
 7982SOL    HW235580   4.608   0.294  13.240 -0.6542  0.1680  1.6678
 7983SOL     OW35581   0.241   4.524   8.068  0.0556 -0.4366  0.1325
 7983SOL    HW135582   0.161   4.479   8.096 -1.6556  2.1381 -0.6111
 7983SOL    HW235583   0.235   4.496   7.977  1.6616  1.1943 -0.4781
 7984SOL     OW35584   0.386   4.717  17.731  0.6178 -0.1414 -0.3648
 7984SOL    HW135585   0.334   0.051   0.008  0.7561 -0.1540 -0.1152
 7984SOL    HW235586   0.434   4.689   0.053  0.5145 -0.0187 -0.2563
 7985SOL     OW35587   3.186   1.657   5.218  0.3962  0.2527  0.2686
 7985SOL    HW135588   3.222   1.744   5.200 -1.4664  0.8272 -0.7910
 7985SOL    HW235589   3.132   1.627   5.144  3.1952  1.5199 -2.2890
 7986SOL     OW35590   1.482   0.556   2.878  0.3821 -0.4854 -0.6545
 7986SOL    HW135591   1.392   0.573   2.849  0.8958  1.5096 -1.0928
 7986SOL    HW235592   1.478   0.461   2.867  3.8690 -0.6864 -0.1359
 7987SOL     OW35593   2.834   1.987   8.482  0.1190  0.5782 -0.3902
 7987SOL    HW135594   2.758   1.973   8.538  1.4304  1.0058  1.5026
 7987SOL    HW235595   2.879   2.064   8.517  2.4428 -1.2735  0.7029
 7988SOL     OW35596   1.132   4.390  15.222 -0.0207  0.4375  0.1924
 7988SOL    HW135597   1.195   4.417  15.155  0.9624 -1.4006  0.3798
 7988SOL    HW235598   1.191   4.391  15.297 -0.5318 -0.6819  0.6043
 7989SOL     OW35599   1.977   0.106  13.837  0.1103 -0.3208 -0.0766
 7989SOL    HW135600   1.968   0.175  13.771  0.7971  1.4691  1.6839
 7989SOL    HW235601   1.906   0.045  13.820  0.2450 -0.1496 -1.2521
 7990SOL     OW35602   0.383   4.586  16.732  0.1658 -0.4684  0.4234
 7990SOL    HW135603   0.338   4.522  16.676 -0.8403  2.0512 -1.6613
 7990SOL    HW235604   0.315   4.629  16.783  1.3151  0.9971  0.7295
 7991SOL     OW35605   1.457   1.465   3.312 -0.0421 -0.4387  0.4693
 7991SOL    HW135606   1.518   1.505   3.374  0.7199 -0.2900 -0.3732
 7991SOL    HW235607   1.504   1.384   3.294  0.4950  0.0845 -0.4771
 7992SOL     OW35608   2.329   1.862   2.989  0.0819  0.0874  0.4743
 7992SOL    HW135609   2.234   1.869   2.996  0.0567 -0.3396  0.6168
 7992SOL    HW235610   2.368   1.948   3.005  2.0642 -0.7517  0.1306
 7993SOL     OW35611   1.269   1.377   1.255 -0.3463 -0.3254  0.1641
 7993SOL    HW135612   1.322   1.368   1.176  0.4650 -0.4249  0.7177
 7993SOL    HW235613   1.186   1.405   1.216 -1.2608  1.1589  3.1784
 7994SOL     OW35614   3.307   1.509   1.028 -0.0914 -0.0972  0.0198
 7994SOL    HW135615   3.372   1.501   1.097  0.7725 -1.1587 -0.9393
 7994SOL    HW235616   3.358   1.552   0.960  0.1749  0.2780  0.4564
 7995SOL     OW35617   3.793   0.094  13.305  0.0886  0.7713 -0.0673
 7995SOL    HW135618   3.826   0.030  13.242 -2.8233  0.6992 -1.5250
 7995SOL    HW235619   3.748   0.158  13.250 -2.6900 -2.3503 -1.4179
 7996SOL     OW35620   1.441   2.341   9.669  0.0778  0.3006  0.2089
 7996SOL    HW135621   1.509   2.300   9.723  0.7996  1.1248 -0.0730
 7996SOL    HW235622   1.367   2.339   9.730 -2.0554  2.8512 -2.2757
 7997SOL     OW35623   2.982   2.259  11.018 -0.0989 -0.2515  0.2021
 7997SOL    HW135624   2.906   2.308  11.051 -1.0322 -1.0070 -0.8396
 7997SOL    HW235625   2.946   2.174  11.043  1.0536 -1.2817 -1.7254
 7998SOL     OW35626   2.398   3.852   2.220 -0.1453 -0.2282 -0.4251
 7998SOL    HW135627   2.369   3.928   2.270  0.4117  0.4685 -1.1894
 7998SOL    HW235628   2.446   3.895   2.150  2.3703  3.1201  3.3290
 7999SOL     OW35629   3.744   0.905   4.041  0.2856 -0.0657  0.1663
 7999SOL    HW135630   3.689   0.844   4.089  2.1403 -3.1478 -1.6460
 7999SOL    HW235631   3.731   0.982   4.098 -1.0404  0.3673 -0.7255
 8000SOL     OW35632   3.669   0.287   0.282  0.4532  0.5318 -0.7055
 8000SOL    HW135633   3.686   0.234   0.359 -2.1148 -1.8812 -1.8128
 8000SOL    HW235634   3.723   0.246   0.214  2.0694 -3.1616  2.8015
 8001SOL     OW35635   0.302   4.134   2.279  0.2188 -0.1030 -0.2394
 8001SOL    HW135636   0.358   4.178   2.215  0.3540 -0.0622 -0.0928
 8001SOL    HW235637   0.364   4.148   2.350 -0.4140  3.3924 -0.3610
 8002SOL     OW35638   1.337   3.152   2.282  0.2986  0.0409  0.1613
 8002SOL    HW135639   1.271   3.204   2.237  1.4222  1.5468  0.2793
 8002SOL    HW235640   1.408   3.158   2.218  0.2373  1.0748  0.1997
 8003SOL     OW35641   0.552   1.542   3.423 -0.1364  0.2938 -0.6606
 8003SOL    HW135642   0.563   1.506   3.335  0.5399  1.9045 -1.2297
 8003SOL    HW235643   0.627   1.502   3.467 -1.0112 -1.0402 -0.3658
 8004SOL     OW35644   0.162   3.499   6.276 -0.1102 -0.2832  0.4375
 8004SOL    HW135645   0.196   3.588   6.284 -2.2437  0.5440  0.2517
 8004SOL    HW235646   0.233   3.450   6.317  2.2410  2.0216 -0.8855
 8005SOL     OW35647   0.917   4.049   6.781 -0.5144 -0.1189 -0.2063
 8005SOL    HW135648   0.842   4.077   6.834 -0.9391  0.0891 -0.9034
 8005SOL    HW235649   0.954   4.134   6.760 -0.2311 -0.4979 -1.2498
 8006SOL     OW35650   1.873   0.692  12.607  0.1327 -0.2729 -0.1892
 8006SOL    HW135651   1.832   0.734  12.682 -0.4938 -0.9040 -0.1809
 8006SOL    HW235652   1.878   0.604  12.646 -3.1838 -0.0726  0.6982
 8007SOL     OW35653   2.388   0.648   3.669 -0.6833 -0.1311 -0.5535
 8007SOL    HW135654   2.330   0.652   3.745  1.3802 -1.5526  1.1076
 8007SOL    HW235655   2.378   0.553   3.656  1.5621 -0.6285  1.2973
 8008SOL     OW35656   3.404   1.333   4.846 -0.7817  0.3460 -0.2307
 8008SOL    HW135657   3.349   1.313   4.769 -1.8022 -2.2045  1.1702
 8008SOL    HW235658   3.487   1.322   4.800 -0.5085  3.2462 -0.4374
 8009SOL     OW35659   1.327   0.587   2.425 -0.0890  0.3201 -0.0167
 8009SOL    HW135660   1.396   0.555   2.483  0.1041 -1.7023 -1.3347
 8009SOL    HW235661   1.377   0.661   2.391 -0.0764  0.2333 -0.1933
 8010SOL     OW35662   1.754   1.509   7.372  0.2019  0.1167 -0.1789
 8010SOL    HW135663   1.687   1.573   7.350  0.7849  0.3670 -1.2457
 8010SOL    HW235664   1.694   1.449   7.416  1.1589  1.5585  3.0569
 8011SOL     OW35665   1.368   3.759   6.257  0.1591 -0.2826 -0.2059
 8011SOL    HW135666   1.422   3.750   6.179  1.7520 -0.0696  0.8744
 8011SOL    HW235667   1.431   3.775   6.327  0.2519 -1.0610 -0.1117
 8012SOL     OW35668   2.111   4.218   6.031 -0.4418  0.6195 -0.0313
 8012SOL    HW135669   2.088   4.146   6.089  1.8108  0.6472  0.9232
 8012SOL    HW235670   2.150   4.286   6.087 -0.0048 -0.5091  1.0547
 8013SOL     OW35671   2.383   1.376   4.227  0.2907 -0.1774  0.1827
 8013SOL    HW135672   2.402   1.324   4.149  0.1270  1.0990 -0.7159
 8013SOL    HW235673   2.403   1.464   4.193  2.0544  0.0953  1.8987
 8014SOL     OW35674   2.922   4.381   1.745  0.1184 -0.0316  0.1472
 8014SOL    HW135675   2.944   4.294   1.710  1.6170  0.9112 -1.2668
 8014SOL    HW235676   2.957   4.371   1.833 -2.0680  1.0091  1.1241
 8015SOL     OW35677   3.577   0.257   7.781 -0.3561  0.0225 -0.2013
 8015SOL    HW135678   3.579   0.165   7.806 -2.5380 -0.2365 -0.9332
 8015SOL    HW235679   3.505   0.262   7.718  0.0108 -1.7321 -0.7434
 8016SOL     OW35680   3.957   3.500  16.928  0.1800  0.5265  0.0217
 8016SOL    HW135681   4.050   3.483  16.943 -0.5701 -0.8601  3.0197
 8016SOL    HW235682   3.947   3.587  16.965 -2.9701  0.4855 -0.7638
 8017SOL     OW35683   4.277   4.449  17.593  0.4465  0.6506  0.3851
 8017SOL    HW135684   4.192   4.405  17.584 -1.0509  3.5181  0.7452
 8017SOL    HW235685   4.256   4.527  17.643  0.6365  0.1700  1.2106
 8018SOL     OW35686   3.226   2.909   4.027  0.2326 -0.8012  0.1910
 8018SOL    HW135687   3.302   2.961   4.004 -0.6836 -0.3474 -1.7735
 8018SOL    HW235688   3.221   2.858   3.946 -1.8423 -0.9602  0.4115
 8019SOL     OW35689   3.288   4.340   4.235 -0.6293  0.5784 -0.1197
 8019SOL    HW135690   3.208   4.381   4.202 -1.1194 -1.0023 -0.8925
 8019SOL    HW235691   3.301   4.282   4.160  0.0833 -1.3153  1.4452
 8020SOL     OW35692   1.262   4.441   7.903 -0.0672 -0.6842  0.2168
 8020SOL    HW135693   1.287   4.459   7.994 -0.5227  0.1447  0.1762
 8020SOL    HW235694   1.204   4.366   7.914 -0.8856 -0.0700  0.0595
 8021SOL     OW35695   2.026   3.174  11.922 -0.1945 -0.2359 -0.2337
 8021SOL    HW135696   2.087   3.204  11.854  0.8707  0.1557  0.8997
 8021SOL    HW235697   1.945   3.217  11.894  0.3770  0.4190 -0.8979
 8022SOL     OW35698   1.032   4.589   8.821 -0.3732  0.0228  0.6126
 8022SOL    HW135699   1.080   4.528   8.877  1.4247  2.7637  2.0520
 8022SOL    HW235700   1.092   4.662   8.805 -0.8694  0.2302 -0.2966
 8023SOL     OW35701   3.772   4.515   4.899 -0.8519 -0.1883  0.2261
 8023SOL    HW135702   3.834   4.507   4.826 -1.3220  2.2734 -0.4428
 8023SOL    HW235703   3.691   4.545   4.858  0.9817  2.3713 -1.5359
 8024SOL     OW35704   0.761   2.712   5.128 -0.1123 -0.8636 -0.0953
 8024SOL    HW135705   0.841   2.763   5.133 -0.1967 -0.8103  0.6398
 8024SOL    HW235706   0.699   2.782   5.147  1.4884  0.6562 -0.5309
 8025SOL     OW35707   2.524   3.470   4.393 -0.7013 -0.3292  0.5524
 8025SOL    HW135708   2.460   3.503   4.330  1.7703  2.4456 -0.4957
 8025SOL    HW235709   2.479   3.475   4.478  0.3147 -1.4539  1.1536
 8026SOL     OW35710   2.536   2.770   6.586  0.4218 -0.5255  0.1673
 8026SOL    HW135711   2.443   2.780   6.607  0.6802  1.2190  0.4831
 8026SOL    HW235712   2.577   2.797   6.668  0.7171 -0.5680  0.0348
 8027SOL     OW35713   1.327   0.213  12.505 -0.2610  0.5349 -0.1204
 8027SOL    HW135714   1.251   0.270  12.514 -0.0344  1.0454 -1.5073
 8027SOL    HW235715   1.338   0.211  12.410  0.0829 -0.5006 -0.0695
 8028SOL     OW35716   2.680   4.579   4.904  0.2098 -0.3104 -0.1909
 8028SOL    HW135717   2.643   4.499   4.866  0.3172 -0.9208  1.0095
 8028SOL    HW235718   2.605   4.636   4.916 -0.1516 -0.1506 -3.0288
 8029SOL     OW35719   3.736   3.899   4.811  0.1466 -0.4905 -0.4567
 8029SOL    HW135720   3.791   3.845   4.867  0.0131 -1.1495 -0.9650
 8029SOL    HW235721   3.710   3.837   4.743  0.2824  0.3250 -1.2599
 8030SOL     OW35722   2.694   2.444   0.675  0.2305 -0.1650 -0.0648
 8030SOL    HW135723   2.731   2.406   0.595  1.0152  0.0796  0.1829
 8030SOL    HW235724   2.734   2.389   0.742  1.4005  2.4571  1.4007
 8031SOL     OW35725   4.144   4.437  11.867 -0.4078 -0.4189  0.3530
 8031SOL    HW135726   4.079   4.390  11.815  0.1965 -1.1578  0.2821
 8031SOL    HW235727   4.161   4.518  11.819 -0.2154 -1.7956 -1.8510
 8032SOL     OW35728   4.374   0.540   8.582 -0.2578 -0.3255  0.6106
 8032SOL    HW135729   4.417   0.485   8.647 -1.5241 -0.9617  0.9079
 8032SOL    HW235730   4.453   0.584   8.549 -0.8019 -0.5339 -0.9501
 8033SOL     OW35731   0.883   3.413  11.076 -0.1364 -0.7092 -0.1182
 8033SOL    HW135732   0.937   3.335  11.090 -1.5639 -1.5306  0.8502
 8033SOL    HW235733   0.942   3.481  11.107 -1.7994 -0.5391  2.6442
 8034SOL     OW35734   1.980   2.691   4.304  0.4260  0.4954  0.0441
 8034SOL    HW135735   2.069   2.703   4.338 -0.7240  0.3962  3.0808
 8034SOL    HW235736   1.984   2.601   4.272 -0.1167  0.7062 -0.5940
 8035SOL     OW35737   0.134   3.243   4.499 -0.1292 -0.1123 -0.0035
 8035SOL    HW135738   0.129   3.180   4.571  1.3882  2.0837  2.0221
 8035SOL    HW235739   0.125   3.330   4.538 -0.8606 -1.1847  2.2140
 8036SOL     OW35740   3.092   0.643   2.559  0.1132  0.4680  0.0933
 8036SOL    HW135741   3.020   0.678   2.506 -0.4411 -0.9193 -0.0751
 8036SOL    HW235742   3.070   0.551   2.550  1.3348  0.3809 -1.9521
 8037SOL     OW35743   2.178   0.178   3.534 -0.4256 -0.4946  0.1594
 8037SOL    HW135744   2.142   0.089   3.537 -0.0916 -0.6236  0.4414
 8037SOL    HW235745   2.109   0.229   3.492 -1.2964 -3.1963 -1.6991
 8038SOL     OW35746   0.819   3.311   1.493 -0.1687  0.7211  0.5550
 8038SOL    HW135747   0.889   3.247   1.508 -0.0693  0.6465 -0.1862
 8038SOL    HW235748   0.772   3.290   1.412  0.7215  0.1649  0.1830
 8039SOL     OW35749   3.561   4.198   2.664  0.0596 -0.1771  0.1106
 8039SOL    HW135750   3.520   4.115   2.690  0.5940 -0.4190  0.1888
 8039SOL    HW235751   3.511   4.265   2.710  0.5769  0.5004 -0.3230
 8040SOL     OW35752   3.743   3.571   5.861 -0.7985  0.2336  0.2431
 8040SOL    HW135753   3.753   3.543   5.952 -0.1717 -2.7046 -0.7244
 8040SOL    HW235754   3.658   3.538   5.831 -0.7331  0.5401 -0.2932
 8041SOL     OW35755   3.086   4.583   8.976  0.5547 -0.8214 -0.2461
 8041SOL    HW135756   3.096   4.491   9.002  0.2041 -0.6597  0.4766
 8041SOL    HW235757   3.051   4.570   8.888 -0.3535  0.0881 -0.0126
 8042SOL     OW35758   4.562   1.326   3.274 -0.6197 -0.2695 -0.1671
 8042SOL    HW135759   4.467   1.334   3.266 -0.8352 -1.5421  1.1263
 8042SOL    HW235760   4.578   1.244   3.229  3.1428  0.2628  0.1792
 8043SOL     OW35761   4.654   2.229   5.828  0.1024  0.1142  0.2050
 8043SOL    HW135762   4.714   2.166   5.869 -0.0391 -0.9431 -1.2146
 8043SOL    HW235763   4.585   2.166   5.806 -1.0103  1.2954  0.3467
 8044SOL     OW35764   2.722   1.188  13.298  0.2076 -1.3142 -0.4060
 8044SOL    HW135765   2.681   1.247  13.362  1.6319 -1.5119  0.6903
 8044SOL    HW235766   2.787   1.147  13.355  0.5091  0.1952  0.3471
 8045SOL     OW35767   3.277   2.206   7.031  0.0092  0.1176  0.5347
 8045SOL    HW135768   3.274   2.195   7.126 -0.5167 -0.9738  0.3935
 8045SOL    HW235769   3.276   2.114   7.004  1.8731  0.7339 -1.6756
 8046SOL     OW35770   2.016   3.130   2.898  0.1765 -0.5020 -0.0299
 8046SOL    HW135771   1.923   3.129   2.921  0.3988 -0.8818  0.8851
 8046SOL    HW235772   2.066   3.076   2.960 -0.3266 -0.4773  0.3990
 8047SOL     OW35773   0.564   4.494  16.921  0.1474  0.4538  0.0248
 8047SOL    HW135774   0.489   4.449  16.958 -1.3210  0.5441 -2.8108
 8047SOL    HW235775   0.526   4.532  16.842 -0.7939 -1.8369 -0.6382
 8048SOL     OW35776   3.471   3.163   5.951  0.7050  0.3402  0.2131
 8048SOL    HW135777   3.419   3.113   6.015  0.2193  0.7196  0.1130
 8048SOL    HW235778   3.532   3.093   5.928  0.4225  0.8058 -1.9523
 8049SOL     OW35779   3.447   0.383   1.403 -0.0698  0.3726 -0.0546
 8049SOL    HW135780   3.476   0.346   1.320 -0.8694 -1.1108  0.3400
 8049SOL    HW235781   3.369   0.435   1.382 -0.6460 -0.8393 -0.9046
 8050SOL     OW35782   0.610   1.300   9.502  0.0983 -0.4875  0.1094
 8050SOL    HW135783   0.626   1.319   9.594 -2.1431  1.9735 -0.0213
 8050SOL    HW235784   0.551   1.225   9.513 -1.1599  0.3739 -0.6898
 8051SOL     OW35785   3.667   1.754   2.943 -0.0617 -0.0646  0.4231
 8051SOL    HW135786   3.619   1.835   2.926  0.8380  0.5336  0.7878
 8051SOL    HW235787   3.608   1.694   2.896 -0.4082 -0.9648  2.0127
 8052SOL     OW35788   1.615   1.255  16.887  0.1678  0.4411  0.0261
 8052SOL    HW135789   1.589   1.186  16.948  2.5850 -1.9054 -1.5714
 8052SOL    HW235790   1.704   1.263  16.920  0.6161  0.2546 -1.1188
 8053SOL     OW35791   2.019   2.752  12.258  0.2120 -0.0461 -0.2686
 8053SOL    HW135792   1.967   2.683  12.216  1.8807 -0.9136 -0.8847
 8053SOL    HW235793   2.091   2.762  12.195 -1.1918 -1.5719 -2.1374
 8054SOL     OW35794   3.398   4.572   8.629  0.1458 -0.4696  0.1640
 8054SOL    HW135795   3.423   4.480   8.635 -2.5818 -1.0918  1.7034
 8054SOL    HW235796   3.389   4.596   8.721 -0.0520 -2.0776  0.5679
 8055SOL     OW35797   0.645   4.166   2.173  0.0905 -0.1868  0.2352
 8055SOL    HW135798   0.644   4.090   2.114 -0.2272 -0.8640  1.0988
 8055SOL    HW235799   0.673   4.125   2.255  0.4534 -2.6545 -1.1074
 8056SOL     OW35800   2.561   1.583   4.671 -0.1107 -0.2132 -0.2601
 8056SOL    HW135801   2.587   1.528   4.745 -0.1875  1.8496  1.3110
 8056SOL    HW235802   2.623   1.656   4.677 -1.7680  1.1249  0.7569
 8057SOL     OW35803   2.513   0.824  15.808 -0.2721  1.0278  0.5547
 8057SOL    HW135804   2.484   0.883  15.738  0.1765  2.9615  2.0026
 8057SOL    HW235805   2.434   0.787  15.847  1.1247 -1.7879  0.7272
 8058SOL     OW35806   2.557   0.780  10.251 -0.1319 -0.3843 -0.2567
 8058SOL    HW135807   2.585   0.868  10.226 -0.9634  0.4357  1.6363
 8058SOL    HW235808   2.490   0.791  10.319  0.3170 -2.0421  0.4771
 8059SOL     OW35809   4.033   1.902   4.497  0.1174 -0.0518 -0.1581
 8059SOL    HW135810   4.006   1.968   4.434 -3.0596 -3.3649 -2.2967
 8059SOL    HW235811   4.108   1.865   4.449 -0.1794 -2.2851  1.0813
 8060SOL     OW35812   0.766   0.787  14.989 -0.0158 -0.2487  0.1862
 8060SOL    HW135813   0.697   0.840  15.030  0.1754  0.1219  0.0320
 8060SOL    HW235814   0.740   0.789  14.897 -1.8762  1.1394  0.7274
 8061SOL     OW35815   2.798   0.677   7.533  0.0004 -0.3598 -0.2439
 8061SOL    HW135816   2.763   0.643   7.451 -1.3965  1.0094 -0.2086
 8061SOL    HW235817   2.813   0.769   7.512 -1.1684 -0.5890 -2.1106
 8062SOL     OW35818   3.328   3.630   7.032 -0.5662 -0.2256  0.2805
 8062SOL    HW135819   3.331   3.555   6.974 -1.3368 -0.1220  0.1151
 8062SOL    HW235820   3.421   3.643   7.051 -0.6970  0.1377  0.6872
 8063SOL     OW35821   0.885   2.848   1.262 -0.0936 -0.4693  0.3690
 8063SOL    HW135822   0.974   2.821   1.284  0.4806  0.7000 -0.5915
 8063SOL    HW235823   0.888   2.838   1.167  1.1768  0.5822  0.2971
 8064SOL     OW35824   2.769   0.128   4.056 -0.5721  0.2719 -0.1144
 8064SOL    HW135825   2.803   0.047   4.094 -0.6403 -0.4866 -1.6675
 8064SOL    HW235826   2.679   0.122   4.087 -1.6741  0.8269 -3.1677
 8065SOL     OW35827   2.742   4.410   5.520  0.3078 -0.6627 -0.1213
 8065SOL    HW135828   2.752   4.406   5.425 -2.9752  0.5160 -0.5235
 8065SOL    HW235829   2.741   4.319   5.549 -0.1238 -0.4330  0.6101
 8066SOL     OW35830   2.965   3.479  15.836 -0.3509 -1.3858 -0.0017
 8066SOL    HW135831   2.871   3.464  15.826  0.0384 -3.4369 -0.5277
 8066SOL    HW235832   2.980   3.566  15.799 -3.2625 -2.1491 -2.9800
 8067SOL     OW35833   2.025   3.185   3.452 -0.1565 -0.3401  0.2171
 8067SOL    HW135834   2.066   3.104   3.483 -2.4643 -0.8380  1.9932
 8067SOL    HW235835   1.935   3.155   3.441 -0.7235  1.1843  0.6835
 8068SOL     OW35836   0.610   0.170   2.043 -0.1134 -0.1295 -0.1627
 8068SOL    HW135837   0.613   0.074   2.042  1.2963 -0.0871 -0.6317
 8068SOL    HW235838   0.548   0.187   2.114  0.3084 -0.4251  0.2842
 8069SOL     OW35839   4.328   0.813   1.052  0.4393  0.2086 -0.2877
 8069SOL    HW135840   4.350   0.720   1.044 -0.5085 -0.2517  2.4031
 8069SOL    HW235841   4.347   0.844   0.963  1.1787  1.0326  0.1587
 8070SOL     OW35842   3.958   4.460   4.685  0.0516 -0.5343 -0.3648
 8070SOL    HW135843   3.888   4.443   4.622  1.5063  0.1113 -2.1391
 8070SOL    HW235844   3.957   4.378   4.735 -2.7456 -1.3704 -1.7899
 8071SOL     OW35845   0.420   1.481   5.286 -0.3497  0.2276  0.5898
 8071SOL    HW135846   0.486   1.539   5.249  0.9660 -1.7263 -0.1368
 8071SOL    HW235847   0.459   1.394   5.291  0.7110  0.6478 -0.3869
 8072SOL     OW35848   2.521   2.305   7.709  0.1110 -0.4614  0.2322
 8072SOL    HW135849   2.479   2.240   7.652 -0.5604  0.1711  0.0053
 8072SOL    HW235850   2.457   2.315   7.780 -0.5583 -0.7370 -0.3232
 8073SOL     OW35851   2.004   0.126   0.843 -0.2795 -0.2406  0.2824
 8073SOL    HW135852   1.987   0.033   0.863  0.8406 -1.2354 -3.3829
 8073SOL    HW235853   1.949   0.138   0.766 -0.0654 -0.7728  0.0396
 8074SOL     OW35854   2.768   0.637   0.800  0.0527 -0.0425 -0.3194
 8074SOL    HW135855   2.727   0.551   0.790 -0.3044  0.1587 -0.5736
 8074SOL    HW235856   2.840   0.639   0.737 -0.8226  1.8293 -1.2715
 8075SOL     OW35857   3.542   0.626   6.265  0.3813 -0.0607  0.3957
 8075SOL    HW135858   3.462   0.672   6.238 -0.1180 -1.7560 -0.9831
 8075SOL    HW235859   3.511   0.583   6.344 -1.4572  0.0105 -0.2853
 8076SOL     OW35860   1.724   1.220  12.236 -0.4046 -0.6222  0.5582
 8076SOL    HW135861   1.814   1.187  12.226 -0.0791  1.1789 -2.4407
 8076SOL    HW235862   1.730   1.279  12.310  0.5500 -2.0983  1.6614
 8077SOL     OW35863   2.872   4.565  17.214  0.5475  0.1585  0.0869
 8077SOL    HW135864   2.818   4.562  17.293  0.2022 -0.9871 -0.2001
 8077SOL    HW235865   2.873   4.472  17.192  0.9358  0.3482 -0.6849
 8078SOL     OW35866   2.947   0.236  15.453 -0.6267 -0.0214 -0.2244
 8078SOL    HW135867   2.888   0.308  15.476  0.5779  0.5154  1.1576
 8078SOL    HW235868   2.985   0.211  15.537  2.2674  1.1014 -1.2073
 8079SOL     OW35869   3.091   0.886   7.628  0.1712  0.6936  0.7056
 8079SOL    HW135870   3.121   0.944   7.698 -1.0652  1.3193  0.7332
 8079SOL    HW235871   2.998   0.907   7.633 -0.1559 -0.7474  0.4295
 8080SOL     OW35872   0.943   2.387   8.013  0.1374  0.4296 -0.1928
 8080SOL    HW135873   0.926   2.313   8.071 -1.0735  0.3041 -0.7239
 8080SOL    HW235874   0.982   2.450   8.074  0.0272 -0.0507  0.3670
 8081SOL     OW35875   0.953   2.240   2.904 -0.1112 -0.1418  0.3369
 8081SOL    HW135876   0.909   2.197   2.831  0.8616 -0.9510  0.2100
 8081SOL    HW235877   0.946   2.169   2.968 -3.7572  1.1812  1.3719
 8082SOL     OW35878   4.663   2.763   7.423  0.1982 -0.2529 -0.1602
 8082SOL    HW135879   4.631   2.695   7.364 -1.7917  0.6937 -0.1812
 8082SOL    HW235880   4.692   2.820   7.351  0.5736  0.0003  0.1925
 8083SOL     OW35881   1.811   3.738  16.522  0.1474 -0.0679 -0.4347
 8083SOL    HW135882   1.780   3.828  16.514  0.4574  0.1860  1.2250
 8083SOL    HW235883   1.806   3.701  16.434  0.1008  0.5830 -0.7037
 8084SOL     OW35884   0.919   0.457   8.842 -0.1292  0.3147  0.1617
 8084SOL    HW135885   1.002   0.482   8.802  0.6490  0.7564  2.0580
 8084SOL    HW235886   0.921   0.530   8.904  1.0750  0.1764  0.2867
 8085SOL     OW35887   3.077   1.130  14.990 -0.7454 -0.1108  0.5233
 8085SOL    HW135888   3.014   1.068  15.026 -0.2710 -0.5482  0.6079
 8085SOL    HW235889   3.072   1.112  14.896  0.9319  0.8086  0.2519
 8086SOL     OW35890   3.695   0.029   6.441  0.3627 -0.6541  0.5137
 8086SOL    HW135891   3.730   4.680   6.451  0.4017 -1.0646 -3.3200
 8086SOL    HW235892   3.606   0.017   6.408 -0.1330 -1.4991  2.1623
 8087SOL     OW35893   0.496   4.188   9.830 -0.3906  0.2130 -0.1404
 8087SOL    HW135894   0.493   4.247   9.905  0.8041  0.3876 -0.2268
 8087SOL    HW235895   0.585   4.191   9.794 -0.4072  1.4442 -0.0812
 8088SOL     OW35896   0.916   3.790   9.204  0.6373 -0.4002  0.2765
 8088SOL    HW135897   0.828   3.815   9.174 -0.0012  0.7555  3.1383
 8088SOL    HW235898   0.899   3.715   9.261 -1.3193 -0.2416 -0.1064
 8089SOL     OW35899   0.564   3.289   1.630  0.2852 -0.2623 -0.4709
 8089SOL    HW135900   0.531   3.347   1.561  1.8024  0.3429 -0.6727
 8089SOL    HW235901   0.648   3.261   1.594 -0.0253 -2.7645  0.6928
 8090SOL     OW35902   2.304   1.025   7.011 -1.1978  0.4507  0.4264
 8090SOL    HW135903   2.314   0.936   6.979 -0.9011  0.0922  1.5159
 8090SOL    HW235904   2.345   1.073   6.940 -3.5965  1.2940 -0.4012
 8091SOL     OW35905   2.510   3.621   3.467 -0.1979 -0.0115 -0.7987
 8091SOL    HW135906   2.437   3.623   3.529  1.1912  1.5083  0.8090
 8091SOL    HW235907   2.460   3.647   3.390  0.9579  2.1340 -0.8245
 8092SOL     OW35908   1.775   3.560   3.087  0.1019  0.0352  0.3199
 8092SOL    HW135909   1.758   3.548   2.994  2.3818  0.1977 -0.1269
 8092SOL    HW235910   1.723   3.639   3.101  1.5641  1.2558 -1.1689
 8093SOL     OW35911   4.538   3.888   4.679 -0.2115  0.1533 -0.3687
 8093SOL    HW135912   4.463   3.947   4.675  0.6571  1.3239  0.7301
 8093SOL    HW235913   4.570   3.891   4.769  1.7655 -0.1360 -1.0656
 8094SOL     OW35914   3.490   0.381   8.920  0.1939 -0.1936  0.1008
 8094SOL    HW135915   3.565   0.422   8.964  1.4321 -0.2152 -1.9902
 8094SOL    HW235916   3.505   0.288   8.937 -0.3960 -0.6766 -2.0500
 8095SOL     OW35917   3.182   2.606   8.479 -0.1602 -0.4643  0.1960
 8095SOL    HW135918   3.269   2.608   8.438  1.0371  1.0493  2.8129
 8095SOL    HW235919   3.216   2.629   8.565  0.8636 -0.2888 -0.2481
 8096SOL     OW35920   3.483   2.776   0.718 -0.1754  0.0962 -0.1206
 8096SOL    HW135921   3.507   2.830   0.792 -1.4511 -0.3572  0.6139
 8096SOL    HW235922   3.389   2.791   0.720 -0.2955 -0.3352 -1.8184
 8097SOL     OW35923   1.259   4.358   4.092 -0.0609  0.2214 -0.4726
 8097SOL    HW135924   1.351   4.347   4.113  0.1209  2.2396 -0.1547
 8097SOL    HW235925   1.251   4.272   4.052 -0.2071  1.1290 -2.4524
 8098SOL     OW35926   4.132   3.817   2.847 -0.1096 -0.2875 -0.6740
 8098SOL    HW135927   4.041   3.794   2.865  0.2432 -1.2961 -0.1847
 8098SOL    HW235928   4.109   3.858   2.763 -0.9327 -1.0681 -0.8283
 8099SOL     OW35929   3.341   1.710   7.431  0.1559  0.1641  0.1445
 8099SOL    HW135930   3.274   1.771   7.461  1.2687  1.8569 -0.8626
 8099SOL    HW235931   3.292   1.637   7.392 -0.5968 -0.0587  1.5234
 8100SOL     OW35932   0.348   1.047   2.213 -0.3708 -0.2824 -0.0005
 8100SOL    HW135933   0.368   0.955   2.196  0.1081  0.2277 -2.1106
 8100SOL    HW235934   0.427   1.086   2.174  0.6962 -1.2237  1.1873
 8101SOL     OW35935   2.925   1.313  16.991  0.8215  0.4193 -0.2797
 8101SOL    HW135936   2.913   1.369  16.914 -2.2108  0.0272 -0.0753
 8101SOL    HW235937   3.017   1.288  16.994  0.5783 -0.7478 -3.1670
 8102SOL     OW35938   2.131   3.103   6.929  0.1502  0.3724  0.5355
 8102SOL    HW135939   2.087   3.058   7.001 -1.7722 -1.1142 -1.5595
 8102SOL    HW235940   2.070   3.086   6.857 -0.0465 -0.1409  0.8192
 8103SOL     OW35941   2.054   3.113   9.827 -0.3984  0.1407  0.6132
 8103SOL    HW135942   1.975   3.059   9.824 -1.4190  1.6294  0.9199
 8103SOL    HW235943   2.015   3.197   9.807  0.4981  1.0582  2.7150
 8104SOL     OW35944   4.415   1.274   3.826 -0.0716  0.4706  0.3265
 8104SOL    HW135945   4.417   1.338   3.898  0.0611 -0.4946  1.1826
 8104SOL    HW235946   4.500   1.287   3.785  0.3677  1.0889  1.4222
 8105SOL     OW35947   1.437   3.329   6.994  0.7681  0.7921 -0.2429
 8105SOL    HW135948   1.501   3.271   7.036 -1.5093 -1.6008 -0.0260
 8105SOL    HW235949   1.389   3.362   7.069  0.2347  1.3403 -0.8308
 8106SOL     OW35950   0.257   1.463   3.110  0.3451 -0.0169  0.0533
 8106SOL    HW135951   0.173   1.470   3.155 -0.6048 -0.5564 -1.6015
 8106SOL    HW235952   0.272   1.369   3.102  0.6695 -0.0691  1.4294
 8107SOL     OW35953   2.381   3.603   7.209 -0.2853  0.6637 -0.4678
 8107SOL    HW135954   2.309   3.664   7.192 -0.0948  0.9502 -0.2370
 8107SOL    HW235955   2.449   3.655   7.167 -1.1231  2.4936  0.4374
 8108SOL     OW35956   0.844   4.166  11.349  0.8336  0.1154 -0.2270
 8108SOL    HW135957   0.909   4.169  11.420 -0.0063 -0.7470  0.5750
 8108SOL    HW235958   0.806   4.254  11.352 -0.7468 -0.6498  2.2196
 8109SOL     OW35959   0.680   3.413   7.081  0.3441 -0.0844 -0.0054
 8109SOL    HW135960   0.633   3.409   6.998 -0.7065 -0.0525  0.5774
 8109SOL    HW235961   0.683   3.504   7.112  1.1452  0.3100 -1.2532
 8110SOL     OW35962   2.329   0.072   2.290 -0.3354  0.2030 -0.1789
 8110SOL    HW135963   2.362   0.046   2.203  0.8871  1.3258 -0.0571
 8110SOL    HW235964   2.246   0.025   2.287 -0.0330 -0.3548  0.3015
 8111SOL     OW35965   4.377   3.219   4.176  0.0252 -0.3371  0.0768
 8111SOL    HW135966   4.441   3.233   4.246 -1.4738 -3.7311  2.1380
 8111SOL    HW235967   4.304   3.205   4.237 -0.3970  0.2025 -0.3015
 8112SOL     OW35968   0.975   4.504   5.941  0.4179  0.1793 -0.5206
 8112SOL    HW135969   1.037   4.466   5.878  0.4154 -0.4014 -0.1697
 8112SOL    HW235970   0.993   4.598   5.929  1.6258  0.0220  0.0210
 8113SOL     OW35971   0.158   3.729   8.861  0.0974  0.6425 -0.3588
 8113SOL    HW135972   0.184   3.768   8.944  2.6088 -0.8183 -0.4413
 8113SOL    HW235973   0.086   3.790   8.848  0.4671  1.1281 -0.1011
 8114SOL     OW35974   2.846   2.183   8.721  0.1837 -0.5221 -0.6475
 8114SOL    HW135975   2.853   2.165   8.815 -0.1459  2.0461 -0.1298
 8114SOL    HW235976   2.758   2.152   8.700  0.7171 -1.8169 -0.9333
 8115SOL     OW35977   1.396   1.443   9.243 -0.0238 -0.1147  0.3133
 8115SOL    HW135978   1.404   1.394   9.161  0.7613 -0.6375  0.7032
 8115SOL    HW235979   1.484   1.473   9.264 -0.1413  1.1231 -1.0075
 8116SOL     OW35980   0.738   4.209  11.661  0.2053  0.0037 -0.2121
 8116SOL    HW135981   0.680   4.134  11.652  2.5762 -1.6606 -1.6486
 8116SOL    HW235982   0.665   4.268  11.679 -0.7958 -1.6902  1.2505
 8117SOL     OW35983   1.298   4.269   4.482 -0.0712  0.0634 -0.1485
 8117SOL    HW135984   1.330   4.187   4.520 -1.8186 -0.4218  0.2389
 8117SOL    HW235985   1.221   4.239   4.434 -0.9556 -0.4704  1.6393
 8118SOL     OW35986   3.275   4.277  16.719 -0.6021  1.1641  0.6251
 8118SOL    HW135987   3.303   4.252  16.806 -1.0935  0.9509  0.7200
 8118SOL    HW235988   3.354   4.253  16.671 -0.8709  1.6840 -0.0854
 8119SOL     OW35989   4.348   2.672   0.126 -0.0951 -0.1276  0.6674
 8119SOL    HW135990   4.365   2.668   0.032 -1.2940 -0.9308  0.4871
 8119SOL    HW235991   4.305   2.589   0.147 -1.6053  0.0887 -1.5846
 8120SOL     OW35992   3.835   0.404   8.233  0.2484  0.4854 -0.0481
 8120SOL    HW135993   3.858   0.325   8.282  0.6485 -0.0215 -1.0485
 8120SOL    HW235994   3.921   0.440   8.211  0.4845 -0.9562 -1.5074
 8121SOL     OW35995   3.424   2.597   7.467 -0.0718 -0.0743 -0.3615
 8121SOL    HW135996   3.346   2.644   7.438 -0.5246 -0.3063  0.4875
 8121SOL    HW235997   3.436   2.625   7.558 -1.7968  2.7441 -1.0289
 8122SOL     OW35998   1.038   2.946  14.793  0.0476  0.0867 -0.1740
 8122SOL    HW135999   1.014   2.972  14.882  0.3644 -1.6973  0.4252
 8122SOL    HW236000   0.951   2.944  14.752 -0.8797  1.4301  1.7192
 8123SOL     OW36001   4.675   1.787   9.219 -0.2949 -0.1746  0.5234
 8123SOL    HW136002   4.647   1.796   9.310 -1.6970 -0.9638  0.1708
 8123SOL    HW236003   4.678   1.879   9.192 -0.6290 -1.0346 -2.4076
 8124SOL     OW36004   0.058   3.820   8.306 -0.3655 -0.5037  0.2099
 8124SOL    HW136005   4.728   3.757   8.323 -1.1068  0.8433  2.2690
 8124SOL    HW236006   0.001   3.894   8.286  0.9718 -0.0233 -1.7959
 8125SOL     OW36007   0.104   3.727  16.224 -0.0332 -0.1055 -0.1095
 8125SOL    HW136008   0.090   3.635  16.200 -0.3115 -0.0638 -0.1050
 8125SOL    HW236009   0.120   3.723  16.318 -2.6387  2.8805  0.4435
 8126SOL     OW36010   0.280   2.801   7.601 -0.0946  0.4952 -0.2895
 8126SOL    HW136011   0.361   2.799   7.652 -0.3918 -1.2193  0.1244
 8126SOL    HW236012   0.324   2.783   7.518 -0.2474  1.7428 -0.6424
 8127SOL     OW36013   1.644   0.400   8.401 -0.3348  0.4020 -0.6326
 8127SOL    HW136014   1.561   0.427   8.361 -1.0074  0.6386  0.9077
 8127SOL    HW236015   1.616   0.373   8.489  0.8056 -0.3634 -0.5059
 8128SOL     OW36016   1.091   2.549   2.795 -0.0245 -0.0806 -0.1061
 8128SOL    HW136017   1.116   2.507   2.877  0.6899  2.2018  0.8597
 8128SOL    HW236018   0.997   2.540   2.813  0.2295 -1.0380  0.7344
 8129SOL     OW36019   3.581   3.854   0.476 -0.0575  0.0668 -0.1919
 8129SOL    HW136020   3.656   3.806   0.442 -0.0587  1.4863 -2.2290
 8129SOL    HW236021   3.574   3.810   0.561  0.5817  2.2919  1.0112
 8130SOL     OW36022   4.398   0.750   5.320 -0.0588 -0.3194 -0.1127
 8130SOL    HW136023   4.321   0.731   5.373  0.0027 -3.4151 -1.1236
 8130SOL    HW236024   4.356   0.826   5.279 -2.1813 -1.1510  0.5024
 8131SOL     OW36025   2.539   0.406  12.019 -0.1245  0.9060 -0.2071
 8131SOL    HW136026   2.555   0.491  12.059  2.7933  0.5384 -0.5850
 8131SOL    HW236027   2.444   0.396  12.022 -0.2126  1.1494 -1.9415
 8132SOL     OW36028   0.885   0.103  10.100 -0.0807  0.2550  0.2721
 8132SOL    HW136029   0.962   0.084  10.046 -0.0928 -1.4000  0.8275
 8132SOL    HW236030   0.814   0.055  10.058  1.3872 -1.3531 -0.3686
 8133SOL     OW36031   1.278   3.690   7.023 -0.1855 -0.1155  0.8826
 8133SOL    HW136032   1.216   3.729   6.962  2.1507  1.3311 -0.5364
 8133SOL    HW236033   1.242   3.603   7.038 -0.5685 -0.2953 -1.0728
 8134SOL     OW36034   2.993   3.895   9.285  0.7428 -0.2660  0.1839
 8134SOL    HW136035   3.023   3.873   9.196 -2.2824  1.1422 -1.1791
 8134SOL    HW236036   3.058   3.850   9.340 -0.1091 -1.4034  0.2671
 8135SOL     OW36037   1.834   2.219  17.701  0.3809 -0.2064 -0.3087
 8135SOL    HW136038   1.901   2.285  17.719  1.7509 -1.4722 -0.7384
 8135SOL    HW236039   1.813   2.192   0.035 -2.5465  0.4391 -0.8312
 8136SOL     OW36040   3.475   2.683   8.414 -0.2158 -0.1267  0.6489
 8136SOL    HW136041   3.536   2.637   8.471  1.1213 -0.8429 -1.3519
 8136SOL    HW236042   3.505   2.774   8.410  0.5820 -0.3978  0.3511
 8137SOL     OW36043   2.583   4.223   0.930  0.4225  0.4879  0.2747
 8137SOL    HW136044   2.641   4.193   0.859 -0.3004  1.7848 -0.8647
 8137SOL    HW236045   2.517   4.270   0.879  1.5449  2.5081  0.6723
 8138SOL     OW36046   2.405   1.736   2.745  0.2045 -0.4567  0.1318
 8138SOL    HW136047   2.396   1.785   2.827  0.9787 -0.0547 -0.0223
 8138SOL    HW236048   2.429   1.654   2.788 -2.1994 -0.3868  1.6164
 8139SOL     OW36049   0.050   0.983   4.484  0.1517  0.2840 -0.4524
 8139SOL    HW136050   0.091   0.954   4.403  0.1226  2.2037 -1.1736
 8139SOL    HW236051   4.700   0.959   4.458 -0.9986  3.7464  0.3090
 8140SOL     OW36052   1.748   0.038   4.339 -0.6825  0.0563 -0.6947
 8140SOL    HW136053   1.674   0.095   4.318 -0.3553  1.0726  0.9188
 8140SOL    HW236054   1.813   0.043   4.269  1.3868 -2.4733  1.0132
 8141SOL     OW36055   2.744   4.008  15.877  0.1543  0.0925 -0.2626
 8141SOL    HW136056   2.795   3.929  15.897  0.2859  0.6387  1.5676
 8141SOL    HW236057   2.812   4.066  15.843 -1.3102  1.5136 -0.7533
 8142SOL     OW36058   3.914   3.626  14.709 -0.8033  0.2890 -0.1255
 8142SOL    HW136059   3.895   3.534  14.728  0.9820  0.0368  0.4125
 8142SOL    HW236060   3.839   3.665  14.754  0.0740  1.4018  0.3601
 8143SOL     OW36061   2.188   0.595   1.290 -0.0750 -0.8436  0.4171
 8143SOL    HW136062   2.178   0.586   1.196  0.6615 -0.0665  0.2621
 8143SOL    HW236063   2.267   0.648   1.293 -1.0372  0.5305  1.4946
 8144SOL     OW36064   3.438   3.303   9.376 -0.7118  0.0443 -0.2818
 8144SOL    HW136065   3.458   3.366   9.307  0.4935  1.1504  1.0882
 8144SOL    HW236066   3.380   3.252   9.319 -1.2149 -0.0543  0.3110
 8145SOL     OW36067   2.169   1.716   1.014  0.2248  0.2777 -0.5042
 8145SOL    HW136068   2.181   1.651   0.945 -0.8063 -0.5147  0.0591
 8145SOL    HW236069   2.232   1.682   1.077 -0.3616 -0.6000 -0.3950
 8146SOL     OW36070   3.926   1.483   0.672  0.3519 -0.4964 -0.2159
 8146SOL    HW136071   3.988   1.517   0.608  1.2292  1.2027  1.5520
 8146SOL    HW236072   3.845   1.503   0.625  0.5150 -0.1681 -0.3555
 8147SOL     OW36073   2.008   2.262   9.477 -0.6397 -0.1594  0.1611
 8147SOL    HW136074   2.090   2.291   9.436  0.5695 -3.3326  0.3233
 8147SOL    HW236075   1.976   2.207   9.406 -1.7063  1.1075 -0.3499
 8148SOL     OW36076   1.423   1.990   1.595 -0.1952  1.2692 -0.4325
 8148SOL    HW136077   1.518   2.000   1.590 -0.0235 -0.0111  0.2148
 8148SOL    HW236078   1.405   2.080   1.622 -0.0478  1.1213  0.1621
 8149SOL     OW36079   2.844   2.140   2.565 -0.0147  0.2371 -0.9319
 8149SOL    HW136080   2.848   2.185   2.481 -0.4849 -0.8147 -1.5218
 8149SOL    HW236081   2.751   2.144   2.586  0.2069 -0.7629  0.2812
 8150SOL     OW36082   3.191   2.551  12.375 -0.1119 -0.6004 -0.6693
 8150SOL    HW136083   3.284   2.528  12.384  0.2733  0.9981 -0.6438
 8150SOL    HW236084   3.177   2.573  12.467  1.7535 -0.5869 -0.3804
 8151SOL     OW36085   2.280   0.405  14.848 -0.2960 -0.1258 -0.0299
 8151SOL    HW136086   2.227   0.396  14.769 -2.3586 -0.9065  1.4329
 8151SOL    HW236087   2.240   0.334  14.899  0.6904  0.5291  1.6722
 8152SOL     OW36088   2.739   4.455   7.368 -0.4370 -0.3967 -0.6544
 8152SOL    HW136089   2.662   4.496   7.328 -1.0324  0.9129  1.8264
 8152SOL    HW236090   2.809   4.519   7.362 -0.4915 -0.3177 -0.4336
 8153SOL     OW36091   3.603   2.686  15.146 -1.0572  0.1152  0.2398
 8153SOL    HW136092   3.643   2.601  15.165 -2.1592 -0.9813 -2.3267
 8153SOL    HW236093   3.562   2.659  15.064  0.1208 -0.2554 -0.2300
 8154SOL     OW36094   4.004   2.105   0.743  0.5957 -0.7648  0.2451
 8154SOL    HW136095   4.043   2.150   0.818  0.4849 -0.1865 -0.0414
 8154SOL    HW236096   3.963   2.174   0.691  0.9942 -1.6188 -1.1995
 8155SOL     OW36097   0.402   0.098   6.246 -0.0809 -0.2508 -0.1521
 8155SOL    HW136098   0.435   0.105   6.336  1.0624  0.7609 -0.6398
 8155SOL    HW236099   0.487   0.112   6.203  1.3837 -0.9562  2.5144
 8156SOL     OW36100   2.052   3.253   7.990  0.1805  0.2406  0.2515
 8156SOL    HW136101   1.995   3.193   8.038 -0.4972 -0.4077 -1.3474
 8156SOL    HW236102   2.118   3.268   8.057 -0.3711 -3.3712  1.6119
 8157SOL     OW36103   2.070   4.694   2.213  0.1229 -0.0044  0.3789
 8157SOL    HW136104   2.056   4.717   2.121 -2.5525 -0.5353  0.6617
 8157SOL    HW236105   2.051   4.601   2.223  0.5531 -0.3803 -2.2232
 8158SOL     OW36106   3.149   2.879   7.797  0.6725 -0.7474  0.1932
 8158SOL    HW136107   3.209   2.917   7.733  1.4863  0.4970  1.6912
 8158SOL    HW236108   3.067   2.884   7.747  1.2623 -1.8882 -0.8827
 8159SOL     OW36109   4.239   2.832   4.598 -0.0212 -0.0733  0.9058
 8159SOL    HW136110   4.287   2.772   4.654 -1.7260 -1.1366  1.2337
 8159SOL    HW236111   4.312   2.874   4.553 -0.5407  1.1800  1.2230
 8160SOL     OW36112   4.115   0.425   6.934 -0.3146  0.0828 -0.2270
 8160SOL    HW136113   4.039   0.445   6.989  1.4569  1.9203  1.5343
 8160SOL    HW236114   4.186   0.431   6.998  1.0330 -0.3731 -1.6671
 8161SOL     OW36115   0.219   2.796  13.109 -0.1308  0.4581 -0.0174
 8161SOL    HW136116   0.202   2.723  13.049  0.3616  1.7838 -1.7893
 8161SOL    HW236117   0.302   2.835  13.082 -0.2430  0.8324  0.1827
 8162SOL     OW36118   2.737   4.197   0.494 -0.5179 -0.1814 -0.4135
 8162SOL    HW136119   2.680   4.165   0.425  1.7030 -2.0141 -1.3891
 8162SOL    HW236120   2.815   4.144   0.478 -0.5227 -0.8826  1.7748
 8163SOL     OW36121   4.358   3.951   5.379 -0.0794 -0.4514 -0.1045
 8163SOL    HW136122   4.387   3.865   5.409  0.5921 -0.1850  0.0197
 8163SOL    HW236123   4.390   4.015   5.443  1.0433  2.8209 -3.9099
 8164SOL     OW36124   2.608   2.870  16.694 -0.8214 -0.3819 -0.3660
 8164SOL    HW136125   2.546   2.873  16.767 -2.2307 -2.1781 -1.5050
 8164SOL    HW236126   2.542   2.842  16.631 -1.3565  0.7793 -0.3350
 8165SOL     OW36127   3.387   4.241  16.314 -0.3424  0.4530 -0.1777
 8165SOL    HW136128   3.467   4.215  16.267  0.8966 -0.0244  2.2290
 8165SOL    HW236129   3.399   4.335  16.297  0.8505  0.9348  3.4360
 8166SOL     OW36130   3.753   4.435  15.347 -0.6425  1.0070  0.4402
 8166SOL    HW136131   3.748   4.531  15.349 -2.1220  1.0093 -2.2903
 8166SOL    HW236132   3.778   4.420  15.438 -0.6034  1.8403  0.5719
 8167SOL     OW36133   4.552   3.187   3.317 -0.1355  0.2508 -0.0974
 8167SOL    HW136134   4.475   3.138   3.345 -0.1307 -0.2057 -0.9015
 8167SOL    HW236135   4.566   3.167   3.225  0.8816 -0.3883  0.1920
 8168SOL     OW36136   2.721   1.385   3.833  0.1411  0.1901  0.8660
 8168SOL    HW136137   2.663   1.403   3.759  0.1066 -1.5353  0.4893
 8168SOL    HW236138   2.734   1.291   3.820 -0.6493  0.3801 -1.3206
 8169SOL     OW36139   1.731   3.998  16.453  0.2093 -0.3336  0.1237
 8169SOL    HW136140   1.753   4.038  16.369 -2.5371  1.7658  0.3604
 8169SOL    HW236141   1.773   4.050  16.522  1.6167  0.3941 -1.3016
 8170SOL     OW36142   3.677   2.563  15.419 -0.5061 -0.5374 -0.4034
 8170SOL    HW136143   3.613   2.499  15.386  1.7891 -2.8474 -0.3429
 8170SOL    HW236144   3.648   2.647  15.383  1.4502 -0.6640 -2.2415
 8171SOL     OW36145   1.892   2.714   9.286 -0.2915  0.1264 -0.5022
 8171SOL    HW136146   1.845   2.631   9.274  0.2355 -0.1275 -0.8031
 8171SOL    HW236147   1.895   2.723   9.381  2.2495 -1.8375 -0.3974
 8172SOL     OW36148   2.558   4.654   7.830 -0.1459  0.3146  0.2315
 8172SOL    HW136149   2.627   4.619   7.775  0.0644  0.8206  0.1707
 8172SOL    HW236150   2.485   4.601   7.799  1.3300 -0.4950 -1.8273
 8173SOL     OW36151   3.163   4.041   1.928 -0.5158 -0.5524 -0.3686
 8173SOL    HW136152   3.077   4.003   1.947 -0.7759 -0.4698 -1.4019
 8173SOL    HW236153   3.143   4.108   1.863 -0.6242 -1.5537 -1.3551
 8174SOL     OW36154   2.095   1.287   7.697  0.2768 -0.3663 -0.2425
 8174SOL    HW136155   2.024   1.332   7.652  0.6899 -1.7520 -2.2865
 8174SOL    HW236156   2.150   1.363   7.715  0.4997 -1.2166  2.6998
 8175SOL     OW36157   3.850   4.143  15.166  0.2284  0.2788  0.2337
 8175SOL    HW136158   3.770   4.112  15.209  1.3171 -0.7566  1.4773
 8175SOL    HW236159   3.908   4.067  15.173 -0.5491 -0.3849 -0.4991
 8176SOL     OW36160   3.120   1.969  10.228 -0.0528 -0.7199 -0.4324
 8176SOL    HW136161   3.167   1.956  10.145  2.4454  0.1213  0.8322
 8176SOL    HW236162   3.174   1.920  10.290 -1.3740  0.2999  1.5042
 8177SOL     OW36163   0.795   0.795   2.054 -0.1037 -0.1542 -0.2673
 8177SOL    HW136164   0.783   0.816   2.147  1.2744 -0.3980 -0.0314
 8177SOL    HW236165   0.798   0.699   2.060  0.2576 -0.0764  0.8065
 8178SOL     OW36166   1.503   0.338   8.648  0.1480 -0.3294  0.2232
 8178SOL    HW136167   1.477   0.381   8.730 -0.8257 -0.4574 -0.0208
 8178SOL    HW236168   1.418   0.311   8.612 -0.2807  1.2031  0.0775
 8179SOL     OW36169   3.316   0.061   3.287 -0.1153  0.5176 -0.2893
 8179SOL    HW136170   3.355   0.077   3.373  0.7901  0.4493 -0.6911
 8179SOL    HW236171   3.239   0.118   3.284  0.5987  1.4395 -1.2936
 8180SOL     OW36172   4.732   1.553   4.592 -0.3840 -0.3237  0.2929
 8180SOL    HW136173   0.084   1.539   4.567 -0.2857  0.9357 -0.0310
 8180SOL    HW236174   4.691   1.564   4.506 -1.6110 -0.4119  0.8534
 8181SOL     OW36175   0.775   3.149   7.100  0.3786 -0.0466  0.2539
 8181SOL    HW136176   0.754   3.241   7.088  2.7050  0.2934 -1.2899
 8181SOL    HW236177   0.707   3.091   7.066  2.1531 -2.2449  0.4194
 8182SOL     OW36178   1.979   0.452   0.718 -0.7034  0.0805  0.5946
 8182SOL    HW136179   1.960   0.366   0.680  2.8340 -0.4762  0.1689
 8182SOL    HW236180   2.031   0.429   0.795  0.1879 -0.0612 -0.0513
 8183SOL     OW36181   1.057   3.810   2.631  0.1910 -0.3683  0.3070
 8183SOL    HW136182   1.046   3.894   2.675 -1.0825 -0.6925  0.6045
 8183SOL    HW236183   0.983   3.755   2.657  1.5918 -1.3255  2.2467
 8184SOL     OW36184   0.123   2.226   8.817 -0.3874 -0.1227 -0.4936
 8184SOL    HW136185   0.050   2.192   8.868  0.7882 -0.6134  0.8714
 8184SOL    HW236186   0.192   2.259   8.875 -0.4774  1.2573 -1.1799
 8185SOL     OW36187   1.419   3.029   2.852 -0.3599 -0.2508  0.6395
 8185SOL    HW136188   1.485   2.962   2.838  1.6204  1.8388 -0.0474
 8185SOL    HW236189   1.341   2.975   2.865 -0.4195 -1.0900 -3.2007
 8186SOL     OW36190   4.572   3.933   6.317 -0.4773  0.5569  0.2805
 8186SOL    HW136191   4.500   3.933   6.255 -0.0852  0.8099 -0.1734
 8186SOL    HW236192   4.580   4.025   6.342 -0.3845  0.0325  2.1872
 8187SOL     OW36193   0.311   0.352   8.101  0.0961 -0.3405  0.2225
 8187SOL    HW136194   0.282   0.387   8.017  0.1221  0.1414  0.4160
 8187SOL    HW236195   0.399   0.390   8.099 -0.2021  0.3556  0.3213
 8188SOL     OW36196   3.651   4.394  13.716 -0.1348 -0.1783 -0.1426
 8188SOL    HW136197   3.678   4.324  13.657  0.7433 -0.5982  0.7634
 8188SOL    HW236198   3.726   4.404  13.773  0.8717 -0.9195 -1.3302
 8189SOL     OW36199   1.357   0.089   7.422  0.1603  0.1117  0.3560
 8189SOL    HW136200   1.273   0.061   7.384  0.6035 -1.7481  0.7647
 8189SOL    HW236201   1.334   0.080   7.514  0.3834 -0.2212  0.3809
 8190SOL     OW36202   3.228   1.519   5.804 -0.4802 -0.3921  0.2016
 8190SOL    HW136203   3.289   1.482   5.741 -1.9931 -2.5809  0.0144
 8190SOL    HW236204   3.286   1.543   5.875  0.7813 -1.8187 -0.3561
 8191SOL     OW36205   0.866   3.659   2.744  0.0224 -0.4914  0.5107
 8191SOL    HW136206   0.775   3.655   2.712  0.1463 -0.5114  0.1600
 8191SOL    HW236207   0.869   3.698   2.832  0.8371  0.9848 -0.1719
 8192SOL     OW36208   4.273   0.771  13.713  0.1106 -0.0805  0.1124
 8192SOL    HW136209   4.288   0.865  13.714 -0.8024  0.0576  0.9721
 8192SOL    HW236210   4.278   0.747  13.621 -3.4374 -1.5737  0.2849
 8193SOL     OW36211   1.540   0.462   2.558 -0.0241 -0.1887 -0.5055
 8193SOL    HW136212   1.506   0.415   2.634  0.1369 -0.0508 -0.3473
 8193SOL    HW236213   1.631   0.469   2.586 -0.5570  0.3534  1.1256
 8194SOL     OW36214   1.216   4.145   8.584  0.0568  0.1789 -0.4126
 8194SOL    HW136215   1.267   4.105   8.654 -0.3060  0.1189 -0.1834
 8194SOL    HW236216   1.164   4.204   8.638 -0.0883 -0.1362 -0.2094
 8195SOL     OW36217   2.988   4.539  13.910  0.0245 -0.6307  0.7083
 8195SOL    HW136218   3.061   4.594  13.882 -2.1030 -0.9515 -5.5057
 8195SOL    HW236219   2.963   4.487  13.833 -1.4672  2.1602 -0.6863
 8196SOL     OW36220   2.680   3.419   6.531  0.1635 -0.2801  0.1186
 8196SOL    HW136221   2.589   3.393   6.542  1.0386 -3.2578  0.3855
 8196SOL    HW236222   2.694   3.447   6.621  1.8682 -3.2980  0.8186
 8197SOL     OW36223   0.759   0.255   4.528 -0.3632  0.3570  0.3101
 8197SOL    HW136224   0.854   0.250   4.537 -0.3624 -2.2522 -1.1930
 8197SOL    HW236225   0.730   0.333   4.576  1.0715  0.0904  1.6464
 8198SOL     OW36226   4.503   3.823   3.166 -0.2845  0.0125  0.3932
 8198SOL    HW136227   4.462   3.812   3.081 -0.8673  4.8083  0.0181
 8198SOL    HW236228   4.596   3.812   3.144 -0.3384  0.8155 -0.2373
 8199SOL     OW36229   2.233   0.850   7.230 -0.2779  0.0703  0.4637
 8199SOL    HW136230   2.274   0.924   7.184  3.8141 -4.1429 -2.6806
 8199SOL    HW236231   2.267   0.871   7.318  0.2440  2.2127 -0.2409
 8200SOL     OW36232   0.539   4.698   2.519  0.6935 -0.2107 -0.3940
 8200SOL    HW136233   0.557   4.604   2.514  3.2227  0.3014 -0.9990
 8200SOL    HW236234   0.468   4.712   2.457 -0.6886 -1.9422  0.7760
 8201SOL     OW36235   2.612   2.396   4.368  0.6445 -0.2042  0.0802
 8201SOL    HW136236   2.657   2.317   4.398  0.4195 -0.2746  0.2291
 8201SOL    HW236237   2.520   2.383   4.392  0.6384 -0.4565 -0.0881
 8202SOL     OW36238   4.257   3.479   5.958  0.3311  0.2194 -0.1004
 8202SOL    HW136239   4.256   3.400   6.012  1.0313  1.1333  1.2300
 8202SOL    HW236240   4.211   3.553   5.997  0.4695 -0.6763  1.7477
 8203SOL     OW36241   3.282   0.775   0.373 -0.7522 -0.2973  0.0836
 8203SOL    HW136242   3.335   0.705   0.336 -0.3318  0.6747 -1.1581
 8203SOL    HW236243   3.191   0.746   0.381 -1.1897  0.4925 -1.9187
 8204SOL     OW36244   4.668   1.840   7.171  0.3362 -0.2256  1.2868
 8204SOL    HW136245   4.734   1.843   7.241  1.4815 -0.1155  0.1863
 8204SOL    HW236246   4.697   1.907   7.109  0.9543 -1.3537  0.3569
 8205SOL     OW36247   4.399   3.472   5.109 -0.0172 -0.8455 -0.2930
 8205SOL    HW136248   4.344   3.548   5.132  1.2561 -0.6910  2.1744
 8205SOL    HW236249   4.332   3.411   5.079  0.2986 -1.6281  0.6107
 8206SOL     OW36250   3.204   2.598   3.573  0.3288 -0.3899 -0.6089
 8206SOL    HW136251   3.231   2.597   3.481 -0.7960 -1.5186 -0.9265
 8206SOL    HW236252   3.142   2.525   3.576  0.7645 -0.6523  2.1542
 8207SOL     OW36253   2.875   2.684   1.235  0.1715 -0.0151  0.1297
 8207SOL    HW136254   2.826   2.660   1.157 -2.3797  2.8212  0.8475
 8207SOL    HW236255   2.824   2.750   1.282  1.7675  1.8626 -0.7623
 8208SOL     OW36256   4.521   1.568   8.507 -0.2753 -0.5006 -0.1513
 8208SOL    HW136257   4.456   1.598   8.570 -0.6949  0.8144 -1.2041
 8208SOL    HW236258   4.465   1.564   8.429 -2.7391  0.1102  1.6016
 8209SOL     OW36259   4.644   1.109   1.258 -0.5776 -0.0830 -0.6879
 8209SOL    HW136260   4.590   1.138   1.331  1.7386  0.6547  0.7456
 8209SOL    HW236261   4.676   1.028   1.298 -0.2547  0.0464 -0.6795
 8210SOL     OW36262   2.254   0.727  15.256 -0.6590  0.0942 -0.0959
 8210SOL    HW136263   2.305   0.806  15.240 -2.1098  0.7248 -1.5949
 8210SOL    HW236264   2.323   0.674  15.296 -0.6065 -0.2854 -0.6925
 8211SOL     OW36265   0.404   1.567   5.826  0.3360  0.0042  0.4578
 8211SOL    HW136266   0.424   1.563   5.733 -0.0740  0.2243  0.3617
 8211SOL    HW236267   0.310   1.581   5.826  0.3557  0.2083  2.0927
 8212SOL     OW36268   3.921   4.095   0.518 -0.2392 -0.1355 -0.2744
 8212SOL    HW136269   3.873   4.039   0.579 -1.6816 -1.4520 -2.6254
 8212SOL    HW236270   3.956   4.155   0.584 -3.2423 -0.2151  1.3928
 8213SOL     OW36271   0.963   2.948   4.952 -0.4591 -0.0953  0.9432
 8213SOL    HW136272   0.899   3.014   4.926  0.3032  1.0964  2.0703
 8213SOL    HW236273   1.018   2.947   4.873 -2.0446  0.8270 -0.1682
 8214SOL     OW36274   1.653   0.856   3.750 -0.0776 -0.1976  0.5421
 8214SOL    HW136275   1.628   0.921   3.684 -0.7902  0.7870  1.7891
 8214SOL    HW236276   1.603   0.884   3.826 -1.4738  0.8942 -0.7907
 8215SOL     OW36277   4.424   4.577   6.013  0.6540 -0.3973  0.0447
 8215SOL    HW136278   4.338   4.613   5.992  2.1106  1.4867 -2.6329
 8215SOL    HW236279   4.465   4.660   6.037 -0.3315  0.0614  0.0983
 8216SOL     OW36280   3.974   0.460   3.387  0.2108 -0.4752 -0.3586
 8216SOL    HW136281   3.952   0.391   3.324  2.6221 -1.5742 -0.0065
 8216SOL    HW236282   4.068   0.472   3.375 -0.0115  1.0778 -0.4796
 8217SOL     OW36283   4.287   4.109   2.838  0.1049 -0.4912 -0.1424
 8217SOL    HW136284   4.244   4.077   2.758 -0.7454 -0.6936  0.3998
 8217SOL    HW236285   4.242   4.062   2.909 -2.5065 -1.9430 -2.7191
 8218SOL     OW36286   3.770   3.377   1.404 -0.0195  0.0271 -0.3692
 8218SOL    HW136287   3.847   3.376   1.461 -0.3580 -2.4625  0.0288
 8218SOL    HW236288   3.806   3.395   1.317  0.8133 -1.0405 -0.2487
 8219SOL     OW36289   3.675   2.910   7.949 -0.4664 -0.1803  0.3288
 8219SOL    HW136290   3.657   2.974   7.880  0.8203 -1.3603 -1.1069
 8219SOL    HW236291   3.729   2.839   7.913  1.7046  1.9458 -0.5874
 8220SOL     OW36292   0.830   4.256   2.991 -0.4902 -0.9371  0.2360
 8220SOL    HW136293   0.856   4.232   3.080  0.9859 -1.1027 -0.2555
 8220SOL    HW236294   0.854   4.349   2.992 -1.4200 -0.6952  0.5272
 8221SOL     OW36295   2.584   4.074   3.386  0.2677 -0.7055 -0.3531
 8221SOL    HW136296   2.493   4.050   3.368  0.1605 -0.2420 -0.4111
 8221SOL    HW236297   2.629   4.015   3.325  2.0385  1.6536 -1.3496
 8222SOL     OW36298   3.840   2.634  14.612  0.1495  0.3003 -0.3226
 8222SOL    HW136299   3.888   2.578  14.672 -1.8250 -0.9751  0.0821
 8222SOL    HW236300   3.891   2.622  14.532  0.2599 -0.9386 -0.0671
 8223SOL     OW36301   4.163   3.760   4.603 -0.2519  0.3246 -0.0561
 8223SOL    HW136302   4.184   3.853   4.597  0.0514  0.1880 -1.1271
 8223SOL    HW236303   4.163   3.747   4.508  0.2501 -1.1682  0.1446
 8224SOL     OW36304   4.207   3.314   7.445 -0.5498  0.1957 -0.2740
 8224SOL    HW136305   4.276   3.327   7.510 -1.2086 -0.5268  0.5706
 8224SOL    HW236306   4.151   3.281   7.516 -0.4740 -0.0463 -0.3262
 8225SOL     OW36307   3.428   0.096   4.746  0.2172  0.3653 -0.0055
 8225SOL    HW136308   3.366   0.071   4.677  0.7735 -1.1748  0.0544
 8225SOL    HW236309   3.501   0.135   4.698  0.2881 -0.9490 -0.9672
 8226SOL     OW36310   4.331   2.968  17.673 -0.2716  0.8478 -0.1825
 8226SOL    HW136311   4.246   3.004  17.698 -0.2632  1.3342 -0.8541
 8226SOL    HW236312   4.346   3.006  17.587  0.5955  1.0311  0.0439
 8227SOL     OW36313   0.061   2.979  16.455  0.6636  0.2551  0.1513
 8227SOL    HW136314   4.704   2.983  16.458  0.7409  2.3762 -0.1705
 8227SOL    HW236315   0.084   3.052  16.399  0.7657  1.9273  2.3581
 8228SOL     OW36316   2.829   1.872   5.221 -0.6423 -0.3341 -0.4444
 8228SOL    HW136317   2.873   1.886   5.305 -0.9660 -0.4292 -0.2582
 8228SOL    HW236318   2.764   1.942   5.228  0.7548  0.8551  0.7573
 8229SOL     OW36319   4.386   1.953   5.649 -0.7679  0.1739 -0.0476
 8229SOL    HW136320   4.479   1.934   5.644 -0.4850  1.8974 -1.3489
 8229SOL    HW236321   4.376   1.985   5.738 -0.7908 -0.9045  0.3330
 8230SOL     OW36322   3.154   3.626   2.477 -0.3282 -0.7328 -0.3206
 8230SOL    HW136323   3.135   3.568   2.404  0.6546 -2.4603  0.7927
 8230SOL    HW236324   3.127   3.570   2.550  2.4376 -1.7069 -0.0372
 8231SOL     OW36325   1.123   3.162   6.004  0.6038 -0.2514  0.3802
 8231SOL    HW136326   1.202   3.142   5.955  2.3338  3.8743  1.5202
 8231SOL    HW236327   1.132   3.253   6.031  0.4871  0.6871 -2.7482
 8232SOL     OW36328   0.786   3.223   3.893 -0.8021 -0.0526 -0.5659
 8232SOL    HW136329   0.739   3.286   3.948  2.1486  1.9521 -0.3476
 8232SOL    HW236330   0.858   3.200   3.952 -1.6094 -1.0942  0.0246
 8233SOL     OW36331   1.943   2.426  16.718  0.1949  0.4186  0.7967
 8233SOL    HW136332   1.886   2.503  16.719  0.3709  0.5459  1.0705
 8233SOL    HW236333   1.901   2.370  16.783 -0.4183  1.0310  0.9330
 8234SOL     OW36334   4.198   0.738  17.510  0.2861 -0.0611 -0.2348
 8234SOL    HW136335   4.108   0.767  17.497  1.1613  2.9918  0.4678
 8234SOL    HW236336   4.186   0.698  17.596 -2.7142  0.9933 -0.1526
 8235SOL     OW36337   0.604   0.619   3.719  0.6084 -0.5245  0.7978
 8235SOL    HW136338   0.562   0.610   3.805  1.5876 -1.8422  1.1316
 8235SOL    HW236339   0.529   0.655   3.673  0.8133 -0.7979  0.2545
 8236SOL     OW36340   2.009   3.374   1.599  0.0376 -0.1351 -0.5427
 8236SOL    HW136341   2.080   3.347   1.541  0.6061 -2.4930  1.2475
 8236SOL    HW236342   2.056   3.425   1.665  2.2808 -2.7662 -0.1308
 8237SOL     OW36343   0.496   4.061  12.973  0.0872  0.7514  0.6790
 8237SOL    HW136344   0.479   3.999  13.043 -0.6718  1.8388  1.4623
 8237SOL    HW236345   0.446   4.137  13.004 -1.7344  0.2158 -0.9623
 8238SOL     OW36346   4.719   3.444   2.210 -0.5350 -0.4029  0.3016
 8238SOL    HW136347   4.728   3.390   2.288  1.2944  0.7328  0.8654
 8238SOL    HW236348   4.722   3.528   2.256 -1.3245  0.5601 -1.3971
 8239SOL     OW36349   2.140   0.041   1.839 -0.4418  0.3893  0.0903
 8239SOL    HW136350   2.058   4.732   1.827 -1.3991  1.8011  1.0205
 8239SOL    HW236351   2.143   0.078   1.751  0.0290 -0.4861 -0.2689
 8240SOL     OW36352   1.277   1.013   1.968  0.0666  0.2119 -0.5278
 8240SOL    HW136353   1.271   1.035   1.875  0.6980 -0.3918 -0.7129
 8240SOL    HW236354   1.185   0.996   1.992  0.1068  0.9250  0.1154
 8241SOL     OW36355   2.350   3.685  15.890 -0.0332  0.6337  0.0499
 8241SOL    HW136356   2.444   3.666  15.889 -0.2876 -0.5622 -1.6957
 8241SOL    HW236357   2.349   3.759  15.830  3.8969  0.8499  0.2835
 8242SOL     OW36358   2.175   4.229   8.191 -0.2174  0.4992  0.0691
 8242SOL    HW136359   2.250   4.277   8.156 -0.0758 -2.2974 -3.4499
 8242SOL    HW236360   2.160   4.268   8.277 -0.4481 -0.4554  0.4677
 8243SOL     OW36361   1.631   0.722   6.176 -0.0250 -0.4191  0.2976
 8243SOL    HW136362   1.656   0.706   6.267 -1.0807 -1.0748  0.4710
 8243SOL    HW236363   1.601   0.813   6.178  0.0382 -0.4071  0.6726
 8244SOL     OW36364   3.323   1.133  15.341 -0.2845  0.2063  0.3723
 8244SOL    HW136365   3.240   1.093  15.313 -0.0810  0.6534 -0.8723
 8244SOL    HW236366   3.371   1.142  15.259 -0.7111  1.2411  0.2309
 8245SOL     OW36367   0.235   1.183   2.864  1.0371 -0.2429  0.2759
 8245SOL    HW136368   0.299   1.255   2.864 -0.6153  1.2321 -0.7173
 8245SOL    HW236369   0.293   1.110   2.841  1.4895  1.1829 -3.1946
 8246SOL     OW36370   1.115   4.375  16.967 -0.1153 -0.1708 -0.3460
 8246SOL    HW136371   1.205   4.365  16.937 -0.3194  0.1909 -1.0723
 8246SOL    HW236372   1.067   4.407  16.891  1.1845  1.1395 -0.6097
 8247SOL     OW36373   1.611   4.354   3.002 -0.1182 -0.2415  0.3881
 8247SOL    HW136374   1.642   4.356   2.911 -1.6168  3.1644 -0.0332
 8247SOL    HW236375   1.544   4.421   3.005 -1.0907 -1.0666 -2.9535
 8248SOL     OW36376   2.486   4.502   6.338  0.1655 -0.4250  0.7489
 8248SOL    HW136377   2.469   4.486   6.431 -1.1601 -2.3863  0.1586
 8248SOL    HW236378   2.399   4.490   6.300 -0.0089 -0.9295  1.3036
 8249SOL     OW36379   4.217   4.711  16.173 -0.5242  0.0429  0.0094
 8249SOL    HW136380   4.304   4.677  16.151 -0.0560 -0.9482  3.3836
 8249SOL    HW236381   4.191   0.026  16.099  0.7360  1.7604  0.8212
 8250SOL     OW36382   0.180   3.136   7.267  0.2652 -0.3402  0.6070
 8250SOL    HW136383   0.176   3.175   7.354 -1.3077 -1.8916  1.1984
 8250SOL    HW236384   0.273   3.126   7.243  0.6239  1.3959  1.2738
 8251SOL     OW36385   4.549   1.142   4.466  0.5214  0.3798 -0.2769
 8251SOL    HW136386   4.554   1.184   4.552 -0.4212 -0.1962  0.0692
 8251SOL    HW236387   4.593   1.210   4.416  1.0111  0.4092  0.1988
 8252SOL     OW36388   0.257   1.871   5.469 -0.3334 -0.6975 -0.0827
 8252SOL    HW136389   0.209   1.865   5.551 -0.3625 -0.9015 -0.1152
 8252SOL    HW236390   0.318   1.943   5.485  1.1677 -1.9041 -0.2807
 8253SOL     OW36391   3.091   0.701   8.720  0.2961  0.4795  0.3117
 8253SOL    HW136392   3.061   0.782   8.761 -0.8688 -0.1492  0.7087
 8253SOL    HW236393   3.166   0.738   8.674  0.1452 -1.1120 -1.2244
 8254SOL     OW36394   4.287   2.855   3.104 -0.5524 -0.2484 -0.4641
 8254SOL    HW136395   4.193   2.846   3.122 -0.3608  0.8831  1.0549
 8254SOL    HW236396   4.287   2.852   3.008 -0.2026 -2.0546 -0.4097
 8255SOL     OW36397   1.585   1.159  15.336 -0.3644  0.0744 -0.0699
 8255SOL    HW136398   1.657   1.220  15.319  1.6807 -1.9030  1.5044
 8255SOL    HW236399   1.512   1.221  15.345 -0.1857  0.5220 -1.6077
 8256SOL     OW36400   0.504   3.194   3.570 -0.0312 -0.1267 -0.2376
 8256SOL    HW136401   0.411   3.184   3.590 -0.0172  0.9412  0.3398
 8256SOL    HW236402   0.533   3.183   3.661 -1.0384 -2.6027 -0.2131
 8257SOL     OW36403   1.647   2.226   2.832  0.6176  0.4832  0.0777
 8257SOL    HW136404   1.561   2.251   2.800  1.2234 -0.3811 -2.2085
 8257SOL    HW236405   1.698   2.306   2.821  1.5154  0.1355  1.6110
 8258SOL     OW36406   3.139   3.672  15.209  0.1580 -0.7358  0.0918
 8258SOL    HW136407   3.102   3.751  15.168  1.2438  0.5646  1.6007
 8258SOL    HW236408   3.053   3.631  15.220 -1.2703  1.4496 -2.8906
 8259SOL     OW36409   0.206   2.438   8.146 -0.2723 -0.5461  0.3060
 8259SOL    HW136410   0.248   2.514   8.187  0.3463 -1.8919  2.2133
 8259SOL    HW236411   0.184   2.398   8.230  0.4097 -0.8257  0.3569
 8260SOL     OW36412   2.783   2.128   7.827  0.1055 -0.0789  0.0109
 8260SOL    HW136413   2.689   2.115   7.832  0.2107 -0.2650  1.4738
 8260SOL    HW236414   2.810   2.036   7.831 -1.4413 -0.4468  2.1521
 8261SOL     OW36415   2.273   3.616   5.932 -0.2321  0.5486  0.1018
 8261SOL    HW136416   2.225   3.650   5.857  0.3756 -0.7713 -0.8867
 8261SOL    HW236417   2.296   3.703   5.965 -1.3423  0.8312  0.1292
 8262SOL     OW36418   0.450   1.890  16.376 -0.2534 -0.0402 -0.3570
 8262SOL    HW136419   0.357   1.871  16.368  0.1430 -0.9172 -2.7778
 8262SOL    HW236420   0.487   1.806  16.350 -1.5633 -0.4699 -0.7937
 8263SOL     OW36421   3.578   0.488   2.770 -1.3631 -0.2870  0.5488
 8263SOL    HW136422   3.504   0.548   2.759 -1.4369 -0.1638  1.7103
 8263SOL    HW236423   3.546   0.416   2.824 -0.0015 -2.4298 -1.5281
 8264SOL     OW36424   0.819   4.410   3.514  0.1637 -0.0974  0.3127
 8264SOL    HW136425   0.775   4.492   3.494 -2.7814 -1.3019  1.9038
 8264SOL    HW236426   0.768   4.381   3.589 -0.5445 -2.7537 -1.1801
 8265SOL     OW36427   0.867   3.800   6.724  0.0258  0.0899  0.0290
 8265SOL    HW136428   0.862   3.796   6.629 -1.4866 -1.6535  0.1869
 8265SOL    HW236429   0.885   3.893   6.737  1.5110 -0.0947 -0.6119
 8266SOL     OW36430   4.620   0.780   8.668 -0.0752  0.3916  0.2726
 8266SOL    HW136431   4.555   0.784   8.598  1.4454  1.8345 -1.0601
 8266SOL    HW236432   4.703   0.778   8.621 -0.2186 -1.7434  0.0920
 8267SOL     OW36433   3.273   0.164   1.329  0.4723  0.1487 -0.7258
 8267SOL    HW136434   3.266   0.254   1.361  3.2186 -0.0149  0.3236
 8267SOL    HW236435   3.206   0.121   1.382  0.7790  1.6283  0.8614
 8268SOL     OW36436   3.361   1.118   3.513  0.0844  0.0882  0.2700
 8268SOL    HW136437   3.358   1.026   3.537 -0.6307 -0.3131 -1.3491
 8268SOL    HW236438   3.388   1.109   3.421 -0.4897 -0.2719  0.1394
 8269SOL     OW36439   0.922   2.314   9.460  0.8835  0.6477  0.3261
 8269SOL    HW136440   0.914   2.248   9.529 -0.7892 -0.9410 -1.3863
 8269SOL    HW236441   1.013   2.341   9.471  1.8732 -1.8162 -2.0404
 8270SOL     OW36442   2.894   0.169   4.796 -0.0813  0.0206  0.1159
 8270SOL    HW136443   2.854   0.141   4.714 -0.9569  1.9420 -0.1107
 8270SOL    HW236444   2.907   0.262   4.778 -1.7966  0.2935  0.3027
 8271SOL     OW36445   2.224   1.993   3.445 -0.0420  0.3039  0.6231
 8271SOL    HW136446   2.196   2.055   3.512 -0.6821  1.5355 -0.7763
 8271SOL    HW236447   2.227   1.906   3.483 -0.5908 -0.1833 -0.4463
 8272SOL     OW36448   4.511   2.491   9.273  0.0302 -0.1077  0.1430
 8272SOL    HW136449   4.513   2.465   9.365 -1.0868 -2.9259 -0.6321
 8272SOL    HW236450   4.456   2.569   9.274  0.1857 -0.0100  1.0252
 8273SOL     OW36451   0.024   2.525  10.299 -0.8839  0.1216 -0.1135
 8273SOL    HW136452   4.687   2.562  10.255 -1.4119  0.8308  1.3900
 8273SOL    HW236453   0.040   2.444  10.250 -0.3758 -1.3265  2.4602
 8274SOL     OW36454   0.827   4.718   4.110 -0.2410 -0.2323  0.0574
 8274SOL    HW136455   0.899   4.658   4.096 -1.7813 -2.0576 -0.0007
 8274SOL    HW236456   0.806   4.706   4.203 -1.7550  0.7785 -0.1402
 8275SOL     OW36457   0.742   4.089   8.670 -0.8103 -0.0761 -0.2070
 8275SOL    HW136458   0.765   4.160   8.610 -2.1854  0.9980  0.5409
 8275SOL    HW236459   0.681   4.136   8.726 -2.4854 -2.7901  0.2768
 8276SOL     OW36460   1.276   3.543   7.636  0.3032 -0.0346  0.5818
 8276SOL    HW136461   1.340   3.506   7.698  1.3472  1.1740  0.2320
 8276SOL    HW236462   1.205   3.480   7.646  1.6271 -1.5827  0.3426
 8277SOL     OW36463   2.800   1.330   9.932  0.0452 -0.8899 -0.5140
 8277SOL    HW136464   2.793   1.312   9.838  1.1525 -0.6583 -0.6403
 8277SOL    HW236465   2.891   1.359   9.938  0.0178 -0.7877 -0.5962
 8278SOL     OW36466   4.109   3.165   4.632 -0.7388  0.9320 -0.4198
 8278SOL    HW136467   4.118   3.077   4.668 -2.6970  1.6718  1.8437
 8278SOL    HW236468   4.017   3.174   4.609 -0.4702  0.3026 -1.7355
 8279SOL     OW36469   3.735   2.621   0.169 -0.2882 -0.6587 -0.1761
 8279SOL    HW136470   3.663   2.559   0.167 -0.4385 -0.4164 -1.9263
 8279SOL    HW236471   3.804   2.554   0.174  0.6825  0.2528 -1.3377
 8280SOL     OW36472   3.045   1.898  11.978  0.0589 -0.2302  0.5066
 8280SOL    HW136473   3.057   1.806  11.954  0.4612  0.0740 -0.4788
 8280SOL    HW236474   3.005   1.930  11.896 -1.6175 -1.2566  0.9221
 8281SOL     OW36475   1.413   1.315   4.331  0.4014 -0.3283  0.4334
 8281SOL    HW136476   1.468   1.383   4.293 -0.7893  0.0323 -0.6534
 8281SOL    HW236477   1.456   1.317   4.416 -1.5490 -3.1158  1.4840
 8282SOL     OW36478   4.723   3.116   4.062 -0.1197 -0.4828  0.2793
 8282SOL    HW136479   4.717   3.024   4.034  1.8815 -0.1183 -1.2969
 8282SOL    HW236480   0.051   3.105   4.129 -2.9322 -3.7484  2.5977
 8283SOL     OW36481   1.130   4.712  16.163  0.4776  0.3251  0.4335
 8283SOL    HW136482   1.211   4.675  16.128  1.1250  2.8596 -0.7013
 8283SOL    HW236483   1.148   0.066  16.173 -1.3875  0.7629 -0.3137
 8284SOL     OW36484   3.701   3.643  14.903 -0.3781  0.5020 -0.1499
 8284SOL    HW136485   3.623   3.589  14.897 -0.3160  0.4645 -0.6034
 8284SOL    HW236486   3.661   3.724  14.935 -0.6245  0.2142  0.2880
 8285SOL     OW36487   3.255   4.417   5.011  0.2995  0.0332 -0.0549
 8285SOL    HW136488   3.233   4.460   4.928 -3.3569 -2.8180 -0.5704
 8285SOL    HW236489   3.182   4.452   5.062 -0.9805 -0.9976 -1.1799
 8286SOL     OW36490   3.827   3.776   0.268  0.0399  0.4151 -0.3584
 8286SOL    HW136491   3.917   3.745   0.256 -0.4676 -0.8189 -0.9575
 8286SOL    HW236492   3.790   3.713   0.329  1.3804  1.3288  1.3873
 8287SOL     OW36493   3.008   0.966   2.943  0.4408  0.2941 -0.2998
 8287SOL    HW136494   3.065   0.978   3.019 -3.2481 -1.7837  2.7899
 8287SOL    HW236495   3.003   1.057   2.914 -0.0096 -0.3415 -2.1878
 8288SOL     OW36496   2.912   4.159   7.659 -0.2672 -0.2174 -0.4735
 8288SOL    HW136497   2.875   4.247   7.663 -1.7059 -0.7334 -2.2515
 8288SOL    HW236498   2.837   4.103   7.640 -1.4977  0.7196  1.6424
 8289SOL     OW36499   4.402   3.790   2.922 -0.3262 -0.5222 -0.4083
 8289SOL    HW136500   4.312   3.803   2.891 -0.6856  0.6501  1.1067
 8289SOL    HW236501   4.438   3.840   2.850  1.4126  1.2587  1.7045
 8290SOL     OW36502   1.538   2.904   4.906 -0.4631 -0.0798  0.1791
 8290SOL    HW136503   1.541   2.955   4.988 -0.0091 -0.0664  0.1528
 8290SOL    HW236504   1.475   2.951   4.852 -0.5038 -0.6499 -0.2601
 8291SOL     OW36505   0.974   1.290   4.416  0.2381 -0.2647  0.4056
 8291SOL    HW136506   0.887   1.283   4.378  1.3315 -1.3306 -1.9330
 8291SOL    HW236507   0.958   1.355   4.484 -2.7986  0.5623 -1.0811
 8292SOL     OW36508   2.898   3.779  15.910  0.1562 -0.4052  0.0574
 8292SOL    HW136509   2.986   3.815  15.898  0.9803 -2.8470 -1.1224
 8292SOL    HW236510   2.908   3.730  15.992 -0.6512  1.7667  1.4629
 8293SOL     OW36511   0.299   2.201   3.360  0.2782 -0.0560 -0.4394
 8293SOL    HW136512   0.218   2.251   3.361  2.0253  2.6865  1.6097
 8293SOL    HW236513   0.286   2.165   3.272  0.5056  1.8811 -1.2637
 8294SOL     OW36514   4.627   1.877  17.692 -0.3913 -0.5047  0.5553
 8294SOL    HW136515   4.713   1.877  17.650 -0.0856  1.3301  1.1677
 8294SOL    HW236516   4.608   1.971  17.699  1.1892 -0.4555  3.9574
 8295SOL     OW36517   4.434   3.694  15.621 -0.0986 -0.6492  0.4189
 8295SOL    HW136518   4.443   3.669  15.529 -1.0962 -0.1524  0.1885
 8295SOL    HW236519   4.341   3.681  15.637  0.0079 -3.0435 -0.8921
 8296SOL     OW36520   3.002   3.459   8.966  0.4524  0.0990 -0.5050
 8296SOL    HW136521   2.922   3.445   9.017 -0.0746  1.8761 -0.8606
 8296SOL    HW236522   3.007   3.375   8.920  0.6618 -0.3571  0.3433
 8297SOL     OW36523   4.364   0.021   8.650  0.4740  0.1916 -0.0648
 8297SOL    HW136524   4.441   4.720   8.688 -0.4383 -2.2444 -0.8288
 8297SOL    HW236525   4.320   0.052   8.729  2.6795  1.3667  0.7088
 8298SOL     OW36526   0.494   4.381   8.602  0.0574 -0.1082  0.4878
 8298SOL    HW136527   0.515   4.290   8.627  2.5033 -0.6068 -3.4383
 8298SOL    HW236528   0.581   4.418   8.615 -0.5328  0.5431  2.6565
 8299SOL     OW36529   2.542   3.081  12.925 -0.5077  0.2601  0.1414
 8299SOL    HW136530   2.509   3.164  12.959  1.2255  0.4976  1.2597
 8299SOL    HW236531   2.602   3.114  12.858  0.7373 -1.0813  0.5970
 8300SOL     OW36532   3.367   4.712   1.790  0.1591 -0.1894 -0.2189
 8300SOL    HW136533   3.435   4.705   1.857 -0.4485  2.1236  0.6195
 8300SOL    HW236534   3.297   4.654   1.822 -0.2691 -0.6870 -2.0680
 8301SOL     OW36535   1.346   3.203   7.529  0.0502 -0.2612  0.5060
 8301SOL    HW136536   1.374   3.149   7.603 -0.0847 -0.9254  0.0728
 8301SOL    HW236537   1.428   3.233   7.492 -0.4501  2.3053  1.4888
 8302SOL     OW36538   2.535   4.384   3.950  0.7119  0.0404  0.3740
 8302SOL    HW136539   2.597   4.422   3.887 -0.4402 -0.0359 -0.8006
 8302SOL    HW236540   2.457   4.434   3.924  0.0301 -1.1345  0.1866
 8303SOL     OW36541   0.907   3.393   4.123 -0.7255  0.2191  0.2494
 8303SOL    HW136542   0.937   3.429   4.040  0.4887 -1.0214  0.1454
 8303SOL    HW236543   0.843   3.459   4.150  0.8675  1.8869 -0.0332
 8304SOL     OW36544   1.328   4.625   4.038 -0.5995  0.0855  0.2082
 8304SOL    HW136545   1.367   4.659   4.118  0.0028 -1.7686  0.6922
 8304SOL    HW236546   1.289   4.545   4.074 -0.2773 -0.6300 -1.0165
 8305SOL     OW36547   2.526   4.664   1.702  0.4787 -0.6948 -0.5423
 8305SOL    HW136548   2.506   0.001   1.648  0.8359  0.1458  0.5156
 8305SOL    HW236549   2.604   4.633   1.656  1.9907  2.2876  0.0346
 8306SOL     OW36550   3.789   0.428   5.299  0.4745 -0.1034  0.0445
 8306SOL    HW136551   3.771   0.432   5.205  1.4167  0.0615 -0.1259
 8306SOL    HW236552   3.775   0.338   5.328  1.9340  0.0718  1.3002
 8307SOL     OW36553   2.364   0.380   3.563 -0.7147  0.2073 -0.2746
 8307SOL    HW136554   2.386   0.372   3.470  0.6247 -2.4291  0.2679
 8307SOL    HW236555   2.301   0.308   3.567  0.7629 -1.1110 -0.7148
 8308SOL     OW36556   2.771   4.448   0.192 -0.5262 -0.0823 -0.1961
 8308SOL    HW136557   2.737   4.365   0.158 -2.6547  0.6251  0.2065
 8308SOL    HW236558   2.807   4.415   0.275  0.3136  1.6898  0.1337
 8309SOL     OW36559   0.436   3.930   3.593  0.3746  0.1387 -0.0294
 8309SOL    HW136560   0.479   3.982   3.525  2.0465 -0.6970  0.4107
 8309SOL    HW236561   0.357   3.914   3.541 -0.5104 -0.1469  1.3716
 8310SOL     OW36562   2.104   2.923  14.137  0.3188  0.0214  0.7807
 8310SOL    HW136563   2.173   2.929  14.072 -1.2963  1.3143 -0.8225
 8310SOL    HW236564   2.049   2.998  14.111  0.6752  0.4695  1.3042
 8311SOL     OW36565   0.092   3.474   1.371 -0.0296 -0.3455  0.4530
 8311SOL    HW136566   0.021   3.538   1.382 -0.7066 -0.6973 -1.8131
 8311SOL    HW236567   0.142   3.492   1.450  0.4790 -0.6486  0.1981
 8312SOL     OW36568   3.675   2.840   2.419 -0.5270 -0.6654  0.3160
 8312SOL    HW136569   3.675   2.905   2.348 -2.2995 -2.0326 -0.9043
 8312SOL    HW236570   3.711   2.899   2.486 -2.6080 -1.0991  1.7917
 8313SOL     OW36571   0.266   1.650   2.873  0.1523  0.0458  0.2131
 8313SOL    HW136572   0.223   1.604   2.801 -1.4705  3.0844 -0.7546
 8313SOL    HW236573   0.229   1.611   2.952 -0.0169 -0.1007  0.0607
 8314SOL     OW36574   2.166   2.740   9.424 -0.2673 -0.3895  0.1218
 8314SOL    HW136575   2.172   2.721   9.330  0.2514  1.2171 -0.1724
 8314SOL    HW236576   2.257   2.729   9.452  0.3323  0.8499 -1.2859
 8315SOL     OW36577   0.334   1.996  14.617 -0.5677 -0.3034  0.1609
 8315SOL    HW136578   0.427   2.017  14.609 -0.0169 -3.0517 -0.4801
 8315SOL    HW236579   0.338   1.904  14.642 -0.5970 -0.2783  0.2579
 8316SOL     OW36580   1.486   1.860  13.492 -0.0209  0.6528 -0.0787
 8316SOL    HW136581   1.513   1.943  13.532  0.3787  1.1164 -1.3072
 8316SOL    HW236582   1.472   1.804  13.568 -0.5637  1.3300  0.3242
 8317SOL     OW36583   1.013   0.779   9.426  0.5097 -0.2448 -0.6464
 8317SOL    HW136584   0.977   0.839   9.491 -2.1650 -3.6547  1.0629
 8317SOL    HW236585   0.941   0.790   9.363 -0.9980  0.2374  1.1685
 8318SOL     OW36586   3.894   0.749   5.274  0.1330 -0.4704 -0.0863
 8318SOL    HW136587   3.953   0.813   5.315  0.8438 -0.3037 -1.3694
 8318SOL    HW236588   3.955   0.683   5.242  0.4917 -1.7712  3.2027
 8319SOL     OW36589   3.762   1.386  12.402  0.7954  0.0359  0.1974
 8319SOL    HW136590   3.710   1.450  12.451 -0.2809 -0.2344 -0.5973
 8319SOL    HW236591   3.702   1.350  12.337  1.5775 -0.6559 -0.1404
 8320SOL     OW36592   0.107   1.684  11.561 -0.1374 -0.0467 -0.6617
 8320SOL    HW136593   0.039   1.633  11.605  0.9697 -2.1892 -1.4549
 8320SOL    HW236594   0.139   1.627  11.491 -0.9049 -1.2099 -0.0650
 8321SOL     OW36595   2.222   0.660   3.881  0.2596  0.3953  0.0368
 8321SOL    HW136596   2.171   0.595   3.833 -1.3410  0.2453  1.9096
 8321SOL    HW236597   2.149   0.697   3.931 -0.2393 -1.0060  0.3224
 8322SOL     OW36598   3.112   2.730  10.535  0.0832  0.5324 -0.0844
 8322SOL    HW136599   3.196   2.687  10.519 -0.2289 -0.4238  0.9146
 8322SOL    HW236600   3.105   2.749  10.628  1.1461  0.6443 -0.0310
 8323SOL     OW36601   3.548   3.903   9.916  0.0919 -0.6577 -0.2400
 8323SOL    HW136602   3.534   3.855   9.833  1.3296  0.5344 -1.1319
 8323SOL    HW236603   3.584   3.830   9.966  0.3912  0.2534  0.8691
 8324SOL     OW36604   3.027   0.301   3.980  0.5355  0.2341  0.2232
 8324SOL    HW136605   2.967   0.247   3.928  1.0260 -0.5469  0.4715
 8324SOL    HW236606   3.076   0.235   4.028 -0.3672  1.3330  2.6759
 8325SOL     OW36607   3.038   0.103  11.651 -0.2444 -0.1202 -0.1135
 8325SOL    HW136608   3.082   0.035  11.703 -2.1867 -0.9043  0.4969
 8325SOL    HW236609   2.980   0.142  11.716  0.8133  1.6782 -0.2570
 8326SOL     OW36610   2.215   1.331  10.829  0.2778  0.0967 -0.0031
 8326SOL    HW136611   2.184   1.395  10.764  0.0309  1.1649  1.1586
 8326SOL    HW236612   2.143   1.271  10.849 -0.9895  0.0308 -4.7949
 8327SOL     OW36613   2.047   3.224   7.702  0.3200 -0.3621 -0.3747
 8327SOL    HW136614   2.040   3.243   7.796 -0.4211  2.9726 -1.1012
 8327SOL    HW236615   2.097   3.143   7.715  0.2860 -0.3786 -0.3455
 8328SOL     OW36616   0.439   4.311  13.121 -0.0675 -0.3440  0.1057
 8328SOL    HW136617   0.458   4.368  13.195 -0.4291  0.5030 -0.4453
 8328SOL    HW236618   0.439   4.365  13.042 -2.5609 -1.4072 -0.6427
 8329SOL     OW36619   3.317   0.262  13.083 -0.2003 -0.3730  0.1209
 8329SOL    HW136620   3.271   0.195  13.031  1.3629 -0.4697 -1.1322
 8329SOL    HW236621   3.394   0.212  13.111 -0.8521 -1.0972  0.6264
 8330SOL     OW36622   1.734   2.391   5.148  0.4967 -0.1293 -0.2607
 8330SOL    HW136623   1.829   2.389   5.157  0.4235  2.7574  1.0480
 8330SOL    HW236624   1.725   2.377   5.054  0.0531 -1.1503 -0.0700
 8331SOL     OW36625   2.329   0.277   6.685 -0.3585  0.1276 -0.1320
 8331SOL    HW136626   2.325   0.311   6.774  3.0908 -1.1025  0.5198
 8331SOL    HW236627   2.408   0.325   6.660 -1.5339  2.3555  0.4435
 8332SOL     OW36628   0.634   0.407  13.202  0.0684  0.1056 -0.0491
 8332SOL    HW136629   0.722   0.377  13.178 -0.5444 -0.3334 -1.7562
 8332SOL    HW236630   0.622   0.339  13.268 -1.3224 -0.1055 -0.5304
 8333SOL     OW36631   0.424   3.360   9.298 -0.2132 -0.1385  0.2401
 8333SOL    HW136632   0.453   3.357   9.207 -3.3095  0.5857 -0.7618
 8333SOL    HW236633   0.421   3.456   9.308 -0.7722 -0.3532  2.1741
 8334SOL     OW36634   3.423   4.070   7.790 -0.1270  0.2862  0.8893
 8334SOL    HW136635   3.372   4.037   7.864 -0.2899 -0.4603  0.4357
 8334SOL    HW236636   3.346   4.119   7.759  0.8840  2.5758  1.9732
 8335SOL     OW36637   4.706   4.112   9.725  0.2710  0.0083 -0.0886
 8335SOL    HW136638   4.679   4.058   9.799  0.9757  0.7520  0.7213
 8335SOL    HW236639   4.653   4.192   9.729  0.8509  0.4260 -0.7190
 8336SOL     OW36640   2.302   2.992  12.831  0.5361 -0.5364 -0.0668
 8336SOL    HW136641   2.284   3.044  12.909 -2.0889  1.1844 -1.8130
 8336SOL    HW236642   2.391   3.015  12.805 -0.0266  0.2739 -1.2968
 8337SOL     OW36643   3.628   1.056   6.999  0.2773 -0.0247 -0.9601
 8337SOL    HW136644   3.583   0.972   6.993  1.3829 -0.4825 -2.6884
 8337SOL    HW236645   3.717   1.021   7.008  0.1166  0.2501  1.6117
 8338SOL     OW36646   3.856   2.927   3.840  0.3040  0.0177 -0.1045
 8338SOL    HW136647   3.800   2.993   3.881  0.6880  0.0796  0.3206
 8338SOL    HW236648   3.864   2.964   3.752 -0.4651  1.2278  0.3304
 8339SOL     OW36649   2.646   2.565   4.158  0.7578  0.0404  0.3746
 8339SOL    HW136650   2.623   2.522   4.241  0.6129 -1.6520 -0.5488
 8339SOL    HW236651   2.697   2.496   4.116 -0.0560 -0.0603 -0.4281
 8340SOL     OW36652   3.415   3.831   1.579 -0.0654 -0.9167  0.0131
 8340SOL    HW136653   3.409   3.736   1.566  2.1730 -1.0985  0.2056
 8340SOL    HW236654   3.388   3.840   1.670 -2.5798  0.9191 -0.9243
 8341SOL     OW36655   2.306   2.881  16.560 -0.2793  0.1363 -0.0728
 8341SOL    HW136656   2.226   2.874  16.508 -0.4283 -1.6758  0.4130
 8341SOL    HW236657   2.279   2.865  16.650 -1.0387  0.5553 -0.2300
 8342SOL     OW36658   2.869   1.848  10.319 -0.3406  0.0947 -0.3721
 8342SOL    HW136659   2.884   1.916  10.385 -0.5039 -0.3046  0.0742
 8342SOL    HW236660   2.942   1.873  10.263  0.8889 -0.0798  1.1711
 8343SOL     OW36661   4.726   3.162   7.050  0.0212 -0.5335 -0.2058
 8343SOL    HW136662   0.046   3.177   7.124  0.5572 -0.7888 -0.5854
 8343SOL    HW236663   0.042   3.167   6.972  1.0150 -1.2008  0.4544
 8344SOL     OW36664   2.967   1.777   4.014  0.1905  0.3739  0.5008
 8344SOL    HW136665   2.913   1.745   4.085  0.5886 -2.7981 -0.6218
 8344SOL    HW236666   2.934   1.723   3.942  1.3388 -0.4969  0.6108
 8345SOL     OW36667   1.158   0.177   2.973 -0.4745  0.5684  0.3637
 8345SOL    HW136668   1.091   0.186   3.041 -0.6247  3.1858 -0.1438
 8345SOL    HW236669   1.113   0.216   2.899  1.8743 -1.7193 -2.2873
 8346SOL     OW36670   2.802   2.744  13.515 -0.4705  0.7701  0.3228
 8346SOL    HW136671   2.742   2.705  13.451 -0.7049 -0.5126  1.3263
 8346SOL    HW236672   2.887   2.711  13.484  0.1918  0.2194  2.7321
 8347SOL     OW36673   4.025   0.509   4.239  0.2573  0.3709  0.3683
 8347SOL    HW136674   4.005   0.587   4.291 -0.9034 -0.0368  0.5332
 8347SOL    HW236675   4.119   0.508   4.224  0.6240  2.8124  2.4884
 8348SOL     OW36676   3.935   2.832   6.064 -0.0368 -0.1044 -0.4046
 8348SOL    HW136677   4.020   2.793   6.044 -0.2111  0.2115 -1.7084
 8348SOL    HW236678   3.956   2.913   6.110 -0.7455 -0.1395 -0.0081
 8349SOL     OW36679   4.531   4.159   6.480  0.4985 -0.0643  0.3012
 8349SOL    HW136680   4.569   4.244   6.501 -0.0447  0.6584 -1.5751
 8349SOL    HW236681   4.543   4.116   6.564 -0.2334 -2.3137 -0.7327
 8350SOL     OW36682   0.518   1.243  16.737 -0.4953 -0.3754  0.4339
 8350SOL    HW136683   0.543   1.264  16.647 -0.9771  1.8334  0.8377
 8350SOL    HW236684   0.460   1.171  16.713  1.7372 -3.1135  3.2559
 8351SOL     OW36685   3.067   0.356  12.518  0.6138  0.7238 -0.4907
 8351SOL    HW136686   3.145   0.380  12.467  1.1940 -1.9457 -0.8665
 8351SOL    HW236687   3.028   0.442  12.531 -1.3729 -0.2098 -0.2335
 8352SOL     OW36688   2.794   3.675   8.776 -0.0494 -0.0582  0.1443
 8352SOL    HW136689   2.803   3.620   8.697  0.8212 -0.3693  0.4615
 8352SOL    HW236690   2.787   3.608   8.844 -0.3533 -2.1762 -1.9486
 8353SOL     OW36691   1.751   2.679   0.615  0.2035 -0.4273 -0.4620
 8353SOL    HW136692   1.747   2.650   0.524  4.2539  1.2445 -1.1397
 8353SOL    HW236693   1.812   2.752   0.603 -0.9590  0.8410  1.1884
 8354SOL     OW36694   4.307   3.904   6.435  0.0745  0.4492 -0.4837
 8354SOL    HW136695   4.385   3.919   6.488  0.3935 -1.0079 -0.5193
 8354SOL    HW236696   4.248   3.972   6.466 -1.7032 -0.8727 -0.9433
 8355SOL     OW36697   2.749   1.220   4.994  0.6361  0.0871  0.0617
 8355SOL    HW136698   2.823   1.164   5.017  0.3909 -0.1721  0.2313
 8355SOL    HW236699   2.734   1.178   4.910 -2.9447 -0.6288  1.0722
 8356SOL     OW36700   0.217   3.246   8.192  0.7664  0.1389 -0.3020
 8356SOL    HW136701   0.267   3.328   8.194  0.0526  0.5505  1.1992
 8356SOL    HW236702   0.270   3.181   8.239 -0.0889  1.0347  1.8933
 8357SOL     OW36703   2.046   3.989   8.909  0.7731  0.3757  0.0327
 8357SOL    HW136704   2.043   3.993   9.004  1.2378  2.8439 -0.0598
 8357SOL    HW236705   2.128   3.944   8.890  0.0392  0.1895 -2.7060
 8358SOL     OW36706   3.748   0.010   3.067  0.1494  0.1103 -0.0439
 8358SOL    HW136707   3.668   0.060   3.080  0.3421  0.2372  0.6750
 8358SOL    HW236708   3.744   4.721   2.975  1.0624 -0.5197  0.1075
 8359SOL     OW36709   4.602   4.461  16.871  0.0722  0.1637 -0.3904
 8359SOL    HW136710   4.508   4.450  16.855 -0.1493  0.2811  0.8567
 8359SOL    HW236711   4.618   4.369  16.893 -1.6431  0.1038  0.5963
 8360SOL     OW36712   1.856   3.305   1.809 -0.5372 -0.1898  0.1003
 8360SOL    HW136713   1.887   3.331   1.722  0.5072  0.6784  0.7354
 8360SOL    HW236714   1.765   3.285   1.786  0.2749 -4.1593  0.4944
 8361SOL     OW36715   3.420   1.963   5.522 -0.1911  0.7608  0.6412
 8361SOL    HW136716   3.378   2.038   5.482 -0.7585 -0.5573 -1.2000
 8361SOL    HW236717   3.384   1.895   5.466 -1.9726  1.9882  0.2964
 8362SOL     OW36718   3.340   2.253  16.158  0.3952  0.5684  0.0024
 8362SOL    HW136719   3.428   2.291  16.151  1.1652 -1.5703 -1.8603
 8362SOL    HW236720   3.363   2.161  16.172  0.6430  0.7912  1.1008
 8363SOL     OW36721   4.117   1.115   1.696  0.0017  0.3405 -0.1838
 8363SOL    HW136722   4.181   1.059   1.653  0.4714  0.9702 -0.3006
 8363SOL    HW236723   4.133   1.091   1.787 -0.7487  0.1579 -0.0987
 8364SOL     OW36724   2.211   3.043   9.185  0.0477 -0.7940 -0.4268
 8364SOL    HW136725   2.145   3.092   9.232 -0.6784 -1.3101 -0.8959
 8364SOL    HW236726   2.269   3.023   9.259 -1.3923  2.2177  1.5053
 8365SOL     OW36727   2.368   0.160   3.247 -0.7168 -0.2509 -0.5203
 8365SOL    HW136728   2.354   0.254   3.247  1.4911  0.0801 -2.1612
 8365SOL    HW236729   2.324   0.124   3.324  0.0383 -2.3337 -1.0395
 8366SOL     OW36730   0.391   4.136   5.937  0.2309  0.4173  0.6751
 8366SOL    HW136731   0.321   4.097   5.885  2.3075 -0.9791 -1.0592
 8366SOL    HW236732   0.393   4.072   6.009 -1.4282 -1.0408 -0.5845
 8367SOL     OW36733   3.633   2.181   2.142 -0.8972 -0.4857 -0.1752
 8367SOL    HW136734   3.603   2.267   2.173  0.2910 -0.9946  2.3757
 8367SOL    HW236735   3.714   2.212   2.102  0.3636 -2.5604  0.7230
 8368SOL     OW36736   1.208   0.007   5.083 -0.0980 -0.0656  0.1114
 8368SOL    HW136737   1.228   0.089   5.038  1.1884  0.2610  1.2567
 8368SOL    HW236738   1.137   0.028   5.145 -0.1215  0.7048 -0.1749
 8369SOL     OW36739   4.341   4.001   1.160  0.0023  0.1930 -0.2064
 8369SOL    HW136740   4.322   4.025   1.070  0.6762 -1.7800 -0.8596
 8369SOL    HW236741   4.435   4.013   1.169 -0.5052  4.4872 -0.3354
 8370SOL     OW36742   1.527   2.851   6.214 -0.5424  0.1409 -0.4033
 8370SOL    HW136743   1.602   2.800   6.244 -1.0489  0.0734  0.7597
 8370SOL    HW236744   1.514   2.825   6.123 -0.4598  0.0401 -0.3854
 8371SOL     OW36745   3.383   4.615  11.873 -0.3872 -0.2187 -0.1243
 8371SOL    HW136746   3.456   4.580  11.924  0.3803 -1.7121 -2.2263
 8371SOL    HW236747   3.426   4.694  11.839 -2.2727  1.3608  1.2209
 8372SOL     OW36748   0.719   1.879   4.577 -0.5333  0.4243 -0.2596
 8372SOL    HW136749   0.683   1.929   4.504  2.2286 -0.3572 -2.1404
 8372SOL    HW236750   0.810   1.902   4.559 -0.4065  0.4036  0.3407
 8373SOL     OW36751   3.743   2.795   4.747  0.0427 -0.4333 -0.3514
 8373SOL    HW136752   3.830   2.803   4.708 -0.2937  0.4278 -0.9124
 8373SOL    HW236753   3.727   2.701   4.734  0.5375 -0.7059  1.0078
 8374SOL     OW36754   0.170   2.616   4.631 -0.0588  0.1311  0.5754
 8374SOL    HW136755   0.232   2.545   4.651  1.0874  0.4613 -1.7023
 8374SOL    HW236756   0.241   2.678   4.615  0.9239 -0.8544  1.0259
 8375SOL     OW36757   1.371   0.503   9.173  0.1684  0.6154 -0.4485
 8375SOL    HW136758   1.323   0.469   9.097 -0.7940 -1.1396  0.9512
 8375SOL    HW236759   1.298   0.552   9.211 -0.1397 -1.1683  1.2198
 8376SOL     OW36760   1.632   0.059   9.317 -0.3629  0.3548 -0.2167
 8376SOL    HW136761   1.594   0.146   9.311  0.0088  0.6107  1.0566
 8376SOL    HW236762   1.653   0.047   9.410 -1.1498 -0.1877 -0.1082
 8377SOL     OW36763   3.815   3.774   8.639 -0.4000 -0.4638 -0.8879
 8377SOL    HW136764   3.751   3.774   8.568  1.0105  1.2489 -2.1996
 8377SOL    HW236765   3.763   3.741   8.712 -1.4142  0.8804 -1.0110
 8378SOL     OW36766   0.435   4.681   8.670 -0.0025 -0.3262  1.0892
 8378SOL    HW136767   0.436   4.608   8.609  0.9386  2.1083 -1.8235
 8378SOL    HW236768   0.475   0.008   8.613  0.9415 -0.7323  1.2792
 8379SOL     OW36769   3.592   0.101  11.929 -0.6790 -0.1493  0.3640
 8379SOL    HW136770   3.671   0.057  11.962 -1.1707 -2.2800 -1.2493
 8379SOL    HW236771   3.632   0.159  11.864 -2.0101 -0.1394 -0.4355
 8380SOL     OW36772   3.441   2.676   3.963  0.0570 -0.4811 -0.2178
 8380SOL    HW136773   3.357   2.634   3.946 -0.1869 -0.1985  0.3009
 8380SOL    HW236774   3.468   2.715   3.879 -0.0449 -2.3527 -1.1160
 8381SOL     OW36775   3.092   3.084   0.227  0.5429  0.0450  0.7029
 8381SOL    HW136776   3.079   3.111   0.135  0.3177 -1.1246  0.3986
 8381SOL    HW236777   3.099   2.990   0.236 -3.0438 -0.2399  0.3224
 8382SOL     OW36778   1.548   2.135  12.505 -0.1777 -0.3004  0.2349
 8382SOL    HW136779   1.530   2.051  12.461 -0.4715 -0.6163  0.9533
 8382SOL    HW236780   1.460   2.172  12.508 -1.0500 -2.6053  3.2173
 8383SOL     OW36781   3.512   1.861   7.300  0.3050 -0.4580  0.0531
 8383SOL    HW136782   3.444   1.815   7.348 -0.1702 -0.5006 -0.6493
 8383SOL    HW236783   3.540   1.786   7.247  0.0438 -1.0826  0.8149
 8384SOL     OW36784   1.506   0.000   3.507 -0.4343  0.1223  0.1494
 8384SOL    HW136785   1.504   4.646   3.490 -1.2543  0.3040 -0.7741
 8384SOL    HW236786   1.482   4.739   3.600  0.6120  1.3382  0.4355
 8385SOL     OW36787   1.431   0.085   8.250  0.0529 -0.2888 -0.2802
 8385SOL    HW136788   1.389   0.115   8.170  0.4141  0.1365 -0.3119
 8385SOL    HW236789   1.445   4.734   8.222  0.4525 -0.2170 -0.3147
 8386SOL     OW36790   3.086   1.704   1.994 -0.2004 -0.0068 -0.6713
 8386SOL    HW136791   3.120   1.716   2.083  0.0929  1.6977 -1.0083
 8386SOL    HW236792   3.003   1.751   2.005 -1.9285 -3.4181  0.7855
 8387SOL     OW36793   3.479   3.629  14.105 -0.7583  0.7278  0.2286
 8387SOL    HW136794   3.529   3.703  14.138  0.8870  0.4936 -1.7037
 8387SOL    HW236795   3.545   3.560  14.118 -1.9059 -0.6628 -1.1678
 8388SOL     OW36796   0.217   2.893   3.354  0.1050 -0.1928  0.0731
 8388SOL    HW136797   0.160   2.957   3.398  1.2874  1.2739 -0.5202
 8388SOL    HW236798   0.298   2.945   3.350  0.2927 -0.4757  0.1903
 8389SOL     OW36799   0.900   2.181  11.523 -0.2716 -0.4133 -0.1093
 8389SOL    HW136800   0.859   2.197  11.608  1.1738 -1.4691  0.7760
 8389SOL    HW236801   0.951   2.262  11.518  0.4617 -0.9692 -1.8490
 8390SOL     OW36802   1.779   0.113   3.686 -0.9298 -0.0118 -0.0937
 8390SOL    HW136803   1.776   0.071   3.600  1.2459 -0.3070 -0.0406
 8390SOL    HW236804   1.746   0.196   3.654  0.4865 -0.0062 -1.5510
 8391SOL     OW36805   3.457   3.430   6.003  0.1038  0.3269 -0.5654
 8391SOL    HW136806   3.362   3.416   6.012  0.4354 -0.5928  1.3024
 8391SOL    HW236807   3.493   3.342   5.994 -1.7842 -0.5610  0.5470
 8392SOL     OW36808   0.488   3.569   7.943 -0.3994  0.2910 -0.1609
 8392SOL    HW136809   0.508   3.563   7.849  1.2644  3.4954 -0.0173
 8392SOL    HW236810   0.569   3.534   7.980 -1.8942 -0.9899  1.8973
 8393SOL     OW36811   1.180   3.781   6.766 -0.2707  0.3206 -0.6572
 8393SOL    HW136812   1.195   3.876   6.765  1.0752  0.1022 -1.9870
 8393SOL    HW236813   1.090   3.784   6.734 -0.3045 -0.4447 -0.6219
 8394SOL     OW36814   2.738   1.231  16.131  0.0664  0.2130 -0.7319
 8394SOL    HW136815   2.654   1.198  16.099 -1.3026  0.5359  2.5439
 8394SOL    HW236816   2.751   1.300  16.066 -1.3877  1.1182 -0.0719
 8395SOL     OW36817   3.873   4.064   5.644  0.9644 -0.2457 -0.9985
 8395SOL    HW136818   3.856   4.154   5.672  0.5970 -0.8767  0.7673
 8395SOL    HW236819   3.919   4.030   5.720  0.1656  0.0743 -0.3808
 8396SOL     OW36820   1.477   3.517   5.194  0.0426  0.3972  0.3046
 8396SOL    HW136821   1.560   3.470   5.183 -1.0871 -1.2233 -1.3780
 8396SOL    HW236822   1.461   3.559   5.109  2.3827  0.3749 -0.1413
 8397SOL     OW36823   0.002   1.952   2.817 -0.1719 -0.0884 -0.2112
 8397SOL    HW136824   4.686   1.943   2.895  0.0101 -1.2914 -0.2306
 8397SOL    HW236825   4.704   1.887   2.758 -1.4555  0.9522 -0.5353
 8398SOL     OW36826   1.621   0.542  10.051 -0.0523 -0.6823 -0.0550
 8398SOL    HW136827   1.701   0.498  10.022  1.0958  2.9844 -2.4716
 8398SOL    HW236828   1.650   0.600  10.121  0.5153 -0.2092 -0.6935
 8399SOL     OW36829   0.875   1.826  15.450 -0.5225  0.3602  0.0361
 8399SOL    HW136830   0.933   1.892  15.413 -1.8042 -1.1258 -4.6156
 8399SOL    HW236831   0.944   1.783  15.501 -0.3927  0.0240 -0.4233
 8400SOL     OW36832   1.379   3.152  16.488 -0.0330 -0.3805 -0.0963
 8400SOL    HW136833   1.448   3.086  16.477 -0.6139 -0.9961 -0.0045
 8400SOL    HW236834   1.308   3.108  16.441 -0.9407  2.2383 -1.2129
 8401SOL     OW36835   0.554   0.746   7.803 -0.3273 -0.3952  0.2234
 8401SOL    HW136836   0.471   0.737   7.756 -0.3613  0.8865  0.0251
 8401SOL    HW236837   0.520   0.752   7.892  1.1525  0.0597  0.7590
 8402SOL     OW36838   2.602   0.747   2.321 -0.3605  0.2122 -0.5839
 8402SOL    HW136839   2.550   0.696   2.259 -0.2899 -0.0102 -0.4602
 8402SOL    HW236840   2.529   0.793   2.363  0.6485  1.9406 -0.7270
 8403SOL     OW36841   1.665   3.519   6.454  0.0422 -0.4472  0.1998
 8403SOL    HW136842   1.685   3.429   6.482  1.8228 -0.2369 -0.4382
 8403SOL    HW236843   1.649   3.499   6.362  2.0987 -0.6795 -0.0982
 8404SOL     OW36844   1.307   4.329   2.198  0.1916 -0.5224  0.0937
 8404SOL    HW136845   1.279   4.261   2.260 -1.9219 -0.3446 -0.6626
 8404SOL    HW236846   1.230   4.385   2.206  0.2065 -0.5663  0.5498
 8405SOL     OW36847   0.612   2.240   5.614  0.2525  0.3010 -0.0564
 8405SOL    HW136848   0.665   2.163   5.636  0.9623  1.3783  1.9761
 8405SOL    HW236849   0.625   2.295   5.691 -0.8878  0.7491 -0.1950
 8406SOL     OW36850   2.866   2.415   6.402  0.4236 -0.0139  0.2440
 8406SOL    HW136851   2.959   2.411   6.423  0.4652 -1.7577 -0.2380
 8406SOL    HW236852   2.865   2.479   6.331 -0.0567  0.7990  0.9965
 8407SOL     OW36853   2.485   3.781   2.956 -0.3620 -0.3875  0.8258
 8407SOL    HW136854   2.507   3.693   2.924  1.4796 -0.0833  1.2296
 8407SOL    HW236855   2.577   3.808   2.952 -0.2445 -0.7936  0.7081
 8408SOL     OW36856   3.330   2.162   8.342 -0.3738  0.2168  0.1077
 8408SOL    HW136857   3.311   2.076   8.305  0.1676  1.2867 -2.5981
 8408SOL    HW236858   3.323   2.220   8.266  3.4184 -1.1243 -1.2416
 8409SOL     OW36859   3.783   1.907  16.149 -0.3977  0.6512  0.4505
 8409SOL    HW136860   3.787   1.817  16.181  0.2017  0.6566  0.3928
 8409SOL    HW236861   3.845   1.904  16.076  1.5675  1.1873  2.0959
 8410SOL     OW36862   1.803   0.130   7.392  0.2358  0.2768 -0.4719
 8410SOL    HW136863   1.762   0.205   7.435  1.6593 -0.0933  1.5576
 8410SOL    HW236864   1.787   0.069   7.464  2.2395  0.7025  0.3367
 8411SOL     OW36865   0.277   3.923  16.182  0.5053  0.4767 -0.3275
 8411SOL    HW136866   0.274   3.956  16.092 -0.6252  1.4574  0.0684
 8411SOL    HW236867   0.206   3.859  16.182 -0.0316  1.0733  0.7209
 8412SOL     OW36868   3.023   2.499   5.703 -0.3162  0.1850  0.0204
 8412SOL    HW136869   2.980   2.420   5.671  0.4623 -0.3960  0.4053
 8412SOL    HW236870   3.105   2.463   5.736 -0.8181 -0.6855  0.3191
 8413SOL     OW36871   3.713   4.164   9.093  0.0667  0.6162  0.2342
 8413SOL    HW136872   3.631   4.122   9.115  0.1009 -0.5910 -1.9006
 8413SOL    HW236873   3.716   4.247   9.141 -3.7088  0.7338  0.2542
 8414SOL     OW36874   4.319   1.057   5.654  0.0713  0.0539  0.2002
 8414SOL    HW136875   4.310   0.967   5.683 -2.6747  0.2865  0.0293
 8414SOL    HW236876   4.266   1.105   5.718 -1.3400 -2.2237  0.7116
 8415SOL     OW36877   2.504   2.027   8.474  0.1460  0.0307 -0.9159
 8415SOL    HW136878   2.568   2.000   8.540 -1.5169 -0.3576  0.5384
 8415SOL    HW236879   2.551   2.033   8.391  1.1857 -0.9864 -0.3955
 8416SOL     OW36880   0.228   4.706   4.307 -0.1588 -0.0485  0.2152
 8416SOL    HW136881   0.190   4.637   4.362 -2.6812 -0.1900 -1.7061
 8416SOL    HW236882   0.322   4.686   4.307 -0.1898 -0.1973  1.5865
 8417SOL     OW36883   2.500   2.847   5.149  0.2976 -0.1262  0.2008
 8417SOL    HW136884   2.580   2.819   5.105  0.0895 -0.2798 -0.0824
 8417SOL    HW236885   2.438   2.805   5.089 -0.9331 -1.3923  2.3590
 8418SOL     OW36886   0.652   1.679   0.016  0.4478 -0.4191 -0.0873
 8418SOL    HW136887   0.732   1.719   0.050  0.2883  0.5592 -0.8704
 8418SOL    HW236888   0.586   1.683   0.085 -1.2364  0.7731 -1.7584
 8419SOL     OW36889   4.313   2.663   5.577  0.0331  0.5424 -0.0616
 8419SOL    HW136890   4.403   2.648   5.548 -0.5976 -0.9338 -1.2173
 8419SOL    HW236891   4.296   2.578   5.619  1.0193 -0.3829 -1.5214
 8420SOL     OW36892   4.217   0.191   8.168  0.1656  0.8527  0.3233
 8420SOL    HW136893   4.231   0.163   8.258 -0.8489 -1.3876 -0.2065
 8420SOL    HW236894   4.133   0.234   8.187 -1.1151 -1.1795 -0.7833
 8421SOL     OW36895   1.803   4.385   8.225 -0.4894 -0.0697  0.1604
 8421SOL    HW136896   1.898   4.379   8.239 -0.4579 -0.3769 -0.1684
 8421SOL    HW236897   1.789   4.479   8.230 -3.4630 -0.5490  0.5551
 8422SOL     OW36898   3.191   3.002   4.457 -0.4673  0.1993 -0.2279
 8422SOL    HW136899   3.173   2.928   4.400 -1.0279 -0.8306  1.2783
 8422SOL    HW236900   3.198   3.070   4.390  3.7668 -0.7896 -0.8123
 8423SOL     OW36901   0.178   1.594   7.217 -0.2608 -0.1431 -0.2999
 8423SOL    HW136902   0.206   1.590   7.309 -0.0402 -0.3985 -0.3760
 8423SOL    HW236903   0.084   1.575   7.218 -0.1907 -0.3629  2.8115
 8424SOL     OW36904   4.340   1.783   9.497  0.3515 -0.3737 -0.4644
 8424SOL    HW136905   4.417   1.836   9.475  1.7446 -1.7467  1.0430
 8424SOL    HW236906   4.294   1.775   9.414 -0.0773 -0.1600 -0.2458
 8425SOL     OW36907   1.426   2.783  16.412 -0.1064  0.0813 -0.0483
 8425SOL    HW136908   1.389   2.696  16.426  1.4650 -0.2837  1.9663
 8425SOL    HW236909   1.348   2.838  16.415 -0.0435  0.1006  1.2264
 8426SOL     OW36910   4.726   0.657   7.274  0.1043 -0.1840 -0.6252
 8426SOL    HW136911   0.064   0.703   7.242  1.6884 -2.5908 -0.2587
 8426SOL    HW236912   0.031   0.594   7.332 -0.9669  1.0308  1.5358
 8427SOL     OW36913   4.640   2.411   8.291 -0.1523 -0.2878  0.7031
 8427SOL    HW136914   4.718   2.386   8.340  0.1980  1.0113  0.8048
 8427SOL    HW236915   4.563   2.398   8.346  0.4929 -0.6208  1.5336
 8428SOL     OW36916   2.777   1.552   5.785 -0.1366 -0.2990 -0.1966
 8428SOL    HW136917   2.698   1.581   5.829  0.9091  0.0097  1.4590
 8428SOL    HW236918   2.761   1.589   5.698  0.7871 -0.8713 -0.6175
 8429SOL     OW36919   2.015   2.901   5.830  0.0108 -0.0269 -0.1088
 8429SOL    HW136920   2.071   2.979   5.831 -0.9331  0.6854 -2.4500
 8429SOL    HW236921   1.981   2.901   5.741 -3.5409  0.2704  1.2448
 8430SOL     OW36922   1.954   2.333  12.826  0.2341  0.1694  0.8054
 8430SOL    HW136923   1.873   2.351  12.778  0.3747 -1.1362  0.0866
 8430SOL    HW236924   1.962   2.242  12.798  1.8875  0.4435  0.4134
 8431SOL     OW36925   1.919   1.838  10.387  0.2240 -0.8263 -0.4160
 8431SOL    HW136926   1.994   1.898  10.381  0.8516 -1.5924 -0.2864
 8431SOL    HW236927   1.861   1.878  10.321  0.5671  1.1423  0.4682
 8432SOL     OW36928   2.044   0.847  10.309  0.6861 -0.0847 -0.3515
 8432SOL    HW136929   2.023   0.825  10.218  1.1779  2.6418 -1.1160
 8432SOL    HW236930   2.074   0.938  10.302 -0.2368  0.1127 -1.8645
 8433SOL     OW36931   0.787   0.668  15.734  0.3426  0.1392 -0.4275
 8433SOL    HW136932   0.757   0.595  15.680 -0.7096 -1.1122  1.8566
 8433SOL    HW236933   0.716   0.684  15.796 -0.8398 -3.6006 -0.8266
 8434SOL     OW36934   2.358   0.739   9.401  0.4276 -0.0046 -0.1988
 8434SOL    HW136935   2.352   0.728   9.496 -0.5897 -0.5182 -0.3248
 8434SOL    HW236936   2.443   0.699   9.380  0.5188 -0.7064  1.5440
 8435SOL     OW36937   1.112   3.382   1.715  0.3606  0.4900 -0.5262
 8435SOL    HW136938   1.087   3.343   1.631 -0.5507  0.6048 -0.3149
 8435SOL    HW236939   1.140   3.307   1.767  2.6992  0.2426 -2.1285
 8436SOL     OW36940   0.815   2.352   5.210  0.6512  0.2970 -0.2087
 8436SOL    HW136941   0.742   2.371   5.270 -1.3395  0.3458 -2.6174
 8436SOL    HW236942   0.778   2.351   5.121 -2.6539  0.2538  1.1594
 8437SOL     OW36943   0.341   4.393  17.001 -0.4423  0.3887 -0.2520
 8437SOL    HW136944   0.257   4.437  17.016 -1.3125 -1.5649  0.5434
 8437SOL    HW236945   0.322   4.309  17.042  0.8360  0.2660  0.1051
 8438SOL     OW36946   1.275   3.888  11.683  0.6952  0.3188  0.5856
 8438SOL    HW136947   1.363   3.905  11.649  1.5497 -0.3482  2.4731
 8438SOL    HW236948   1.254   3.969  11.729 -1.3497  0.9028 -1.3810
 8439SOL     OW36949   1.458   3.381   7.792  0.1204 -0.0019  0.3624
 8439SOL    HW136950   1.533   3.342   7.747  0.1943  0.7097 -0.1166
 8439SOL    HW236951   1.474   3.339   7.877 -0.4914 -0.4790  0.2402
 8440SOL     OW36952   2.489   0.699   4.595 -0.5119  0.3020  0.7621
 8440SOL    HW136953   2.411   0.694   4.651 -0.5047  0.4208  0.7818
 8440SOL    HW236954   2.445   0.676   4.513  2.6628 -0.8380 -0.6296
 8441SOL     OW36955   2.856   0.438   9.064 -0.3439  0.8309 -0.5023
 8441SOL    HW136956   2.927   0.450   9.000 -0.5288 -4.0727 -1.6648
 8441SOL    HW236957   2.816   0.357   9.032 -1.0506 -0.3049  3.2725
 8442SOL     OW36958   4.063   1.646   9.915  0.5779  0.3625 -0.2387
 8442SOL    HW136959   4.006   1.719   9.939 -0.4669  0.2943 -2.4860
 8442SOL    HW236960   4.129   1.684   9.858 -1.9801  2.1957 -1.9642
 8443SOL     OW36961   2.029   4.534  11.258 -0.5075  0.1353 -0.0394
 8443SOL    HW136962   2.057   4.452  11.217  0.0681  1.0024 -1.3565
 8443SOL    HW236963   1.934   4.526  11.265 -0.6028  0.8731 -0.5541
 8444SOL     OW36964   2.756   3.289   1.526  0.3908  0.3440 -0.1671
 8444SOL    HW136965   2.708   3.372   1.527 -1.0032 -0.4141 -2.2733
 8444SOL    HW236966   2.825   3.322   1.469 -0.8540  1.3819 -1.0920
 8445SOL     OW36967   0.517   2.066   2.384 -0.0526 -0.6478  0.7026
 8445SOL    HW136968   0.567   2.066   2.302  2.6433 -1.7949  2.3426
 8445SOL    HW236969   0.454   1.996   2.368 -0.4845 -0.3385  1.0699
 8446SOL     OW36970   0.933   1.600   0.934  0.1410  0.5501 -0.4021
 8446SOL    HW136971   0.901   1.688   0.914 -1.4300 -0.0472 -0.5193
 8446SOL    HW236972   0.888   1.554   0.863 -3.3835  2.4081  0.6214
 8447SOL     OW36973   1.181   1.848   4.081  0.2360 -0.3328  0.0738
 8447SOL    HW136974   1.255   1.812   4.032 -0.7246 -3.0671  0.6069
 8447SOL    HW236975   1.170   1.790   4.156 -3.8548 -0.3876 -0.5856
 8448SOL     OW36976   3.347   3.658   4.878  0.0273 -0.3526 -0.0575
 8448SOL    HW136977   3.325   3.569   4.853  1.0148 -0.1954 -1.4401
 8448SOL    HW236978   3.435   3.646   4.914  0.1037 -1.2544 -0.5602
 8449SOL     OW36979   4.436   0.823   1.827 -0.0715 -0.6483 -0.3067
 8449SOL    HW136980   4.424   0.884   1.901  2.6634 -2.4954  1.6482
 8449SOL    HW236981   4.514   0.769   1.839  1.4054  1.2672 -1.2598
 8450SOL     OW36982   1.465   4.637  11.655  0.3392  0.2674 -0.2473
 8450SOL    HW136983   1.406   4.703  11.691 -0.8216 -0.6407 -0.4800
 8450SOL    HW236984   1.415   4.605  11.579 -0.7564 -0.1794  0.6626
 8451SOL     OW36985   2.478   3.429   5.817 -0.5549 -0.1616 -0.0826
 8451SOL    HW136986   2.405   3.477   5.779  0.5029  1.2904 -0.2891
 8451SOL    HW236987   2.519   3.388   5.741  1.6722  2.0529 -0.0667
 8452SOL     OW36988   4.258   4.401   5.780 -0.6618 -0.6199  0.1420
 8452SOL    HW136989   4.315   4.429   5.708  1.9419 -0.7382  2.1946
 8452SOL    HW236990   4.198   4.475   5.768 -0.7887 -0.4699  1.7051
 8453SOL     OW36991   2.205   4.277   9.009 -0.1064  0.3478  0.2388
 8453SOL    HW136992   2.227   4.370   9.016  0.7526  0.3255 -2.1267
 8453SOL    HW236993   2.203   4.263   8.914  0.9004  0.4180  0.2114
 8454SOL     OW36994   2.438   3.026   6.353 -0.4674  0.0331 -0.5845
 8454SOL    HW136995   2.362   3.010   6.408  0.3937  0.6358  0.7609
 8454SOL    HW236996   2.402   3.083   6.285  1.9097  0.9242 -1.1039
 8455SOL     OW36997   1.544   2.973   5.447 -0.5126  0.0029  0.1020
 8455SOL    HW136998   1.579   2.934   5.527 -2.4600  0.1339  1.0264
 8455SOL    HW236999   1.598   2.923   5.387  2.1822  1.9937  0.8532
 8456SOL     OW37000   3.323   1.321   3.686 -0.1843 -0.1322 -0.2542
 8456SOL    HW137001   3.339   1.243   3.631  1.7581  2.4793 -3.3935
 8456SOL    HW237002   3.415   1.341   3.707  0.8683 -3.5424 -1.5661
 8457SOL     OW37003   2.970   3.491   1.546  0.1161 -0.8558 -0.1101
 8457SOL    HW137004   2.907   3.472   1.615 -0.7005 -0.7798 -0.8421
 8457SOL    HW237005   3.040   3.527   1.601 -0.0632 -1.5915  0.5931
 8458SOL     OW37006   0.813   4.155   8.341  0.7056  0.2756  0.6687
 8458SOL    HW137007   0.804   4.202   8.424  0.2162 -0.8240  1.2323
 8458SOL    HW237008   0.731   4.174   8.297  1.5605 -2.6323 -2.1913
 8459SOL     OW37009   2.222   0.969  15.905  0.3508 -0.2273 -0.9295
 8459SOL    HW137010   2.227   1.032  15.977  2.7697  0.9429 -2.1133
 8459SOL    HW237011   2.128   0.964  15.884  0.5622  1.0363 -2.2083
 8460SOL     OW37012   0.730   1.042   7.136  0.2785 -0.2195 -0.3568
 8460SOL    HW137013   0.684   1.015   7.057 -0.5234  1.8312 -0.5801
 8460SOL    HW237014   0.706   0.974   7.199 -0.0875 -0.3756 -0.6686
 8461SOL     OW37015   1.472   0.346   5.023 -0.6680  0.4643 -0.0873
 8461SOL    HW137016   1.391   0.297   5.031 -0.6805  0.3897 -0.6817
 8461SOL    HW237017   1.538   0.277   5.020 -0.7147  0.3987  0.4191
 8462SOL     OW37018   4.337   1.304   7.727 -0.2302  0.2837  0.3555
 8462SOL    HW137019   4.322   1.398   7.736  0.0846  0.3584  0.0700
 8462SOL    HW237020   4.383   1.295   7.811  0.3060 -2.0292 -0.1756
 8463SOL     OW37021   2.193   3.566   8.455 -0.1331  0.1532  0.1410
 8463SOL    HW137022   2.227   3.495   8.400 -0.7132 -0.0370  0.0342
 8463SOL    HW237023   2.112   3.535   8.494  1.0436 -0.5675  2.0280
 8464SOL     OW37024   3.180   0.263   8.993 -0.0904 -0.1563 -0.9317
 8464SOL    HW137025   3.161   0.354   8.968  3.1622  1.5627  2.7454
 8464SOL    HW237026   3.146   0.224   8.913 -2.6501 -2.6387  1.3990
 8465SOL     OW37027   1.880   2.330   0.983 -0.2734 -0.1141  0.1108
 8465SOL    HW137028   1.888   2.240   0.951 -0.9879 -0.9336  2.2320
 8465SOL    HW237029   1.915   2.362   0.900 -3.7776 -0.6637 -1.5520
 8466SOL     OW37030   2.741   2.725   9.154  0.2561  0.4072  0.4628
 8466SOL    HW137031   2.690   2.805   9.140 -0.2415  0.0857  0.4517
 8466SOL    HW237032   2.716   2.727   9.246  0.2609 -0.3747  0.4771
 8467SOL     OW37033   0.243   1.302   4.222 -0.6660 -0.1155 -0.4517
 8467SOL    HW137034   0.266   1.210   4.236 -0.8668  0.4028  3.4651
 8467SOL    HW237035   0.311   1.340   4.166 -0.8598  0.8581 -0.0304
 8468SOL     OW37036   0.091   2.166   4.751  0.4175 -0.3340 -0.7618
 8468SOL    HW137037   0.055   2.084   4.786 -3.0439  1.1988 -0.6912
 8468SOL    HW237038   0.022   2.232   4.760  0.1510 -0.5009 -1.5290
 8469SOL     OW37039   4.567   0.007  10.020 -0.3023 -0.2299 -0.2836
 8469SOL    HW137040   4.562   0.096  10.056 -0.8745 -0.4543  0.1902
 8469SOL    HW237041   4.650   0.014   9.974  0.3300  1.3124  1.0994
 8470SOL     OW37042   4.683   3.866   5.266  0.6473  0.4807  0.4726
 8470SOL    HW137043   4.613   3.815   5.307 -0.7361  1.6584 -0.4100
 8470SOL    HW237044   4.684   3.948   5.315 -0.5137 -0.1835  1.5929
 8471SOL     OW37045   3.160   4.203   1.706 -0.4961 -0.3605 -0.2884
 8471SOL    HW137046   3.252   4.179   1.721  0.4774  2.9707 -0.9081
 8471SOL    HW237047   3.135   4.165   1.622 -2.6273  1.7454 -0.6097
 8472SOL     OW37048   1.572   3.839   2.194  0.2413  0.1774 -0.3811
 8472SOL    HW137049   1.611   3.773   2.137  0.7740  1.3756 -1.3828
 8472SOL    HW237050   1.596   3.797   2.277  2.7562  2.3602 -0.0161
 8473SOL     OW37051   1.119   2.453   6.620 -0.0137  0.0634 -0.3254
 8473SOL    HW137052   1.183   2.450   6.691  0.6693 -0.0514 -0.9433
 8473SOL    HW237053   1.144   2.371   6.576 -0.7499 -1.4784  2.1388
 8474SOL     OW37054   0.246   3.382  11.930 -0.1589  0.0676 -0.0714
 8474SOL    HW137055   0.173   3.441  11.948 -0.2820 -0.2051  0.3269
 8474SOL    HW237056   0.313   3.422  11.985  0.8107 -1.7456  0.0536
 8475SOL     OW37057   4.356   4.114   8.921 -0.2504 -0.4141  0.1185
 8475SOL    HW137058   4.395   4.029   8.902 -0.7699 -0.7180  0.4007
 8475SOL    HW237059   4.347   4.154   8.835  4.4780 -0.8023 -0.5718
 8476SOL     OW37060   4.633   1.619   5.543 -0.2277  0.9805  0.0528
 8476SOL    HW137061   4.657   1.618   5.450 -0.1689  0.9389  0.0682
 8476SOL    HW237062   4.592   1.705   5.554  1.9599  2.2303 -1.6186
 8477SOL     OW37063   3.816   3.052   0.312 -0.2306  0.1715  0.2443
 8477SOL    HW137064   3.871   2.987   0.356  1.5863  0.4939 -1.5256
 8477SOL    HW237065   3.739   2.997   0.296 -0.4454  0.7024 -0.5544
 8478SOL     OW37066   4.135   2.067   1.271 -0.2013 -0.3058  0.0603
 8478SOL    HW137067   4.216   2.068   1.322 -0.0899  1.1925 -0.1431
 8478SOL    HW237068   4.141   1.991   1.214 -0.0772  0.9566 -1.5976
 8479SOL     OW37069   0.750   2.088   7.908  0.1787  0.0486 -0.4853
 8479SOL    HW137070   0.836   2.122   7.884  0.8150 -0.3392  1.2080
 8479SOL    HW237071   0.777   2.014   7.964  1.1818  0.3373 -0.5770
 8480SOL     OW37072   1.899   4.137  11.848  0.2633 -0.4592  0.2187
 8480SOL    HW137073   1.805   4.123  11.839  0.2956 -0.8643  0.5050
 8480SOL    HW237074   1.904   4.228  11.816  0.8470  0.4803  3.0096
 8481SOL     OW37075   2.020   1.281   5.924  0.0240 -0.2481  0.0012
 8481SOL    HW137076   2.043   1.358   5.873 -2.7277  1.0881  0.7782
 8481SOL    HW237077   2.015   1.320   6.011  1.7511  3.5278 -1.5939
 8482SOL     OW37078   3.211   4.639  10.071  0.4673  0.0988 -0.1547
 8482SOL    HW137079   3.144   4.707  10.068  0.6453  0.3849  2.3281
 8482SOL    HW237080   3.237   4.642  10.163  0.3383  2.6834 -0.2017
 8483SOL     OW37081   2.237   1.532   7.718 -0.1956 -0.2338 -0.1932
 8483SOL    HW137082   2.330   1.507   7.717 -0.0938  0.2422 -2.5434
 8483SOL    HW237083   2.225   1.586   7.639  0.2031 -0.5218 -0.4505
 8484SOL     OW37084   0.288   1.550   7.476  0.4004 -0.2810  0.1750
 8484SOL    HW137085   0.331   1.573   7.558  1.3631 -1.0592 -0.1014
 8484SOL    HW237086   0.219   1.489   7.501  1.7038 -2.0236 -0.4630
 8485SOL     OW37087   2.292   1.779   5.748 -0.7145  0.0132  0.3616
 8485SOL    HW137088   2.354   1.852   5.752 -0.6415 -0.0157 -0.1992
 8485SOL    HW237089   2.257   1.786   5.660  0.1998  3.2120  0.2643
 8486SOL     OW37090   0.246   4.134   9.100  0.2313  0.3055 -0.4030
 8486SOL    HW137091   0.286   4.153   9.015  0.7570 -2.0793 -0.6886
 8486SOL    HW237092   0.318   4.157   9.158 -0.8359  1.1935  0.5570
 8487SOL     OW37093   1.971   4.359   4.848 -0.6559  0.1907 -0.3335
 8487SOL    HW137094   1.969   4.401   4.763  1.9253  0.9774 -0.0013
 8487SOL    HW237095   1.932   4.276   4.820 -2.2945  0.0205  2.4046
 8488SOL     OW37096   1.658   2.984   7.691 -0.5714  0.2510 -0.2377
 8488SOL    HW137097   1.584   3.038   7.721 -1.1157 -2.7155  3.8439
 8488SOL    HW237098   1.614   2.922   7.632  1.0517  0.2835 -1.4650
 8489SOL     OW37099   3.562   3.145  12.579  0.1064  0.0587 -0.0084
 8489SOL    HW137100   3.615   3.122  12.503  1.6528  2.5408  0.3025
 8489SOL    HW237101   3.634   3.145  12.643 -0.4626  0.3234  0.6375
 8490SOL     OW37102   3.967   3.762  16.557  0.0408 -0.1721 -0.2181
 8490SOL    HW137103   4.057   3.737  16.579 -0.5694 -0.5193  1.9374
 8490SOL    HW237104   3.949   3.697  16.489 -0.4330 -1.7472  1.3931
 8491SOL     OW37105   2.495   3.822   7.126 -0.0924 -0.0324 -0.3464
 8491SOL    HW137106   2.449   3.905   7.140  0.5050  0.3043 -0.3659
 8491SOL    HW237107   2.580   3.855   7.155  1.3374 -3.1143 -1.0395
 8492SOL     OW37108   2.292   3.261   5.608  0.3243  0.1870  0.1852
 8492SOL    HW137109   2.291   3.207   5.529  0.8145 -0.5724  0.6978
 8492SOL    HW237110   2.320   3.189   5.664 -3.2447 -0.6377  0.9025
 8493SOL     OW37111   2.831   1.484   9.069  0.4927  0.5175 -0.9517
 8493SOL    HW137112   2.904   1.511   9.126 -0.2676  0.8427 -0.1428
 8493SOL    HW237113   2.781   1.565   9.058  1.6680  1.0743 -2.3445
 8494SOL     OW37114   2.970   2.158   9.355 -0.4207 -0.2624 -0.3223
 8494SOL    HW137115   2.992   2.075   9.314 -0.0250 -0.1399 -0.3601
 8494SOL    HW237116   2.879   2.136   9.372 -0.0184 -1.0140  0.8561
 8495SOL     OW37117   3.793   3.623   4.246 -0.0350  0.2207  0.7662
 8495SOL    HW137118   3.715   3.569   4.231 -0.5294  0.9195  0.8583
 8495SOL    HW237119   3.838   3.603   4.164  0.8889  0.4103  1.2211
 8496SOL     OW37120   0.029   3.251  17.600 -0.4321  0.1152 -0.0490
 8496SOL    HW137121   0.021   3.320  17.533  1.2062  0.4469  0.0853
 8496SOL    HW237122   0.076   3.301  17.666  1.0938 -1.2048 -0.1298
 8497SOL     OW37123   1.150   4.273   5.522 -0.1298  0.2245 -0.7349
 8497SOL    HW137124   1.064   4.278   5.481 -0.9293 -1.1998  0.7597
 8497SOL    HW237125   1.203   4.245   5.447  1.2091 -0.0279  0.2886
 8498SOL     OW37126   3.846   1.541   6.842 -0.1208 -0.1617  0.4366
 8498SOL    HW137127   3.913   1.492   6.795  0.9490  2.7229 -1.0129
 8498SOL    HW237128   3.799   1.462   6.869  1.1419 -0.6337  1.2552
 8499SOL     OW37129   0.112   0.038  16.027  0.4266 -0.1383 -1.0573
 8499SOL    HW137130   0.153   0.020  15.943  1.0872  3.0458 -1.4320
 8499SOL    HW237131   0.021   0.011  16.013  0.3039 -0.3654  0.1630
 8500SOL     OW37132   4.205   4.586  13.099 -0.3969 -0.6677 -0.0834
 8500SOL    HW137133   4.227   4.498  13.067  2.3708 -0.7925  2.2490
 8500SOL    HW237134   4.238   4.587  13.189 -0.4380 -0.3428 -0.0742
 8501SOL     OW37135   3.070   4.208  14.967 -0.0071  0.1067 -0.6509
 8501SOL    HW137136   3.035   4.140  14.909 -0.8971 -0.0477  0.0635
 8501SOL    HW237137   3.164   4.188  14.968  0.2279  1.2321 -0.0927
 8502SOL     OW37138   0.266   0.074   5.769  0.1321  0.1754  0.2218
 8502SOL    HW137139   0.342   0.021   5.794  1.2980  1.6702 -0.1373
 8502SOL    HW237140   0.306   0.145   5.718 -0.1835 -0.4580 -0.9019
 8503SOL     OW37141   1.770   3.481   8.771 -0.1271 -0.4125 -0.0188
 8503SOL    HW137142   1.818   3.495   8.853  1.8932  2.1843 -1.6563
 8503SOL    HW237143   1.775   3.568   8.734 -0.8633 -1.4807 -2.6076
 8504SOL     OW37144   0.972   1.993   2.247  0.4888 -0.5169  0.0200
 8504SOL    HW137145   1.026   1.996   2.326 -0.3467 -0.5162  0.5998
 8504SOL    HW237146   1.014   1.920   2.203 -2.1628 -0.5209 -2.5262
 8505SOL     OW37147   3.632   3.872  15.047 -0.0398  0.1978  0.9298
 8505SOL    HW137148   3.586   3.808  15.102  0.0073 -0.9481 -0.3599
 8505SOL    HW237149   3.612   3.958  15.083 -0.1253  0.1627  0.9646
 8506SOL     OW37150   2.913   2.616   3.982 -0.1568  0.2436 -0.6082
 8506SOL    HW137151   2.863   2.693   4.009  0.4517 -0.2101  1.8414
 8506SOL    HW237152   2.840   2.575   3.936 -0.6204  1.9756 -1.4285
 8507SOL     OW37153   3.885   4.258   2.676  0.0100 -0.1453  0.1985
 8507SOL    HW137154   3.796   4.235   2.649 -0.7500  0.3949  2.2361
 8507SOL    HW237155   3.882   4.268   2.771 -1.4000  3.3629 -0.2525
 8508SOL     OW37156   1.785   3.088   5.186 -0.2584  0.6706  0.8286
 8508SOL    HW137157   1.692   3.079   5.166  0.5389 -0.2970 -2.3248
 8508SOL    HW237158   1.801   2.999   5.219  0.1618  0.9235  1.3045
 8509SOL     OW37159   2.717   0.110  13.774  0.2506 -0.5369  0.2568
 8509SOL    HW137160   2.781   0.054  13.731  0.1577 -0.4855  0.0506
 8509SOL    HW237161   2.658   0.125  13.700 -0.1242 -2.3570  0.1907
 8510SOL     OW37162   1.553   0.259  16.822  0.0129  0.1200  0.3753
 8510SOL    HW137163   1.510   0.340  16.798  3.7931  1.7350 -0.8031
 8510SOL    HW237164   1.489   0.222  16.883 -1.5832 -1.2499 -2.1232
 8511SOL     OW37165   2.015   1.815   6.480 -0.1827  0.0480 -0.5778
 8511SOL    HW137166   1.949   1.773   6.535  0.2543 -0.0428 -0.1212
 8511SOL    HW237167   1.968   1.891   6.445 -0.3372  0.6732  0.9507
 8512SOL     OW37168   1.242   1.805   4.954 -0.2812  0.1940 -0.1686
 8512SOL    HW137169   1.192   1.871   4.907  0.2982  0.4193 -0.4678
 8512SOL    HW237170   1.298   1.780   4.880  1.7103 -0.9253  1.7064
 8513SOL     OW37171   4.694   2.126  14.229 -0.1594  0.4897 -0.5444
 8513SOL    HW137172   4.663   2.037  14.243 -0.9019  0.8158 -0.0814
 8513SOL    HW237173   4.733   2.149  14.313  0.9316 -1.8088 -0.4314
 8514SOL     OW37174   1.310   2.498   1.480 -0.1876 -0.4064  0.1420
 8514SOL    HW137175   1.373   2.563   1.448 -3.5186  2.3308 -0.8230
 8514SOL    HW237176   1.351   2.474   1.563  1.5794 -1.3201 -0.9921
 8515SOL     OW37177   0.113   2.506  12.584 -0.2068  0.3095  0.4379
 8515SOL    HW137178   0.059   2.566  12.533  1.0182 -0.4504 -1.7761
 8515SOL    HW237179   0.179   2.568  12.615 -1.0587  1.8106 -0.7522
 8516SOL     OW37180   0.442   2.892  12.979 -0.4040 -0.4084 -0.0509
 8516SOL    HW137181   0.525   2.854  13.005 -0.3764 -0.6112 -0.4428
 8516SOL    HW237182   0.440   2.861  12.889 -0.6644  0.5109 -0.3608
 8517SOL     OW37183   0.567   0.266   3.102  0.0597  0.3305  0.2776
 8517SOL    HW137184   0.653   0.250   3.141  0.4854 -1.4443 -1.3845
 8517SOL    HW237185   0.563   0.199   3.034  0.7554  1.5098 -0.9249
 8518SOL     OW37186   0.899   1.462  11.977  0.6763 -0.3317 -0.3534
 8518SOL    HW137187   0.946   1.511  12.045  0.8806 -1.1878  0.1204
 8518SOL    HW237188   0.869   1.395  12.038 -0.5759 -0.0573 -0.6646
 8519SOL     OW37189   4.137   0.927   4.863  0.3026 -0.2585  0.0483
 8519SOL    HW137190   4.199   0.968   4.802 -0.0747  0.1696 -0.0413
 8519SOL    HW237191   4.111   1.005   4.913  1.8548  1.4393 -1.7684
 8520SOL     OW37192   4.324   2.960  14.738 -0.1151 -0.7746  0.5383
 8520SOL    HW137193   4.303   3.048  14.707  0.7048  0.1792  2.6482
 8520SOL    HW237194   4.263   2.913  14.682  0.1285  0.8555 -1.0769
 8521SOL     OW37195   2.248   3.557   5.240 -0.6095 -0.4271  0.6276
 8521SOL    HW137196   2.294   3.529   5.319  0.7387 -0.9948 -0.3636
 8521SOL    HW237197   2.328   3.546   5.189 -1.8802 -1.0772 -1.2405
 8522SOL     OW37198   4.344   1.559  17.745  0.6175  0.1949 -0.2661
 8522SOL    HW137199   4.365   1.591  17.657  1.6098 -2.5309 -1.0020
 8522SOL    HW237200   4.401   1.615   0.044  1.8173  0.4821 -1.8133
 8523SOL     OW37201   3.403   2.302   0.489  0.3455 -0.5552 -0.2385
 8523SOL    HW137202   3.349   2.381   0.491  0.4311 -0.4461 -1.8912
 8523SOL    HW237203   3.343   2.237   0.527  0.4921  0.9840  2.6118
 8524SOL     OW37204   4.390   3.957   5.778 -0.5381  0.3325  0.1472
 8524SOL    HW137205   4.392   3.887   5.843 -1.1093  2.0089  1.9914
 8524SOL    HW237206   4.300   3.989   5.785 -0.8404 -0.3533 -0.6097
 8525SOL     OW37207   4.316   3.902  12.940  0.0375  0.3669  0.6310
 8525SOL    HW137208   4.360   3.835  12.887  0.0888  1.5600 -0.8473
 8525SOL    HW237209   4.270   3.952  12.872  1.7543  0.4590 -0.4611
 8526SOL     OW37210   2.944   3.786   6.344  0.0180 -0.2927  0.1234
 8526SOL    HW137211   2.853   3.801   6.318  0.2265  1.2633  0.2850
 8526SOL    HW237212   2.989   3.869   6.328  2.0582 -1.1246  1.4999
 8527SOL     OW37213   0.645   3.459   3.731  0.2392 -0.2246  0.1234
 8527SOL    HW137214   0.641   3.402   3.654 -0.7146 -1.1725  0.8762
 8527SOL    HW237215   0.650   3.549   3.699 -0.0640  0.4652  2.0351
 8528SOL     OW37216   4.639   4.600   7.800 -0.4892  0.9342  0.2343
 8528SOL    HW137217   4.608   4.537   7.864  1.0307 -0.1569 -0.1078
 8528SOL    HW237218   4.560   4.633   7.756  0.1200 -1.7431 -2.8852
 8529SOL     OW37219   0.121   4.291  12.503  0.0986  0.1342  0.6505
 8529SOL    HW137220   0.212   4.316  12.520 -0.0305  1.2647 -0.3771
 8529SOL    HW237221   0.124   4.196  12.509  4.3163  0.2222  0.2995
 8530SOL     OW37222   0.332   0.788   4.560  0.3542  0.1417 -0.2077
 8530SOL    HW137223   0.416   0.831   4.546  0.0668  1.0928  0.9824
 8530SOL    HW237224   0.304   0.822   4.645  1.2957 -1.5656  0.7875
 8531SOL     OW37225   0.524   1.769   2.831 -0.2026 -0.0494 -0.0396
 8531SOL    HW137226   0.539   1.796   2.741 -0.4402 -0.1306 -0.1028
 8531SOL    HW237227   0.433   1.739   2.829  0.2193 -1.3132 -0.5112
 8532SOL     OW37228   1.066   0.194   4.618  0.7283  0.6558 -0.0109
 8532SOL    HW137229   1.123   0.118   4.604 -0.1426  0.2135 -1.1804
 8532SOL    HW237230   1.114   0.266   4.577  0.7700  2.4787  3.2697
 8533SOL     OW37231   1.701   0.822  14.811 -0.7669  0.1160  0.2530
 8533SOL    HW137232   1.726   0.894  14.869  0.6666  1.2124 -1.7070
 8533SOL    HW237233   1.671   0.761  14.878 -0.0435 -0.4549  0.0554
 8534SOL     OW37234   1.534   3.762   7.086 -0.1403  0.1324 -0.0084
 8534SOL    HW137235   1.527   3.778   7.180 -2.0838  0.5688 -0.2245
 8534SOL    HW237236   1.443   3.743   7.065 -0.0110  0.3862 -0.8171
 8535SOL     OW37237   1.975   1.687   4.129 -0.2956 -0.4165  0.1044
 8535SOL    HW137238   1.972   1.595   4.156 -0.0182 -0.7732 -1.1161
 8535SOL    HW237239   1.894   1.724   4.164  1.5894  1.1066  2.8604
 8536SOL     OW37240   0.297   1.217  10.356 -0.0562  0.2111 -0.2063
 8536SOL    HW137241   0.254   1.231  10.440  2.9719  0.5568  1.2631
 8536SOL    HW237242   0.389   1.209  10.379  0.1347  0.9020 -0.7248
 8537SOL     OW37243   2.108   1.754   7.203 -0.0755 -0.9739 -0.5564
 8537SOL    HW137244   2.175   1.821   7.193 -1.7959  0.7693 -0.3497
 8537SOL    HW237245   2.032   1.807   7.228  1.7314  1.4080 -0.1743
 8538SOL     OW37246   0.186   3.845   9.090 -0.3088 -0.1414 -0.5614
 8538SOL    HW137247   0.115   3.909   9.084  1.9612  2.3456 -0.7096
 8538SOL    HW237248   0.234   3.872   9.168  0.1696 -2.2547 -0.1418
 8539SOL     OW37249   3.300   2.368   6.800 -0.1857  0.0152 -0.4119
 8539SOL    HW137250   3.281   2.434   6.867 -0.3789  1.4297 -1.8637
 8539SOL    HW237251   3.337   2.297   6.853 -0.3522 -0.1258 -0.4823
 8540SOL     OW37252   4.607   2.220   7.218  0.2225 -0.5487 -0.1002
 8540SOL    HW137253   4.566   2.180   7.142 -0.8176 -0.1133  0.2365
 8540SOL    HW237254   4.695   2.215   7.180 -0.3634 -0.8429 -1.4119
 8541SOL     OW37255   2.001   1.663   3.094  0.3124 -0.3848 -0.4505
 8541SOL    HW137256   1.932   1.620   3.043 -2.6800  3.5225  0.3244
 8541SOL    HW237257   2.064   1.592   3.099  2.0192  1.0026 -2.2302
 8542SOL     OW37258   2.829   2.998   4.725 -0.3046  0.2971  0.0835
 8542SOL    HW137259   2.898   2.941   4.692  0.1114  1.3727 -0.9065
 8542SOL    HW237260   2.872   3.034   4.803  0.2369 -1.4172  0.5713
 8543SOL     OW37261   1.359   3.687   3.098 -0.3964  0.3211  0.4198
 8543SOL    HW137262   1.319   3.605   3.070 -0.9620  1.3929 -1.9140
 8543SOL    HW237263   1.285   3.725   3.146  0.1766  0.9648  0.7955
 8544SOL     OW37264   2.856   0.108   8.125 -0.0489 -0.4879  0.0880
 8544SOL    HW137265   2.795   0.047   8.166 -2.4945  2.2866  0.5782
 8544SOL    HW237266   2.803   0.137   8.051  0.6148  0.5279  0.0231
 8545SOL     OW37267   3.673   0.651  13.602  0.4977 -0.0097 -0.0884
 8545SOL    HW137268   3.733   0.669  13.530 -1.4158  0.1865 -1.6451
 8545SOL    HW237269   3.713   0.576  13.647  3.4893  1.6492 -0.0326
 8546SOL     OW37270   3.263   1.022   7.461  0.1365 -0.5451 -0.7911
 8546SOL    HW137271   3.328   1.073   7.510 -2.5881  2.0092  0.2017
 8546SOL    HW237272   3.223   0.968   7.529 -0.7335  2.0879  0.8226
 8547SOL     OW37273   3.565   4.649   3.883  0.1899 -0.3750 -0.2546
 8547SOL    HW137274   3.549   4.652   3.789  1.9789  0.6267 -0.5337
 8547SOL    HW237275   3.661   4.653   3.882  0.1183  1.6051 -0.5402
 8548SOL     OW37276   4.015   0.702  13.810 -0.0465  0.8623  0.1120
 8548SOL    HW137277   4.103   0.718  13.776  0.1253  3.7789  1.8749
 8548SOL    HW237278   3.992   0.645  13.737 -1.0316  0.8795  0.4028
 8549SOL     OW37279   4.103   1.846   3.077  0.4672 -0.3395  0.0636
 8549SOL    HW137280   4.049   1.777   3.039 -0.9566  1.6480 -1.4862
 8549SOL    HW237281   4.026   1.890   3.114  0.2769 -0.9314  0.3724
 8550SOL     OW37282   1.556   3.036   9.213  0.0070  0.0211  0.2886
 8550SOL    HW137283   1.616   2.970   9.178 -1.1240 -0.0840 -1.4468
 8550SOL    HW237284   1.531   3.085   9.134  1.5716 -2.3156 -1.6585
 8551SOL     OW37285   3.147   3.063   3.633  0.0140  0.2200 -0.4278
 8551SOL    HW137286   3.067   3.028   3.672  1.7220 -1.9553  1.1584
 8551SOL    HW237287   3.203   2.984   3.632  1.6739  1.3807  0.8638
 8552SOL     OW37288   0.043   3.696   3.850  1.1535  0.0665  0.2940
 8552SOL    HW137289   4.736   3.748   3.915  0.3089 -0.4202  0.0743
 8552SOL    HW237290   4.715   3.693   3.782  0.9347 -0.5434  0.5363
 8553SOL     OW37291   4.260   0.124   5.694  0.2395  0.1701  0.4159
 8553SOL    HW137292   4.275   0.104   5.787  1.6620  1.2762  0.4305
 8553SOL    HW237293   4.350   0.099   5.671 -0.2020  1.4163 -2.6811
 8554SOL     OW37294   3.181   2.734   7.377 -0.5055  0.4142  0.0103
 8554SOL    HW137295   3.159   2.818   7.416  0.0767  0.7602 -0.4053
 8554SOL    HW237296   3.167   2.752   7.284 -0.5131  0.5637  0.0408
 8555SOL     OW37297   0.662   3.538   3.402  0.0678  0.1754 -0.0542
 8555SOL    HW137298   0.667   3.465   3.341  0.1165  0.0704  0.0760
 8555SOL    HW237299   0.570   3.541   3.428 -0.2843 -2.2587 -1.0108
 8556SOL     OW37300   4.204   3.846  10.625 -0.4633  0.3649 -0.2355
 8556SOL    HW137301   4.143   3.851  10.700  0.5403  2.0996  0.4694
 8556SOL    HW237302   4.138   3.862  10.557 -1.0525  1.1307  0.5062
 8557SOL     OW37303   1.269   3.118  17.033 -0.0864  0.0014  0.0345
 8557SOL    HW137304   1.285   3.105  16.939 -0.6293  0.4410 -0.1188
 8557SOL    HW237305   1.184   3.161  17.045  1.1420  2.7432 -1.0879
 8558SOL     OW37306   4.559   3.159   4.737 -0.3837  0.4422 -0.3385
 8558SOL    HW137307   4.651   3.136   4.723 -0.0903  1.9459 -0.8470
 8558SOL    HW237308   4.559   3.236   4.793 -0.4469 -0.3892  0.8202
 8559SOL     OW37309   1.997   0.071   1.451 -0.2622  0.3854 -0.4631
 8559SOL    HW137310   1.903   0.067   1.469  0.2823 -0.0738  2.3202
 8559SOL    HW237311   2.034   0.006   1.510 -0.7448 -0.0026 -0.5866
 8560SOL     OW37312   3.150   4.328  14.397 -0.1375 -0.9723 -0.0060
 8560SOL    HW137313   3.223   4.347  14.339 -1.1318 -1.3167 -1.3599
 8560SOL    HW237314   3.128   4.414  14.431  0.9622 -0.8193  0.2976
 8561SOL     OW37315   3.004   2.310   6.933  0.1171  0.3670  0.7157
 8561SOL    HW137316   3.092   2.275   6.932 -0.1120 -0.2132  1.0526
 8561SOL    HW237317   2.981   2.260   7.011  0.1127 -1.1345 -0.2544
 8562SOL     OW37318   2.352   3.571  10.751  0.1562 -0.0747 -0.3066
 8562SOL    HW137319   2.334   3.599  10.661  1.9439 -0.3449 -0.7430
 8562SOL    HW237320   2.419   3.634  10.778  1.2564 -1.5685  0.4383
 8563SOL     OW37321   2.625   3.259  12.294  0.2499 -0.2087  0.0990
 8563SOL    HW137322   2.544   3.231  12.335  1.4470 -2.8380  0.6538
 8563SOL    HW237323   2.686   3.193  12.328 -0.0209  0.4971  1.9437
 8564SOL     OW37324   2.367   1.846   7.877 -0.7346  0.3375 -0.4387
 8564SOL    HW137325   2.272   1.857   7.889 -0.5670 -0.8852  1.8771
 8564SOL    HW237326   2.386   1.779   7.941 -1.1895  0.3646 -0.2742
 8565SOL     OW37327   4.071   2.924   7.365  0.1161 -0.0212 -0.5308
 8565SOL    HW137328   4.097   2.942   7.455 -1.8371  2.0180 -0.3769
 8565SOL    HW237329   4.139   2.868   7.327 -1.8046 -2.3599 -0.5556
 8566SOL     OW37330   2.587   0.413   0.508 -0.2581  0.6874 -0.3967
 8566SOL    HW137331   2.584   0.508   0.502  0.1339  0.4616 -4.3194
 8566SOL    HW237332   2.606   0.397   0.601  1.4138 -0.0394 -0.8601
 8567SOL     OW37333   0.301   2.567   2.884 -0.1525  0.2527 -0.6906
 8567SOL    HW137334   0.374   2.509   2.905 -1.3071 -0.6708  0.7784
 8567SOL    HW237335   0.341   2.654   2.875  0.3990 -0.1235 -1.8802
 8568SOL     OW37336   4.174   4.341   1.741 -0.0675  0.1608  0.7930
 8568SOL    HW137337   4.088   4.369   1.773 -0.5374 -0.1805 -0.1787
 8568SOL    HW237338   4.212   4.422   1.709 -1.8591  0.9719  0.7181
 8569SOL     OW37339   2.822   2.589   4.466 -0.1286 -0.2339 -0.0433
 8569SOL    HW137340   2.774   2.669   4.487 -3.0767 -2.2663  1.0510
 8569SOL    HW237341   2.764   2.537   4.410 -0.9919  0.4149  0.2389
 8570SOL     OW37342   3.457   3.557  10.731  0.1247 -0.0153  0.2353
 8570SOL    HW137343   3.523   3.547  10.663 -1.3978  1.9344 -1.5390
 8570SOL    HW237344   3.470   3.481  10.787 -0.1892  0.4711  0.9688
 8571SOL     OW37345   0.445   0.937   5.379 -0.2077 -0.4119 -0.1858
 8571SOL    HW137346   0.390   0.916   5.454 -0.8197 -0.6762 -0.7123
 8571SOL    HW237347   0.520   0.882   5.401  1.2141  1.1221 -1.1622
 8572SOL     OW37348   0.545   0.955   5.107  0.3215 -0.0161  0.2458
 8572SOL    HW137349   0.490   0.956   5.185 -1.9406  2.0236 -1.3463
 8572SOL    HW237350   0.489   0.994   5.039  0.6592  1.9568  1.0953
 8573SOL     OW37351   4.040   1.837  10.395 -0.3763  0.3662 -0.3322
 8573SOL    HW137352   4.021   1.744  10.378 -0.1763  0.2530  0.0620
 8573SOL    HW237353   4.124   1.847  10.351 -0.5146  3.2412  0.0962
 8574SOL     OW37354   0.848   1.733   6.313 -0.4388  0.1485 -0.3065
 8574SOL    HW137355   0.794   1.792   6.365 -0.0000  0.3935 -0.1235
 8574SOL    HW237356   0.910   1.800   6.284 -0.9269  2.1611  3.2795
 8575SOL     OW37357   0.655   1.181  13.198  0.0346  0.4363  0.4582
 8575SOL    HW137358   0.717   1.216  13.134  1.4978 -2.0304  0.5566
 8575SOL    HW237359   0.577   1.170  13.143 -0.1875 -0.0093  0.8558
 8576SOL     OW37360   0.803   0.770   9.664  0.3728  0.2810  0.7683
 8576SOL    HW137361   0.817   0.684   9.624 -0.5565 -0.8833  2.9479
 8576SOL    HW237362   0.852   0.830   9.609 -0.2172  1.5905  1.6785
 8577SOL     OW37363   3.031   3.528   4.245 -0.7171 -0.3718 -0.0993
 8577SOL    HW137364   2.992   3.515   4.332  1.7437 -1.8518  0.7667
 8577SOL    HW237365   2.989   3.454   4.202 -0.3091  0.5900 -2.1657
 8578SOL     OW37366   1.273   0.208  12.799  0.1331  0.2098 -0.0354
 8578SOL    HW137367   1.289   0.293  12.759  1.0296 -0.3035 -0.7920
 8578SOL    HW237368   1.320   0.154  12.735  1.5287  0.1516  1.0491
 8579SOL     OW37369   2.040   0.222  14.076  0.0831  0.1046  0.1567
 8579SOL    HW137370   2.034   0.163  14.000  1.8163 -1.2530  1.0780
 8579SOL    HW237371   1.954   0.208  14.115  0.4714  0.1727  1.0222
 8580SOL     OW37372   2.661   3.995   6.309  0.1336  0.0892 -0.7576
 8580SOL    HW137373   2.617   4.043   6.380  1.3987  0.3781 -0.1539
 8580SOL    HW237374   2.637   3.907   6.337 -1.8957  0.5781 -0.9768
 8581SOL     OW37375   2.212   4.302  17.172  0.0146  0.4666  0.4653
 8581SOL    HW137376   2.160   4.375  17.206 -1.8937 -0.7034  0.0958
 8581SOL    HW237377   2.162   4.283  17.092  2.3818  0.2514 -0.9634
 8582SOL     OW37378   0.217   3.383   7.651  0.0486  0.1781  0.3239
 8582SOL    HW137379   0.217   3.358   7.743  2.5048 -0.2117  0.2186
 8582SOL    HW237380   0.172   3.302   7.625 -1.5118  1.3424 -0.5963
 8583SOL     OW37381   2.820   4.593   1.956 -0.2576  0.1809 -0.1478
 8583SOL    HW137382   2.835   4.533   1.883  3.8158  1.2995 -0.1990
 8583SOL    HW237383   2.845   4.683   1.936  1.0374 -0.1854 -0.1443
 8584SOL     OW37384   4.359   2.505   0.623  0.5121  0.2910 -0.4079
 8584SOL    HW137385   4.383   2.596   0.610  1.2506 -0.0810 -1.6972
 8584SOL    HW237386   4.270   2.520   0.590 -0.9574  2.3642  4.3807
 8585SOL     OW37387   3.685   2.683   1.360  0.6082  0.6412  0.2308
 8585SOL    HW137388   3.674   2.722   1.447 -0.7652  1.1289 -0.1622
 8585SOL    HW237389   3.696   2.594   1.394  1.2651  0.1277 -1.3493
 8586SOL     OW37390   4.129   0.683   0.013  0.4186  1.0220 -0.3256
 8586SOL    HW137391   4.148   0.710   0.103 -2.7541 -0.7414  0.8432
 8586SOL    HW237392   4.086   0.764  17.742 -0.2604  0.9128  0.4760
 8587SOL     OW37393   1.765   3.298  11.819  0.2697 -0.0100  0.0720
 8587SOL    HW137394   1.721   3.338  11.743  0.6119  1.7660  0.8101
 8587SOL    HW237395   1.705   3.328  11.887 -2.2290 -2.2956 -1.1281
 8588SOL     OW37396   0.610   0.603   8.990 -0.0597  0.3039  0.3294
 8588SOL    HW137397   0.621   0.624   8.897  0.5295  0.1317  0.3594
 8588SOL    HW237398   0.550   0.529   8.980  0.3663  0.0524 -0.3622
 8589SOL     OW37399   2.143   2.264   9.221  0.0180  0.4372 -0.1623
 8589SOL    HW137400   2.126   2.174   9.194 -1.5185  0.9369 -0.7930
 8589SOL    HW237401   2.152   2.307   9.137  1.6411 -0.5606 -0.5212
 8590SOL     OW37402   2.637   0.778  15.451 -0.3602 -0.3474 -0.0433
 8590SOL    HW137403   2.663   0.712  15.516 -1.3456 -2.8119 -2.1290
 8590SOL    HW237404   2.565   0.824  15.494  1.1654  2.1747 -0.2452
 8591SOL     OW37405   3.811   2.665  13.547  0.2279 -0.2353  0.7316
 8591SOL    HW137406   3.783   2.732  13.484 -1.2340 -2.2248 -0.7478
 8591SOL    HW237407   3.838   2.596  13.486 -1.0482  0.3343 -0.4641
 8592SOL     OW37408   3.709   2.313   8.790 -0.3189 -0.2501  0.1250
 8592SOL    HW137409   3.779   2.258   8.756  0.1939  0.6822 -0.3464
 8592SOL    HW237410   3.753   2.366   8.857  2.4093 -1.0059 -1.0661
 8593SOL     OW37411   1.741   4.254   5.664 -0.1246 -0.2415  0.3428
 8593SOL    HW137412   1.764   4.254   5.757 -1.9456  0.3120  0.7945
 8593SOL    HW237413   1.645   4.248   5.664 -0.0382 -1.7425 -0.5789
 8594SOL     OW37414   3.352   1.235   6.620 -0.1153  0.1024 -0.0610
 8594SOL    HW137415   3.271   1.236   6.568 -2.3512 -0.6354  3.4095
 8594SOL    HW237416   3.352   1.324   6.656  1.0282 -0.6179  1.6945
 8595SOL     OW37417   2.553   4.502   9.304 -0.0025  0.5820 -0.3124
 8595SOL    HW137418   2.622   4.568   9.314  1.1575 -0.2014 -3.2584
 8595SOL    HW237419   2.558   4.489   9.210  3.1914  2.4993 -0.4023
 8596SOL     OW37420   0.702   1.261   6.617  0.1614 -0.0717  0.1749
 8596SOL    HW137421   0.741   1.333   6.567 -1.1328 -0.3946 -1.3061
 8596SOL    HW237422   0.736   1.190   6.563 -1.8302 -0.9996  0.1790
 8597SOL     OW37423   2.277   3.234   2.548 -0.1377 -0.3035  0.2050
 8597SOL    HW137424   2.300   3.261   2.459  1.2842 -0.8763  0.3883
 8597SOL    HW237425   2.193   3.272   2.570 -0.1168  1.1430 -2.1730
 8598SOL     OW37426   2.967   2.449   4.992  0.0347 -0.2212  0.4000
 8598SOL    HW137427   3.035   2.390   4.960  0.9154  1.2960 -0.5386
 8598SOL    HW237428   2.962   2.503   4.913 -0.8262  0.5095  0.9529
 8599SOL     OW37429   3.096   3.977   1.453  0.0742  0.3207  0.1336
 8599SOL    HW137430   3.021   3.942   1.405 -0.0334  0.7149  0.0214
 8599SOL    HW237431   3.081   3.949   1.544  1.4748 -1.5663 -0.2210
 8600SOL     OW37432   4.292   0.107   4.555  1.0951 -0.6197  0.4075
 8600SOL    HW137433   4.222   0.075   4.611  0.1770  1.7670  0.6336
 8600SOL    HW237434   4.327   0.029   4.511 -0.0385 -1.2092  0.5717
 8601SOL     OW37435   0.664   4.383   0.158  0.4789  0.6797 -0.0842
 8601SOL    HW137436   0.582   4.429   0.173 -0.7802 -2.3725  2.4548
 8601SOL    HW237437   0.640   4.295   0.187  0.7076  0.6065 -0.1117
 8602SOL     OW37438   0.309   1.717   2.067  0.4777 -0.1165  0.1755
 8602SOL    HW137439   0.258   1.644   2.101 -0.5510  0.3101 -0.4674
 8602SOL    HW237440   0.379   1.713   2.132  0.5419 -1.1071  0.0397
 8603SOL     OW37441   2.375   0.392   4.033  0.2976  0.7362  0.0506
 8603SOL    HW137442   2.445   0.327   4.027  1.8511  2.2179  1.8939
 8603SOL    HW237443   2.307   0.356   3.976  2.1310 -1.0117 -1.0287
 8604SOL     OW37444   2.837   4.001  14.062  0.8393  0.4775 -0.0616
 8604SOL    HW137445   2.850   3.958  14.146  1.9530 -0.2770 -0.6199
 8604SOL    HW237446   2.757   3.956  14.033  1.0486 -0.8638  1.4193
 8605SOL     OW37447   2.184   4.084   0.478 -0.4525 -0.1001  0.1776
 8605SOL    HW137448   2.256   4.063   0.538 -1.0081 -1.7176  0.2805
 8605SOL    HW237449   2.135   4.002   0.473  0.5172 -0.4766 -3.0528
 8606SOL     OW37450   1.287   4.233  11.012  0.0620 -0.0519 -0.4365
 8606SOL    HW137451   1.371   4.231  11.058 -1.0353  1.2868  1.6181
 8606SOL    HW237452   1.245   4.189  11.086  2.5301 -1.1206  0.3307
 8607SOL     OW37453   1.068   3.205   1.498  0.1546 -0.2038 -0.2487
 8607SOL    HW137454   1.070   3.189   1.404  1.7592 -1.3364 -0.0162
 8607SOL    HW237455   1.055   3.116   1.530  1.1387  0.0218  0.7853
 8608SOL     OW37456   0.181   0.843   4.298  0.3382 -0.0142 -0.3126
 8608SOL    HW137457   0.241   0.823   4.370  0.3563 -0.4062 -0.4366
 8608SOL    HW237458   0.147   0.754   4.289 -0.5877  0.3565 -0.4826
 8609SOL     OW37459   0.633   3.145   7.986 -0.8662  0.3762 -0.1033
 8609SOL    HW137460   0.661   3.209   7.921  0.7366 -1.1673 -0.9135
 8609SOL    HW237461   0.700   3.154   8.054 -1.4598 -1.6280  0.7355
 8610SOL     OW37462   2.792   4.099   4.642 -0.3814 -0.8905 -0.2198
 8610SOL    HW137463   2.763   4.087   4.551 -0.2892  0.8439 -0.4756
 8610SOL    HW237464   2.875   4.145   4.625  0.5510 -2.9199 -1.2867
 8611SOL     OW37465   0.901   4.635   6.290 -0.0033 -0.4439  0.0480
 8611SOL    HW137466   0.942   4.677   6.214  0.1254  0.7646  0.7754
 8611SOL    HW237467   0.981   4.610   6.337 -0.2552  0.0715  0.7497
 8612SOL     OW37468   0.679   0.537  17.148  0.1475 -0.2650  0.2016
 8612SOL    HW137469   0.654   0.558  17.058  1.2333  0.1992 -0.0016
 8612SOL    HW237470   0.611   0.483  17.188  0.8705 -1.7015 -0.5106
 8613SOL     OW37471   3.560   3.983  12.328 -0.6279 -0.1798 -0.5013
 8613SOL    HW137472   3.467   4.004  12.328 -0.6391 -0.2247  1.0617
 8613SOL    HW237473   3.569   3.944  12.241  2.3850 -1.1445  0.2450
 8614SOL     OW37474   0.702   1.734   8.241  0.0782  0.0160 -0.4137
 8614SOL    HW137475   0.739   1.778   8.164 -2.0776  1.2429 -0.7460
 8614SOL    HW237476   0.667   1.658   8.195 -0.8887  0.7321 -0.8669
 8615SOL     OW37477   1.605   3.455   3.421 -0.0636  0.8655  0.4101
 8615SOL    HW137478   1.567   3.542   3.413 -0.9625  0.3630 -0.8669
 8615SOL    HW237479   1.558   3.405   3.353 -0.7252 -1.7252  2.7837
 8616SOL     OW37480   4.534   0.506   2.091  0.0120  0.3220  0.6151
 8616SOL    HW137481   4.563   0.585   2.136  0.6318  0.4629 -0.0158
 8616SOL    HW237482   4.623   0.471   2.082  0.0962 -0.3843  4.3747
 8617SOL     OW37483   1.696   1.073   7.237 -0.5517 -0.0684  0.2068
 8617SOL    HW137484   1.688   1.025   7.155 -0.5619  0.4524 -0.0936
 8617SOL    HW237485   1.791   1.071   7.244 -0.5407 -0.1607  0.0140
 8618SOL     OW37486   0.768   4.287  10.142  0.4491 -0.0006  0.2566
 8618SOL    HW137487   0.697   4.344  10.114  0.9891 -0.3751 -1.8475
 8618SOL    HW237488   0.718   4.221  10.190 -0.3299 -1.1883 -2.1936
 8619SOL     OW37489   0.646   3.243   1.289 -0.2510 -0.3188  0.0670
 8619SOL    HW137490   0.617   3.155   1.312  0.3158 -0.6070 -0.3233
 8619SOL    HW237491   0.572   3.280   1.240  0.0673 -0.5949 -0.6324
 8620SOL     OW37492   2.491   1.734   5.360 -0.1808  1.1365 -0.1736
 8620SOL    HW137493   2.399   1.737   5.336 -0.0965  0.7873 -0.5519
 8620SOL    HW237494   2.503   1.651   5.407 -0.8691  1.3187  0.3276
 8621SOL     OW37495   0.065   3.833   4.131  0.3930 -0.1062  0.2205
 8621SOL    HW137496   0.123   3.882   4.189 -1.9128  1.7385  0.9487
 8621SOL    HW237497   0.089   3.744   4.157  0.8326  0.1505  0.6905
 8622SOL     OW37498   4.370   4.721   2.912  0.1252 -0.3161 -0.0919
 8622SOL    HW137499   4.409   4.659   2.850  2.2380  1.1347 -0.2254
 8622SOL    HW237500   4.441   0.019   2.965 -1.0195  1.6785  0.0301
 8623SOL     OW37501   1.543   1.213   1.840  0.4143 -0.7232 -0.1693
 8623SOL    HW137502   1.479   1.239   1.774  0.6991  0.4791  0.0325
 8623SOL    HW237503   1.556   1.120   1.820  1.5283 -0.6448  0.1766
 8624SOL     OW37504   3.761   2.842   5.820 -0.8605  0.1738 -0.7220
 8624SOL    HW137505   3.808   2.775   5.869  1.1778  1.7773 -0.4941
 8624SOL    HW237506   3.811   2.877   5.746 -1.0460 -2.3849 -2.0861
 8625SOL     OW37507   0.076   4.655   2.106  0.4514 -0.2089  0.0893
 8625SOL    HW137508   4.726   4.621   2.107  0.4410 -0.2576 -4.3907
 8625SOL    HW237509   0.076   4.690   2.195 -1.6793 -0.2701  0.1216
 8626SOL     OW37510   3.478   2.318   2.785 -0.0086 -0.3196  0.2898
 8626SOL    HW137511   3.407   2.366   2.827  1.1969  1.3013  0.4535
 8626SOL    HW237512   3.543   2.387   2.777  1.9499 -1.8576  2.8557
 8627SOL     OW37513   3.906   3.754   2.448 -0.1424 -0.2360 -0.3470
 8627SOL    HW137514   3.871   3.826   2.500  1.2677  0.1979  0.0167
 8627SOL    HW237515   3.929   3.686   2.511 -1.1740  1.8992  2.3331
 8628SOL     OW37516   3.796   1.927   9.420  0.6511 -0.7428 -0.2605
 8628SOL    HW137517   3.775   1.844   9.376  0.9301 -1.4860  0.9907
 8628SOL    HW237518   3.854   1.897   9.490 -0.5106 -2.6539 -0.1036
 8629SOL     OW37519   2.442   2.162   5.879  0.2556 -0.1324  0.0650
 8629SOL    HW137520   2.401   2.121   5.955 -0.6440 -2.5302 -1.7248
 8629SOL    HW237521   2.478   2.232   5.933 -0.9678  0.1480  0.5215
 8630SOL     OW37522   2.664   2.284  13.210 -0.0721 -0.0572  0.1143
 8630SOL    HW137523   2.569   2.296  13.221 -0.0695  0.7466 -0.7544
 8630SOL    HW237524   2.669   2.277  13.114  1.4733  0.4888  0.1548
 8631SOL     OW37525   1.726   4.495   4.440  0.6003  0.1017 -0.3864
 8631SOL    HW137526   1.730   4.590   4.452 -1.7674  0.2867 -1.1469
 8631SOL    HW237527   1.632   4.489   4.427  0.5818  1.0373 -0.6873
 8632SOL     OW37528   2.555   3.597  15.601 -0.3662 -0.2320  0.9784
 8632SOL    HW137529   2.648   3.595  15.580 -0.8417  0.6590 -1.2245
 8632SOL    HW237530   2.534   3.511  15.636 -1.6564 -0.1467  0.4180
 8633SOL     OW37531   2.903   3.263   5.566 -0.7358  0.1407 -0.2523
 8633SOL    HW137532   2.881   3.306   5.649 -1.1166  0.8774 -0.7325
 8633SOL    HW237533   2.934   3.345   5.527  2.6809  0.4242  3.0550
 8634SOL     OW37534   2.631   3.267  16.573  0.4823  0.1016  0.4470
 8634SOL    HW137535   2.636   3.270  16.477 -0.6050 -0.4360  0.3742
 8634SOL    HW237536   2.696   3.199  16.591  0.5183 -0.7603 -2.9786
 8635SOL     OW37537   2.578   0.242  14.676 -0.1337 -0.0048 -0.3466
 8635SOL    HW137538   2.661   0.211  14.713 -0.3465 -2.5445 -1.9721
 8635SOL    HW237539   2.585   0.336  14.690 -1.7808 -0.1924  1.6271
 8636SOL     OW37540   1.644   2.392   7.644 -0.1254 -0.5861  0.8211
 8636SOL    HW137541   1.735   2.385   7.615 -0.2844 -1.6418  0.5841
 8636SOL    HW237542   1.641   2.484   7.670  0.4851  0.5491 -3.0813
 8637SOL     OW37543   0.086   2.144   0.631 -0.3898  0.1716 -0.3084
 8637SOL    HW137544   0.082   2.188   0.715  3.5061  0.9643 -0.5408
 8637SOL    HW237545   0.182   2.146   0.623 -0.5692  2.0764 -2.0910
 8638SOL     OW37546   1.567   0.957  10.249  0.2542 -0.2581 -0.1852
 8638SOL    HW137547   1.488   0.910  10.275  0.3458 -0.0818  0.4117
 8638SOL    HW237548   1.539   1.046  10.231  2.1236  0.9262  2.7344
 8639SOL     OW37549   2.748   3.911   9.386  0.5453 -0.0701  0.2478
 8639SOL    HW137550   2.837   3.890   9.358 -0.9858 -2.0251 -3.2258
 8639SOL    HW237551   2.708   3.932   9.301 -1.5023  0.3977  1.3294
 8640SOL     OW37552   0.490   1.158  10.760 -0.1476  0.1978  0.5269
 8640SOL    HW137553   0.474   1.081  10.814  1.2877 -1.2951 -1.1892
 8640SOL    HW237554   0.585   1.148  10.756 -0.0857  1.5678 -1.9850
 8641SOL     OW37555   1.649   3.413   6.221 -0.3230  0.2618 -0.1466
 8641SOL    HW137556   1.613   3.430   6.134 -0.7219  2.2083  0.4125
 8641SOL    HW237557   1.710   3.340   6.208  0.7129  0.7413  2.0091
 8642SOL     OW37558   4.339   3.576  16.564 -0.3424 -0.5023 -0.1293
 8642SOL    HW137559   4.323   3.551  16.472 -2.2476  0.5091 -0.0740
 8642SOL    HW237560   4.402   3.508  16.588  1.0187  0.7942 -0.0727
 8643SOL     OW37561   1.134   0.133   9.501  0.1844  0.1384 -0.0964
 8643SOL    HW137562   1.196   0.085   9.556  0.6290  1.0622  0.2092
 8643SOL    HW237563   1.055   0.086   9.529  2.5404 -3.2070  0.9668
 8644SOL     OW37564   3.689   4.538   8.389  0.3362 -0.3563 -0.2542
 8644SOL    HW137565   3.750   4.480   8.433  1.2075  1.1027  0.4831
 8644SOL    HW237566   3.606   4.491   8.393  0.7905 -1.0409  1.2166
 8645SOL     OW37567   3.443   0.014  14.846 -0.2488 -0.0041 -0.3288
 8645SOL    HW137568   3.354   0.012  14.812 -0.1709 -2.0167 -0.3884
 8645SOL    HW237569   3.478   4.679  14.796 -0.8208 -0.7729  0.4278
 8646SOL     OW37570   3.508   1.465   3.443 -0.4002  0.4365 -0.4756
 8646SOL    HW137571   3.572   1.393   3.441 -0.0828  0.7052  0.0405
 8646SOL    HW237572   3.459   1.448   3.363 -0.4809 -0.6546 -0.1982
 8647SOL     OW37573   3.093   3.777   9.050  0.4979  0.2959 -0.8634
 8647SOL    HW137574   3.063   3.742   8.966  2.6501 -0.7965 -1.1889
 8647SOL    HW237575   3.136   3.699   9.086 -0.4480 -0.6380 -1.7505
 8648SOL     OW37576   1.587   3.327   7.375 -0.3058  0.1123 -0.0781
 8648SOL    HW137577   1.644   3.338   7.298 -1.2975  0.7774 -0.7201
 8648SOL    HW237578   1.616   3.405   7.421 -2.0985  0.0436  1.1785
 8649SOL     OW37579   1.999   3.970   7.149 -0.3599  0.5852  0.2372
 8649SOL    HW137580   1.936   4.030   7.110 -0.6567  0.8721  1.1795
 8649SOL    HW237581   2.055   4.035   7.191 -0.4024  0.4495  0.5051
 8650SOL     OW37582   4.080   2.159   3.525 -0.0930  0.0969 -0.3958
 8650SOL    HW137583   4.140   2.207   3.583 -1.7541  0.7645  0.7641
 8650SOL    HW237584   3.990   2.184   3.545 -0.2081 -2.0211  1.7068
 8651SOL     OW37585   2.702   4.588  17.460  0.4048  0.6720 -0.3254
 8651SOL    HW137586   2.687   4.682  17.465 -2.4135  0.2771 -1.5048
 8651SOL    HW237587   2.628   4.552  17.509  0.2910 -0.1257 -1.0614
 8652SOL     OW37588   3.738   2.722   1.880  0.4746  0.0766 -0.7697
 8652SOL    HW137589   3.742   2.639   1.832  1.4652 -0.4530  0.2171
 8652SOL    HW237590   3.808   2.708   1.944 -0.4765  0.3084  0.3169
 8653SOL     OW37591   1.712   0.152  16.487 -0.6564 -0.3989  0.1406
 8653SOL    HW137592   1.635   0.210  16.484 -0.2112  0.1755 -0.2312
 8653SOL    HW237593   1.743   0.166  16.398 -3.3107 -1.5215 -0.9410
 8654SOL     OW37594   2.881   3.553   4.863 -0.2898  0.7168  0.1070
 8654SOL    HW137595   2.860   3.588   4.949  0.1038 -1.2290  0.9898
 8654SOL    HW237596   2.802   3.587   4.820  0.2136 -1.0866 -2.2875
 8655SOL     OW37597   3.837   1.531   9.748 -0.0836  0.1149  0.0215
 8655SOL    HW137598   3.916   1.537   9.802  1.4050 -3.3359 -1.7790
 8655SOL    HW237599   3.768   1.568   9.804  0.6375  0.7489  0.4855
 8656SOL     OW37600   3.093   4.667  12.679  0.6703 -0.0480 -0.3109
 8656SOL    HW137601   3.068   4.706  12.595  0.3825 -0.2613 -0.3260
 8656SOL    HW237602   3.040   4.720  12.738  2.7277  1.2833  0.3214
 8657SOL     OW37603   1.540   2.096   9.244 -0.4326  0.0157  0.4321
 8657SOL    HW137604   1.493   2.179   9.241 -1.1612 -0.4371 -0.6719
 8657SOL    HW237605   1.469   2.048   9.287 -0.9200 -0.6374 -1.1338
 8658SOL     OW37606   3.623   0.170   4.534 -0.2718  0.2030 -0.0940
 8658SOL    HW137607   3.686   0.167   4.462  1.9737  1.8219  1.7831
 8658SOL    HW237608   3.648   0.253   4.575  1.2316 -0.0469 -0.5012
 8659SOL     OW37609   3.651   1.654  12.411  0.0092 -0.1728 -0.1708
 8659SOL    HW137610   3.704   1.670  12.333 -0.5506  0.6845 -0.3693
 8659SOL    HW237611   3.710   1.665  12.485 -0.2796  1.2306 -0.1616
 8660SOL     OW37612   0.020   2.903   5.813  0.3429 -0.3394 -0.2631
 8660SOL    HW137613   0.089   2.923   5.876  0.1766  3.3481 -1.2481
 8660SOL    HW237614   4.683   2.911   5.869 -0.0770  1.2897 -1.0853
 8661SOL     OW37615   0.653   3.770   6.923  0.0517  0.5695 -0.7194
 8661SOL    HW137616   0.738   3.765   6.879 -1.4298  1.0695 -3.6444
 8661SOL    HW237617   0.592   3.770   6.850 -0.5166 -1.7676 -0.2690
 8662SOL     OW37618   1.097   3.934   7.682 -0.6228 -0.1425  0.2936
 8662SOL    HW137619   1.072   3.894   7.765  0.2314  0.1217  0.6787
 8662SOL    HW237620   1.144   4.013   7.709 -2.9825  0.8485  1.5193
 8663SOL     OW37621   2.038   3.898   4.572 -0.4154  0.1876  0.5163
 8663SOL    HW137622   2.102   3.880   4.503 -1.1767  0.7887 -0.3537
 8663SOL    HW237623   1.975   3.826   4.565  1.5830 -1.4337 -0.5487
 8664SOL     OW37624   3.259   3.638   1.302 -0.0848 -0.0326  0.5268
 8664SOL    HW137625   3.220   3.714   1.345 -0.1375  1.3268 -1.8949
 8664SOL    HW237626   3.226   3.636   1.212 -0.8071 -1.2766  0.8092
 8665SOL     OW37627   2.385   2.866   3.493  0.4379 -0.4297  0.0494
 8665SOL    HW137628   2.309   2.811   3.475 -0.7949  1.1641  0.3305
 8665SOL    HW237629   2.356   2.904   3.576  1.7983 -0.6807  0.6368
 8666SOL     OW37630   0.785   3.604  15.945  0.3160  0.0468 -0.3306
 8666SOL    HW137631   0.854   3.657  15.906  0.0056  0.9745  0.3548
 8666SOL    HW237632   0.719   3.672  15.959  1.0518  0.9632 -1.3110
 8667SOL     OW37633   3.317   1.601   8.007  0.0448 -0.5729 -0.4857
 8667SOL    HW137634   3.311   1.589   8.101  2.6482  1.6019 -0.0331
 8667SOL    HW237635   3.318   1.696   7.997 -0.8978 -0.3089  1.9407
 8668SOL     OW37636   2.320   2.104   5.414 -0.5914 -0.1473 -0.3144
 8668SOL    HW137637   2.298   2.163   5.486  1.2719  1.4996 -1.1084
 8668SOL    HW237638   2.406   2.075   5.445  0.3164  1.9214 -0.8834
 8669SOL     OW37639   1.557   1.688   6.878  0.2743  0.6473  0.1597
 8669SOL    HW137640   1.573   1.601   6.916 -0.6474  1.3363  2.1193
 8669SOL    HW237641   1.549   1.664   6.785  0.1077  2.9520 -0.4155
 8670SOL     OW37642   2.428   1.434   5.021 -0.1413  0.2179  0.5812
 8670SOL    HW137643   2.467   1.424   5.107 -1.5492 -0.3174  1.1505
 8670SOL    HW237644   2.499   1.473   4.970 -1.7034  0.0641 -1.7172
 8671SOL     OW37645   0.833   2.271  15.340  0.3901  0.8702  0.9307
 8671SOL    HW137646   0.839   2.305  15.429 -1.1394  1.0573  0.9585
 8671SOL    HW237647   0.819   2.349  15.287 -1.3817 -1.2562 -1.7393
 8672SOL     OW37648   0.322   1.320   7.953  0.2623 -0.2874  0.4934
 8672SOL    HW137649   0.260   1.248   7.942 -0.0904 -0.3847  3.0108
 8672SOL    HW237650   0.404   1.271   7.955 -0.2689 -1.1992 -0.4941
 8673SOL     OW37651   2.632   3.061   5.647 -0.0245 -0.6162  0.2037
 8673SOL    HW137652   2.611   3.010   5.726  0.6081 -2.3393 -0.7463
 8673SOL    HW237653   2.681   3.001   5.591  0.6159  0.3195 -0.2135
 8674SOL     OW37654   1.368   2.615   3.607  0.0885  0.1449  0.2074
 8674SOL    HW137655   1.447   2.599   3.554 -0.1647 -0.0187 -0.1239
 8674SOL    HW237656   1.339   2.701   3.579 -0.3001  0.5246  1.8235
 8675SOL     OW37657   0.002   3.597   7.251  0.1877 -0.3214  0.0504
 8675SOL    HW137658   0.027   3.689   7.261  1.3980 -0.4792 -1.5700
 8675SOL    HW237659   4.661   3.602   7.199  1.2800  1.0625 -1.4930
 8676SOL     OW37660   3.971   1.558  10.409  0.0627  0.5323 -0.0588
 8676SOL    HW137661   3.898   1.566  10.469  1.3504 -0.0445  1.5753
 8676SOL    HW237662   3.999   1.466  10.410  0.2224  0.5365 -2.7099
 8677SOL     OW37663   1.514   2.410  10.101 -0.0688  0.3629  0.0665
 8677SOL    HW137664   1.574   2.336  10.087  0.4625  0.8944 -0.5105
 8677SOL    HW237665   1.474   2.384  10.184  3.1533 -1.4957  1.0384
 8678SOL     OW37666   4.654   3.899   9.088  0.7933  0.1572 -0.5090
 8678SOL    HW137667   4.624   3.941   9.007  0.1985  0.2651 -0.2342
 8678SOL    HW237668   4.642   3.809   9.058  3.3867 -0.7861  1.3359
 8679SOL     OW37669   4.119   2.970  15.229  0.0057 -0.2453  0.1510
 8679SOL    HW137670   4.163   2.956  15.146 -1.2034 -2.3919 -0.1426
 8679SOL    HW237671   4.135   3.064  15.236  3.6526 -0.6607 -2.6827
 8680SOL     OW37672   4.387   4.629  15.289 -0.0563  0.1194 -0.3895
 8680SOL    HW137673   4.326   4.567  15.330  0.7152  0.2086  0.8853
 8680SOL    HW237674   4.470   4.593  15.321 -1.2602 -0.1817  2.3345
 8681SOL     OW37675   1.022   0.720   8.372  0.1359 -0.3207 -0.7727
 8681SOL    HW137676   1.037   0.627   8.359 -2.7722 -0.8609 -0.2130
 8681SOL    HW237677   0.996   0.756   8.287  1.3636 -0.3777 -1.1782
 8682SOL     OW37678   0.911   1.076   8.500 -0.1637  0.1447 -0.3577
 8682SOL    HW137679   0.933   1.141   8.566 -1.4849 -0.5007  0.7211
 8682SOL    HW237680   0.944   0.994   8.537 -2.4055 -0.1325  1.0079
 8683SOL     OW37681   3.176   2.442  11.097 -0.8092  0.0993  0.6361
 8683SOL    HW137682   3.136   2.357  11.079 -0.2954  0.0431 -0.2526
 8683SOL    HW237683   3.114   2.489  11.153 -1.0499 -0.5689  0.9264
 8684SOL     OW37684   0.626   3.245   0.905  0.0103 -0.0914  0.1677
 8684SOL    HW137685   0.630   3.340   0.897 -0.3364 -0.3566 -3.1263
 8684SOL    HW237686   0.712   3.235   0.948  0.4364 -1.9897 -1.1312
 8685SOL     OW37687   4.361   4.062   3.275  0.1094 -0.6131  0.0709
 8685SOL    HW137688   4.280   4.021   3.242  0.2827 -2.2158  1.6278
 8685SOL    HW237689   4.424   3.995   3.249  0.9945  0.3984 -0.3836
 8686SOL     OW37690   0.866   3.040  13.244  0.0790  0.0583 -0.5467
 8686SOL    HW137691   0.838   3.100  13.175  0.5204  0.1394 -0.6532
 8686SOL    HW237692   0.941   3.088  13.278 -0.1333 -0.1964  0.2793
 8687SOL     OW37693   0.287   2.815   6.870  0.0303  0.0634  0.1997
 8687SOL    HW137694   0.296   2.908   6.891 -1.8059  0.2985 -0.0850
 8687SOL    HW237695   0.360   2.811   6.808  0.5784  0.6105  0.8003
 8688SOL     OW37696   1.311   3.071   3.311 -0.0728 -0.2914 -0.5540
 8688SOL    HW137697   1.221   3.075   3.277 -0.6948 -1.1778  0.9586
 8688SOL    HW237698   1.306   2.989   3.360  0.9236 -0.8608 -1.4141
 8689SOL     OW37699   0.794   3.421   4.710  0.0008 -0.7738  0.3733
 8689SOL    HW137700   0.789   3.449   4.802 -0.7914  1.3786 -0.3350
 8689SOL    HW237701   0.874   3.368   4.708 -0.4895 -1.5003  0.0302
 8690SOL     OW37702   3.226   3.082   8.864 -0.3086  0.1283  0.5170
 8690SOL    HW137703   3.298   3.102   8.924 -0.4359  1.0918  0.3438
 8690SOL    HW237704   3.221   2.989   8.886  1.4066  0.8006  3.6719
 8691SOL     OW37705   2.434   2.519   5.545 -0.2251  0.1502 -0.7691
 8691SOL    HW137706   2.384   2.438   5.557  0.3448  0.1377  1.4024
 8691SOL    HW237707   2.526   2.494   5.555 -0.1555  0.2594 -1.1029
 8692SOL     OW37708   0.743   4.077   2.830 -0.1318  0.4920 -0.0396
 8692SOL    HW137709   0.769   4.142   2.895  2.8376 -2.0360  1.2589
 8692SOL    HW237710   0.826   4.031   2.820 -0.4215  0.1964 -1.0751
 8693SOL     OW37711   3.662   3.682  10.041 -0.4414  0.1870 -0.7076
 8693SOL    HW137712   3.722   3.654   9.972  0.0650 -1.9273  0.5916
 8693SOL    HW237713   3.717   3.664  10.118 -1.6996 -0.9822 -0.0787
 8694SOL     OW37714   2.397   3.665  10.478 -0.7848  0.3640 -0.1979
 8694SOL    HW137715   2.369   3.756  10.472 -0.2020  0.6930  2.2187
 8694SOL    HW237716   2.364   3.628  10.396 -0.3793 -2.0306  0.7076
 8695SOL     OW37717   1.629   2.306  12.268 -0.4430  0.5041  0.3891
 8695SOL    HW137718   1.649   2.243  12.337 -0.8571 -0.4646 -0.3723
 8695SOL    HW237719   1.645   2.252  12.191  2.1640  0.0557  1.2376
 8696SOL     OW37720   2.671   1.959   2.250 -0.2909 -0.0129  0.6262
 8696SOL    HW137721   2.629   1.993   2.172  2.0902  0.0276 -0.6522
 8696SOL    HW237722   2.671   2.030   2.314 -1.0063  0.1008  0.4983
 8697SOL     OW37723   3.089   2.998   7.476  0.0541 -0.4741 -0.5283
 8697SOL    HW137724   2.995   2.978   7.472  0.6033 -3.4024  0.6509
 8697SOL    HW237725   3.093   3.090   7.450  2.5961 -0.0733  1.2877
 8698SOL     OW37726   2.349   3.491   1.365 -0.3990  0.0492  0.3402
 8698SOL    HW137727   2.396   3.573   1.379 -1.3994  0.8710 -1.0996
 8698SOL    HW237728   2.330   3.481   1.458  1.3745 -0.9746  0.6006
 8699SOL     OW37729   4.527   1.105  14.940  0.1633 -0.3833 -0.1026
 8699SOL    HW137730   4.432   1.106  14.930  0.1954  1.6308 -0.2112
 8699SOL    HW237731   4.525   1.096  15.035  2.6355  1.5084  0.1263
 8700SOL     OW37732   3.707   4.424   4.587  0.8137 -0.6148  0.0664
 8700SOL    HW137733   3.642   4.370   4.632 -0.0940 -0.5565 -1.1932
 8700SOL    HW237734   3.664   4.504   4.556 -0.7384 -1.4815 -0.0377
 8701SOL     OW37735   3.627   2.177   1.585 -0.3610 -0.5583  0.1882
 8701SOL    HW137736   3.682   2.174   1.663 -1.3157  0.6309  0.9099
 8701SOL    HW237737   3.676   2.114   1.532 -0.1134 -0.3726  0.1995
 8702SOL     OW37738   3.552   0.166  14.530  0.0267  0.6019 -0.1324
 8702SOL    HW137739   3.480   0.107  14.508 -0.3922  1.3049 -0.6582
 8702SOL    HW237740   3.557   0.204  14.442 -1.2180 -0.4129 -0.6566
 8703SOL     OW37741   1.138   0.789   5.746 -0.2216  0.6387  0.8491
 8703SOL    HW137742   1.146   0.800   5.651 -1.6501  0.8363  0.7451
 8703SOL    HW237743   1.047   0.769   5.767 -0.2939  0.6917  0.5894
 8704SOL     OW37744   4.370   4.567   7.580  0.6906  0.4360  0.2204
 8704SOL    HW137745   4.307   4.568   7.651  1.4510 -1.6371  0.9459
 8704SOL    HW237746   4.426   4.489   7.590  1.4376  0.8995 -0.3570
 8705SOL     OW37747   2.226   4.686   7.721  0.6452 -0.2383 -0.3949
 8705SOL    HW137748   2.202   0.015   7.784  0.9527 -0.6153  0.1372
 8705SOL    HW237749   2.272   4.615   7.767  2.8634  0.1285 -2.0492
 8706SOL     OW37750   3.927   3.352   7.629  0.3694  0.0083 -0.4160
 8706SOL    HW137751   4.000   3.291   7.638  0.3891 -0.1531 -1.7388
 8706SOL    HW237752   3.857   3.296   7.595  2.1406 -0.7693 -2.7961
 8707SOL     OW37753   1.150   0.107   4.276 -0.2524 -0.1325 -0.0581
 8707SOL    HW137754   1.121   0.112   4.367 -2.0355 -1.6343 -0.5711
 8707SOL    HW237755   1.144   0.013   4.258  1.6672 -0.5644  1.4441
 8708SOL     OW37756   0.114   0.523   5.541 -0.2446 -0.1235 -0.1389
 8708SOL    HW137757   0.209   0.534   5.549 -0.5008  1.4862  0.7171
 8708SOL    HW237758   0.105   0.547   5.449 -0.4234 -0.0472 -0.1008
 8709SOL     OW37759   0.015   2.786   6.658  0.2957  0.6647  0.6891
 8709SOL    HW137760   0.073   2.710   6.669 -0.4014 -0.2818 -2.1048
 8709SOL    HW237761   4.708   2.777   6.575 -1.7097  3.1147  1.5826
 8710SOL     OW37762   0.178   3.975  13.250 -0.4284 -0.6349  0.1842
 8710SOL    HW137763   0.161   3.987  13.157  0.2636 -0.1355  0.1225
 8710SOL    HW237764   0.273   3.967  13.241 -0.1076  1.7716  1.3980
 8711SOL     OW37765   4.613   3.141  10.627 -0.7507  0.3831 -0.3434
 8711SOL    HW137766   4.536   3.095  10.596 -1.0617  0.7625 -0.1344
 8711SOL    HW237767   4.610   3.211  10.562  0.9032  1.6503  0.9330
 8712SOL     OW37768   4.709   4.020   3.521 -0.0964  0.5102  0.3523
 8712SOL    HW137769   0.061   3.993   3.508 -1.1069 -1.6138 -2.2143
 8712SOL    HW237770   4.710   4.012   3.617  1.6249 -1.4978  0.1515
 8713SOL     OW37771   0.354   2.716   3.188 -0.1179 -0.1783  0.0231
 8713SOL    HW137772   0.281   2.654   3.182 -0.5723  0.0021  3.7570
 8713SOL    HW237773   0.320   2.777   3.254 -0.9788  0.9958 -1.5075
 8714SOL     OW37774   0.015   1.036  10.552 -0.3193  0.4450 -0.1618
 8714SOL    HW137775   0.041   0.969  10.615 -2.3482 -1.1632 -1.0552
 8714SOL    HW237776   0.079   1.105  10.572 -0.1412  0.9275 -2.4361
 8715SOL     OW37777   1.892   0.528   6.224  0.1036  0.2381 -1.0564
 8715SOL    HW137778   1.868   0.606   6.274 -0.4556 -1.0334  0.6792
 8715SOL    HW237779   1.886   0.541   6.130  0.6100  0.7635 -1.0112
 8716SOL     OW37780   1.392   0.573   7.182 -0.0394  0.3906 -0.6827
 8716SOL    HW137781   1.416   0.619   7.262  1.1194  0.6128 -1.1533
 8716SOL    HW237782   1.403   0.482   7.209  2.3588  0.9668  0.2922
 8717SOL     OW37783   1.460   0.953   2.879 -0.1633  0.3741 -0.5759
 8717SOL    HW137784   1.537   0.932   2.827 -0.3096 -1.0086 -0.2242
 8717SOL    HW237785   1.501   1.010   2.944 -1.7067 -1.0336  1.6359
 8718SOL     OW37786   3.131   3.982   7.268  0.2187  0.1060 -0.2292
 8718SOL    HW137787   3.118   3.983   7.363  1.6682 -1.2648 -0.0050
 8718SOL    HW237788   3.181   3.901   7.256  0.1417  0.1391 -0.7583
 8719SOL     OW37789   1.361   1.009  14.992 -0.1977  0.0621 -0.4628
 8719SOL    HW137790   1.274   1.045  15.010  0.2106  0.9803 -0.3100
 8719SOL    HW237791   1.385   0.960  15.071 -0.3217  1.7731  0.6295
 8720SOL     OW37792   2.852   1.937   7.207  0.5358 -0.4530 -0.3927
 8720SOL    HW137793   2.808   1.949   7.122  1.1544  0.1409 -0.6307
 8720SOL    HW237794   2.880   1.846   7.197  1.3250 -0.2811  0.2756
 8721SOL     OW37795   0.186   0.759  15.443  0.7520 -0.1140  0.0682
 8721SOL    HW137796   0.133   0.684  15.416  0.0320  0.3731  0.1364
 8721SOL    HW237797   0.124   0.829  15.459  0.1948 -0.5674 -0.1098
 8722SOL     OW37798   3.691   3.492   9.362 -0.3263 -0.5330  0.5737
 8722SOL    HW137799   3.653   3.464   9.446 -1.4713  2.8262  1.1868
 8722SOL    HW237800   3.753   3.421   9.350  0.2827  0.0008  0.5515
 8723SOL     OW37801   0.481   3.632  14.496 -0.0692  0.0738  0.2961
 8723SOL    HW137802   0.438   3.547  14.489  1.2360 -0.4831 -0.8147
 8723SOL    HW237803   0.437   3.686  14.430  0.5060 -0.5839 -0.6219
 8724SOL     OW37804   0.640   2.503   6.541  0.2602  0.0972  0.3671
 8724SOL    HW137805   0.722   2.464   6.571  0.8411  0.8739 -0.2324
 8724SOL    HW237806   0.582   2.443   6.589 -0.7162  0.2999 -0.5662
 8725SOL     OW37807   3.534   0.842   5.072  0.0586  0.1297 -0.1659
 8725SOL    HW137808   3.611   0.879   5.115  0.8858 -2.7211  0.8367
 8725SOL    HW237809   3.571   0.850   4.984  1.4919  2.6949  0.6829
 8726SOL     OW37810   3.700   3.257   2.846  0.1889 -0.2339  0.5414
 8726SOL    HW137811   3.725   3.344   2.816 -2.2217  0.6525  1.1747
 8726SOL    HW237812   3.778   3.204   2.864 -0.9356 -2.3986 -0.8912
 8727SOL     OW37813   0.181   1.294   6.700 -0.0324  0.8653  0.1514
 8727SOL    HW137814   0.122   1.363   6.729  1.6927  2.9042 -1.1778
 8727SOL    HW237815   0.263   1.337   6.679 -0.4673  1.2337 -0.8203
 8728SOL     OW37816   2.659   3.876  17.399  0.2033  0.0505 -0.2629
 8728SOL    HW137817   2.722   3.931  17.353 -1.2013  1.4915 -0.4589
 8728SOL    HW237818   2.588   3.940  17.405 -0.6895 -1.1320  1.7339
 8729SOL     OW37819   3.520   2.861   8.721  0.1879  0.0255 -0.1116
 8729SOL    HW137820   3.522   2.897   8.632  0.3255  1.2670  0.3999
 8729SOL    HW237821   3.438   2.813   8.710 -0.6522  0.8406  2.6147
 8730SOL     OW37822   4.661   4.299   1.921 -0.5666 -0.1387 -0.3408
 8730SOL    HW137823   4.651   4.222   1.977  0.2825 -1.2232 -1.6690
 8730SOL    HW237824   4.594   4.287   1.853 -2.1919 -1.2714  1.4523
 8731SOL     OW37825   2.288   3.653  17.108 -0.1560  0.4823 -0.4046
 8731SOL    HW137826   2.352   3.712  17.150 -2.2068  1.1945  1.7157
 8731SOL    HW237827   2.318   3.650  17.017 -2.0069 -2.3902 -0.9146
 8732SOL     OW37828   4.160   1.755   6.630  0.6073 -0.1577 -0.0768
 8732SOL    HW137829   4.220   1.829   6.642  1.6967 -0.9598 -0.5186
 8732SOL    HW237830   4.186   1.695   6.701  2.8752  0.5635 -0.2887
 8733SOL     OW37831   0.935   1.020   4.348 -0.1939 -0.0678  0.2026
 8733SOL    HW137832   0.941   1.073   4.427 -2.0008 -0.7790  0.8310
 8733SOL    HW237833   0.930   1.086   4.278  1.9938  0.0944  0.1930
 8734SOL     OW37834   2.977   2.479  11.833 -0.7492 -0.3776  0.2237
 8734SOL    HW137835   2.886   2.499  11.858  0.1180  0.0769  3.0154
 8734SOL    HW237836   3.031   2.502  11.908  1.1520 -0.1850 -1.2265
 8735SOL     OW37837   4.580   1.892   0.764 -0.2751 -0.4082 -0.3415
 8735SOL    HW137838   4.489   1.913   0.742  0.3721  3.6363  0.7262
 8735SOL    HW237839   4.599   1.855   0.678  0.5835  0.7601 -0.6652
 8736SOL     OW37840   1.326   0.387   3.378 -0.1167  0.1965 -0.1804
 8736SOL    HW137841   1.252   0.425   3.425  0.1373  1.0150 -0.4433
 8736SOL    HW237842   1.398   0.446   3.401 -0.3946  0.4533  0.0279
 8737SOL     OW37843   4.665   4.372  11.959  0.2775  0.4354  0.0767
 8737SOL    HW137844   4.570   4.365  11.951  0.1474 -1.4606  3.2662
 8737SOL    HW237845   4.687   4.451  12.010  1.2638 -1.1114  2.0437
 8738SOL     OW37846   4.549   3.935   2.718 -0.0049 -0.4059 -0.5628
 8738SOL    HW137847   4.608   3.969   2.786  2.1596  1.4842 -3.3420
 8738SOL    HW237848   4.549   4.011   2.660 -2.4438  0.7795  1.0133
 8739SOL     OW37849   2.988   4.417   5.774  0.0804 -0.0617 -0.0710
 8739SOL    HW137850   2.931   4.482   5.733  0.0854 -1.2491 -1.9498
 8739SOL    HW237851   2.954   4.337   5.733 -2.4582 -0.2756  2.3763
 8740SOL     OW37852   2.524   0.393  15.001  0.6871 -0.5569  0.2869
 8740SOL    HW137853   2.445   0.398  14.948  2.1399  0.0214 -1.8219
 8740SOL    HW237854   2.478   0.351  15.074  0.1894 -2.3891 -1.0932
 8741SOL     OW37855   3.224   2.734   5.137  0.0156 -0.0471  0.0415
 8741SOL    HW137856   3.313   2.760   5.160 -0.1594 -0.5056  1.2350
 8741SOL    HW237857   3.240   2.659   5.079 -0.0995 -0.6588  0.7976
 8742SOL     OW37858   1.970   0.993   0.678 -0.4731  0.2628 -0.3150
 8742SOL    HW137859   1.956   0.900   0.695 -0.7383  0.3334 -0.1604
 8742SOL    HW237860   1.928   1.029   0.755  0.1078 -0.8195  0.5035
 8743SOL     OW37861   2.989   1.865  17.137 -0.4333 -1.0309  0.0432
 8743SOL    HW137862   3.006   1.938  17.196 -0.2421 -0.8158 -0.2883
 8743SOL    HW237863   2.897   1.884  17.119 -0.1478  0.6430  0.3557
 8744SOL     OW37864   2.837   0.493  16.716 -0.2460 -0.8165  0.0292
 8744SOL    HW137865   2.923   0.496  16.674  0.1757 -1.1166  0.8843
 8744SOL    HW237866   2.838   0.415  16.772 -0.4124 -0.1166  1.0041
 8745SOL     OW37867   3.776   1.836   7.811  0.2657 -0.3140  0.3249
 8745SOL    HW137868   3.840   1.798   7.751  0.7098 -0.2236  0.7514
 8745SOL    HW237869   3.699   1.801   7.766 -0.2168 -1.2841  1.9051
 8746SOL     OW37870   2.657   4.514   3.745 -0.0213  0.4981 -0.5654
 8746SOL    HW137871   2.668   4.609   3.744  1.1350  0.3598 -1.1462
 8746SOL    HW237872   2.633   4.501   3.653 -1.5693 -1.6934  0.1513
 8747SOL     OW37873   1.413   0.295   4.626  0.1645  0.1150 -0.2951
 8747SOL    HW137874   1.388   0.388   4.628 -0.5192 -0.1078  1.0612
 8747SOL    HW237875   1.508   0.304   4.622  0.2158 -0.1207  0.4657
 8748SOL     OW37876   4.034   3.235  17.153 -0.1021  0.7508 -0.2975
 8748SOL    HW137877   3.962   3.286  17.115 -0.5767 -0.0149 -0.4353
 8748SOL    HW237878   4.008   3.223  17.244 -0.9979  2.4976 -0.3195
 8749SOL     OW37879   3.993   3.108   5.804 -0.9611 -0.4785  0.0170
 8749SOL    HW137880   3.932   3.152   5.864  1.0430  1.1663  0.8534
 8749SOL    HW237881   4.035   3.182   5.760 -1.4061 -1.5243 -2.1586
 8750SOL     OW37882   1.873   2.471   5.860 -0.1616 -0.2627 -0.1096
 8750SOL    HW137883   1.805   2.537   5.866 -0.9689 -0.9721 -1.4521
 8750SOL    HW237884   1.826   2.390   5.838 -0.6217 -0.5391  1.9034
 8751SOL     OW37885   3.157   2.856   9.743  0.1404 -0.1899 -0.2726
 8751SOL    HW137886   3.198   2.778   9.705 -0.9619 -1.7419  1.6860
 8751SOL    HW237887   3.098   2.814   9.807 -0.2233  0.3433 -0.2615
 8752SOL     OW37888   4.163   1.573   2.834 -0.2680 -0.0372 -0.0944
 8752SOL    HW137889   4.078   1.531   2.822 -0.7943  1.6542 -2.1340
 8752SOL    HW237890   4.169   1.576   2.930 -3.1707  1.3485  0.0397
 8753SOL     OW37891   2.898   1.289   4.128 -0.8634 -0.1794  0.2405
 8753SOL    HW137892   2.960   1.298   4.055 -2.9697 -3.0232 -1.8794
 8753SOL    HW237893   2.951   1.259   4.202  0.4405  0.5139 -0.4113
 8754SOL     OW37894   1.429   1.269   9.005  0.2869 -0.2500 -0.1815
 8754SOL    HW137895   1.514   1.241   8.972  0.5967 -0.6698  0.9565
 8754SOL    HW237896   1.384   1.303   8.928  1.9348 -0.8222 -1.3908
 8755SOL     OW37897   2.338   4.038   7.133  0.0178  0.3825  0.4286
 8755SOL    HW137898   2.355   4.084   7.050  0.2293  0.0339  0.2792
 8755SOL    HW237899   2.274   4.096   7.175 -1.9435 -0.7507 -1.0188
 8756SOL     OW37900   0.079   3.486  16.106  0.0426  0.4354 -0.2257
 8756SOL    HW137901   0.035   3.461  16.025  2.1959 -0.7883 -1.0416
 8756SOL    HW237902   0.167   3.448  16.097  0.5449  1.5863 -0.1123
 8757SOL     OW37903   3.004   3.535  14.772 -0.2650  0.1169 -0.5697
 8757SOL    HW137904   3.009   3.559  14.680 -1.8702  0.1147 -0.6678
 8757SOL    HW237905   2.959   3.611  14.809 -1.3460 -1.0453  0.5391
 8758SOL     OW37906   3.476   3.681   7.777 -0.0433  0.1813  0.0947
 8758SOL    HW137907   3.401   3.670   7.835 -0.8678  1.4741 -0.7132
 8758SOL    HW237908   3.434   3.728   7.705 -1.5438  0.6421  1.2703
 8759SOL     OW37909   3.128   4.453  12.154 -0.1310  0.2816 -0.1815
 8759SOL    HW137910   3.139   4.421  12.244 -0.0975 -0.7617 -0.5635
 8759SOL    HW237911   3.188   4.528  12.157 -1.7024  1.5217  0.2006
 8760SOL     OW37912   3.092   2.018   3.599  0.3394 -0.5505 -0.2173
 8760SOL    HW137913   3.020   1.955   3.600 -1.2805  1.3155  0.6022
 8760SOL    HW237914   3.046   2.098   3.624 -0.1781 -1.0243  0.3562
 8761SOL     OW37915   1.560   2.187   1.971 -0.4192 -0.0051 -0.1609
 8761SOL    HW137916   1.574   2.114   1.911 -1.1704  0.8562 -1.3993
 8761SOL    HW237917   1.471   2.218   1.954  0.7753  2.8633 -1.2252
 8762SOL     OW37918   2.761   0.099   6.378 -0.5079  0.2581 -0.4163
 8762SOL    HW137919   2.777   0.011   6.344 -0.3472  0.5130 -1.0018
 8762SOL    HW237920   2.682   0.133   6.335 -0.0919  0.9954 -0.5929
 8763SOL     OW37921   3.044   0.831   6.742 -0.6512  0.3582  0.0177
 8763SOL    HW137922   3.093   0.787   6.673 -0.4052 -2.2321  1.8377
 8763SOL    HW237923   3.055   0.925   6.725 -1.2853  0.5870  0.8547
 8764SOL     OW37924   2.917   3.901   2.019 -0.3706 -0.1083 -0.2312
 8764SOL    HW137925   2.924   3.870   2.109 -2.0544 -3.6779 -1.3178
 8764SOL    HW237926   2.829   3.867   2.005 -0.3845  0.1450 -0.7366
 8765SOL     OW37927   0.400   0.900   0.656  0.1138  0.2578 -0.4457
 8765SOL    HW137928   0.393   0.898   0.561 -1.4622  1.2109 -0.3495
 8765SOL    HW237929   0.327   0.843   0.682 -1.5269  2.4515 -0.2497
 8766SOL     OW37930   3.647   2.905  16.339 -0.0124 -0.1252  0.1176
 8766SOL    HW137931   3.606   2.981  16.298  0.9846 -0.3474 -1.2902
 8766SOL    HW237932   3.611   2.915  16.427  1.5823 -0.9449  0.8769
 8767SOL     OW37933   4.432   4.065   5.112  0.0514 -0.4379  0.0061
 8767SOL    HW137934   4.417   4.033   5.201 -0.5010  3.5099  1.3230
 8767SOL    HW237935   4.362   4.129   5.102 -2.5156 -3.5040 -1.6926
 8768SOL     OW37936   1.037   0.414  15.336 -0.7600  0.2993 -0.3402
 8768SOL    HW137937   1.072   0.432  15.248 -1.2938  1.2711 -0.3548
 8768SOL    HW237938   1.050   0.321  15.349  3.0235  1.0335  1.1464
 8769SOL     OW37939   4.615   3.820   9.591  0.0951  0.4627 -0.0230
 8769SOL    HW137940   4.631   3.902   9.639 -4.0133 -0.0143  2.0927
 8769SOL    HW237941   4.561   3.768   9.650  1.3011 -0.1254  0.5774
 8770SOL     OW37942   3.661   2.599   4.149 -0.3008  0.0972  0.5577
 8770SOL    HW137943   3.580   2.578   4.101  0.9744 -0.7813 -1.2243
 8770SOL    HW237944   3.664   2.694   4.142 -1.3355  0.1430  0.7229
 8771SOL     OW37945   3.981   0.787   4.279 -0.6506  0.6593 -0.0347
 8771SOL    HW137946   4.039   0.824   4.345 -0.4027  0.5387 -0.1843
 8771SOL    HW237947   3.910   0.851   4.279  0.0316  1.4343 -1.6205
 8772SOL     OW37948   2.975   4.186   5.114 -0.1840  0.1366 -0.7400
 8772SOL    HW137949   2.882   4.171   5.100 -0.0497  0.1248 -1.6209
 8772SOL    HW237950   2.994   4.234   5.034 -2.0525  0.3177 -1.0685
 8773SOL     OW37951   4.656   1.199   4.941  0.0152  0.3088  0.3395
 8773SOL    HW137952   4.631   1.245   4.861 -1.1917 -0.7857  0.0921
 8773SOL    HW237953   4.571   1.166   4.970 -0.0583 -1.3384 -1.7515
 8774SOL     OW37954   1.999   1.949  10.809  0.2922  0.1346 -0.2332
 8774SOL    HW137955   2.004   1.858  10.781  0.9495  0.3392 -0.7903
 8774SOL    HW237956   2.067   1.938  10.876  0.8366  4.6643 -0.0169
 8775SOL     OW37957   2.382   1.402  13.891 -0.8135  0.1415 -0.0363
 8775SOL    HW137958   2.416   1.360  13.812 -0.8608 -1.9439  1.0611
 8775SOL    HW237959   2.308   1.347  13.918 -0.7818  0.4330  0.6150
 8776SOL     OW37960   4.357   4.683   5.426 -0.3895 -0.1699  0.0252
 8776SOL    HW137961   4.280   4.738   5.409  0.1061  1.2881  2.4107
 8776SOL    HW237962   4.427   0.004   5.400  0.9250 -1.0255  1.5887
 8777SOL     OW37963   2.382   4.134   6.154  0.1110  0.1479  0.1450
 8777SOL    HW137964   2.287   4.122   6.157  0.2198 -1.5288 -3.2079
 8777SOL    HW237965   2.404   4.157   6.244  3.1521  0.7529 -0.7541
 8778SOL     OW37966   1.262   4.709  12.124  0.4548  0.2934 -0.3566
 8778SOL    HW137967   1.269   0.019  12.206 -2.4020  2.2305 -1.2512
 8778SOL    HW237968   1.195   4.641  12.131 -0.4970  1.1762 -0.7289
 8779SOL     OW37969   1.293   3.818  17.629 -0.2582  0.3650  0.2638
 8779SOL    HW137970   1.368   3.785  17.579  0.6029  1.2480  0.9687
 8779SOL    HW237971   1.215   3.779  17.589 -1.5613  2.3276  0.8849
 8780SOL     OW37972   0.115   4.038   3.164 -0.1365  0.2479  0.1827
 8780SOL    HW137973   0.124   4.041   3.069  0.4338  1.5432  0.2812
 8780SOL    HW237974   0.060   4.114   3.181  2.3339  2.1907 -0.5564
 8781SOL     OW37975   1.376   4.638  11.405  0.4664  0.1062 -0.1068
 8781SOL    HW137976   1.458   4.686  11.418  3.2478 -3.7543 -3.0518
 8781SOL    HW237977   1.327   4.684  11.336  0.0442  0.5227  0.4771
 8782SOL     OW37978   4.450   3.246   2.102 -0.4798 -0.0897 -0.5615
 8782SOL    HW137979   4.457   3.341   2.111  0.2708 -0.0400 -1.6967
 8782SOL    HW237980   4.460   3.235   2.008 -1.7505  1.9289 -0.9216
 8783SOL     OW37981   3.669   3.068   9.336  0.4512 -0.0947 -0.1752
 8783SOL    HW137982   3.575   3.088   9.337  0.1957 -1.0574 -4.4803
 8783SOL    HW237983   3.678   2.998   9.401 -3.2888 -0.4481 -0.0403
 8784SOL     OW37984   1.657   0.093   8.409 -0.0782 -0.0797 -0.1158
 8784SOL    HW137985   1.572   0.074   8.369 -0.4477 -1.3955  1.3127
 8784SOL    HW237986   1.649   0.183   8.442  3.2635  0.8571 -1.9472
 8785SOL     OW37987   4.342   0.845   3.936 -0.6022 -0.6543  0.4227
 8785SOL    HW137988   4.341   0.934   3.972  0.6066 -0.4506 -0.0456
 8785SOL    HW237989   4.271   0.804   3.986  0.1515  1.3220  3.1030
 8786SOL     OW37990   0.561   4.229   8.228  0.2001  0.3725 -0.0766
 8786SOL    HW137991   0.527   4.165   8.167 -0.3159  1.1950 -0.6504
 8786SOL    HW237992   0.486   4.253   8.283  0.2321  0.1145  0.0781
 8787SOL     OW37993   2.292   0.385   6.913 -0.3083 -0.1956  0.4476
 8787SOL    HW137994   2.235   0.310   6.930  0.9425 -1.7087 -2.0532
 8787SOL    HW237995   2.332   0.400   6.999  1.4696 -1.0004 -0.2263
 8788SOL     OW37996   0.563   0.172   5.849 -0.0178 -0.9738 -0.2642
 8788SOL    HW137997   0.601   0.092   5.814  0.4195  0.2125 -2.5395
 8788SOL    HW237998   0.576   0.157   5.943  2.4806  0.1646 -0.4276
 8789SOL     OW37999   3.954   2.755   9.242 -0.1916  0.6039 -0.6314
 8789SOL    HW138000   3.933   2.762   9.149  0.4318 -1.3091 -0.9104
 8789SOL    HW238001   3.957   2.661   9.261  0.7483  1.4448  3.3866
 8790SOL     OW38002   3.588   2.257   6.493 -0.3014 -0.1257  0.6365
 8790SOL    HW138003   3.666   2.296   6.533 -0.4318 -1.5214  2.2726
 8790SOL    HW238004   3.517   2.315   6.520 -0.9746 -1.0046  0.7472
 8791SOL     OW38005   0.815   2.509  12.913  0.0497  0.7045 -0.0192
 8791SOL    HW138006   0.890   2.547  12.866  0.4709  0.9864  0.8931
 8791SOL    HW238007   0.798   2.572  12.983  1.4248  1.4097 -0.3122
 8792SOL     OW38008   4.405   0.550  10.985  0.5957  0.2775  0.2617
 8792SOL    HW138009   4.393   0.477  10.924  0.8725 -0.7076  1.3823
 8792SOL    HW238010   4.398   0.623  10.924  2.9556 -0.3112 -0.7181
 8793SOL     OW38011   0.330   3.162  14.476 -0.5152 -0.0114  0.3130
 8793SOL    HW138012   0.333   3.243  14.424 -4.4550 -0.1869 -0.1977
 8793SOL    HW238013   0.300   3.097  14.412  1.0856 -0.9591  0.5436
 8794SOL     OW38014   3.651   0.451   4.634 -0.0703  0.0677 -0.7965
 8794SOL    HW138015   3.721   0.506   4.600  0.6191 -1.2507 -1.5203
 8794SOL    HW238016   3.701   0.395   4.694 -0.4933  1.3706  0.7596
 8795SOL     OW38017   4.278   3.773   7.073  0.1824  0.2764 -0.2038
 8795SOL    HW138018   4.283   3.764   6.978  0.6563 -2.5443  0.0820
 8795SOL    HW238019   4.191   3.809   7.088  0.2458  0.6418 -0.7510
 8796SOL     OW38020   1.728   3.004   2.973  0.1672 -0.1378 -0.1370
 8796SOL    HW138021   1.750   2.992   2.881  4.7000  2.4471  0.5917
 8796SOL    HW238022   1.703   2.918   3.006 -1.2260  1.1106  2.1502
 8797SOL     OW38023   0.334   2.363   2.220 -0.4856  0.5797  0.7094
 8797SOL    HW138024   0.381   2.283   2.196  1.2749  2.5547 -2.4330
 8797SOL    HW238025   0.372   2.380   2.307  0.5797 -0.5161  0.4652
 8798SOL     OW38026   2.269   4.150   4.620  0.2401 -0.6060  0.2944
 8798SOL    HW138027   2.269   4.230   4.672  2.6545 -0.5913  0.2522
 8798SOL    HW238028   2.279   4.090   4.693 -0.5305 -1.5833 -0.4013
 8799SOL     OW38029   0.859   1.178   5.346 -0.2930 -0.2828  0.4328
 8799SOL    HW138030   0.915   1.121   5.293  0.6656  2.4723 -1.4845
 8799SOL    HW238031   0.845   1.120   5.421  1.1684  0.4630  1.2679
 8800SOL     OW38032   1.048   3.003   3.148  0.5677  0.1674 -0.2292
 8800SOL    HW138033   1.043   2.908   3.147 -1.0044  0.2595 -1.3753
 8800SOL    HW238034   1.003   3.022   3.066 -1.9212 -2.4723  0.5299
 8801SOL     OW38035   2.755   1.586   3.280  0.0195  0.1158 -0.3944
 8801SOL    HW138036   2.814   1.560   3.351 -0.3811 -0.8508 -0.4253
 8801SOL    HW238037   2.697   1.511   3.273 -0.2846  0.1866  1.3276
 8802SOL     OW38038   1.397   1.091   7.209  0.0670 -0.2602 -0.6176
 8802SOL    HW138039   1.489   1.076   7.230  0.0461  2.2085  1.2491
 8802SOL    HW238040   1.400   1.169   7.154 -0.1864 -0.6999 -1.2499
 8803SOL     OW38041   4.360   4.172   1.817  0.2917 -0.1913 -0.4714
 8803SOL    HW138042   4.303   4.245   1.792 -3.7051 -2.2753  2.7347
 8803SOL    HW238043   4.343   4.168   1.911  0.1312  0.2892 -0.4781
 8804SOL     OW38044   1.659   2.627   3.146 -0.5851 -0.7283 -0.0334
 8804SOL    HW138045   1.667   2.716   3.180  0.0563 -0.0382 -1.9420
 8804SOL    HW238046   1.579   2.640   3.094 -1.1144 -0.8646  0.7537
 8805SOL     OW38047   2.994   2.868   5.116  0.0596 -0.5396  0.5411
 8805SOL    HW138048   3.078   2.824   5.129 -0.4590 -0.9238  2.5156
 8805SOL    HW238049   3.000   2.913   5.200 -1.6271 -0.2655  0.5023
 8806SOL     OW38050   4.401   2.670   3.706 -0.1313  0.1163  0.1812
 8806SOL    HW138051   4.415   2.613   3.631 -4.0108 -0.6507  0.0605
 8806SOL    HW238052   4.492   2.685   3.732  0.1098 -1.5740  0.2902
 8807SOL     OW38053   1.523   3.791  16.219  0.0827  0.1500 -0.1445
 8807SOL    HW138054   1.490   3.800  16.130 -0.3919  0.6972  0.0893
 8807SOL    HW238055   1.455   3.832  16.272  2.3540  2.5441  0.9151
 8808SOL     OW38056   3.127   0.855   8.113 -0.9587  0.0470  0.2874
 8808SOL    HW138057   3.151   0.884   8.201 -1.0843  1.0107  0.0086
 8808SOL    HW238058   3.178   0.779   8.085 -0.1236 -0.5584  3.4974
 8809SOL     OW38059   4.182   0.742   9.460  0.0548 -0.4184  0.1386
 8809SOL    HW138060   4.143   0.820   9.420  0.9365  0.4127  0.8909
 8809SOL    HW238061   4.200   0.788   9.542  0.3084 -0.9948  0.4020
 8810SOL     OW38062   0.145   2.882   3.004  0.5012 -0.0566 -0.3680
 8810SOL    HW138063   0.207   2.815   3.033 -0.8668 -0.1802  2.3543
 8810SOL    HW238064   0.069   2.843   3.047  0.4503  0.5003  0.0532
 8811SOL     OW38065   0.011   0.579   4.459 -0.1619  0.4563  0.1353
 8811SOL    HW138066   0.087   0.589   4.402  0.1814  1.6402  0.8179
 8811SOL    HW238067   4.686   0.610   4.395  0.0496 -0.2790 -0.4445
 8812SOL     OW38068   0.371   4.465   1.883 -0.5254  0.3148 -0.3739
 8812SOL    HW138069   0.449   4.482   1.831 -1.6721  3.0496 -1.2193
 8812SOL    HW238070   0.306   4.450   1.814  0.1906  1.3250 -1.2618
 8813SOL     OW38071   3.831   3.931  10.704 -0.5179 -0.1530 -0.9657
 8813SOL    HW138072   3.892   3.866  10.739 -2.4336 -1.8459 -0.6892
 8813SOL    HW238073   3.746   3.891  10.725  0.3305 -2.0462 -1.1196
 8814SOL     OW38074   4.043   2.125   9.691  0.0760  0.6370 -0.7145
 8814SOL    HW138075   4.056   2.051   9.631 -0.2359  0.4874 -0.6006
 8814SOL    HW238076   4.083   2.095   9.772 -3.3691 -0.5350  0.5549
 8815SOL     OW38077   4.041   3.820   9.993 -0.5201  0.1431 -0.3143
 8815SOL    HW138078   4.135   3.821   9.975 -0.7016 -0.7420 -1.2870
 8815SOL    HW238079   4.009   3.734  10.021  0.0323 -0.0212 -0.1888
 8816SOL     OW38080   1.859   4.097   8.644  0.9761  0.9095 -0.3446
 8816SOL    HW138081   1.936   4.153   8.657 -0.8935  3.4560 -0.2273
 8816SOL    HW238082   1.846   4.081   8.550  0.4389 -0.2958 -0.0552
 8817SOL     OW38083   3.140   3.097   6.000 -0.0285  0.3244  0.1533
 8817SOL    HW138084   3.207   3.088   6.068  0.5475  0.1840 -0.4310
 8817SOL    HW238085   3.116   3.189   6.001 -3.2885 -0.5590  1.1503
 8818SOL     OW38086   4.514   2.283   0.324 -0.3238  0.4810  0.0404
 8818SOL    HW138087   4.566   2.359   0.300  0.4190 -0.6950 -2.0045
 8818SOL    HW238088   4.585   2.219   0.319 -1.9457 -1.4211  1.1328
 8819SOL     OW38089   2.036   3.975   5.463 -0.4535 -0.5668  0.3195
 8819SOL    HW138090   2.070   3.961   5.551  1.0966 -1.3630 -0.4144
 8819SOL    HW238091   1.981   4.051   5.481  0.5002 -0.2444  1.8742
 8820SOL     OW38092   4.037   3.297  10.272  0.7946 -0.6633  0.0542
 8820SOL    HW138093   4.037   3.393  10.271 -1.7095 -0.6778 -0.5907
 8820SOL    HW238094   3.980   3.286  10.347  0.4510 -0.9678 -0.2517
 8821SOL     OW38095   0.794   1.353   2.774 -0.0698  0.0730  0.5446
 8821SOL    HW138096   0.770   1.274   2.822  0.2032  1.3681  2.8002
 8821SOL    HW238097   0.774   1.420   2.840 -3.3293 -0.9713  0.6448
 8822SOL     OW38098   4.245   4.299  17.305 -0.4107 -0.4139  0.0536
 8822SOL    HW138099   4.198   4.318  17.387 -1.7594 -1.2755 -0.5347
 8822SOL    HW238100   4.182   4.318  17.236 -0.3882 -2.3130 -0.4809
 8823SOL     OW38101   1.977   4.699   5.082 -0.6464  0.0772  0.3926
 8823SOL    HW138102   1.965   4.648   5.162 -2.1220  0.0355  0.1441
 8823SOL    HW238103   1.931   0.043   5.094  2.4267  1.5768  1.7943
 8824SOL     OW38104   4.133   2.426   8.001 -0.1651 -0.2505  0.5371
 8824SOL    HW138105   4.169   2.464   8.080  1.0471  0.1312 -0.1954
 8824SOL    HW238106   4.217   2.423   7.955  0.1471 -0.7344  1.1451
 8825SOL     OW38107   2.718   2.514   5.549 -0.1912 -0.0763 -0.3413
 8825SOL    HW138108   2.810   2.492   5.565  0.0166  1.9619  1.2347
 8825SOL    HW238109   2.728   2.567   5.469  0.6420 -1.6869 -1.3076
 8826SOL     OW38110   3.051   4.665  13.550  0.2886  0.5982 -0.8636
 8826SOL    HW138111   3.125   4.693  13.496  0.2522 -0.6919 -1.5818
 8826SOL    HW238112   3.078   4.690  13.638 -0.9505 -0.8574 -0.0600
 8827SOL     OW38113   1.745   3.805   5.860  0.1534 -0.2020 -0.3159
 8827SOL    HW138114   1.739   3.878   5.797 -2.2058  0.3091  0.4799
 8827SOL    HW238115   1.825   3.821   5.909  0.6779 -1.4561 -0.7725
 8828SOL     OW38116   4.597   2.471  10.069 -0.6317  0.2008  0.2172
 8828SOL    HW138117   4.619   2.404  10.004 -2.0415 -2.0202  2.0451
 8828SOL    HW238118   4.543   2.529  10.016  0.6142  1.4142  0.2760
 8829SOL     OW38119   2.829   0.089   7.682  0.6000  0.1089  0.0740
 8829SOL    HW138120   2.909   0.072   7.731  1.0683  0.6139 -0.5124
 8829SOL    HW238121   2.794   0.001   7.665 -1.2870  0.5800  1.5824
 8830SOL     OW38122   1.893   2.791   5.537  0.4475  0.0273  0.1974
 8830SOL    HW138123   1.978   2.745   5.540  1.0968  1.1362 -1.3562
 8830SOL    HW238124   1.829   2.727   5.568 -0.6114  0.1493 -1.7404
 8831SOL     OW38125   0.551   3.564   7.686 -0.3865 -0.0662 -0.4864
 8831SOL    HW138126   0.611   3.637   7.671  1.5979 -1.4290  0.7942
 8831SOL    HW238127   0.506   3.562   7.601 -0.1203  1.3796 -0.6504
 8832SOL     OW38128   2.637   0.117  17.456  0.2248 -0.2470  0.2429
 8832SOL    HW138129   2.553   0.143  17.494  1.5338  1.5119  1.9662
 8832SOL    HW238130   2.694   0.192  17.476 -1.8404  0.6639  2.6348
 8833SOL     OW38131   2.640   3.596   9.282  0.0421  0.4265 -0.1483
 8833SOL    HW138132   2.694   3.634   9.351  0.0301  0.5387 -0.2008
 8833SOL    HW238133   2.553   3.597   9.323  1.5393 -1.3556  3.0975
 8834SOL     OW38134   3.573   3.090   1.631 -0.8770  0.0613  0.7092
 8834SOL    HW138135   3.599   3.168   1.581  2.5597 -1.0586  0.7179
 8834SOL    HW238136   3.519   3.051   1.562 -0.3254  0.6151 -0.0395
 8835SOL     OW38137   0.732   2.443   3.459  0.2712  0.2607  0.4482
 8835SOL    HW138138   0.778   2.471   3.539  3.3873 -0.3037 -1.1571
 8835SOL    HW238139   0.653   2.401   3.492  0.1392 -0.0240 -0.2400
 8836SOL     OW38140   4.687   1.095   3.695  0.5918 -0.1752  0.4415
 8836SOL    HW138141   4.691   1.165   3.630  0.7026  0.9255  1.6410
 8836SOL    HW238142   0.033   1.054   3.683 -0.7884 -2.4299 -1.7962
 8837SOL     OW38143   0.939   0.860   2.859 -0.3116  0.2011 -0.3602
 8837SOL    HW138144   1.029   0.848   2.889  0.2890 -0.1865 -2.3254
 8837SOL    HW238145   0.930   0.793   2.791  0.1514 -0.5405  0.3111
 8838SOL     OW38146   3.549   2.118   9.043  0.0072 -0.2963  0.6666
 8838SOL    HW138147   3.621   2.089   8.987  1.0680  3.4182  0.1314
 8838SOL    HW238148   3.591   2.164   9.116 -1.3950  2.2307 -0.1402
 8839SOL     OW38149   3.270   2.952   3.307 -0.7966 -0.6278  0.4554
 8839SOL    HW138150   3.200   3.017   3.316 -2.1150 -1.7607 -1.8078
 8839SOL    HW238151   3.220   2.874   3.332 -0.5639 -0.7918  0.4022
 8840SOL     OW38152   0.250   0.441  14.201  0.1652  0.0155 -0.0136
 8840SOL    HW138153   0.323   0.437  14.263 -0.2498  1.8695  0.5852
 8840SOL    HW238154   0.286   0.436  14.113 -1.8997  1.9139 -0.9780
 8841SOL     OW38155   0.225   0.424   4.892 -0.0294  0.0841  0.5002
 8841SOL    HW138156   0.175   0.366   4.950 -1.6248  1.3578  0.4047
 8841SOL    HW238157   0.264   0.367   4.826  0.9307  2.7043 -1.2143
 8842SOL     OW38158   0.700   3.091   2.950  0.3614 -0.1339  0.7095
 8842SOL    HW138159   0.605   3.095   2.952  0.4307  2.7124 -1.1888
 8842SOL    HW238160   0.714   3.153   2.878 -2.6594 -0.7472 -0.3784
 8843SOL     OW38161   2.978   2.765   3.625 -0.4461  0.2567 -1.0535
 8843SOL    HW138162   3.011   2.764   3.535 -1.0211  1.8515 -1.2844
 8843SOL    HW238163   2.968   2.671   3.636  0.2226  0.4191  1.0429
 8844SOL     OW38164   3.296   1.807   4.851  0.2954 -0.2230  0.1555
 8844SOL    HW138165   3.217   1.843   4.891  0.5226 -0.5750  0.9322
 8844SOL    HW238166   3.262   1.722   4.825 -1.4885  0.6319 -0.3377
 8845SOL     OW38167   3.960   2.259   2.445  0.4339 -1.1474  0.9044
 8845SOL    HW138168   4.013   2.259   2.365 -0.3580 -0.1796  0.3900
 8845SOL    HW238169   3.972   2.167   2.469 -0.1475 -0.5660  3.4215
 8846SOL     OW38170   0.231   3.325   1.595 -0.3338  0.3401  0.1305
 8846SOL    HW138171   0.284   3.332   1.674 -0.3035  3.7043 -0.1709
 8846SOL    HW238172   0.292   3.371   1.536  0.6820 -1.2343 -0.0402
 8847SOL     OW38173   1.675   0.447   4.695  0.1868 -0.5478  0.1404
 8847SOL    HW138174   1.696   0.485   4.610  1.9051  0.1103  0.8548
 8847SOL    HW238175   1.727   0.509   4.747  1.0064  0.7334 -2.2102
 8848SOL     OW38176   2.406   1.264  13.650 -0.1397 -0.0877  0.3327
 8848SOL    HW138177   2.321   1.230  13.624 -0.7965  0.3971  1.8317
 8848SOL    HW238178   2.435   1.305  13.569 -0.7207 -1.3544 -0.5135
 8849SOL     OW38179   3.155   1.914   7.515 -0.1210 -0.4835 -0.0094
 8849SOL    HW138180   3.063   1.937   7.521  0.1628  0.5977  0.1719
 8849SOL    HW238181   3.190   1.951   7.596 -0.5411  0.6383 -0.3444
 8850SOL     OW38182   2.138   4.098   6.278  0.7913 -0.4923 -0.2945
 8850SOL    HW138183   2.114   4.010   6.309  1.2027 -0.7394 -0.6927
 8850SOL    HW238184   2.090   4.153   6.341  1.5485  0.9575 -0.9932
 8851SOL     OW38185   3.107   3.792  14.491 -0.1472  0.2284 -0.1116
 8851SOL    HW138186   3.138   3.875  14.529 -0.2972 -0.0102  0.5330
 8851SOL    HW238187   3.184   3.772  14.439 -0.3348 -0.5189 -0.1017
 8852SOL     OW38188   2.610   2.425  10.684 -0.4672  0.2075  0.1796
 8852SOL    HW138189   2.687   2.406  10.630  0.0605 -0.8500  1.2965
 8852SOL    HW238190   2.575   2.341  10.714  1.2355 -0.7045 -0.3914
 8853SOL     OW38191   3.110   3.284  10.099 -0.0037  0.0384  0.3924
 8853SOL    HW138192   3.060   3.244  10.027  0.5886 -0.3966  0.2194
 8853SOL    HW238193   3.084   3.376  10.097 -0.3772 -0.0767 -0.0648
 8854SOL     OW38194   2.595   4.161  17.388 -0.0520  0.1138  0.4586
 8854SOL    HW138195   2.541   4.204  17.323 -0.5534  0.4589  1.1014
 8854SOL    HW238196   2.554   4.205  17.463 -2.0704 -0.5340 -0.2714
 8855SOL     OW38197   3.669   3.557  15.453  0.2732  0.0029 -0.6218
 8855SOL    HW138198   3.638   3.630  15.399  0.7757  1.5957  1.2509
 8855SOL    HW238199   3.650   3.586  15.543  0.0330 -0.0115 -0.6662
 8856SOL     OW38200   0.879   3.412  16.142 -0.2580 -0.3414  0.0340
 8856SOL    HW138201   0.833   3.468  16.080  0.6930  0.6880  0.2546
 8856SOL    HW238202   0.927   3.342  16.097 -2.2869 -2.8285  1.7264
 8857SOL     OW38203   4.163   1.310  13.116  0.8437  0.2689 -0.4073
 8857SOL    HW138204   4.220   1.238  13.089  0.9059  0.1626  0.0027
 8857SOL    HW238205   4.139   1.300  13.208 -0.3139 -1.5612 -0.9191
 8858SOL     OW38206   0.918   2.435   5.845  0.2661  0.2050  0.0060
 8858SOL    HW138207   0.828   2.440   5.813 -0.0896 -0.4182  0.9001
 8858SOL    HW238208   0.918   2.500   5.915 -4.5237  0.7848 -0.5582
 8859SOL     OW38209   3.649   1.191  14.741  0.3193 -0.1606 -0.2495
 8859SOL    HW138210   3.608   1.116  14.784 -2.4868  2.1292  1.0169
 8859SOL    HW238211   3.726   1.189  14.798  0.5679 -2.1177 -0.6422
 8860SOL     OW38212   4.447   4.154   5.573 -0.4111 -0.8944  0.1507
 8860SOL    HW138213   4.431   4.108   5.656  0.6508 -1.3770  0.0824
 8860SOL    HW238214   4.430   4.248   5.579  0.2225 -0.7708 -0.0125
 8861SOL     OW38215   2.001   0.811   3.273 -0.0649 -0.0865  0.6559
 8861SOL    HW138216   2.093   0.827   3.295  0.0416 -0.6436  0.6277
 8861SOL    HW238217   1.998   0.717   3.293 -0.9146  0.1920  1.7983
 8862SOL     OW38218   3.608   4.680  10.758 -0.0718  0.5353  0.3838
 8862SOL    HW138219   3.676   4.669  10.692  1.4470 -1.2680  2.2454
 8862SOL    HW238220   3.665   4.721  10.824  2.0333 -2.9325  0.7358
 8863SOL     OW38221   3.819   0.434   9.538 -0.2437  0.4231  0.0078
 8863SOL    HW138222   3.858   0.435   9.451  0.7441  1.2680  0.4664
 8863SOL    HW238223   3.727   0.407   9.530  0.3088 -1.2689 -0.6083
 8864SOL     OW38224   3.256   4.057   0.348 -0.9567  0.2556  0.0227
 8864SOL    HW138225   3.268   3.962   0.343  2.3270  0.6099  1.1769
 8864SOL    HW238226   3.232   4.062   0.441  1.5846 -0.3233  0.7187
 8865SOL     OW38227   2.658   3.946   9.136 -0.0139 -0.0841 -0.5147
 8865SOL    HW138228   2.597   4.017   9.119  1.3655  1.3267  0.3597
 8865SOL    HW238229   2.674   3.902   9.052 -0.9573  2.1235 -1.8298
 8866SOL     OW38230   3.285   1.794  17.127  0.4530  0.1317  0.3337
 8866SOL    HW138231   3.295   1.854  17.201  0.2278  0.9107 -0.2642
 8866SOL    HW238232   3.250   1.712  17.162  0.2948  0.2414  0.4371
 8867SOL     OW38233   2.128   2.608   5.280  0.2403  0.6759 -0.2306
 8867SOL    HW138234   2.099   2.684   5.229  0.7680  1.0860  0.0859
 8867SOL    HW238235   2.144   2.649   5.365  0.3467  0.0727  0.0368
 8868SOL     OW38236   4.177   3.276   8.464 -0.0734 -0.0856  0.1435
 8868SOL    HW138237   4.263   3.253   8.498  0.3141 -0.3583 -0.9959
 8868SOL    HW238238   4.190   3.261   8.370  0.5759  2.0656 -0.1026
 8869SOL     OW38239   2.578   4.664   7.239  0.8987  0.1363 -0.3938
 8869SOL    HW138240   2.499   4.643   7.288  0.3500 -4.3154 -3.2380
 8869SOL    HW238241   2.563   0.019   7.230 -1.3752 -0.1390  0.6238
 8870SOL     OW38242   1.876   3.869   2.549  0.2489 -0.0235  0.1467
 8870SOL    HW138243   1.927   3.949   2.558 -0.1782  0.2847 -0.1240
 8870SOL    HW238244   1.793   3.898   2.509  0.2418 -1.5828 -1.0069
 8871SOL     OW38245   4.010   4.121   1.880  0.1583 -0.2323 -0.1145
 8871SOL    HW138246   4.099   4.156   1.881 -0.8309  2.2714 -0.4486
 8871SOL    HW238247   3.963   4.203   1.892  3.4865  1.6002  0.1015
 8872SOL     OW38248   2.663   0.338  12.707  0.0688 -0.0578  0.1081
 8872SOL    HW138249   2.698   0.249  12.712  2.8208  0.8532 -2.4187
 8872SOL    HW238250   2.596   0.324  12.640 -1.1879 -1.0572  1.5936
 8873SOL     OW38251   0.458   0.443   5.836 -0.2300  0.0147  0.3102
 8873SOL    HW138252   0.540   0.394   5.836 -1.1889 -1.5866  2.0491
 8873SOL    HW238253   0.427   0.407   5.753 -3.4746 -0.8529  1.9062
 8874SOL     OW38254   3.088   1.314   0.136 -0.0327  0.4588  0.2754
 8874SOL    HW138255   3.183   1.310   0.125 -0.1885 -0.3745 -0.7894
 8874SOL    HW238256   3.054   1.309   0.046 -0.3810  1.4484  0.3557
 8875SOL     OW38257   0.278   1.525   8.116  0.3466 -0.3592  0.6425
 8875SOL    HW138258   0.284   1.447   8.060  3.7088  1.7672 -1.9295
 8875SOL    HW238259   0.211   1.578   8.073  0.4229  0.5989  1.7067
 8876SOL     OW38260   3.172   0.107   3.763  0.2065 -0.2196  0.4715
 8876SOL    HW138261   3.221   0.167   3.819 -2.4767  1.1042  1.4115
 8876SOL    HW238262   3.102   0.073   3.819 -0.0710  0.6683  0.6565
 8877SOL     OW38263   3.435   3.901  10.997 -0.2342  0.4941  0.8720
 8877SOL    HW138264   3.471   3.827  10.948  0.0317  1.2447 -0.0860
 8877SOL    HW238265   3.449   3.869  11.086 -1.7693 -1.3066  0.4518
 8878SOL     OW38266   2.459   1.993   5.665  0.0882  0.1571 -0.1976
 8878SOL    HW138267   2.548   2.008   5.633 -1.1742  1.2799 -3.2154
 8878SOL    HW238268   2.443   2.061   5.731 -2.8444 -0.2433 -0.4896
 8879SOL     OW38269   0.136   1.170   6.434  0.1034  0.4108 -0.3308
 8879SOL    HW138270   0.228   1.143   6.431  0.2917  0.8188  1.7286
 8879SOL    HW238271   0.128   1.185   6.529 -1.9487  1.8928 -0.7362
 8880SOL     OW38272   2.260   2.981   7.372 -0.2170  0.0433 -0.3035
 8880SOL    HW138273   2.202   3.008   7.301 -0.5053  0.3115  0.0283
 8880SOL    HW238274   2.308   3.064   7.380  0.9873 -0.4811 -2.1653
 8881SOL     OW38275   4.460   2.636   9.894  0.5235 -0.0104  0.4504
 8881SOL    HW138276   4.518   2.605   9.824  0.0266  2.9923 -1.2744
 8881SOL    HW238277   4.466   2.731   9.897  1.1611 -0.0711  1.3561
 8882SOL     OW38278   0.661   0.743   2.815 -0.5629  0.4570 -0.0093
 8882SOL    HW138279   0.617   0.703   2.891  0.7335 -3.4650 -1.3371
 8882SOL    HW238280   0.704   0.664   2.783  2.2478  1.5936  0.9563
 8883SOL     OW38281   0.560   0.669  13.198  0.1147  0.4730  0.4121
 8883SOL    HW138282   0.581   0.576  13.206 -0.5468  0.1163 -1.8245
 8883SOL    HW238283   0.609   0.688  13.118  0.5532 -1.5132  0.2017
 8884SOL     OW38284   2.787   0.210   9.546  0.0686  0.3631 -0.0663
 8884SOL    HW138285   2.863   0.232   9.492  0.4814  2.5715  1.4161
 8884SOL    HW238286   2.731   0.168   9.481 -0.6667  0.4541  0.5203
 8885SOL     OW38287   1.561   4.370   7.027 -0.1464  0.1840 -0.4274
 8885SOL    HW138288   1.537   4.300   7.088  2.8310 -1.2917 -0.9322
 8885SOL    HW238289   1.483   4.370   6.972 -0.6411  1.2468  0.2744
 8886SOL     OW38290   0.851   2.408  10.803  0.3661  0.2639  0.2301
 8886SOL    HW138291   0.944   2.386  10.792 -0.0456 -0.8556 -1.0278
 8886SOL    HW238292   0.816   2.319  10.816  1.5890 -0.4817 -1.5090
 8887SOL     OW38293   0.062   1.987   7.004  0.0720  0.3807 -0.4669
 8887SOL    HW138294   0.116   2.054   7.045  1.0765 -0.8826  0.2916
 8887SOL    HW238295   0.057   2.005   6.910  1.3749 -0.0267 -0.6103
 8888SOL     OW38296   0.380   4.082   8.040 -0.2842  0.3309  0.3176
 8888SOL    HW138297   0.294   4.052   8.011 -0.6553  1.5381  0.1869
 8888SOL    HW238298   0.418   3.994   8.037  0.6142  0.6628  2.5154
 8889SOL     OW38299   2.555   1.861   7.684  0.4225  0.2214  0.4232
 8889SOL    HW138300   2.471   1.848   7.728  0.4163 -2.0454 -0.2396
 8889SOL    HW238301   2.608   1.910   7.747  0.7690  1.1539 -0.6046
 8890SOL     OW38302   3.908   4.547  12.424  0.1503  0.2291 -0.2864
 8890SOL    HW138303   3.949   4.463  12.403  1.6883  0.9182 -0.0472
 8890SOL    HW238304   3.977   4.592  12.473 -0.5786  1.9196 -0.8121
 8891SOL     OW38305   1.305   1.566   5.900  0.5666 -0.0623  0.0903
 8891SOL    HW138306   1.389   1.575   5.855  0.3042 -3.4749 -1.0539
 8891SOL    HW238307   1.279   1.658   5.900  1.6498  0.2491  0.5250
 8892SOL     OW38308   1.071   0.044   9.230 -0.3756 -0.0676 -0.6023
 8892SOL    HW138309   1.025   4.710   9.271 -0.9818 -0.2299 -1.5717
 8892SOL    HW238310   1.044   0.123   9.277 -1.7404 -0.8107 -0.1214
 8893SOL     OW38311   2.283   4.623   5.497 -0.3012  0.1904  0.0463
 8893SOL    HW138312   2.330   4.599   5.577  2.8824  0.0708 -1.8530
 8893SOL    HW238313   2.193   4.640   5.525 -0.4983 -4.1407  2.1249
 8894SOL     OW38314   1.620   2.236   8.692  0.3198  0.3326  0.1705
 8894SOL    HW138315   1.542   2.275   8.731 -1.0264  1.2492 -3.4723
 8894SOL    HW238316   1.592   2.228   8.601  3.9522 -0.2643 -0.8924
 8895SOL     OW38317   3.423   1.454   9.474  0.1149 -0.4508  0.4458
 8895SOL    HW138318   3.514   1.439   9.500  0.3001 -0.5312 -0.2491
 8895SOL    HW238319   3.405   1.365   9.445 -0.5068 -0.6414  1.4439
 8896SOL     OW38320   3.971   1.569   7.271  0.8306 -0.7434 -0.5186
 8896SOL    HW138321   3.984   1.638   7.205  0.9431  0.6171  0.9139
 8896SOL    HW238322   3.925   1.510   7.211 -0.8102 -1.6841  1.6882
 8897SOL     OW38323   2.201   2.905  16.852  0.2130 -0.2258  1.0963
 8897SOL    HW138324   2.183   2.838  16.919 -0.1072 -0.0314  1.2024
 8897SOL    HW238325   2.114   2.912  16.813  0.9904 -1.8626 -0.9317
 8898SOL     OW38326   3.311   2.594   3.265 -0.3377 -0.2221  0.1513
 8898SOL    HW138327   3.275   2.609   3.177  0.8633  0.1620 -0.2663
 8898SOL    HW238328   3.397   2.557   3.245 -0.1448  1.2583 -1.7140
 8899SOL     OW38329   2.238   1.854   2.563  0.1406  0.2270 -0.1470
 8899SOL    HW138330   2.285   1.790   2.617  2.2104  1.8250 -0.0466
 8899SOL    HW238331   2.271   1.935   2.601  0.4713  0.6772 -1.4054
 8900SOL     OW38332   0.523   2.768   7.745  0.0073  0.5063 -0.2620
 8900SOL    HW138333   0.508   2.813   7.828  2.1903  1.8263 -0.5789
 8900SOL    HW238334   0.547   2.678   7.767 -2.1672 -0.1486 -0.5366
 8901SOL     OW38335   0.665   0.779   6.049  0.5650  0.5433  0.3323
 8901SOL    HW138336   0.735   0.721   6.078 -0.6971 -2.2375 -2.1815
 8901SOL    HW238337   0.617   0.777   6.132 -0.7304 -1.6931 -0.4936
 8902SOL     OW38338   0.363   0.841  11.675 -0.2394 -0.3233 -0.1273
 8902SOL    HW138339   0.391   0.873  11.761 -0.3752  2.4036 -1.1061
 8902SOL    HW238340   0.276   0.803  11.690 -0.1803 -0.2836  0.3155
 8903SOL     OW38341   1.150   3.997   2.998  0.5956  0.5603  0.0413
 8903SOL    HW138342   1.235   3.987   3.041 -0.4773  0.8849  2.2714
 8903SOL    HW238343   1.119   4.072   3.048 -0.4761  0.6544 -0.7778
 8904SOL     OW38344   2.728   3.717   5.351  0.1282  0.6776  0.0608
 8904SOL    HW138345   2.678   3.796   5.370  2.2251  1.6200  1.6541
 8904SOL    HW238346   2.759   3.696   5.440 -1.5342 -1.4797  0.1317
 8905SOL     OW38347   2.366   4.664   6.942 -0.2134  0.1484  0.0027
 8905SOL    HW138348   2.290   4.628   6.896 -0.5610  0.0522  0.6525
 8905SOL    HW238349   2.419   4.701   6.872  0.1705  1.3351  0.9287
 8906SOL     OW38350   2.832   3.523   0.668  0.3184 -0.0314  0.0796
 8906SOL    HW138351   2.884   3.582   0.723  0.8416  0.1447 -0.5915
 8906SOL    HW238352   2.743   3.553   0.687  1.1793  0.3038  3.6107
 8907SOL     OW38353   3.639   1.240   3.467  0.2650  0.0853 -0.8175
 8907SOL    HW138354   3.659   1.164   3.522 -1.6100 -0.4720 -0.9171
 8907SOL    HW238355   3.565   1.205   3.418 -1.0030  2.8041 -0.8167
 8908SOL     OW38356   1.929   2.559   1.929 -0.2210 -0.7435  0.2022
 8908SOL    HW138357   2.017   2.589   1.954 -2.2520  3.1652  2.6474
 8908SOL    HW238358   1.909   2.506   2.006 -3.0537  2.2300  1.5155
 8909SOL     OW38359   3.169   0.494   3.777  0.4372 -0.1059  0.1191
 8909SOL    HW138360   3.222   0.427   3.734 -0.0412 -0.5535  0.2281
 8909SOL    HW238361   3.175   0.465   3.868 -0.4905  1.5607  0.7158
 8910SOL     OW38362   2.678   3.574   1.588 -0.3636  0.0829  0.6211
 8910SOL    HW138363   2.734   3.571   1.665 -0.3188  2.0091  0.6520
 8910SOL    HW238364   2.601   3.626   1.612  0.3220  1.7505 -0.8440
 8911SOL     OW38365   0.587   1.949   0.916  0.0710  0.4813  0.1808
 8911SOL    HW138366   0.513   1.945   0.855 -0.3373  0.1937  0.6953
 8911SOL    HW238367   0.600   1.855   0.916 -1.1931  0.3021 -2.7874
 8912SOL     OW38368   1.413   2.106   0.604  0.1645 -0.8885 -0.4933
 8912SOL    HW138369   1.381   2.193   0.626 -0.0637 -0.1170 -3.9742
 8912SOL    HW238370   1.363   2.073   0.530  0.1161 -0.2116 -0.7574
 8913SOL     OW38371   2.685   3.178  12.686  0.3860  0.1660  0.3474
 8913SOL    HW138372   2.750   3.116  12.654 -1.0488 -1.0668 -0.1644
 8913SOL    HW238373   2.610   3.162  12.630  1.9160 -1.8270 -1.1131
 8914SOL     OW38374   0.997   1.134   3.216  0.1655  0.1153  0.1799
 8914SOL    HW138375   0.950   1.217   3.225  0.0423  0.2683 -1.7484
 8914SOL    HW238376   0.969   1.086   3.294  0.7734 -1.0412 -0.3067
 8915SOL     OW38377   3.858   2.273   2.879  0.1366 -0.3136  0.4519
 8915SOL    HW138378   3.815   2.226   2.950  0.9849  1.2215  1.9788
 8915SOL    HW238379   3.826   2.214   2.811 -1.3859  0.6881  0.3035
 8916SOL     OW38380   1.113   0.626   2.045  0.0817 -1.0135  0.5160
 8916SOL    HW138381   1.108   0.646   2.138  2.1287 -1.3169  0.7018
 8916SOL    HW238382   1.208   0.616   2.032  0.0145  0.3316 -1.0195
 8917SOL     OW38383   2.115   0.666  12.148 -0.1158  0.0646  0.4631
 8917SOL    HW138384   2.038   0.636  12.196  0.0369 -0.2521  0.5058
 8917SOL    HW238385   2.185   0.626  12.199  0.7562 -0.0629 -0.8388
 8918SOL     OW38386   3.015   2.844  12.047 -0.1383 -0.3499  0.8435
 8918SOL    HW138387   2.945   2.857  11.982  1.7217 -1.2658 -1.3252
 8918SOL    HW238388   2.966   2.814  12.123 -0.3360 -2.5550 -0.1712
 8919SOL     OW38389   1.572   1.014  15.659 -0.4695  0.6285  0.3975
 8919SOL    HW138390   1.664   1.034  15.676  0.3714 -1.7076 -1.4051
 8919SOL    HW238391   1.570   0.982  15.569  0.9303  1.5024  0.0608
 8920SOL     OW38392   1.446   4.677  13.617 -0.2119  0.0411  0.0148
 8920SOL    HW138393   1.393   4.598  13.606 -1.2708  0.8521 -0.7065
 8920SOL    HW238394   1.515   4.649  13.677 -0.3872 -2.1736 -0.8007
 8921SOL     OW38395   3.159   0.040   2.604 -0.0549 -0.0014 -0.4716
 8921SOL    HW138396   3.080   0.092   2.616 -0.7660 -1.1764  0.0231
 8921SOL    HW238397   3.215   0.104   2.562 -0.0829  2.4823  3.2949
 8922SOL     OW38398   3.851   2.407  15.869 -0.1363  0.3217  0.2651
 8922SOL    HW138399   3.787   2.476  15.853  1.5905  2.2980  1.7927
 8922SOL    HW238400   3.909   2.422  15.795 -2.1325  0.1054 -1.3431
 8923SOL     OW38401   4.192   2.448  10.905  0.2524 -0.4523 -0.2835
 8923SOL    HW138402   4.280   2.429  10.937 -0.4061 -0.9719  1.2322
 8923SOL    HW238403   4.136   2.390  10.955  1.8880 -0.9756  0.9305
 8924SOL     OW38404   1.921   0.846   4.856 -0.7321  0.0531  0.1278
 8924SOL    HW138405   1.940   0.934   4.889 -0.0291  0.6696 -1.9354
 8924SOL    HW238406   1.842   0.825   4.905  0.3208  1.0332  2.2514
 8925SOL     OW38407   0.662   0.578   6.449 -0.4726 -0.0144  0.2947
 8925SOL    HW138408   0.747   0.535   6.454 -0.4033  0.0482 -0.2865
 8925SOL    HW238409   0.604   0.534   6.511  0.3292 -1.5467 -0.0197
 8926SOL     OW38410   2.688   3.335  15.605  0.3530 -0.3036 -0.0336
 8926SOL    HW138411   2.758   3.398  15.587 -0.0013 -0.4425 -1.9389
 8926SOL    HW238412   2.736   3.256  15.581 -1.8398 -2.1070  1.4670
 8927SOL     OW38413   2.007   0.938  15.204  0.4042 -0.4694  0.1919
 8927SOL    HW138414   1.954   0.859  15.208 -0.7015  0.1491 -2.1969
 8927SOL    HW238415   2.007   0.958  15.110  4.3550  0.6280  0.4204
 8928SOL     OW38416   0.295   0.741   3.016  0.3780  0.2012  0.1610
 8928SOL    HW138417   0.208   0.762   3.049 -0.3653  2.1082 -2.9532
 8928SOL    HW238418   0.352   0.774   3.086 -0.2417  1.3074  0.1469
 8929SOL     OW38419   1.961   2.845   0.490 -0.5172  0.5014  0.4366
 8929SOL    HW138420   2.022   2.785   0.449 -1.2004  0.8897 -1.1225
 8929SOL    HW238421   2.023   2.897   0.542 -0.3509  1.7601 -1.0253
 8930SOL     OW38422   0.000   4.000   8.817 -0.7874 -0.7502 -0.2621
 8930SOL    HW138423   0.076   4.010   8.759 -0.4521 -1.1919  0.0989
 8930SOL    HW238424   4.669   4.018   8.755 -0.8391 -1.9161 -0.5573
 8931SOL     OW38425   1.807   3.085   4.860  0.1773  0.5334 -0.5997
 8931SOL    HW138426   1.761   3.002   4.846 -0.7089  1.0051 -0.5328
 8931SOL    HW238427   1.785   3.119   4.947  3.4386  0.2910  0.2824
 8932SOL     OW38428   2.124   0.456   4.751  0.5108 -0.3041  0.2484
 8932SOL    HW138429   2.197   0.433   4.809 -1.6443  1.2276  3.5479
 8932SOL    HW238430   2.140   0.396   4.678  1.1240  1.0468 -0.7315
 8933SOL     OW38431   1.953   1.959   2.353  0.6041 -0.0123 -0.4628
 8933SOL    HW138432   1.977   1.911   2.432 -2.3061  1.0708  1.0667
 8933SOL    HW238433   1.861   1.980   2.367  0.6500 -0.3365  0.3159
 8934SOL     OW38434   0.741   0.143   8.755 -0.4362  0.4282 -0.5752
 8934SOL    HW138435   0.779   0.223   8.718 -0.3155  0.8062  0.3796
 8934SOL    HW238436   0.789   0.134   8.837 -2.2628 -0.9777  0.3310
 8935SOL     OW38437   1.039   1.215   7.354 -0.4459 -0.5191 -0.3862
 8935SOL    HW138438   1.042   1.289   7.294  1.0033 -1.1349 -1.0861
 8935SOL    HW238439   0.950   1.222   7.387 -0.0183  1.6232  0.3135
 8936SOL     OW38440   0.083   2.253   5.441 -0.2632  0.4967 -0.4197
 8936SOL    HW138441   0.089   2.259   5.536 -0.9053 -1.3154 -0.2579
 8936SOL    HW238442   0.085   2.339   5.400  1.2382 -0.1885 -1.7623
 8937SOL     OW38443   1.590   0.203  12.571 -0.0865 -0.2574 -0.7179
 8937SOL    HW138444   1.638   0.281  12.541  0.9466  0.2431  2.2245
 8937SOL    HW238445   1.496   0.213  12.559 -0.3410 -2.6371 -0.6277
 8938SOL     OW38446   4.175   1.762   5.717  0.5120  0.6825  0.3690
 8938SOL    HW138447   4.239   1.719   5.773 -0.9824 -1.0392  0.7714
 8938SOL    HW238448   4.233   1.805   5.654 -0.8895  1.4127 -0.4492
 8939SOL     OW38449   2.081   3.223  16.473  0.5054 -0.2729  0.2275
 8939SOL    HW138450   2.025   3.213  16.549 -1.2374 -3.1062 -1.4272
 8939SOL    HW238451   2.157   3.271  16.506 -1.0136  0.7848  2.1497
 8940SOL     OW38452   3.935   4.479   9.319  0.1373  0.1466  0.1127
 8940SOL    HW138453   3.880   4.557   9.326 -0.2874 -0.1720  0.3999
 8940SOL    HW238454   4.020   4.520   9.336 -0.2637  0.2592  1.8255
 8941SOL     OW38455   2.641   1.415   3.518  0.1582 -0.0197 -1.1098
 8941SOL    HW138456   2.698   1.339   3.522  0.3545  0.1558 -0.6561
 8941SOL    HW238457   2.560   1.380   3.555  0.6840 -1.0997 -0.9839
 8942SOL     OW38458   1.514   0.402  10.266 -0.5639  0.2550 -0.0995
 8942SOL    HW138459   1.526   0.455  10.187 -0.6752  0.6054  0.1230
 8942SOL    HW238460   1.501   0.463  10.338 -0.7069 -1.0598  0.9929
 8943SOL     OW38461   2.399   2.503   2.128 -0.6410 -0.1088  0.0937
 8943SOL    HW138462   2.480   2.458   2.105  0.5724  1.2359  1.7943
 8943SOL    HW238463   2.336   2.432   2.144 -0.6165  0.1550  1.3774
 8944SOL     OW38464   3.733   4.548   2.296  0.4273  0.2204  0.1563
 8944SOL    HW138465   3.778   4.573   2.377  1.8364  0.2174 -0.6279
 8944SOL    HW238466   3.682   4.470   2.320  0.3797 -0.0498 -0.8240
 8945SOL     OW38467   1.770   4.249   1.395  0.2076  0.1087  0.2477
 8945SOL    HW138468   1.799   4.316   1.457  2.1595 -1.8158  1.3837
 8945SOL    HW238469   1.761   4.173   1.452 -0.7074 -1.7208 -2.3503
 8946SOL     OW38470   3.824   4.257   8.184 -0.1180 -0.7124  0.0247
 8946SOL    HW138471   3.861   4.284   8.100  1.0044 -1.0770  0.3894
 8946SOL    HW238472   3.901   4.213   8.220 -0.1335  0.6713  1.7283
 8947SOL     OW38473   2.844   4.025  17.225 -0.1722 -0.2255 -0.3231
 8947SOL    HW138474   2.773   4.032  17.161  0.7233  0.3331 -1.2487
 8947SOL    HW238475   2.894   3.947  17.198  0.7473  0.2513 -0.0001
 8948SOL     OW38476   1.794   2.064   6.683 -0.0151 -0.5184 -1.0451
 8948SOL    HW138477   1.743   2.006   6.628  1.5148 -0.8115 -2.1432
 8948SOL    HW238478   1.829   1.993   6.736  1.3556  2.5749  2.1709
 8949SOL     OW38479   3.102   1.444   6.942 -0.5299  0.0880 -0.0337
 8949SOL    HW138480   3.096   1.360   6.988 -1.1658 -0.0945 -0.4325
 8949SOL    HW238481   3.018   1.449   6.895  1.7451  0.7501 -4.0838
 8950SOL     OW38482   1.600   0.567   5.695 -0.2135 -0.2877 -0.2525
 8950SOL    HW138483   1.628   0.656   5.674 -0.4458 -0.3473 -0.8088
 8950SOL    HW238484   1.666   0.520   5.643 -0.5122 -0.5435 -0.3981
 8951SOL     OW38485   3.217   4.033   5.436  0.1062 -0.1298 -0.0527
 8951SOL    HW138486   3.194   3.999   5.350  0.1923 -3.0907  1.0796
 8951SOL    HW238487   3.301   4.070   5.408  1.5108 -2.6151  0.8189
 8952SOL     OW38488   0.818   1.167   2.241  0.5310  0.0045 -0.0217
 8952SOL    HW138489   0.815   1.071   2.250 -0.9674  0.0456 -0.1551
 8952SOL    HW238490   0.810   1.202   2.329 -2.6401 -1.3645  0.2398
 8953SOL     OW38491   0.335   3.226  14.732 -0.3512  0.7771  0.4941
 8953SOL    HW138492   0.309   3.315  14.709  1.0388  0.9326 -0.5032
 8953SOL    HW238493   0.323   3.190  14.644 -3.3686 -1.6755  1.9407
 8954SOL     OW38494   2.667   2.946   6.238  0.3827 -0.2544  0.1437
 8954SOL    HW138495   2.599   2.977   6.298 -0.7583 -0.8995 -0.8205
 8954SOL    HW238496   2.749   2.993   6.256 -0.1295  0.1220  1.4587
 8955SOL     OW38497   2.153   1.579   8.208  0.3254  0.8036 -0.1315
 8955SOL    HW138498   2.162   1.512   8.276  1.3062  2.6907  1.5739
 8955SOL    HW238499   2.125   1.645   8.271 -1.5755  0.5530 -0.6963
 8956SOL     OW38500   0.704   4.179   1.867  0.2195 -0.2485 -0.1320
 8956SOL    HW138501   0.674   4.148   1.782  0.8917 -0.5867 -0.2538
 8956SOL    HW238502   0.697   4.273   1.849  4.3940  0.1789  0.4425
 8957SOL     OW38503   3.200   4.012   5.966  0.0302  0.3592  0.0207
 8957SOL    HW138504   3.235   3.925   5.986  0.8245  0.8706  0.8675
 8957SOL    HW238505   3.287   4.051   5.959  0.3961 -0.8027 -1.8785
 8958SOL     OW38506   0.105   0.176  14.969 -0.2373 -0.3629 -0.1617
 8958SOL    HW138507   0.175   0.194  14.906 -0.9711 -1.4622 -1.2912
 8958SOL    HW238508   0.137   0.105  15.025  0.3289  1.2425  1.5590
 8959SOL     OW38509   2.573   0.139   4.714  0.1301  0.2344 -0.8867
 8959SOL    HW138510   2.495   0.088   4.734  0.5204  0.8515  2.1190
 8959SOL    HW238511   2.591   0.183   4.797 -1.8381 -1.9669  0.7182
 8960SOL     OW38512   2.598   3.996  15.033 -0.3008 -0.0523 -0.1548
 8960SOL    HW138513   2.627   4.029  14.948 -0.1054 -2.6192 -1.0558
 8960SOL    HW238514   2.605   4.080  15.080  1.2480 -0.5626  0.5382
 8961SOL     OW38515   1.813   1.598   6.657 -0.2273 -0.3672  0.1478
 8961SOL    HW138516   1.867   1.551   6.720 -0.9813  2.1279  2.6519
 8961SOL    HW238517   1.730   1.554   6.672 -0.2003 -0.8927 -1.1857
 8962SOL     OW38518   2.726   2.936  10.312  0.0498 -0.2576 -0.0915
 8962SOL    HW138519   2.684   3.012  10.353 -1.3392 -1.2793  0.3934
 8962SOL    HW238520   2.814   2.970  10.297  0.7511 -2.1388 -0.2373
 8963SOL     OW38521   3.468   4.137   5.320 -0.0027 -0.4915  0.1389
 8963SOL    HW138522   3.430   4.150   5.233  2.9075  2.2922 -0.6798
 8963SOL    HW238523   3.555   4.106   5.295 -0.4189  0.7927 -2.8541
 8964SOL     OW38524   0.045   1.991   5.138  0.2007  0.0911 -0.0937
 8964SOL    HW138525   0.125   1.939   5.127  0.5377  0.2851  1.5035
 8964SOL    HW238526   0.086   2.065   5.094 -1.1080  1.1145  0.3902
 8965SOL     OW38527   4.586   0.247   7.275  0.2699 -0.1854  0.3149
 8965SOL    HW138528   4.538   0.188   7.334 -2.0275  0.0784 -1.2821
 8965SOL    HW238529   4.674   0.237   7.311  1.3706  2.6670 -1.5833
 8966SOL     OW38530   1.947   1.198   4.733  0.8330  0.1711 -0.3462
 8966SOL    HW138531   2.023   1.250   4.707  0.7819 -0.6512 -2.1637
 8966SOL    HW238532   1.984   1.111   4.718 -2.2068 -1.3114  0.6957
 8967SOL     OW38533   1.988   0.774   1.554 -0.3376 -0.2137 -0.1496
 8967SOL    HW138534   1.904   0.806   1.522 -0.0233  0.5029 -0.2662
 8967SOL    HW238535   2.046   0.848   1.534  0.6182 -1.1666 -0.8511
 8968SOL     OW38536   2.338   1.928  16.485 -0.2557 -0.3617  0.1684
 8968SOL    HW138537   2.341   1.985  16.561  0.3329  0.5340 -0.5263
 8968SOL    HW238538   2.245   1.907  16.476 -0.6471  1.2676  0.5977
 8969SOL     OW38539   3.557   1.994   6.462  1.0017  1.0114  0.4406
 8969SOL    HW138540   3.478   1.996   6.516  0.5415 -0.8463 -0.1433
 8969SOL    HW238541   3.580   2.084   6.482 -0.0655  1.5112 -0.6105
 8970SOL     OW38542   3.266   0.606   7.299  0.1716  0.3703 -0.7467
 8970SOL    HW138543   3.234   0.534   7.353  0.8632 -0.2877 -1.2156
 8970SOL    HW238544   3.319   0.663   7.354  0.3548  0.8150 -1.3730
 8971SOL     OW38545   4.438   2.078   9.943  0.5931  0.0721  0.1181
 8971SOL    HW138546   4.343   2.082   9.938  0.6443 -0.2530 -1.0976
 8971SOL    HW238547   4.449   1.987   9.915 -3.5700  0.7859 -3.7264
 8972SOL     OW38548   1.534   2.655   5.981  0.2568 -0.2496  0.2151
 8972SOL    HW138549   1.616   2.695   5.952  0.0150  1.9658  2.6158
 8972SOL    HW238550   1.486   2.638   5.900  0.6721 -0.9493  0.1185
 8973SOL     OW38551   3.094   1.851   2.396  0.5289  0.5964  0.1491
 8973SOL    HW138552   3.070   1.822   2.308  0.8468 -1.3271  0.7018
 8973SOL    HW238553   3.178   1.809   2.412 -0.2281 -0.6273  0.8151
 8974SOL     OW38554   2.196   3.821   7.035 -0.3817 -0.2452 -0.2952
 8974SOL    HW138555   2.251   3.894   7.063  0.3375 -0.9817  0.2142
 8974SOL    HW238556   2.110   3.857   7.060 -0.7497 -1.1635 -0.2448
 8975SOL     OW38557   3.463   0.724   7.963  0.3997  0.0357 -0.0436
 8975SOL    HW138558   3.492   0.762   8.046  0.5588 -1.6027  0.6474
 8975SOL    HW238559   3.388   0.673   7.993  0.2023  0.1098 -0.4250
 8976SOL     OW38560   4.192   2.148   8.615 -0.1097  0.0226 -0.1637
 8976SOL    HW138561   4.150   2.165   8.531 -2.1508 -1.7654  0.5022
 8976SOL    HW238562   4.267   2.208   8.612  0.4026 -0.4551  2.6385
 8977SOL     OW38563   2.882   1.453   6.770  0.4079  0.0253 -0.2685
 8977SOL    HW138564   2.898   1.399   6.692  1.4598  0.9206 -0.6706
 8977SOL    HW238565   2.789   1.477   6.765 -0.1470 -1.9336  0.4102
 8978SOL     OW38566   0.031   3.871   6.868 -0.6348 -0.0335  0.3783
 8978SOL    HW138567   4.719   3.950   6.848  0.3918  0.4967 -0.2036
 8978SOL    HW238568   0.056   3.843   6.780 -1.4297 -0.4253  0.2763
 8979SOL     OW38569   4.720   0.483   8.727  0.2506  0.5696  0.1525
 8979SOL    HW138570   4.719   0.566   8.681 -0.8941  1.2487  1.4003
 8979SOL    HW238571   4.690   0.507   8.815  1.0552  0.5975  0.4153
 8980SOL     OW38572   0.981   0.957  15.146 -0.1949 -0.0486  0.3420
 8980SOL    HW138573   0.941   0.880  15.106  0.9690  0.2132 -1.2969
 8980SOL    HW238574   0.953   0.948  15.237 -0.3274  0.6912  0.3764
 8981SOL     OW38575   0.372   1.787   8.208  0.1316 -0.4895 -0.0349
 8981SOL    HW138576   0.335   1.700   8.193 -1.1432 -0.0627  0.6654
 8981SOL    HW238577   0.411   1.777   8.295 -1.2719 -2.5452  0.3585
 8982SOL     OW38578   2.021   3.554   7.989 -0.2798 -0.5890  0.1957
 8982SOL    HW138579   2.052   3.467   8.015  2.7765 -0.3501 -2.5819
 8982SOL    HW238580   1.981   3.586   8.069 -0.1176 -0.8065  0.3665
 8983SOL     OW38581   0.379   4.553   2.814 -0.4331 -0.0847 -0.7692
 8983SOL    HW138582   0.355   4.473   2.862  0.4476 -0.0971 -0.3460
 8983SOL    HW238583   0.306   4.599   2.772 -0.0637  0.4470 -0.8127
 8984SOL     OW38584   1.756   2.428  12.651  0.5575  0.0029  0.3531
 8984SOL    HW138585   1.784   2.485  12.580 -0.0650  2.5850  2.1920
 8984SOL    HW238586   1.721   2.500  12.703  1.5309  0.7483 -0.0478
 8985SOL     OW38587   1.821   0.156   5.238  0.3284  0.2639 -0.0400
 8985SOL    HW138588   1.816   0.137   5.332 -0.6171 -1.4002 -0.4322
 8985SOL    HW238589   1.910   0.190   5.247  0.2786  1.6661 -4.8212
 8986SOL     OW38590   2.381   4.520   5.727  0.0063  0.3833  0.0111
 8986SOL    HW138591   2.400   4.441   5.677  1.3974 -0.1186  1.3243
 8986SOL    HW238592   2.438   4.506   5.803  1.0605 -1.4354 -1.1218
 8987SOL     OW38593   3.405   1.086  10.713 -0.2142 -0.0021 -0.2076
 8987SOL    HW138594   3.365   1.023  10.653  0.6452 -1.0479  0.3297
 8987SOL    HW238595   3.487   1.043  10.736 -2.0559 -1.4750  3.5707
 8988SOL     OW38596   4.072   3.425   6.369 -0.3071 -0.0336 -0.3007
 8988SOL    HW138597   4.154   3.389   6.403 -2.0805 -1.0151  2.8618
 8988SOL    HW238598   4.046   3.469   6.450 -1.4338 -1.6132  0.1760
 8989SOL     OW38599   0.529   0.178   6.474  0.0944 -0.3320 -0.0819
 8989SOL    HW138600   0.615   0.149   6.504 -0.9999 -1.0306  2.3887
 8989SOL    HW238601   0.530   0.271   6.497 -2.1859 -0.6775  1.4393
 8990SOL     OW38602   2.286   3.767   8.117  0.6325  0.5082 -0.2200
 8990SOL    HW138603   2.253   3.827   8.184  0.6443 -0.4214  0.6228
 8990SOL    HW238604   2.329   3.710   8.181  0.9236  0.5574 -0.3739
 8991SOL     OW38605   0.043   3.383  13.139 -0.4942  0.0050 -1.1023
 8991SOL    HW138606   4.688   3.386  13.125 -0.9450 -1.8932  1.5132
 8991SOL    HW238607   0.048   3.360  13.232  0.2096  0.7538 -0.9630
 8992SOL     OW38608   3.782   1.269   8.023  0.3977 -0.1559 -0.7487
 8992SOL    HW138609   3.716   1.205   7.999  0.9472  0.1630 -3.1289
 8992SOL    HW238610   3.861   1.224   7.994  0.5466  1.3474 -2.7277
 8993SOL     OW38611   2.553   1.754   1.004  0.1829 -0.8320 -0.2937
 8993SOL    HW138612   2.585   1.672   0.966 -1.2531 -1.7910  0.5467
 8993SOL    HW238613   2.484   1.732   1.067  0.3678 -0.5018  0.0198
 8994SOL     OW38614   3.384   0.099   9.137  0.4743  0.0221 -0.8979
 8994SOL    HW138615   3.347   0.018   9.174  0.6331 -0.0507 -0.8988
 8994SOL    HW238616   3.318   0.143   9.083  1.3759  0.2042 -1.8425
 8995SOL     OW38617   2.186   2.389   7.034  0.3084 -0.0637  0.2668
 8995SOL    HW138618   2.260   2.439   7.001 -1.7115  1.0765 -2.5335
 8995SOL    HW238619   2.153   2.457   7.093 -3.3845  0.6820 -2.6418
 8996SOL     OW38620   1.900   1.540   9.024 -0.3028 -0.5131  0.5764
 8996SOL    HW138621   1.864   1.582   8.947  0.3879 -1.7813 -0.4452
 8996SOL    HW238622   1.993   1.562   9.021 -0.6642  0.5154 -2.8201
 8997SOL     OW38623   3.991   0.164  14.649 -0.2038 -0.0053 -0.6640
 8997SOL    HW138624   3.904   0.149  14.686 -0.7711  1.0204 -1.5751
 8997SOL    HW238625   4.032   0.212  14.721 -0.1280 -1.3396  0.1745
 8998SOL     OW38626   0.402   1.096   0.843  0.0760 -0.1223 -0.6262
 8998SOL    HW138627   0.339   1.138   0.901  0.9395  0.2122  0.0748
 8998SOL    HW238628   0.341   1.035   0.803  1.8828 -0.9926 -2.0718
 8999SOL     OW38629   2.482   1.273   9.975  0.5904  0.3229 -0.3535
 8999SOL    HW138630   2.516   1.344  10.030  0.7850 -1.2025  1.5190
 8999SOL    HW238631   2.498   1.199  10.034 -1.4043 -1.1136 -1.5898
 9000SOL     OW38632   3.510   2.164   3.266 -0.0035  0.8454  0.0245
 9000SOL    HW138633   3.448   2.180   3.337  0.4209  0.8435  0.4004
 9000SOL    HW238634   3.450   2.116   3.210  1.0999 -1.5089  0.8509
 9001SOL     OW38635   0.291   0.952   5.856  0.6114  0.4373  0.2663
 9001SOL    HW138636   0.211   0.931   5.905  2.0534 -3.1241  1.0562
 9001SOL    HW238637   0.337   0.877   5.892 -1.6223 -1.1167 -0.0955
 9002SOL     OW38638   4.691   4.162  16.722  0.2928  0.1038  0.0546
 9002SOL    HW138639   4.644   4.196  16.646 -2.2555 -0.2276  1.4820
 9002SOL    HW238640   4.620   4.153  16.785 -1.2261  0.3910 -1.6428
 9003SOL     OW38641   0.828   2.858   7.142  0.7727  0.2108  0.2081
 9003SOL    HW138642   0.859   2.946   7.163  0.0979  0.7420 -1.0212
 9003SOL    HW238643   0.769   2.827   7.211 -1.7621 -0.6943 -2.3516
 9004SOL     OW38644   1.669   2.329   7.256 -1.1240 -0.3014  0.0135
 9004SOL    HW138645   1.750   2.334   7.206 -1.6251 -0.6673 -0.8422
 9004SOL    HW238646   1.663   2.237   7.281  2.1921 -0.7548 -0.8646
 9005SOL     OW38647   4.151   4.373   3.620  0.1120 -0.3147 -0.9216
 9005SOL    HW138648   4.188   4.357   3.707 -2.7556 -1.8456  0.0179
 9005SOL    HW238649   4.060   4.347   3.635  0.3098 -1.0247 -0.9778
 9006SOL     OW38650   2.739   4.188   6.104 -0.2654  0.2489 -0.0920
 9006SOL    HW138651   2.719   4.132   6.179  1.3876  0.1447  0.2558
 9006SOL    HW238652   2.675   4.151   6.043 -0.1044 -0.0006 -0.1060
 9007SOL     OW38653   3.296   2.019   7.733 -0.4740  0.1372  0.4685
 9007SOL    HW138654   3.278   2.007   7.826  1.3680  1.0818  0.9509
 9007SOL    HW238655   3.273   2.111   7.721 -2.0784 -0.2327  0.7487
 9008SOL     OW38656   3.431   0.040  17.087  0.3869 -0.2677  0.3304
 9008SOL    HW138657   3.410   0.007  17.175  0.4268  0.6400  0.6786
 9008SOL    HW238658   3.514   0.001  17.061  0.2261 -0.1698 -0.3123
 9009SOL     OW38659   4.124   3.334   1.380 -0.2648  0.5335 -0.3047
 9009SOL    HW138660   4.209   3.353   1.340 -0.8118 -0.9186 -2.1438
 9009SOL    HW238661   4.146   3.258   1.434 -0.6074 -0.1800 -1.1715
 9010SOL     OW38662   3.774   3.108  12.735 -0.2617 -0.1810  0.8366
 9010SOL    HW138663   3.867   3.109  12.760  0.4283  2.1377 -1.8061
 9010SOL    HW238664   3.739   3.061  12.810 -0.6508  0.5663  1.1179
 9011SOL     OW38665   1.272   4.320   5.997  0.2264 -0.0826 -0.4534
 9011SOL    HW138666   1.254   4.327   5.903  0.3481 -2.0199 -0.6241
 9011SOL    HW238667   1.224   4.239   6.013 -2.4766  1.7167  0.4446
 9012SOL     OW38668   3.918   2.975   1.906 -0.5930  0.5416 -0.0324
 9012SOL    HW138669   3.959   3.005   1.825  0.0423  0.1054  0.1331
 9012SOL    HW238670   3.929   2.880   1.911  0.0157  0.6888  1.3532
 9013SOL     OW38671   1.102   2.413   2.517  0.2939  0.1882  0.6805
 9013SOL    HW138672   1.116   2.501   2.484  0.2967  0.7761  2.2369
 9013SOL    HW238673   1.013   2.421   2.483 -0.3892 -0.3941  2.3256
 9014SOL     OW38674   1.685   0.852  12.333  0.0328 -0.1443 -0.4727
 9014SOL    HW138675   1.605   0.896  12.362  0.5281  0.8546 -0.6321
 9014SOL    HW238676   1.746   0.915  12.372  1.5138 -0.2140 -2.6680
 9015SOL     OW38677   0.893   4.178   7.418 -0.7694 -0.1560 -0.0184
 9015SOL    HW138678   0.813   4.153   7.462 -0.1909  1.7997  2.1554
 9015SOL    HW238679   0.937   4.225   7.489 -0.1473  1.1217 -1.2507
 9016SOL     OW38680   0.732   4.633   9.943  0.2509  0.1614 -0.1742
 9016SOL    HW138681   0.734   4.607   9.851 -0.5141  0.4105 -0.2690
 9016SOL    HW238682   0.636   4.627   9.949  0.3006 -0.9338 -0.5131
 9017SOL     OW38683   3.056   1.539   8.224  0.2902  0.1976  0.0563
 9017SOL    HW138684   3.009   1.563   8.144 -0.0265 -1.8216 -0.3451
 9017SOL    HW238685   3.108   1.465   8.192  0.7753  1.1354 -1.3404
 9018SOL     OW38686   1.968   0.861  10.852  0.2637 -0.2661 -0.2884
 9018SOL    HW138687   1.948   0.841  10.760 -1.1576  0.4208 -0.1299
 9018SOL    HW238688   2.062   0.843  10.853  0.1451 -0.8684 -0.1228
 9019SOL     OW38689   0.862   0.170   2.871 -0.7717  0.5463 -0.2236
 9019SOL    HW138690   0.772   0.187   2.845 -0.8760 -0.8184 -0.7803
 9019SOL    HW238691   0.866   0.145   2.963  0.5418  2.6808  0.2998
 9020SOL     OW38692   4.370   3.355  10.839 -0.0157  0.3233 -0.0563
 9020SOL    HW138693   4.438   3.403  10.793  0.1982  1.3403  1.3228
 9020SOL    HW238694   4.298   3.418  10.831 -0.0864 -0.1956 -3.2291
 9021SOL     OW38695   0.651   4.519   2.755 -0.1169 -0.3177 -0.0202
 9021SOL    HW138696   0.561   4.540   2.778 -0.3469 -0.8821 -0.4089
 9021SOL    HW238697   0.665   4.533   2.662  1.3591  2.0773  0.5819
 9022SOL     OW38698   4.559   3.382   4.876  0.3387  0.3734 -0.4525
 9022SOL    HW138699   4.512   3.393   4.959 -0.5594 -0.5711 -0.8308
 9022SOL    HW238700   4.544   3.468   4.835 -1.9838 -0.3619 -1.1467
 9023SOL     OW38701   2.109   1.496  11.538 -0.0931  0.1851 -0.3998
 9023SOL    HW138702   2.180   1.522  11.479 -0.2613 -0.3788 -0.8470
 9023SOL    HW238703   2.092   1.410  11.501  1.4293  0.2258 -1.1941
 9024SOL     OW38704   1.680   3.165   5.773  0.0679  0.3309 -0.0723
 9024SOL    HW138705   1.707   3.205   5.691  0.1936 -0.0838 -0.2332
 9024SOL    HW238706   1.735   3.210   5.837  0.7261 -0.6991  0.0810
 9025SOL     OW38707   2.036   0.083   3.767 -0.2132  0.0401  0.0115
 9025SOL    HW138708   2.053   4.733   3.796 -3.4701  0.1216  2.1676
 9025SOL    HW238709   1.945   0.084   3.736  0.8601  2.1713 -3.0254
 9026SOL     OW38710   2.850   3.400   4.021 -0.3009 -0.3158  0.1796
 9026SOL    HW138711   2.862   3.317   3.974 -2.0642 -0.0692 -0.7134
 9026SOL    HW238712   2.769   3.389   4.069 -0.8229  0.0363 -0.6141
 9027SOL     OW38713   3.833   0.672  10.341 -0.1262  0.2087  0.4237
 9027SOL    HW138714   3.879   0.616  10.403  0.0678 -0.6627 -0.5051
 9027SOL    HW238715   3.848   0.622  10.261  0.4998 -0.7864  1.1686
 9028SOL     OW38716   2.889   2.921  11.310 -0.7709 -0.2683 -0.5267
 9028SOL    HW138717   2.826   2.966  11.255 -0.7689  0.5234  0.1261
 9028SOL    HW238718   2.883   2.966  11.394 -0.3626  2.2572 -1.8407
 9029SOL     OW38719   0.180   0.524   9.769 -0.0650  0.2470  0.1248
 9029SOL    HW138720   0.122   0.600   9.777  0.0102  0.2901  0.2602
 9029SOL    HW238721   0.133   0.491   9.693 -0.6756  1.4825 -0.0519
 9030SOL     OW38722   2.831   0.847   4.583  0.2336  0.5376  0.4555
 9030SOL    HW138723   2.756   0.872   4.529 -0.0949  0.3324  0.8214
 9030SOL    HW238724   2.784   0.823   4.662 -0.2866  2.0910  0.6235
 9031SOL     OW38725   1.139   1.265   2.417 -0.0785  0.5478 -0.8309
 9031SOL    HW138726   1.152   1.175   2.447 -3.0270  0.9294  1.5751
 9031SOL    HW238727   1.069   1.285   2.480 -1.0741 -1.0092 -1.4604
 9032SOL     OW38728   1.823   1.900   9.041  0.6641 -0.0222  0.6622
 9032SOL    HW138729   1.792   1.914   8.951 -1.0854 -1.5102  1.0320
 9032SOL    HW238730   1.818   1.805   9.046 -1.8546  0.0968  0.5800
 9033SOL     OW38731   4.596   3.056  12.798 -0.0361  0.4806 -0.1976
 9033SOL    HW138732   4.646   3.007  12.733 -1.4361 -1.7973  0.4351
 9033SOL    HW238733   4.663   3.115  12.832 -0.3726  0.9338 -0.3388
 9034SOL     OW38734   0.747   2.325   7.054 -0.0786  0.1090 -0.2649
 9034SOL    HW138735   0.785   2.309   7.140 -0.6794 -3.7290 -0.7073
 9034SOL    HW238736   0.826   2.327   7.000 -0.3443 -3.5884 -0.7726
 9035SOL     OW38737   2.493   0.524   9.680 -0.3460  0.7865 -0.1521
 9035SOL    HW138738   2.488   0.498   9.588 -0.6463  1.0721 -0.2150
 9035SOL    HW238739   2.417   0.476   9.714 -0.6555  0.6034 -1.0820
 9036SOL     OW38740   2.747   0.198   5.283 -0.0663 -0.1917  0.0436
 9036SOL    HW138741   2.817   0.257   5.257 -1.2480  0.6842 -1.1351
 9036SOL    HW238742   2.675   0.222   5.225  1.0716 -0.0493 -1.2980
 9037SOL     OW38743   4.699   0.391   6.477 -0.2197 -0.0816  0.3187
 9037SOL    HW138744   4.736   0.362   6.394  0.4017  0.0086  0.5637
 9037SOL    HW238745   0.033   0.370   6.535 -1.4546  0.0666  1.9262
 9038SOL     OW38746   3.582   0.011   7.889 -0.2151  0.0257 -0.0312
 9038SOL    HW138747   3.583   0.029   7.983  1.2661  2.1148 -0.4452
 9038SOL    HW238748   3.509   4.688   7.889  0.6714 -1.0115 -1.2677
 9039SOL     OW38749   3.385   1.466   8.510 -0.1354  0.0767 -0.0636
 9039SOL    HW138750   3.369   1.528   8.581 -0.8188  3.1464 -2.9128
 9039SOL    HW238751   3.317   1.400   8.526  0.0386  0.2616  1.4350
 9040SOL     OW38752   3.088   4.589  14.363  0.6249  0.3727 -0.0702
 9040SOL    HW138753   3.107   4.542  14.282 -1.9074 -0.2365 -0.3179
 9040SOL    HW238754   3.065   4.674  14.326  0.0846  0.3676  0.2465
 9041SOL     OW38755   0.376   3.547   5.501  0.2646  0.1736 -0.0627
 9041SOL    HW138756   0.287   3.518   5.480  0.5725 -0.1353 -0.9475
 9041SOL    HW238757   0.366   3.593   5.584 -1.1274 -0.4627  0.1241
 9042SOL     OW38758   0.668   2.307   4.623  0.0592 -0.2749 -0.5014
 9042SOL    HW138759   0.631   2.359   4.552 -0.6781 -0.3359 -0.1688
 9042SOL    HW238760   0.612   2.230   4.630  2.0858 -1.9152 -2.3865
 9043SOL     OW38761   2.501   4.329  10.044  0.5389 -0.6093  0.1166
 9043SOL    HW138762   2.435   4.331  10.114 -1.0041  0.1018 -1.3597
 9043SOL    HW238763   2.584   4.352  10.085  0.1444 -1.1452  1.2213
 9044SOL     OW38764   3.750   0.919  10.460 -0.0781  0.2161 -0.1465
 9044SOL    HW138765   3.668   0.909  10.411 -1.1868 -0.3899  1.8264
 9044SOL    HW238766   3.803   0.853  10.416  1.1677  0.6749  0.6727
 9045SOL     OW38767   1.669   2.550   0.308  0.7135 -0.1179  0.0806
 9045SOL    HW138768   1.612   2.475   0.325  0.2266  0.1211 -0.5429
 9045SOL    HW238769   1.644   2.563   0.217  1.5305 -0.4472 -0.1938
 9046SOL     OW38770   1.313   3.577   3.688  0.1170  0.2185 -0.1059
 9046SOL    HW138771   1.400   3.609   3.712 -0.3876 -0.7658  2.9205
 9046SOL    HW238772   1.328   3.540   3.601  1.9133  0.6621  0.0120
 9047SOL     OW38773   3.640   3.785   5.400  0.5726  0.0280  0.2292
 9047SOL    HW138774   3.726   3.822   5.385  1.0284 -0.9386  0.4361
 9047SOL    HW238775   3.615   3.842   5.473  2.4261 -0.7925  1.4948
 9048SOL     OW38776   2.903   2.771   1.541 -0.4107 -0.0646 -0.1146
 9048SOL    HW138777   2.987   2.788   1.583 -0.5775  1.3238 -0.3523
 9048SOL    HW238778   2.894   2.854   1.494  1.6860 -0.1107 -0.5866
 9049SOL     OW38779   2.339   0.414  14.460 -0.1543  0.3485 -0.0430
 9049SOL    HW138780   2.328   0.320  14.446  1.5489 -0.1012  1.5917
 9049SOL    HW238781   2.246   0.438  14.463 -0.2766  0.1697 -2.7532
 9050SOL     OW38782   4.630   2.238   8.567  0.4684  0.4657  0.1030
 9050SOL    HW138783   4.713   2.242   8.519 -0.5353  1.7921 -1.5454
 9050SOL    HW238784   4.577   2.190   8.504  0.6820  1.5232 -0.8892
 9051SOL     OW38785   1.625   0.380   3.618 -0.0699  0.0650  0.2389
 9051SOL    HW138786   1.545   0.335   3.643 -0.2951  1.7068  2.5017
 9051SOL    HW238787   1.586   0.435   3.550  0.1981 -0.1416 -0.0760
 9052SOL     OW38788   2.302   3.650   6.287  0.0615  0.3848 -0.3078
 9052SOL    HW138789   2.396   3.641   6.305 -0.1150  1.3891  1.1352
 9052SOL    HW238790   2.275   3.715   6.352 -3.2448 -0.6276 -0.6657
 9053SOL     OW38791   1.802   1.259   3.783  0.0759 -0.0735 -0.3515
 9053SOL    HW138792   1.761   1.204   3.850 -0.6359  0.2347 -0.5257
 9053SOL    HW238793   1.772   1.213   3.704 -1.5523 -1.0280  0.8225
 9054SOL     OW38794   2.724   2.319   9.796 -0.7954  0.0280  0.4021
 9054SOL    HW138795   2.694   2.237   9.758  0.5062  1.9044 -4.6741
 9054SOL    HW238796   2.819   2.311   9.796 -0.8535 -0.6375  0.7907
 9055SOL     OW38797   1.633   4.656  10.824 -0.7580 -0.8234 -0.1948
 9055SOL    HW138798   1.705   4.715  10.845 -1.3131 -0.2490  0.0791
 9055SOL    HW238799   1.670   4.617  10.745  0.6906 -0.2905  0.2245
 9056SOL     OW38800   0.357   2.104   6.370  0.2159  0.5593 -0.0369
 9056SOL    HW138801   0.399   2.189   6.380  1.3846  0.1671 -1.6093
 9056SOL    HW238802   0.345   2.065   6.456 -0.9056 -1.3462 -1.0452
 9057SOL     OW38803   1.774   1.832  16.495 -0.3824 -0.1878  0.5395
 9057SOL    HW138804   1.801   1.924  16.502 -0.4714  0.0395 -2.4432
 9057SOL    HW238805   1.692   1.840  16.447 -0.5973 -0.5306  0.8496
 9058SOL     OW38806   0.536   4.380  11.764 -0.1730 -0.0698  0.2973
 9058SOL    HW138807   0.517   4.296  11.806 -1.6610 -0.1818 -0.6189
 9058SOL    HW238808   0.447   4.415  11.768  0.4002  1.4082  0.0543
 9059SOL     OW38809   1.475   0.498   4.319 -0.6743  0.0759  0.4171
 9059SOL    HW138810   1.381   0.484   4.332 -0.4933 -0.8208  0.7595
 9059SOL    HW238811   1.489   0.563   4.388 -1.1780  0.0599  0.5369
 9060SOL     OW38812   3.567   1.221  17.333  0.4046 -0.2306  0.1428
 9060SOL    HW138813   3.648   1.259  17.367  1.0059 -3.8352  2.6404
 9060SOL    HW238814   3.546   1.150  17.394  0.5562 -0.2247  0.2032
 9061SOL     OW38815   2.674   2.095   9.693  0.0213 -0.2273  0.4348
 9061SOL    HW138816   2.684   2.100   9.598 -0.6987  2.7853  0.5292
 9061SOL    HW238817   2.747   2.039   9.720  1.6361  2.1202  0.9435
 9062SOL     OW38818   1.333   3.050  17.723  0.1959 -0.5325  1.1402
 9062SOL    HW138819   1.276   3.079  17.652  0.8986  1.1877  1.2783
 9062SOL    HW238820   1.413   3.035  17.672 -0.6372  0.9094 -0.5637
 9063SOL     OW38821   1.852   2.585   6.664 -0.6191  0.6938 -0.4621
 9063SOL    HW138822   1.831   2.493   6.651 -1.0776  0.7069  0.1605
 9063SOL    HW238823   1.808   2.611   6.583 -3.5005 -1.6819  0.3550
 9064SOL     OW38824   2.826   4.497  12.745  0.3902 -0.2397 -0.0426
 9064SOL    HW138825   2.824   4.433  12.816  1.3687 -2.0348 -1.6450
 9064SOL    HW238826   2.871   4.572  12.785 -0.0962  0.3030 -0.5065
 9065SOL     OW38827   3.131   4.562  17.284 -0.4053  0.0958 -0.3937
 9065SOL    HW138828   3.056   4.571  17.225  0.8270 -0.3916 -2.0244
 9065SOL    HW238829   3.098   4.575  17.373 -1.1787  1.7989 -0.9306
 9066SOL     OW38830   2.993   4.142   8.906 -0.4057  0.4335 -0.0170
 9066SOL    HW138831   2.957   4.165   8.991 -0.8367 -1.4664  0.3221
 9066SOL    HW238832   2.930   4.073   8.883 -1.4925  0.2150  3.6656
 9067SOL     OW38833   1.241   0.799   3.740  0.5869 -0.7384  0.2457
 9067SOL    HW138834   1.178   0.827   3.806  0.2353 -1.2156  0.1037
 9067SOL    HW238835   1.286   0.727   3.783  1.4816  1.0252  2.2907
 9068SOL     OW38836   3.506   3.389  16.851 -0.0805 -0.2478  0.0149
 9068SOL    HW138837   3.572   3.455  16.828 -1.9084  1.0438 -1.5571
 9068SOL    HW238838   3.478   3.356  16.765  0.9537  1.2419 -0.9091
 9069SOL     OW38839   4.091   2.554   8.495 -0.0974 -0.4036  0.6296
 9069SOL    HW138840   4.021   2.494   8.467  1.7806 -3.0770  1.6988
 9069SOL    HW238841   4.089   2.536   8.589  0.8649 -0.6888  0.5932
 9070SOL     OW38842   3.189   2.211  15.062 -0.0629  0.6277 -0.4345
 9070SOL    HW138843   3.160   2.249  15.145 -2.8580  1.0052 -1.5691
 9070SOL    HW238844   3.111   2.184  15.014  0.7237 -3.2420  0.4982
 9071SOL     OW38845   1.554   1.014   7.590  0.5517 -0.9349 -0.5649
 9071SOL    HW138846   1.565   0.966   7.508 -1.4493 -1.7291 -0.3517
 9071SOL    HW238847   1.466   0.980   7.606 -0.0343  0.5512 -0.6373
 9072SOL     OW38848   3.922   3.279   8.523 -0.0099 -0.0400 -0.2413
 9072SOL    HW138849   3.934   3.265   8.617 -3.8368 -0.0112  0.2634
 9072SOL    HW238850   4.012   3.262   8.494  0.4687  0.1935  1.1072
 9073SOL     OW38851   0.723   1.776   5.418  0.6373  0.0974  0.0476
 9073SOL    HW138852   0.805   1.807   5.457  1.2928 -1.7074  0.0927
 9073SOL    HW238853   0.667   1.756   5.493 -0.2233  2.8885  0.1397
 9074SOL     OW38854   0.730   1.191   8.156 -0.4435 -0.1932  0.2366
 9074SOL    HW138855   0.819   1.202   8.188 -0.9527  0.6267  1.3531
 9074SOL    HW238856   0.739   1.184   8.061 -0.5745  1.3188  0.1197
 9075SOL     OW38857   0.910   1.857   3.565  0.3661 -0.2854 -0.3443
 9075SOL    HW138858   0.833   1.807   3.589  0.2643 -0.2173 -0.5273
 9075SOL    HW238859   0.875   1.922   3.504 -1.1622 -0.5035  0.3043
 9076SOL     OW38860   3.823   4.396  15.604 -0.0731 -0.2572  0.5388
 9076SOL    HW138861   3.863   4.320  15.645 -0.0023 -1.3111 -1.4802
 9076SOL    HW238862   3.827   4.463  15.672  0.4754 -1.2216  1.4437
 9077SOL     OW38863   2.094   3.271  16.080 -0.5386 -0.5773 -0.0780
 9077SOL    HW138864   2.045   3.350  16.105 -1.3135 -0.6816 -1.2495
 9077SOL    HW238865   2.122   3.279  15.989  0.7987  0.9399  0.4636
 9078SOL     OW38866   1.110   4.461   9.186 -0.2144  0.4013  0.9689
 9078SOL    HW138867   1.051   4.534   9.201 -0.8326  0.3915 -1.5451
 9078SOL    HW238868   1.096   4.412   9.267 -0.0730  0.4833  1.0440
 9079SOL     OW38869   0.475   2.498   0.360  0.0622  0.0028  0.0466
 9079SOL    HW138870   0.494   2.574   0.304 -0.4023  1.9310  2.4893
 9079SOL    HW238871   0.564   2.467   0.376  0.2072 -0.4579 -1.6238
 9080SOL     OW38872   0.896   2.561   3.657 -0.5452 -0.4432 -0.2408
 9080SOL    HW138873   0.935   2.487   3.703  0.2236  1.4558  2.1910
 9080SOL    HW238874   0.967   2.622   3.636 -0.1893 -0.6195  0.4622
 9081SOL     OW38875   4.125   4.494   8.544 -0.3614  0.1376 -0.1064
 9081SOL    HW138876   4.085   4.545   8.615 -1.0463  0.8011 -0.9617
 9081SOL    HW238877   4.074   4.413   8.550 -0.7665  0.3360 -0.8540
 9082SOL     OW38878   4.485   2.181  12.395 -0.5665  0.3177  0.7856
 9082SOL    HW138879   4.559   2.216  12.445  0.2062 -1.5472  0.9481
 9082SOL    HW238880   4.514   2.097  12.360  1.6887  1.3417  0.1656
 9083SOL     OW38881   1.398   3.726  11.226  0.1317  0.1473 -0.2967
 9083SOL    HW138882   1.452   3.803  11.248  0.1198 -0.3010  1.3087
 9083SOL    HW238883   1.311   3.748  11.258  0.8674  1.4673  0.8326
 9084SOL     OW38884   3.643   0.799  11.533 -0.2300  0.2645  0.0997
 9084SOL    HW138885   3.700   0.870  11.501  0.4830 -1.3046 -2.0883
 9084SOL    HW238886   3.571   0.855  11.562 -0.0128  1.7153 -2.1380
 9085SOL     OW38887   1.202   0.892   7.705 -0.3276 -0.3807 -0.4286
 9085SOL    HW138888   1.221   0.945   7.628 -1.7551  0.6963 -0.0414
 9085SOL    HW238889   1.130   0.834   7.682  0.5596 -1.6780  0.0206
 9086SOL     OW38890   4.230   0.780   5.067  0.0592 -0.6711 -0.0143
 9086SOL    HW138891   4.242   0.861   5.117  1.4945 -0.2718 -0.9952
 9086SOL    HW238892   4.196   0.817   4.985  0.0164 -1.6577 -0.4453
 9087SOL     OW38893   3.348   1.271   7.940 -0.1003 -0.0923 -0.6160
 9087SOL    HW138894   3.392   1.300   8.019 -1.0863  0.7575 -0.3987
 9087SOL    HW238895   3.354   1.175   7.941 -1.6653 -0.1457  2.3541
 9088SOL     OW38896   1.471   0.361   2.118  0.4148  0.3755 -0.4032
 9088SOL    HW138897   1.442   0.314   2.197  2.1487 -0.7593 -0.4451
 9088SOL    HW238898   1.536   0.424   2.148 -1.1689  1.0282  1.6609
 9089SOL     OW38899   1.554   1.272   5.458 -0.5705  0.0324  0.1865
 9089SOL    HW138900   1.471   1.290   5.502 -0.2881  2.5604 -0.3506
 9089SOL    HW238901   1.608   1.235   5.528 -2.1159 -2.5812  0.0006
 9090SOL     OW38902   3.677   1.439   9.538  0.0505 -0.1750  0.3329
 9090SOL    HW138903   3.765   1.440   9.500 -0.4318  1.9505 -0.7058
 9090SOL    HW238904   3.695   1.478   9.624 -1.8989  1.4336  0.0119
 9091SOL     OW38905   1.504   3.278   8.118  0.4169 -0.2914  0.1978
 9091SOL    HW138906   1.505   3.215   8.190  0.6802  1.9243  2.1439
 9091SOL    HW238907   1.482   3.353   8.174  1.9377  0.3849 -0.1046
 9092SOL     OW38908   0.926   1.714   7.140  0.4115 -0.0304 -0.0622
 9092SOL    HW138909   0.838   1.688   7.167  0.0411  1.5089  0.2290
 9092SOL    HW238910   0.970   1.712   7.225 -2.3135  3.4966  1.4336
 9093SOL     OW38911   3.587   2.888   4.087 -0.4161  0.1146 -0.3717
 9093SOL    HW138912   3.540   2.824   4.033 -0.5102  0.0133 -0.1698
 9093SOL    HW238913   3.611   2.961   4.029  0.9172 -2.5183 -3.1236
 9094SOL     OW38914   3.107   1.138   7.801 -0.3723 -0.3410  0.3973
 9094SOL    HW138915   3.197   1.166   7.787 -0.1413 -2.4375 -2.3587
 9094SOL    HW238916   3.062   1.194   7.738  1.1493 -0.4035 -0.7504
 9095SOL     OW38917   0.633   2.738   8.966 -0.0518  0.2615  0.7539
 9095SOL    HW138918   0.538   2.732   8.974 -0.0480  0.3697  0.8926
 9095SOL    HW238919   0.656   2.651   8.934 -0.8159 -0.5720  2.4936
 9096SOL     OW38920   2.516   2.297  14.864 -0.3493 -0.0684 -0.5410
 9096SOL    HW138921   2.499   2.220  14.810 -1.7652  0.3517 -0.7042
 9096SOL    HW238922   2.529   2.252  14.948 -2.1993  0.7085  0.1724
 9097SOL     OW38923   2.174   0.125  12.020  0.6177  0.1382  0.1087
 9097SOL    HW138924   2.110   0.070  11.975 -0.2934  0.0149  1.5596
 9097SOL    HW238925   2.243   0.058  12.023  0.5748  0.0189 -1.4436
 9098SOL     OW38926   2.402   2.192   8.106  0.1036 -0.2882 -0.8935
 9098SOL    HW138927   2.489   2.228   8.122 -0.5168  0.7654  0.0631
 9098SOL    HW238928   2.376   2.184   8.198  0.5670  2.4437 -0.5178
 9099SOL     OW38929   0.053   3.852  15.972  0.8461 -0.1785  0.0291
 9099SOL    HW138930   0.081   3.793  16.043  1.7720  0.9541  0.6071
 9099SOL    HW238931   4.728   3.795  15.930  4.9251 -4.3213 -0.6297
 9100SOL     OW38932   4.500   3.842   4.034 -0.2618 -0.1724 -1.2173
 9100SOL    HW138933   4.450   3.881   3.962 -0.2311  0.4993 -0.8765
 9100SOL    HW238934   4.435   3.797   4.088  0.3133  0.2544 -0.1824
 9101SOL     OW38935   3.721   2.059   2.418 -0.0945  0.3241  0.7620
 9101SOL    HW138936   3.792   1.997   2.400 -0.9356  0.2934 -2.5760
 9101SOL    HW238937   3.731   2.120   2.345  1.4512  0.3690  1.0169
 9102SOL     OW38938   3.668   3.895   3.327 -0.5362 -0.5031  0.2078
 9102SOL    HW138939   3.642   3.812   3.367 -2.1121  0.0707  0.3554
 9102SOL    HW238940   3.584   3.935   3.305 -0.7246 -1.2645 -0.4527
 9103SOL     OW38941   2.723   4.396   4.165  0.3997  0.1135  0.0795
 9103SOL    HW138942   2.714   4.320   4.108  1.0578  2.3758 -3.0542
 9103SOL    HW238943   2.642   4.441   4.140 -0.1393  0.6858  2.8352
 9104SOL     OW38944   2.119   0.345   0.971 -0.0481  0.8141 -0.1091
 9104SOL    HW138945   2.071   0.275   0.926 -1.0886  0.1916  1.9941
 9104SOL    HW238946   2.103   0.319   1.061  1.5647 -2.1249 -0.6638
 9105SOL     OW38947   1.641   1.153   8.902  0.6213  0.1848  0.0791
 9105SOL    HW138948   1.693   1.073   8.912  1.4133  0.5700 -0.9775
 9105SOL    HW238949   1.707   1.216   8.871  0.2239  0.7272  0.3275
 9106SOL     OW38950   4.083   0.192   7.734 -0.1900  0.1398 -0.8996
 9106SOL    HW138951   4.001   0.239   7.717  0.3641  1.4019 -0.1687
 9106SOL    HW238952   4.082   0.140   7.654  2.1570  0.4201 -1.1013
 9107SOL     OW38953   0.923   4.581   9.310 -0.3660  0.0909  0.1183
 9107SOL    HW138954   0.916   4.608   9.401 -0.9486 -2.1685  0.7406
 9107SOL    HW238955   0.859   4.510   9.318  0.0751 -0.1250  1.7869
 9108SOL     OW38956   2.602   4.457  12.568 -0.6561  0.1502  0.4251
 9108SOL    HW138957   2.553   4.524  12.616  1.6519  0.7431  1.9433
 9108SOL    HW238958   2.689   4.473  12.603 -1.1192  0.9401  1.1998
 9109SOL     OW38959   4.557   2.553   3.465  0.0207 -0.7661 -0.4271
 9109SOL    HW138960   4.488   2.600   3.417 -0.0450 -0.6037 -0.1748
 9109SOL    HW238961   4.633   2.601   3.433 -0.6492  0.9094  0.4542
 9110SOL     OW38962   1.481   3.230   9.428  0.1666 -0.8238  0.1206
 9110SOL    HW138963   1.495   3.157   9.368  3.0275 -1.2780  1.3365
 9110SOL    HW238964   1.546   3.289   9.391  0.9724 -0.5253  1.9939
 9111SOL     OW38965   3.417   3.529   1.495  0.0438  0.3749 -0.1243
 9111SOL    HW138966   3.379   3.556   1.411  0.4837 -1.0037 -0.7595
 9111SOL    HW238967   3.429   3.436   1.478 -0.3857  0.0400  1.4387
 9112SOL     OW38968   4.514   0.128   4.350 -0.1291  0.3976 -0.7327
 9112SOL    HW138969   4.585   0.064   4.340  0.4634  0.9862 -0.2769
 9112SOL    HW238970   4.455   0.109   4.277  1.3564 -3.8382 -0.8620
 9113SOL     OW38971   3.670   0.550   5.755  0.3167 -0.7082 -0.0930
 9113SOL    HW138972   3.680   0.456   5.768 -1.4522 -0.6052  2.1129
 9113SOL    HW238973   3.709   0.552   5.668  0.3856 -1.3902 -0.0709
 9114SOL     OW38974   1.382   1.655  13.715  0.0694  0.2454 -0.4142
 9114SOL    HW138975   1.465   1.618  13.745 -0.1888  1.2586  1.5838
 9114SOL    HW238976   1.350   1.569  13.686 -0.3270  0.6116 -1.0428
 9115SOL     OW38977   0.473   0.724   7.074 -0.4668 -0.8509 -0.0909
 9115SOL    HW138978   0.497   0.801   7.021 -2.2865  1.2142  2.1044
 9115SOL    HW238979   0.488   0.763   7.160  0.2374 -1.5664  0.1157
 9116SOL     OW38980   3.580   1.059  16.488  0.1534 -0.4371  0.0565
 9116SOL    HW138981   3.550   1.019  16.570 -0.6760 -0.5973 -0.3162
 9116SOL    HW238982   3.511   1.038  16.424  0.8690  2.2145 -1.5989
 9117SOL     OW38983   3.911   1.158  10.539 -0.0944 -0.1899  0.3800
 9117SOL    HW138984   3.981   1.222  10.537 -1.2870  1.0441 -1.7954
 9117SOL    HW238985   3.964   1.082  10.563 -1.8035 -1.3450  0.5082
 9118SOL     OW38986   2.703   0.456   7.712  0.5466  0.3401  0.1731
 9118SOL    HW138987   2.751   0.524   7.664 -0.0721  0.3179 -0.4865
 9118SOL    HW238988   2.708   0.478   7.805 -0.5542 -1.1795  0.5815
 9119SOL     OW38989   0.992   2.558   0.906 -0.0530  0.0270 -0.3191
 9119SOL    HW138990   0.970   2.466   0.916 -3.5658  0.9323  0.5066
 9119SOL    HW238991   1.082   2.562   0.939 -0.1064 -1.0125 -0.0522
 9120SOL     OW38992   0.400   1.426   9.396  0.1847 -0.1514  0.6237
 9120SOL    HW138993   0.414   1.515   9.364  0.0619 -0.3894 -0.0759
 9120SOL    HW238994   0.488   1.416   9.433 -0.2151  0.5156  1.7769
 9121SOL     OW38995   3.789   3.339  10.028  0.1106 -0.2310 -0.0027
 9121SOL    HW138996   3.731   3.302  10.095  1.1593 -0.7781  0.5980
 9121SOL    HW238997   3.732   3.315   9.954 -1.2048  0.5351  0.7432
 9122SOL     OW38998   0.104   2.784   9.589  0.4905 -0.3831  0.1116
 9122SOL    HW138999   0.062   2.726   9.653 -1.2478  0.4209 -0.2843
 9122SOL    HW239000   0.195   2.761   9.604  0.5357  0.2450  0.7961
 9123SOL     OW39001   2.628   3.672  10.706 -0.0410  0.2630  0.1182
 9123SOL    HW139002   2.654   3.639  10.620  0.9246 -1.5430  1.1019
 9123SOL    HW239003   2.623   3.765  10.683 -0.8515  0.1329 -0.2258
 9124SOL     OW39004   1.247   1.537   8.187  0.1019  0.1176 -0.5676
 9124SOL    HW139005   1.169   1.510   8.138  0.4666 -0.3087 -0.9194
 9124SOL    HW239006   1.299   1.458   8.172  0.7309  0.5753 -0.8258
 9125SOL     OW39007   2.449   0.560   7.830 -0.5526 -0.3195 -0.4770
 9125SOL    HW139008   2.468   0.469   7.810  0.7004  0.3893 -2.5198
 9125SOL    HW239009   2.468   0.591   7.742  1.9399  2.1380  0.8962
 9126SOL     OW39010   4.275   3.905   9.127 -0.0001 -0.1222  0.5030
 9126SOL    HW139011   4.312   3.988   9.156 -0.3137 -0.5546  2.1199
 9126SOL    HW239012   4.183   3.924   9.107 -0.1111 -0.5570  0.6059
 9127SOL     OW39013   0.080   4.615   5.650 -0.3822 -0.3507  0.1273
 9127SOL    HW139014   0.129   4.671   5.710 -3.3636  2.7034 -0.2848
 9127SOL    HW239015   0.146   4.554   5.616  0.8246  1.4431 -0.7605
 9128SOL     OW39016   4.321   3.010   6.803 -0.5733  0.4555 -0.1559
 9128SOL    HW139017   4.365   3.019   6.718  0.6019  2.2260  0.6238
 9128SOL    HW239018   4.396   3.022   6.862 -0.1681 -1.2484 -0.3221
 9129SOL     OW39019   3.881   1.198   9.568 -0.0467  0.4436  0.2074
 9129SOL    HW139020   3.836   1.204   9.652  1.2471  0.0631  0.9145
 9129SOL    HW239021   3.804   1.164   9.522  0.1716 -1.9099  1.5728
 9130SOL     OW39022   1.737   1.410   4.034  0.1796  0.4423  0.5573
 9130SOL    HW139023   1.734   1.320   4.002 -2.0699  0.7605 -0.1617
 9130SOL    HW239024   1.815   1.410   4.089 -0.9003  3.2300  2.0581
 9131SOL     OW39025   3.484   1.191   1.798  0.7353 -0.0312  0.4166
 9131SOL    HW139026   3.424   1.264   1.785  2.6881  1.4009 -0.4279
 9131SOL    HW239027   3.442   1.147   1.873 -2.0762  0.2573 -0.9953
 9132SOL     OW39028   2.605   4.661  15.696  0.2460 -0.2607 -0.3599
 9132SOL    HW139029   2.559   4.593  15.647  1.4222 -1.7579  0.6213
 9132SOL    HW239030   2.608   4.737  15.637  0.7340 -1.0956 -1.4240
 9133SOL     OW39031   0.349   3.900  16.459 -0.0544 -0.4163 -0.5407
 9133SOL    HW139032   0.291   3.969  16.492 -0.6225 -0.8212 -0.6999
 9133SOL    HW239033   0.304   3.874  16.379 -2.0307 -0.3146  0.5325
 9134SOL     OW39034   4.248   3.702   5.142  0.3400  0.4070  0.4212
 9134SOL    HW139035   4.157   3.685   5.169  0.8728 -1.0410  1.2972
 9134SOL    HW239036   4.290   3.716   5.227  0.2760 -1.9898  0.8368
 9135SOL     OW39037   4.607   2.259   7.941  0.4959  0.6958 -0.1824
 9135SOL    HW139038   4.630   2.205   7.865 -0.0500  1.5314 -0.9435
 9135SOL    HW239039   4.683   2.317   7.942  0.2173  1.0613 -0.3171
 9136SOL     OW39040   3.301   0.577   2.764 -0.0608  0.0406  0.1942
 9136SOL    HW139041   3.252   0.597   2.844  0.9445  0.0074  0.8223
 9136SOL    HW239042   3.243   0.570   2.688  0.8370 -1.8750 -0.3195
 9137SOL     OW39043   0.143   4.278  11.812  0.4094  0.4722 -0.2294
 9137SOL    HW139044   0.078   4.323  11.867 -1.8791 -1.6372 -1.2279
 9137SOL    HW239045   0.107   4.287  11.724 -0.1672  0.5626  0.0169
 9138SOL     OW39046   0.683   1.273   5.196 -0.7634 -0.6197  0.0878
 9138SOL    HW139047   0.753   1.239   5.252 -2.0427  0.3457  2.3060
 9138SOL    HW239048   0.612   1.257   5.259 -0.8795  2.9095  0.8541
 9139SOL     OW39049   0.818   1.558   2.328  0.2949  0.4125  0.0011
 9139SOL    HW139050   0.910   1.550   2.303 -0.1654  0.2854 -1.6897
 9139SOL    HW239051   0.803   1.467   2.355  0.5800  0.3616 -0.0059
 9140SOL     OW39052   1.466   2.941  17.516 -0.0359 -0.5246 -0.5827
 9140SOL    HW139053   1.501   2.855  17.538  0.2307 -0.0109  1.0116
 9140SOL    HW239054   1.428   2.916  17.432  1.4335 -2.0757 -0.7749
 9141SOL     OW39055   4.733   2.623   9.778  0.6040 -0.0071 -0.3136
 9141SOL    HW139056   0.061   2.555   9.787  1.2626  0.6708 -0.1070
 9141SOL    HW239057   0.029   2.691   9.834 -0.4267  0.3064 -0.0491
 9142SOL     OW39058   0.654   3.555   9.574 -0.7089 -0.3551  0.3510
 9142SOL    HW139059   0.689   3.588   9.657 -0.7742  2.4410 -0.7385
 9142SOL    HW239060   0.588   3.623   9.562 -1.1439 -1.0544 -1.2241
 9143SOL     OW39061   4.275   2.934   7.568 -0.2275  0.3983  0.3753
 9143SOL    HW139062   4.328   2.947   7.490 -0.8898 -1.5028 -0.3961
 9143SOL    HW239063   4.331   2.945   7.645 -1.5951 -1.9538  1.7205
 9144SOL     OW39064   3.494   0.349   8.630  0.4810 -0.4541 -0.1381
 9144SOL    HW139065   3.488   0.364   8.724 -0.8492  1.8048 -0.5856
 9144SOL    HW239066   3.588   0.366   8.628  0.5129 -0.5403  0.7587
 9145SOL     OW39067   1.994   3.437   5.186 -0.6890 -0.3142 -0.1231
 9145SOL    HW139068   1.998   3.375   5.258 -1.0599  0.5488  0.6372
 9145SOL    HW239069   2.086   3.461   5.185 -1.0090  0.9178  0.7524
 9146SOL     OW39070   1.025   2.540   2.175  0.0609  0.0546 -0.9753
 9146SOL    HW139071   1.021   2.485   2.253  1.8439  0.7617 -0.3927
 9146SOL    HW239072   0.992   2.480   2.108  0.1908  1.6380 -2.4566
 9147SOL     OW39073   0.839   4.092  13.279  0.0417 -0.1975  0.3632
 9147SOL    HW139074   0.837   4.001  13.251 -0.7272 -0.4158  1.1494
 9147SOL    HW239075   0.777   4.121  13.212 -0.4331  0.3463  1.0476
 9148SOL     OW39076   4.529   3.307  10.245  0.0091  0.1208  0.3560
 9148SOL    HW139077   4.512   3.328  10.153 -3.3207 -0.7497  0.7844
 9148SOL    HW239078   4.456   3.343  10.296 -1.5858 -2.2108 -0.2631
 9149SOL     OW39079   4.008   4.065   0.051 -0.1211 -0.4545  0.5204
 9149SOL    HW139080   4.086   4.098   0.094  0.8336 -1.2126 -0.6523
 9149SOL    HW239081   3.942   4.071   0.120  0.5016 -2.1306  1.2456
 9150SOL     OW39082   0.427   0.177   2.256 -0.1786  0.0256  0.2234
 9150SOL    HW139083   0.346   0.222   2.280 -1.4957 -1.9462 -0.6265
 9150SOL    HW239084   0.396   0.089   2.237  0.2741 -0.1713  0.3922
 9151SOL     OW39085   4.493   0.002   6.938 -0.3609 -0.2497 -0.6040
 9151SOL    HW139086   4.569   4.684   6.951  0.7178  1.7039  1.7644
 9151SOL    HW239087   4.474   4.728   6.846 -0.3691 -0.0894 -0.6249
 9152SOL     OW39088   1.087   3.113   1.790 -0.1008  0.4087  0.2777
 9152SOL    HW139089   1.036   3.054   1.734 -2.5357  1.6280  1.2138
 9152SOL    HW239090   1.025   3.144   1.856 -1.2697  2.3989 -1.7403
 9153SOL     OW39091   0.287   0.623   6.633  0.6556 -0.0174  0.6563
 9153SOL    HW139092   0.316   0.597   6.546 -3.5631 -2.5982  0.0877
 9153SOL    HW239093   0.208   0.571   6.639  0.2329  0.3020 -2.5444
 9154SOL     OW39094   0.829   3.339  13.272  0.3181  0.2698  0.4003
 9154SOL    HW139095   0.817   3.348  13.177  2.4067 -1.4888 -0.0425
 9154SOL    HW239096   0.829   3.431  13.296 -0.0100  0.2583  0.4491
 9155SOL     OW39097   2.640   1.809   3.819  0.5347  0.2405  0.1919
 9155SOL    HW139098   2.711   1.768   3.866 -0.2164  0.3029  1.3812
 9155SOL    HW239099   2.554   1.785   3.855  2.0549 -3.0364  1.5735
 9156SOL     OW39100   2.955   1.452   5.524  0.3022  0.3919 -0.2380
 9156SOL    HW139101   3.000   1.414   5.448 -1.4692  0.5587 -1.3716
 9156SOL    HW239102   2.876   1.401   5.540  0.3871  0.5842  0.7643
 9157SOL     OW39103   2.090   4.431  15.254  0.1471  0.1503  0.6350
 9157SOL    HW139104   2.064   4.396  15.339  1.5836  0.4254  1.1872
 9157SOL    HW239105   2.173   4.469  15.280  0.1834  0.1800  0.4770
 9158SOL     OW39106   1.181   0.424   6.365  0.1599  0.4261 -0.0954
 9158SOL    HW139107   1.259   0.434   6.419  1.3133 -0.6772 -1.5746
 9158SOL    HW239108   1.225   0.387   6.289  0.4375  1.3876 -0.3934
 9159SOL     OW39109   2.869   1.088   5.931  0.4010 -0.3836  0.4396
 9159SOL    HW139110   2.802   1.153   5.949  1.0793  0.6286 -0.6982
 9159SOL    HW239111   2.895   1.114   5.843 -1.2144 -2.0939 -0.5591
 9160SOL     OW39112   0.029   4.073   4.446  0.1752  0.6895 -0.0008
 9160SOL    HW139113   0.018   3.991   4.495  0.0566  0.7817  0.1280
 9160SOL    HW239114   0.118   4.061   4.412 -0.0362 -0.5870 -0.1127
 9161SOL     OW39115   0.850   2.657  14.529 -0.2833  0.2804  0.5625
 9161SOL    HW139116   0.837   2.733  14.585  2.1282  1.5825 -0.6207
 9161SOL    HW239117   0.844   2.703  14.445 -0.2456  0.5389  0.7014
 9162SOL     OW39118   2.490   0.648   6.942 -0.1378 -0.5511 -0.0168
 9162SOL    HW139119   2.424   0.661   6.874 -0.9732 -1.9776  0.5158
 9162SOL    HW239120   2.566   0.618   6.892 -0.7504  0.4658 -1.5664
 9163SOL     OW39121   3.620   0.803   0.257 -0.0877 -0.3899  0.2724
 9163SOL    HW139122   3.582   0.715   0.249 -0.5647 -0.1614 -0.0025
 9163SOL    HW239123   3.604   0.818   0.350  1.3373 -0.7149  0.5605
 9164SOL     OW39124   1.176   1.736   4.490 -0.3726  0.7448  0.0903
 9164SOL    HW139125   1.137   1.696   4.412  1.8670  1.2343 -1.3083
 9164SOL    HW239126   1.249   1.794   4.465 -0.2283 -0.0003 -1.2586
 9165SOL     OW39127   1.309   3.176   8.357 -0.0544  0.1830 -0.2051
 9165SOL    HW139128   1.329   3.164   8.450  0.0080  1.7616 -0.0194
 9165SOL    HW239129   1.355   3.098   8.326 -2.7976 -1.5536  0.0030
 9166SOL     OW39130   4.360   1.686   3.873 -0.3279  0.5003  0.1513
 9166SOL    HW139131   4.285   1.635   3.844  0.9062 -1.2814  0.0930
 9166SOL    HW239132   4.326   1.739   3.946 -0.6510  0.9182 -0.3038
 9167SOL     OW39133   0.058   0.233   6.875  0.3709 -0.1923  0.0153
 9167SOL    HW139134   0.011   0.177   6.813  0.5068  1.5269 -1.6623
 9167SOL    HW239135   4.728   0.260   6.936 -0.9539 -0.4292 -1.3760
 9168SOL     OW39136   2.783   4.217  15.083 -0.2846  0.1749 -0.0412
 9168SOL    HW139137   2.856   4.279  15.083  0.2592 -0.4691 -2.2368
 9168SOL    HW239138   2.753   4.213  14.992  0.0553  0.4548 -0.1689
 9169SOL     OW39139   2.278   1.683  10.031  0.5885 -0.5130  0.1727
 9169SOL    HW139140   2.290   1.631  10.110 -0.1591 -0.0421  0.5984
 9169SOL    HW239141   2.186   1.710  10.034  0.1592 -1.9208 -0.1240
 9170SOL     OW39142   0.778   2.396  14.507 -0.9203  0.3232 -0.3192
 9170SOL    HW139143   0.825   2.477  14.528  1.6319 -1.1548 -0.3464
 9170SOL    HW239144   0.826   2.374  14.426  1.8286 -2.3704  2.0438
 9171SOL     OW39145   1.731   2.137   1.568 -0.3495  0.2428  0.7377
 9171SOL    HW139146   1.726   2.091   1.651 -0.4502 -1.1647 -0.0582
 9171SOL    HW239147   1.823   2.159   1.558 -0.5916  0.2529 -1.6618
 9172SOL     OW39148   2.058   4.109   9.527 -0.1186  0.6730  0.1288
 9172SOL    HW139149   2.147   4.113   9.561 -0.2963  1.7629  0.4636
 9172SOL    HW239150   2.061   4.188   9.474  0.0024 -0.1407 -1.0871
 9173SOL     OW39151   1.783   1.694   5.870 -0.2104  0.0376 -0.5988
 9173SOL    HW139152   1.871   1.730   5.859 -0.0270 -0.1010  0.3863
 9173SOL    HW239153   1.717   1.753   5.836 -2.4636 -0.5801  2.6588
 9174SOL     OW39154   2.722   1.125   3.474  0.7453 -0.2316  0.1511
 9174SOL    HW139155   2.646   1.087   3.519  0.1837  0.2078 -0.4142
 9174SOL    HW239156   2.730   1.090   3.386 -2.3935 -2.7991  0.9023
 9175SOL     OW39157   3.126   4.105  17.016 -0.0862 -0.7033 -0.6176
 9175SOL    HW139158   3.205   4.157  17.001 -0.0564 -0.7492 -0.6186
 9175SOL    HW239159   3.141   4.090  17.109  0.9501 -2.3754 -1.0611
 9176SOL     OW39160   1.699   4.641  16.555 -0.0806  0.5253  0.0203
 9176SOL    HW139161   1.686   4.715  16.496  1.3579  1.5612  1.0205
 9176SOL    HW239162   1.748   4.582  16.498 -0.9573 -0.9358  0.7632
 9177SOL     OW39163   3.240   3.631   7.926  0.1744  0.4059  0.1709
 9177SOL    HW139164   3.263   3.589   8.008 -1.8468  2.5583  1.8279
 9177SOL    HW239165   3.169   3.573   7.895  2.2138 -1.2668 -1.3747
 9178SOL     OW39166   3.700   3.651   8.351  0.5573  0.1158  0.0828
 9178SOL    HW139167   3.631   3.707   8.316  0.3931 -0.6305 -0.7841
 9178SOL    HW239168   3.648   3.583   8.394  0.3790  0.4082  0.3328
 9179SOL     OW39169   0.835   3.306   9.176 -0.2757 -0.1120  0.5509
 9179SOL    HW139170   0.821   3.391   9.217 -0.1263  1.1388 -2.0003
 9179SOL    HW239171   0.760   3.298   9.117 -0.4502  0.0902  0.7469
 9180SOL     OW39172   3.113   0.194  13.981 -0.0503 -0.2037 -0.3924
 9180SOL    HW139173   3.169   0.169  14.055  0.6975  1.1915 -0.4859
 9180SOL    HW239174   3.151   0.279  13.957 -1.8170  0.7503  0.2473
 9181SOL     OW39175   4.274   1.535   6.777  0.2252  0.1177  0.0454
 9181SOL    HW139176   4.220   1.457   6.792  0.7295  0.0943  1.7580
 9181SOL    HW239177   4.349   1.519   6.835 -0.7542  1.3934  1.6627
 9182SOL     OW39178   0.903   3.304   6.189  0.0152  0.6647 -1.3516
 9182SOL    HW139179   0.927   3.354   6.111  1.9662  1.3106 -0.3341
 9182SOL    HW239180   0.894   3.215   6.155  0.4915 -0.0833  0.4744
 9183SOL     OW39181   0.753   4.723   4.382 -0.1434  0.3015  0.7052
 9183SOL    HW139182   0.673   4.697   4.427 -0.7796  1.0889  0.0439
 9183SOL    HW239183   0.767   0.077   4.397 -0.6809  0.2913  1.2615
 9184SOL     OW39184   2.377   0.249   8.966  0.3670  0.5662 -0.3447
 9184SOL    HW139185   2.415   0.246   8.879 -1.0967  1.4640 -1.0032
 9184SOL    HW239186   2.288   0.218   8.947 -0.0968  2.7246 -1.5953
 9185SOL     OW39187   1.578   3.690   4.646  0.2564  0.0654  0.0174
 9185SOL    HW139188   1.603   3.606   4.609 -2.2638 -1.8438  2.5745
 9185SOL    HW239189   1.640   3.686   4.719 -0.0750  2.0610  0.4009
 9186SOL     OW39190   2.108   4.618   3.535  0.5273  0.4237  1.1858
 9186SOL    HW139191   2.140   4.620   3.445 -1.5120  1.0681  0.4574
 9186SOL    HW239192   2.174   4.562   3.576 -0.0764 -1.6706 -0.7413
 9187SOL     OW39193   4.264   1.380   8.820 -1.3686  0.2127  0.0564
 9187SOL    HW139194   4.315   1.299   8.834 -1.7246 -0.2055 -1.0595
 9187SOL    HW239195   4.335   1.442   8.802 -0.9045 -0.4389 -0.3985
 9188SOL     OW39196   0.853   3.154   1.933  0.2850  1.0280 -0.4283
 9188SOL    HW139197   0.769   3.120   1.903 -0.0552  0.0815  1.6613
 9188SOL    HW239198   0.824   3.229   1.985 -0.2498  0.8708 -0.5021
 9189SOL     OW39199   3.357   1.894   9.146  0.1062 -0.4847 -0.4803
 9189SOL    HW139200   3.404   1.948   9.210 -0.9337 -0.3375  0.1521
 9189SOL    HW239201   3.388   1.808   9.174 -0.1054 -0.5847 -0.5506
 9190SOL     OW39202   0.973   1.359   6.062  0.1668  0.9479  0.0847
 9190SOL    HW139203   0.883   1.385   6.039 -0.6159 -0.8569  1.1085
 9190SOL    HW239204   0.980   1.301   5.986 -0.8706  0.9845 -0.0424
 9191SOL     OW39205   1.600   3.087   4.561  0.0974  0.0068 -0.0295
 9191SOL    HW139206   1.607   3.094   4.466  0.5303  0.4175  0.0351
 9191SOL    HW239207   1.637   3.000   4.576  1.6951  0.6331 -0.4026
 9192SOL     OW39208   1.140   2.861  15.704  0.4228 -0.5255 -0.8076
 9192SOL    HW139209   1.073   2.806  15.663 -0.0654 -0.2562 -0.3872
 9192SOL    HW239210   1.140   2.840  15.797 -0.6392 -2.2267 -1.2005
 9193SOL     OW39211   0.572   3.411  13.915  0.2036  0.0117 -0.1635
 9193SOL    HW139212   0.569   3.485  13.855  0.9945  0.9958  0.9954
 9193SOL    HW239213   0.621   3.346  13.865  0.7850 -0.2474  0.7354
 9194SOL     OW39214   1.790   4.418   1.624 -0.8302 -0.2210 -0.8094
 9194SOL    HW139215   1.725   4.408   1.693 -1.1838 -0.7000 -1.2072
 9194SOL    HW239216   1.748   4.483   1.568 -1.2868  1.2038  1.1833
 9195SOL     OW39217   1.656   2.677   0.067  0.1231  0.1575 -0.0349
 9195SOL    HW139218   1.606   2.621   0.008 -0.9881  0.6140  0.4781
 9195SOL    HW239219   1.594   2.745   0.093  0.8056  0.9787 -0.5622
 9196SOL     OW39220   0.422   2.859   6.286  0.3662  0.5766  0.5183
 9196SOL    HW139221   0.427   2.791   6.353 -1.9100  1.1566  1.2864
 9196SOL    HW239222   0.512   2.866   6.257 -0.3162  1.5647 -1.3651
 9197SOL     OW39223   3.617   3.630   7.054  0.1123 -0.0369 -0.1696
 9197SOL    HW139224   3.641   3.709   7.005 -0.3629 -0.9094 -1.7969
 9197SOL    HW239225   3.627   3.569   6.981  0.8405 -1.4394  1.0992
 9198SOL     OW39226   2.432   1.702   8.137  0.0265 -0.5048  0.3584
 9198SOL    HW139227   2.338   1.687   8.151 -0.3152  0.8856 -0.4121
 9198SOL    HW239228   2.444   1.653   8.056  0.5234  1.2315 -0.6301
 9199SOL     OW39229   3.628   3.928   5.621  0.2362  0.1646 -0.2039
 9199SOL    HW139230   3.599   3.991   5.687  0.0100  0.3148 -0.4470
 9199SOL    HW239231   3.719   3.951   5.641 -0.1239  0.3810  1.1695
 9200SOL     OW39232   3.587   1.453   2.046  0.1603  0.0701 -0.4808
 9200SOL    HW139233   3.626   1.383   1.993 -2.7215 -0.9822 -1.2376
 9200SOL    HW239234   3.493   1.439   2.033  0.2754  0.2375 -1.4812
 9201SOL     OW39235   2.261   2.423  11.746 -0.6094 -0.4800 -0.4850
 9201SOL    HW139236   2.348   2.425  11.787 -0.5174 -0.2677 -0.6910
 9201SOL    HW239237   2.277   2.479  11.670  1.2615  1.2085  1.1608
 9202SOL     OW39238   4.642   1.435   6.725  0.0568 -0.3773 -0.2249
 9202SOL    HW139239   4.570   1.400   6.672  0.1286 -0.2649 -0.3953
 9202SOL    HW239240   4.596   1.453   6.808 -0.8913 -0.5454 -0.7133
 9203SOL     OW39241   2.051   3.461   5.965 -0.1955 -1.0082 -0.0580
 9203SOL    HW139242   2.035   3.389   5.904  1.3262 -1.8200  0.5118
 9203SOL    HW239243   2.146   3.470   5.956 -0.1439 -1.4566  0.0564
 9204SOL     OW39244   1.667   0.198   6.768 -0.2751  0.9306  0.0359
 9204SOL    HW139245   1.723   0.177   6.843  0.5405 -1.9388 -1.3489
 9204SOL    HW239246   1.593   0.237   6.814 -0.4399 -1.0130  1.4426
 9205SOL     OW39247   2.792   1.478   2.124  0.0710  0.2026  0.2638
 9205SOL    HW139248   2.780   1.548   2.188  0.0943 -0.2956  0.8167
 9205SOL    HW239249   2.701   1.448   2.123  0.6028 -1.3843 -0.7914
 9206SOL     OW39250   0.851   0.337   2.591 -0.1253 -0.2907  0.0552
 9206SOL    HW139251   0.773   0.342   2.646  0.3427  0.0522  0.6787
 9206SOL    HW239252   0.841   0.246   2.564 -1.0051 -0.8288  2.1831
 9207SOL     OW39253   3.479   0.164   5.009  0.6016  0.1489 -0.1486
 9207SOL    HW139254   3.484   0.143   4.916  0.3858 -0.4291 -0.0258
 9207SOL    HW239255   3.392   0.202   5.015  0.4201 -0.7233  2.9026
 9208SOL     OW39256   4.227   2.361   5.250  0.3854 -0.1444  0.1711
 9208SOL    HW139257   4.169   2.288   5.228  1.7173 -1.3185  0.5517
 9208SOL    HW239258   4.178   2.423   5.304  1.5287  0.8984 -0.0001
 9209SOL     OW39259   0.816   3.419  11.896  0.1328  0.1417  0.2632
 9209SOL    HW139260   0.746   3.357  11.876  0.7122  0.2158 -2.0571
 9209SOL    HW239261   0.882   3.401  11.829  0.2347  0.3279  0.3133
 9210SOL     OW39262   0.155   4.017   3.720  0.4648  0.6269 -0.1528
 9210SOL    HW139263   0.101   3.997   3.796  1.4707  0.0898  0.4272
 9210SOL    HW239264   0.238   3.994   3.763 -0.0251 -0.9877 -0.0697
 9211SOL     OW39265   2.351   4.333   1.529  0.3039  0.2260  0.4155
 9211SOL    HW139266   2.431   4.362   1.486  0.7265  0.3575  1.2787
 9211SOL    HW239267   2.340   4.394   1.603  0.0355  1.4374 -0.6265
 9212SOL     OW39268   3.058   1.649   4.494 -0.3916  0.0534 -0.3443
 9212SOL    HW139269   3.049   1.720   4.430  0.5064  0.9514  0.5333
 9212SOL    HW239270   2.973   1.606   4.505  0.6521 -2.4740 -2.2864
 9213SOL     OW39271   0.699   1.989   5.213  0.3900 -0.4806  0.3421
 9213SOL    HW139272   0.758   2.056   5.247 -0.6881  0.4964  0.2952
 9213SOL    HW239273   0.691   1.929   5.288  0.8900 -1.4531 -0.3807
 9214SOL     OW39274   4.525   3.695   7.456  0.2539 -0.1010 -0.0674
 9214SOL    HW139275   4.494   3.647   7.379  3.4415 -0.2744 -1.2703
 9214SOL    HW239276   4.441   3.703   7.500  0.4284 -0.0283  0.2468
 9215SOL     OW39277   3.219   2.815   8.918 -0.4256 -0.3032 -0.0914
 9215SOL    HW139278   3.272   2.757   8.863  1.3369  2.6922 -1.5361
 9215SOL    HW239279   3.141   2.761   8.932 -1.0880  1.0446  1.3071
 9216SOL     OW39280   1.804   2.607   0.877 -0.6212 -0.0450  0.1075
 9216SOL    HW139281   1.717   2.601   0.914 -0.7803 -1.2531 -0.4628
 9216SOL    HW239282   1.787   2.611   0.782 -3.5242 -1.1490  0.5852
 9217SOL     OW39283   3.359   3.548   9.495 -0.1677  0.0740  0.2024
 9217SOL    HW139284   3.409   3.484   9.445 -0.4046  0.4358 -0.5112
 9217SOL    HW239285   3.322   3.492   9.563  0.7773  1.7998  2.1406
 9218SOL     OW39286   3.725   4.068   5.255  0.1189  0.1758  0.3049
 9218SOL    HW139287   3.771   3.996   5.298  1.3661  0.9234  0.2317
 9218SOL    HW239288   3.777   4.074   5.175 -0.1158 -1.9104  0.0004
 9219SOL     OW39289   3.610   0.773   7.748 -0.1085 -0.5104 -0.3701
 9219SOL    HW139290   3.699   0.748   7.773 -0.1396  0.2351  0.4928
 9219SOL    HW239291   3.566   0.757   7.832  1.8815 -1.1494  0.5334
 9220SOL     OW39292   0.344   0.707   5.954 -0.6604 -0.2460 -0.0934
 9220SOL    HW139293   0.280   0.636   5.961  1.8761 -2.5491 -0.1721
 9220SOL    HW239294   0.425   0.656   5.953 -0.5055 -0.0349  1.3905
 9221SOL     OW39295   0.953   1.744  10.207  0.0812  0.4638  0.1973
 9221SOL    HW139296   1.035   1.752  10.256  0.7857 -0.6059 -0.7894
 9221SOL    HW239297   0.954   1.830  10.165 -0.7853  0.0575 -0.6821
 9222SOL     OW39298   4.675   3.491  17.129  0.0186 -0.5758 -0.1253
 9222SOL    HW139299   0.031   3.483  17.134  0.0663  0.8275  1.1616
 9222SOL    HW239300   4.666   3.582  17.102 -0.3864 -0.9782 -1.3633
 9223SOL     OW39301   3.960   3.823   9.325  0.1204  0.2242  0.4224
 9223SOL    HW139302   3.896   3.894   9.317  1.1831  1.2310  0.9105
 9223SOL    HW239303   3.969   3.803   9.232  0.4008 -0.8125  0.6791
 9224SOL     OW39304   1.845   2.932  13.822  0.1751  0.2507  0.6605
 9224SOL    HW139305   1.749   2.936  13.826  0.0998 -2.5839  1.6151
 9224SOL    HW239306   1.866   3.022  13.796  0.1024 -0.4827 -1.8623
 9225SOL     OW39307   3.963   0.518   6.072  0.0900  0.3475 -0.5855
 9225SOL    HW139308   3.870   0.502   6.084 -0.1429  0.7232 -1.8587
 9225SOL    HW239309   3.995   0.434   6.105  1.6555  0.6477 -1.3172
 9226SOL     OW39310   4.491   0.690   7.061  0.1093 -0.3019 -0.0297
 9226SOL    HW139311   4.559   0.679   7.128 -0.2780  2.1144  0.7506
 9226SOL    HW239312   4.550   0.703   6.986  0.3244 -3.6599 -0.4629
 9227SOL     OW39313   3.441   2.813  12.499 -0.5559 -0.0657  0.0716
 9227SOL    HW139314   3.492   2.807  12.580  0.3033 -2.4925 -0.6684
 9227SOL    HW239315   3.462   2.738  12.444  1.7659  0.9947 -0.4971
 9228SOL     OW39316   4.029   1.617   4.424 -0.0016  0.4648  0.0557
 9228SOL    HW139317   4.045   1.527   4.454  0.5053 -0.0116 -1.6242
 9228SOL    HW239318   4.058   1.614   4.333 -2.6905 -0.7669 -0.7481
 9229SOL     OW39319   0.479   4.628   6.724  0.5570 -0.0752  0.6958
 9229SOL    HW139320   0.464   4.634   6.629 -1.0125 -0.8629  0.8811
 9229SOL    HW239321   0.537   4.552   6.720  0.5499 -0.1615  2.3030
 9230SOL     OW39322   1.790   0.774   1.179 -0.4575 -0.2380  0.3022
 9230SOL    HW139323   1.752   0.861   1.179  0.5206  0.1793 -0.8743
 9230SOL    HW239324   1.881   0.784   1.150  0.0331 -1.1503  1.5206
 9231SOL     OW39325   2.113   1.899   7.880 -0.0173  0.2116  0.5270
 9231SOL    HW139326   2.099   1.810   7.913  0.5419  0.1005  0.4766
 9231SOL    HW239327   2.043   1.893   7.816 -0.3501 -0.1233  0.9241
 9232SOL     OW39328   3.222   2.982   6.840 -0.7282 -0.2521 -0.0780
 9232SOL    HW139329   3.140   2.940   6.866  0.8653 -2.9143  0.6079
 9232SOL    HW239330   3.193   3.009   6.753 -0.2404  1.1909  0.1992
 9233SOL     OW39331   1.148   4.532   8.443  0.1601  0.1052 -0.1341
 9233SOL    HW139332   1.241   4.543   8.423  1.0681 -3.1959  2.4497
 9233SOL    HW239333   1.111   4.478   8.373  0.0669  0.6702 -0.5274
 9234SOL     OW39334   4.441   1.018   6.606 -0.1761 -0.5741 -0.0110
 9234SOL    HW139335   4.388   0.959   6.553  2.1795 -1.9229 -0.8319
 9234SOL    HW239336   4.443   1.097   6.551  2.4156 -0.5917  0.0888
 9235SOL     OW39337   0.573   2.047   4.756  0.1786 -0.0208 -0.2319
 9235SOL    HW139338   0.481   2.047   4.782  0.6204 -1.1355  1.2826
 9235SOL    HW239339   0.572   1.971   4.699  4.1046  0.5572 -1.0639
 9236SOL     OW39340   1.097   2.828   8.537  0.4181  0.1753 -0.1191
 9236SOL    HW139341   1.082   2.738   8.566  2.0709 -0.1472 -0.2414
 9236SOL    HW239342   1.123   2.820   8.446  1.4216 -0.0785  0.1842
 9237SOL     OW39343   3.431   0.397   5.309  1.0665 -0.1319 -0.3567
 9237SOL    HW139344   3.471   0.318   5.345  2.7214  1.4709  1.2992
 9237SOL    HW239345   3.433   0.453   5.387  1.7238 -1.8554  0.8528
 9238SOL     OW39346   0.249   2.405  17.218 -0.2200 -0.3493 -0.0222
 9238SOL    HW139347   0.159   2.435  17.227  1.0264  3.3224 -0.0967
 9238SOL    HW239348   0.288   2.482  17.259 -0.1919  0.9715 -2.5898
 9239SOL     OW39349   2.696   2.082   9.419  0.2756  0.1540  0.2478
 9239SOL    HW139350   2.632   2.027   9.464  0.3444  1.4248  1.8949
 9239SOL    HW239351   2.648   2.133   9.354 -2.5093  0.6808  2.6901
 9240SOL     OW39352   2.854   1.346  14.878  0.4212 -0.7505 -0.0610
 9240SOL    HW139353   2.942   1.312  14.864  0.9842  0.4130  0.6891
 9240SOL    HW239354   2.872   1.405  14.952 -0.2235 -0.5313 -0.0789
 9241SOL     OW39355   0.475   2.797   2.968  0.4285 -0.0579 -0.0362
 9241SOL    HW139356   0.436   2.763   3.049  0.2922 -2.0600 -0.9599
 9241SOL    HW239357   0.478   2.891   2.988  3.1395 -0.0657 -0.3276
 9242SOL     OW39358   1.817   2.960   1.551  0.3943  0.5302  0.0316
 9242SOL    HW139359   1.847   2.960   1.460 -0.8067 -2.2758 -0.3636
 9242SOL    HW239360   1.763   3.039   1.557  2.4875  2.0535 -0.7808
 9243SOL     OW39361   3.662   3.362   8.441  0.3825 -0.0777  0.0389
 9243SOL    HW139362   3.750   3.342   8.473  1.0590 -1.4340 -2.6558
 9243SOL    HW239363   3.608   3.326   8.511  0.5951  1.9973  1.2419
 9244SOL     OW39364   1.493   0.855   7.985 -0.0080 -0.0437  0.6398
 9244SOL    HW139365   1.474   0.945   7.957 -1.3865 -0.2197  0.9915
 9244SOL    HW239366   1.562   0.863   8.050 -1.9576  0.7172  2.6164
 9245SOL     OW39367   2.132   1.684   2.299 -0.0742  0.6866  0.4682
 9245SOL    HW139368   2.214   1.700   2.345  0.5795  0.6585 -0.6906
 9245SOL    HW239369   2.121   1.759   2.240 -1.7471 -1.2149 -1.6638
 9246SOL     OW39370   2.735   3.675  10.450 -0.4168  0.0330 -0.0328
 9246SOL    HW139371   2.829   3.663  10.458  0.0802  2.7657 -1.5908
 9246SOL    HW239372   2.723   3.739  10.380 -0.2412 -0.5700 -0.6153
 9247SOL     OW39373   0.426   2.084   9.158 -0.5191 -0.1432 -0.1309
 9247SOL    HW139374   0.362   2.131   9.212  1.1003  0.6246  1.1010
 9247SOL    HW239375   0.504   2.086   9.214 -1.8223 -0.6303  1.7350
 9248SOL     OW39376   3.202   3.138  10.697 -0.0563 -0.0199  0.3836
 9248SOL    HW139377   3.172   3.207  10.757  1.2129  2.1010 -1.4161
 9248SOL    HW239378   3.174   3.056  10.738  1.0819 -0.1416  0.9303
 9249SOL     OW39379   1.007   2.580   8.191 -0.0320 -0.1838  0.4662
 9249SOL    HW139380   1.088   2.530   8.200  1.2177  1.3966 -1.7098
 9249SOL    HW239381   1.037   2.653   8.136  1.3438  0.4151  2.0363
 9250SOL     OW39382   2.532   0.998   9.381  0.4677  0.3896 -0.7787
 9250SOL    HW139383   2.504   0.908   9.362  2.1402 -0.6755  1.8381
 9250SOL    HW239384   2.526   1.040   9.295 -0.8323 -0.3332 -1.0497
 9251SOL     OW39385   0.207   0.196   9.704 -0.6411 -0.0211 -0.0785
 9251SOL    HW139386   0.263   0.217   9.629  0.5088 -1.0224  0.5064
 9251SOL    HW239387   0.145   0.134   9.667  0.5252 -1.8725  1.0557
 9252SOL     OW39388   2.791   3.041  12.363 -0.2394 -0.1515  0.0052
 9252SOL    HW139389   2.820   3.010  12.449  4.1557  1.0157 -1.0700
 9252SOL    HW239390   2.836   2.975  12.310  0.4519  1.7978 -1.8111
 9253SOL     OW39391   3.989   0.005   4.322 -0.2283 -0.1141  0.0485
 9253SOL    HW139392   4.020   0.095   4.330  0.3332 -0.1113 -2.0242
 9253SOL    HW239393   3.897   0.019   4.301  0.8446  1.0923 -3.8722
 9254SOL     OW39394   1.968   1.730   3.864 -0.0838  0.5499 -0.1677
 9254SOL    HW139395   1.952   1.714   3.957  2.7536 -0.9871  0.0654
 9254SOL    HW239396   1.946   1.822   3.852  1.7121  1.6318  4.6857
 9255SOL     OW39397   3.279   0.723   9.170  0.2041 -0.1654  0.3251
 9255SOL    HW139398   3.285   0.689   9.080 -2.1730 -0.9825  0.4793
 9255SOL    HW239399   3.346   0.678   9.221  0.5273  0.4996  0.4854
 9256SOL     OW39400   0.617   1.306  12.709  0.6282 -0.3622  0.3142
 9256SOL    HW139401   0.634   1.213  12.725  2.2016 -0.0258  0.5147
 9256SOL    HW239402   0.585   1.299  12.619 -1.3734  0.0589  0.9751
 9257SOL     OW39403   1.220   1.090   3.063 -0.1640  0.1989  0.3717
 9257SOL    HW139404   1.134   1.098   3.105  0.1470 -1.1911  1.2733
 9257SOL    HW239405   1.213   1.008   3.016 -1.0222 -0.7473  2.1606
 9258SOL     OW39406   4.702   3.916   7.355  0.1627 -0.0024  0.0671
 9258SOL    HW139407   4.628   3.934   7.296  0.4711  4.0769  0.9190
 9258SOL    HW239408   4.667   3.830   7.376  0.7780 -0.1941  0.3004
 9259SOL     OW39409   1.766   2.883   9.099  0.1343 -0.3413 -0.6730
 9259SOL    HW139410   1.749   2.800   9.054 -0.2726 -1.7389  2.0548
 9259SOL    HW239411   1.796   2.852   9.185 -2.6052 -0.5526  0.2197
 9260SOL     OW39412   0.456   3.085  11.972  0.1291  0.1500  0.7095
 9260SOL    HW139413   0.494   3.026  11.907  2.2592  2.2996 -0.0195
 9260SOL    HW239414   0.365   3.085  11.943  0.1380 -1.9249  0.6697
 9261SOL     OW39415   2.534   0.324   2.631 -0.3661 -0.0006  0.1481
 9261SOL    HW139416   2.569   0.359   2.713 -2.6216  0.0695  1.0844
 9261SOL    HW239417   2.619   0.295   2.596  0.3481  0.0274  1.8652
 9262SOL     OW39418   4.101   0.436   8.944  0.2667 -0.5585  0.1375
 9262SOL    HW139419   4.070   0.514   8.990  1.7992 -0.3459  0.8117
 9262SOL    HW239420   4.018   0.400   8.912 -0.0329  0.6542 -0.4354
 9263SOL     OW39421   2.047   1.536   2.012 -0.2566 -0.0842  1.0931
 9263SOL    HW139422   1.983   1.583   2.065  0.6394  1.3868  0.8532
 9263SOL    HW239423   2.066   1.600   1.944  2.0297  0.0652  1.8956
 9264SOL     OW39424   3.372   0.530  13.127  0.0737  0.3094  0.4893
 9264SOL    HW139425   3.377   0.548  13.033  2.4200 -0.7609  0.4031
 9264SOL    HW239426   3.351   0.438  13.109  0.1509  0.8789 -2.6202
 9265SOL     OW39427   1.768   2.708  12.697 -0.0169 -0.0911 -0.5400
 9265SOL    HW139428   1.711   2.769  12.650  0.4793  0.0965 -0.8958
 9265SOL    HW239429   1.853   2.727  12.657 -0.5792 -0.8118 -2.0818
 9266SOL     OW39430   0.656   2.762  13.137 -0.4594 -0.2635  0.0472
 9266SOL    HW139431   0.677   2.679  13.182 -1.0337  0.3482  1.4516
 9266SOL    HW239432   0.655   2.830  13.204 -0.8320  0.5604 -0.7903
 9267SOL     OW39433   0.203   2.281   4.537  0.2699 -0.3951 -0.3661
 9267SOL    HW139434   0.252   2.355   4.574  1.3888 -0.5626 -1.5252
 9267SOL    HW239435   0.165   2.245   4.617  0.2171 -3.5485 -1.7985
 9268SOL     OW39436   3.348   4.239  16.998 -0.4273  0.5033  0.1261
 9268SOL    HW139437   3.334   4.330  17.027 -2.3219  0.0192  0.7438
 9268SOL    HW239438   3.440   4.220  17.016 -0.2037  1.1433 -0.3305
 9269SOL     OW39439   2.921   1.522   3.056  0.0068  0.1504 -0.1087
 9269SOL    HW139440   2.850   1.557   3.110 -1.7480 -1.3406 -1.4348
 9269SOL    HW239441   2.875   1.525   2.973 -0.8027 -0.0017  0.3370
 9270SOL     OW39442   2.850   2.774  12.283  0.5057  0.2092  0.3246
 9270SOL    HW139443   2.885   2.757  12.370  0.5837 -3.7222 -0.4504
 9270SOL    HW239444   2.805   2.692  12.263  0.7461 -0.0258  0.7590
 9271SOL     OW39445   4.150   0.692   8.624 -0.2051 -0.3742 -0.0622
 9271SOL    HW139446   4.139   0.737   8.540 -1.3369 -1.9450 -0.7517
 9271SOL    HW239447   4.227   0.639   8.604 -0.1032  1.2256 -3.7897
 9272SOL     OW39448   4.229   3.799   2.466 -0.1475  0.7851  0.1961
 9272SOL    HW139449   4.186   3.865   2.520  1.0484  0.0792  2.0397
 9272SOL    HW239450   4.153   3.757   2.425 -0.4308  0.8811  0.6232
 9273SOL     OW39451   3.551   3.146   3.654 -0.3965 -0.1761 -0.7548
 9273SOL    HW139452   3.485   3.144   3.585 -2.3120  0.2866  1.0671
 9273SOL    HW239453   3.608   3.072   3.635  0.2664  0.7463 -2.3304
 9274SOL     OW39454   0.488   2.960   4.046 -0.2595  0.1863 -0.7582
 9274SOL    HW139455   0.455   3.020   4.113 -0.5440  2.3863 -2.8211
 9274SOL    HW239456   0.526   3.030   3.993 -1.0447  0.2386 -1.2573
 9275SOL     OW39457   0.907   0.491   7.798 -0.1678  0.4084 -0.2152
 9275SOL    HW139458   0.902   0.586   7.805 -0.4133  0.5468 -2.1419
 9275SOL    HW239459   0.950   0.480   7.712  0.7470  0.0835  0.2819
 9276SOL     OW39460   2.749   4.034   4.365 -0.5606 -0.1691  1.0923
 9276SOL    HW139461   2.655   4.046   4.380 -0.7915 -1.6737  0.8029
 9276SOL    HW239462   2.745   3.944   4.332  0.9386  0.4643 -0.8543
 9277SOL     OW39463   2.330   4.456   8.086 -0.4201 -0.1167  0.2300
 9277SOL    HW139464   2.338   4.545   8.120 -3.0784  0.9891 -2.0364
 9277SOL    HW239465   2.239   4.469   8.059 -0.4758 -0.4908  0.2399
 9278SOL     OW39466   1.763   4.723   0.648  0.0482  0.0206 -0.0449
 9278SOL    HW139467   1.775   4.694   0.739  0.1608  2.2562  0.6506
 9278SOL    HW239468   1.756   4.640   0.600 -1.1558  0.2361 -0.2473
 9279SOL     OW39469   2.314   0.664   6.313  0.4229  0.2520 -1.0310
 9279SOL    HW139470   2.339   0.729   6.379 -2.1140  0.3072 -0.1487
 9279SOL    HW239471   2.296   0.579   6.354 -0.3722  1.1418  0.4324
 9280SOL     OW39472   0.436   2.699   9.755 -0.0737  0.2943 -0.0573
 9280SOL    HW139473   0.434   2.698   9.851 -3.2618  1.4029 -0.1410
 9280SOL    HW239474   0.403   2.786   9.733 -2.1813 -1.4981 -3.9029
 9281SOL     OW39475   0.382   2.732  17.665  0.5943  0.2435 -0.2471
 9281SOL    HW139476   0.362   2.658  17.607  0.3261 -0.4334  0.7037
 9281SOL    HW239477   0.384   2.800  17.598  0.0422 -0.3773 -0.8833
 9282SOL     OW39478   2.991   3.395   9.279  0.7762 -0.1420 -0.0060
 9282SOL    HW139479   2.922   3.405   9.214  0.2061 -0.9696  0.4719
 9282SOL    HW239480   3.060   3.436   9.227  1.3229 -1.3927 -0.2736
 9283SOL     OW39481   0.696   2.428   9.346 -0.4757 -0.4329 -0.4785
 9283SOL    HW139482   0.649   2.468   9.419 -0.4278  1.5246 -1.5135
 9283SOL    HW239483   0.775   2.397   9.391 -1.6705  1.1232  2.7031
 9284SOL     OW39484   0.415   4.365   5.758 -0.1877  0.0984 -0.3053
 9284SOL    HW139485   0.334   4.385   5.805  0.5356 -1.4892  1.6178
 9284SOL    HW239486   0.439   4.280   5.793  0.5953 -0.4177 -2.0849
 9285SOL     OW39487   1.854   2.096  16.482 -0.0422  0.7941 -0.1182
 9285SOL    HW139488   1.840   2.185  16.450 -1.7551  0.3987 -0.4811
 9285SOL    HW239489   1.865   2.102  16.577 -1.2587 -0.5870  0.1153
 9286SOL     OW39490   4.085   1.081  17.217 -0.2630  0.1698 -0.3518
 9286SOL    HW139491   4.089   1.166  17.262 -1.3934 -0.7211  1.4511
 9286SOL    HW239492   4.095   1.108  17.126 -0.3401 -0.8806 -0.6660
 9287SOL     OW39493   1.796   3.531   9.547  0.4997  0.4263 -0.6416
 9287SOL    HW139494   1.726   3.491   9.495  1.5080 -1.7875 -0.3029
 9287SOL    HW239495   1.755   3.602   9.596 -1.4761 -0.9060 -0.3563
 9288SOL     OW39496   4.019   4.129   8.330 -0.1303 -0.0201  0.3939
 9288SOL    HW139497   4.104   4.132   8.375 -0.9164 -0.0692  1.8557
 9288SOL    HW239498   3.961   4.116   8.405  0.8489  0.2406  1.2004
 9289SOL     OW39499   2.019   1.736  10.096 -0.1971 -0.3024  0.1171
 9289SOL    HW139500   2.051   1.709  10.182 -0.8380  1.8168  1.0236
 9289SOL    HW239501   1.928   1.756  10.118 -0.1714 -1.5483  1.3410
 9290SOL     OW39502   1.778   3.503   7.542 -0.0405 -0.2227 -0.0991
 9290SOL    HW139503   1.737   3.425   7.581 -0.2138  0.0734  0.3079
 9290SOL    HW239504   1.810   3.555   7.616 -1.5505  0.7720 -0.1523
 9291SOL     OW39505   1.490   1.405  16.682  0.6208  0.2471  0.3435
 9291SOL    HW139506   1.538   1.352  16.745  2.1727  0.4329 -0.6784
 9291SOL    HW239507   1.445   1.468  16.739  0.0039  2.8485 -2.9784
 9292SOL     OW39508   0.512   1.325  12.962 -0.4296  0.1321 -1.0417
 9292SOL    HW139509   0.486   1.417  12.955 -3.9761 -0.8284 -0.8847
 9292SOL    HW239510   0.535   1.322  12.869  2.0365  1.0936 -0.4671
 9293SOL     OW39511   0.809   0.066   7.764  0.2664  0.0072  0.8495
 9293SOL    HW139512   0.731   0.012   7.753 -0.6155  0.9667  2.3681
 9293SOL    HW239513   0.820   0.065   7.859  2.6562  0.1643  0.5748
 9294SOL     OW39514   2.817   0.330   3.463  0.1384 -0.6991 -0.7196
 9294SOL    HW139515   2.803   0.351   3.371 -3.0760 -1.2638 -0.3412
 9294SOL    HW239516   2.856   0.413   3.492  2.2810 -2.1349  0.5419
 9295SOL     OW39517   4.392   4.688   6.708 -0.0146 -0.0157  0.1773
 9295SOL    HW139518   4.316   4.638   6.738  0.1926 -0.9750 -0.9259
 9295SOL    HW239519   4.356   4.731   6.631  0.6574  0.3129  0.0451
 9296SOL     OW39520   0.265   3.439   2.258 -0.3332 -0.2518  0.1958
 9296SOL    HW139521   0.216   3.470   2.334  0.6600  0.2773  0.6202
 9296SOL    HW239522   0.207   3.474   2.191  0.0076 -1.9671 -1.0073
 9297SOL     OW39523   4.319   2.016   7.650  0.4223 -0.4171  0.1682
 9297SOL    HW139524   4.406   2.042   7.622  0.7489  0.0120  1.5421
 9297SOL    HW239525   4.346   1.940   7.702  2.0421 -0.4949 -0.7846
 9298SOL     OW39526   2.750   1.109   7.085  0.3046  0.0979 -0.0938
 9298SOL    HW139527   2.683   1.041   7.082 -0.2978  0.7221 -0.7799
 9298SOL    HW239528   2.708   1.195   7.093  2.6291  1.0828  1.4700
 9299SOL     OW39529   1.765   3.299   2.646  0.4923 -0.1346 -0.1943
 9299SOL    HW139530   1.739   3.324   2.735  0.3714  2.7216 -1.0403
 9299SOL    HW239531   1.742   3.382   2.606  0.1206 -0.4355 -0.6041
 9300SOL     OW39532   2.308   3.753   8.594 -0.2045 -0.7161  0.8116
 9300SOL    HW139533   2.265   3.688   8.539 -0.8019  1.0127 -0.7674
 9300SOL    HW239534   2.359   3.698   8.652  1.0092  0.5142  0.9176
 9301SOL     OW39535   0.474   4.346   6.122 -0.4237  0.1414 -0.6707
 9301SOL    HW139536   0.441   4.274   6.068  1.0308 -1.4723  0.5750
 9301SOL    HW239537   0.568   4.334   6.113 -0.3474  0.0163  0.2839
 9302SOL     OW39538   1.155   1.041   6.340  0.1895 -0.3894 -0.6170
 9302SOL    HW139539   1.114   0.977   6.399 -0.2592 -0.5969 -1.1453
 9302SOL    HW239540   1.139   0.995   6.257  0.4942 -1.0937 -0.2820
 9303SOL     OW39541   0.973   3.620   7.057  0.4163 -0.4280 -0.5054
 9303SOL    HW139542   1.001   3.603   7.147  0.1135 -1.2162 -0.5580
 9303SOL    HW239543   0.904   3.684   7.075 -0.9119 -1.7808 -0.6870
 9304SOL     OW39544   3.345   2.625   8.705  0.0524  0.2713 -0.4315
 9304SOL    HW139545   3.387   2.589   8.627  1.7657  3.4414 -0.9792
 9304SOL    HW239546   3.383   2.566   8.770 -0.1273 -2.3051 -2.6790
 9305SOL     OW39547   3.492   3.917   2.080 -0.2384 -0.4752  0.0635
 9305SOL    HW139548   3.511   3.991   2.139 -1.7033  0.0435 -0.1272
 9305SOL    HW239549   3.466   3.861   2.153  0.9456 -0.6619  0.3469
 9306SOL     OW39550   2.899   3.390   5.787 -0.2966  0.4363  0.3455
 9306SOL    HW139551   2.817   3.414   5.831 -0.3992  1.7454 -0.5471
 9306SOL    HW239552   2.963   3.440   5.837  0.3925  0.5666 -0.6602
 9307SOL     OW39553   0.893   2.256   7.288  0.2485  0.0964  0.2367
 9307SOL    HW139554   0.926   2.329   7.341  1.1335 -1.1209  1.3818
 9307SOL    HW239555   0.904   2.187   7.354 -2.8212 -1.0888 -0.5192
 9308SOL     OW39556   0.744   2.929   5.566 -0.3941  0.1654  0.2434
 9308SOL    HW139557   0.823   2.977   5.591  0.6223 -1.5516  0.2868
 9308SOL    HW239558   0.690   3.000   5.530 -2.7269 -1.6439  0.1827
 9309SOL     OW39559   3.857   3.369   7.233 -0.0116 -0.5981 -0.2516
 9309SOL    HW139560   3.859   3.283   7.274  2.5237 -0.2946  0.2869
 9309SOL    HW239561   3.825   3.346   7.146 -0.8722  0.5666 -0.2399
 9310SOL     OW39562   0.026   3.685   6.024 -0.8415  0.1230 -0.1286
 9310SOL    HW139563   0.002   3.736   5.946 -0.7182  2.7831  1.5626
 9310SOL    HW239564   4.679   3.654   6.051 -1.0102  0.7216  0.0321
 9311SOL     OW39565   3.126   4.598   8.681  0.4046  0.7257  0.3599
 9311SOL    HW139566   3.121   4.502   8.676  0.4823  0.7904 -1.0134
 9311SOL    HW239567   3.209   4.604   8.635  0.0784 -2.9028 -0.7611
 9312SOL     OW39568   0.929   2.883   9.827  0.1008 -0.7711 -0.1101
 9312SOL    HW139569   0.906   2.851   9.740  2.1333 -1.8072 -0.2657
 9312SOL    HW239570   1.006   2.936   9.806  0.7431 -1.1698  1.2472
 9313SOL     OW39571   2.316   4.339   0.479  0.6814  0.4559 -0.3954
 9313SOL    HW139572   2.278   4.254   0.505 -1.0033  1.2818 -0.1454
 9313SOL    HW239573   2.384   4.306   0.420  1.0502  1.0586 -0.3045
 9314SOL     OW39574   0.105   4.329   3.092  0.2986  0.1076 -0.1644
 9314SOL    HW139575   0.083   4.307   3.182  0.6001  1.4258  0.2323
 9314SOL    HW239576   0.019   4.330   3.050  0.5525  0.0251 -0.6886
 9315SOL     OW39577   0.601   1.983   7.673 -0.3662  1.1519  0.3300
 9315SOL    HW139578   0.538   2.053   7.656 -1.0109  1.2697  3.1870
 9315SOL    HW239579   0.657   2.024   7.740 -0.4371 -0.4450  1.3550
 9316SOL     OW39580   4.064   2.469  15.632 -0.0985 -0.3333 -0.4459
 9316SOL    HW139581   4.031   2.458  15.543 -3.7035  1.4870  0.6782
 9316SOL    HW239582   4.072   2.563  15.645  0.6887 -0.2491 -1.5291
 9317SOL     OW39583   1.521   3.721   6.726 -0.5225 -0.1754 -0.7472
 9317SOL    HW139584   1.439   3.721   6.775  0.4863  0.0815  0.9769
 9317SOL    HW239585   1.563   3.642   6.761 -0.2903  0.0519 -0.5121
 9318SOL     OW39586   3.704   1.183   7.634  0.3528  0.3849 -0.0818
 9318SOL    HW139587   3.658   1.263   7.658 -0.1748  0.5384 -1.5886
 9318SOL    HW239588   3.748   1.196   7.549  0.4184 -3.7252 -0.6979
 9319SOL     OW39589   2.527   4.199  14.233  0.2879  0.2283  0.1048
 9319SOL    HW139590   2.444   4.238  14.260  0.0892 -1.4327  1.8968
 9319SOL    HW239591   2.530   4.202  14.137  0.2362  1.5126  0.1389
 9320SOL     OW39592   3.296   3.580  15.742 -0.1911  0.1594  0.7008
 9320SOL    HW139593   3.389   3.582  15.721 -0.6573  1.0637 -1.2206
 9320SOL    HW239594   3.287   3.554  15.834 -0.2293 -2.6134 -0.0674
 9321SOL     OW39595   3.123   4.129  12.528  0.1308 -0.0233  0.3021
 9321SOL    HW139596   3.031   4.111  12.510  0.0051 -0.6101  1.5872
 9321SOL    HW239597   3.103   4.151  12.619  1.2845 -0.1597  0.5899
 9322SOL     OW39598   3.052   3.095  11.132 -0.1961 -0.5250  0.0830
 9322SOL    HW139599   3.000   3.048  11.197 -0.0260  1.8399  1.9170
 9322SOL    HW239600   3.019   3.059  11.050  1.0612  0.2350 -0.7663
 9323SOL     OW39601   2.613   4.474   3.486 -0.7068  0.0656  0.1688
 9323SOL    HW139602   2.670   4.415   3.436 -1.2521  0.0126 -0.3824
 9323SOL    HW239603   2.643   4.553   3.440  1.3360  0.7215  2.5851
 9324SOL     OW39604   3.617   4.469   3.021  0.0353  1.1269  0.1841
 9324SOL    HW139605   3.697   4.503   2.980  0.4265 -0.3214 -0.2456
 9324SOL    HW239606   3.576   4.551   3.048 -0.6273  1.0930 -0.7403
 9325SOL     OW39607   2.185   3.734   9.814  0.0360  0.3845 -0.4842
 9325SOL    HW139608   2.241   3.810   9.799 -0.2551  0.4472 -1.2368
 9325SOL    HW239609   2.244   3.659   9.827 -1.0833 -0.2039  1.2047
 9326SOL     OW39610   1.743   4.133   7.153  0.2494  0.0838  0.1027
 9326SOL    HW139611   1.650   4.147   7.133  0.4600  0.1945 -0.8156
 9326SOL    HW239612   1.791   4.212   7.130 -1.7977  1.2122 -0.3108
 9327SOL     OW39613   4.379   2.224   0.558 -0.2903  0.7304 -0.2155
 9327SOL    HW139614   4.409   2.245   0.470  0.4666  1.5123  0.2290
 9327SOL    HW239615   4.354   2.311   0.588  0.0436  0.8534 -0.2972
 9328SOL     OW39616   1.566   0.369  15.065  0.4798 -0.8503 -0.2556
 9328SOL    HW139617   1.565   0.290  15.119  2.7128 -1.8519 -1.7041
 9328SOL    HW239618   1.591   0.333  14.980 -1.9000  0.6803 -1.6058
 9329SOL     OW39619   0.161   3.321   7.913 -0.3776 -0.1424 -0.0026
 9329SOL    HW139620   0.110   3.240   7.902  2.2917 -1.8866  0.3993
 9329SOL    HW239621   0.176   3.325   8.007  0.5589 -1.6521 -0.0772
 9330SOL     OW39622   3.337   3.791   2.593  0.4644 -0.0285  0.4028
 9330SOL    HW139623   3.380   3.706   2.594  1.8330  0.6556 -0.6791
 9330SOL    HW239624   3.260   3.767   2.542 -0.0839 -0.6753  1.5263
 9331SOL     OW39625   1.381   1.743   3.862 -0.4300  0.0063 -0.5152
 9331SOL    HW139626   1.334   1.704   3.788 -0.8780  1.0990 -0.8016
 9331SOL    HW239627   1.467   1.702   3.860  0.3625  1.5983  0.7442
 9332SOL     OW39628   3.093   0.027   5.555  0.1646  0.3501 -0.0739
 9332SOL    HW139629   3.084   0.003   5.463  1.4504 -1.8477  0.3753
 9332SOL    HW239630   3.042   4.706   5.607  0.1368 -0.0870 -0.6134
 9333SOL     OW39631   0.521   4.135   0.180  0.1015  0.4847 -0.0937
 9333SOL    HW139632   0.442   4.100   0.222 -1.7795  2.3794 -2.0732
 9333SOL    HW239633   0.486   4.156   0.094  2.3235 -1.0135 -1.3642
 9334SOL     OW39634   2.660   3.660  12.532  0.2822  0.2088 -0.2589
 9334SOL    HW139635   2.754   3.663  12.547  0.3333 -0.5225 -0.4118
 9334SOL    HW239636   2.661   3.624  12.443  1.3288  0.5622 -0.3943
 9335SOL     OW39637   2.558   0.509   2.885 -0.1959 -0.1119  0.6260
 9335SOL    HW139638   2.549   0.603   2.874 -0.4907 -0.1587  0.4438
 9335SOL    HW239639   2.559   0.505   2.981 -2.8039 -0.4933  0.6474
 9336SOL     OW39640   3.599   0.819  16.911  1.0770 -0.2106 -0.1197
 9336SOL    HW139641   3.629   0.828  17.001  0.3477 -3.4342  0.4370
 9336SOL    HW239642   3.656   0.745  16.889  1.2316 -0.4436  1.0705
 9337SOL     OW39643   0.562   1.223   2.164  0.1634  0.0467  0.1576
 9337SOL    HW139644   0.566   1.312   2.131 -0.9744  0.2568  0.5809
 9337SOL    HW239645   0.652   1.203   2.188 -0.2860  1.9261  3.3682
 9338SOL     OW39646   3.388   3.926  13.722  0.4110  0.2765  0.0660
 9338SOL    HW139647   3.439   3.985  13.777 -0.3239  0.7032  0.2865
 9338SOL    HW239648   3.368   3.861  13.790 -1.4548  0.4578 -0.3063
 9339SOL     OW39649   0.338   4.309   8.358  0.0944  0.4233 -0.1767
 9339SOL    HW139650   0.379   4.368   8.421 -0.0065  2.5605 -2.1348
 9339SOL    HW239651   0.296   4.371   8.299 -0.0556  2.1885  1.7929
 9340SOL     OW39652   0.779   3.547   6.761 -0.4114  0.2170  1.1683
 9340SOL    HW139653   0.848   3.494   6.800 -1.3034  0.1951  2.7355
 9340SOL    HW239654   0.818   3.634   6.773  0.2253 -0.3653  3.4088
 9341SOL     OW39655   4.260   4.597   1.680  0.0740  0.0077  0.0922
 9341SOL    HW139656   4.283   4.661   1.747 -0.1971  0.7537 -0.5216
 9341SOL    HW239657   4.199   4.657   1.637  1.8330  0.6669 -1.5193
 9342SOL     OW39658   4.492   2.259   3.821 -0.2315 -0.2799 -0.2750
 9342SOL    HW139659   4.548   2.271   3.897 -1.1451  2.0400  0.0458
 9342SOL    HW239660   4.545   2.274   3.743 -1.0913  0.8084 -0.6633
 9343SOL     OW39661   0.369   0.571   5.463  0.4177 -0.0334  0.3785
 9343SOL    HW139662   0.413   0.589   5.380  1.8513  2.5753  1.7052
 9343SOL    HW239663   0.420   0.614   5.532  0.3338  0.4953  0.1103
 9344SOL     OW39664   2.019   0.681   3.036  0.1203 -0.4257  0.1015
 9344SOL    HW139665   1.984   0.706   3.122  0.5911 -0.8560  0.4185
 9344SOL    HW239666   1.936   0.679   2.988 -1.1767  0.7545  2.3017
 9345SOL     OW39667   3.114   0.783   7.175 -0.7573 -0.0137  0.4552
 9345SOL    HW139668   3.177   0.723   7.214 -0.0942 -0.2819 -1.0393
 9345SOL    HW239669   3.133   0.772   7.081  1.4415  0.7966  0.8149
 9346SOL     OW39670   2.346   0.263   1.320  0.3378 -0.5936  0.0281
 9346SOL    HW139671   2.330   0.243   1.228  0.8267 -2.5536  0.3851
 9346SOL    HW239672   2.271   0.320   1.340 -0.4069 -0.8325 -2.1360
 9347SOL     OW39673   1.975   1.645   8.549 -0.1784 -0.0838  0.2129
 9347SOL    HW139674   1.963   1.737   8.529  2.3669 -0.3521 -2.5159
 9347SOL    HW239675   2.058   1.645   8.598  0.0772 -0.6841 -0.2256
 9348SOL     OW39676   3.426   0.933  14.665  0.0937  0.2856 -0.5305
 9348SOL    HW139677   3.430   0.844  14.632  0.3721  0.6049 -1.3553
 9348SOL    HW239678   3.334   0.935  14.690  0.4534 -0.0295  0.8175
 9349SOL     OW39679   1.454   2.471   1.764 -0.1560  0.4396 -0.0898
 9349SOL    HW139680   1.476   2.491   1.855 -0.3399 -0.0117  0.0504
 9349SOL    HW239681   1.455   2.558   1.724  1.7764 -0.7338 -2.6532
 9350SOL     OW39682   0.977   2.960   1.551 -0.2451  0.0915  0.1326
 9350SOL    HW139683   0.893   2.921   1.529 -0.6143  0.7642  0.3482
 9350SOL    HW239684   1.040   2.888   1.558 -0.3784 -0.0832 -0.4511
 9351SOL     OW39685   4.278   2.170  15.292  0.7345 -0.1298  0.3553
 9351SOL    HW139686   4.193   2.204  15.262  1.1631  0.7386  0.1451
 9351SOL    HW239687   4.334   2.236  15.253 -1.0801  0.9148 -0.5094
 9352SOL     OW39688   4.559   3.832   6.656 -0.4372  0.0117 -0.4130
 9352SOL    HW139689   4.471   3.849   6.688  0.6068  3.1010  0.9001
 9352SOL    HW239690   4.590   3.923   6.651  1.3706 -0.5583  0.4582
 9353SOL     OW39691   3.174   1.848   4.173 -0.5163  0.5128 -0.2038
 9353SOL    HW139692   3.118   1.830   4.098 -0.3282  1.9456 -0.6926
 9353SOL    HW239693   3.200   1.757   4.183 -1.7112  0.2804  0.9444
 9354SOL     OW39694   2.455   4.098   5.090  0.2877  0.2824 -0.1109
 9354SOL    HW139695   2.438   4.114   5.183  1.5236  2.1363 -0.2086
 9354SOL    HW239696   2.540   4.142   5.082  0.3189 -0.0776 -1.6680
 9355SOL     OW39697   1.153   3.207   2.775  0.1611 -0.4087  0.2870
 9355SOL    HW139698   1.073   3.158   2.760 -0.1819 -0.0359  0.9192
 9355SOL    HW239699   1.206   3.170   2.704 -0.4820 -1.2893  0.2812
 9356SOL     OW39700   1.167   4.372  11.633 -0.5586  0.2490  0.4516
 9356SOL    HW139701   1.198   4.331  11.552 -1.0291  1.3874 -0.3092
 9356SOL    HW239702   1.232   4.345  11.697  0.0356  0.9767  0.1425
 9357SOL     OW39703   3.661   3.013   6.280 -0.3065 -0.0933  0.1711
 9357SOL    HW139704   3.571   2.990   6.301  0.1317 -2.2994 -0.3670
 9357SOL    HW239705   3.686   2.924   6.259 -0.2638 -0.1417  0.4263
 9358SOL     OW39706   4.353   3.689   6.267 -0.2105  0.2953  0.4851
 9358SOL    HW139707   4.406   3.672   6.345 -1.3740 -0.0589  1.2121
 9358SOL    HW239708   4.307   3.767   6.299 -2.3537  0.0445 -1.9276
 9359SOL     OW39709   0.450   2.127   2.080 -0.1224 -0.4010  0.0823
 9359SOL    HW139710   0.510   2.053   2.092 -0.7682 -0.6909  1.5017
 9359SOL    HW239711   0.373   2.071   2.076 -0.3853 -0.0562  0.3463
 9360SOL     OW39712   1.335   3.246   2.981 -0.2622  0.1603 -0.1866
 9360SOL    HW139713   1.382   3.183   2.927 -2.1939  0.0858 -1.7710
 9360SOL    HW239714   1.265   3.249   2.916  2.2745  1.9574 -2.8542
 9361SOL     OW39715   0.168   3.946  12.956 -0.1611 -0.5180  0.1598
 9361SOL    HW139716   0.192   3.886  12.886  2.1722 -0.2295  0.6938
 9361SOL    HW239717   0.119   4.019  12.917 -0.8234 -1.0695 -0.0319
 9362SOL     OW39718   1.897   4.549   6.105  0.3604 -0.4834 -0.2760
 9362SOL    HW139719   1.930   4.570   6.192 -1.4651 -0.4202  0.4060
 9362SOL    HW239720   1.966   4.499   6.061 -1.0753 -2.0915 -0.6994
 9363SOL     OW39721   1.134   4.095   0.954 -0.0487  0.6543 -0.3725
 9363SOL    HW139722   1.155   4.104   0.861 -0.4821 -0.5190 -0.5846
 9363SOL    HW239723   1.074   4.170   0.963  0.0870  0.5723  1.2562
 9364SOL     OW39724   0.619   1.637   5.210 -0.0685  0.0050 -0.1316
 9364SOL    HW139725   0.654   1.699   5.274  1.0533  0.1232 -0.8518
 9364SOL    HW239726   0.702   1.603   5.177 -0.0989  0.5288 -0.7527
 9365SOL     OW39727   4.180   3.461   1.952 -0.0471 -0.2600 -0.0848
 9365SOL    HW139728   4.200   3.505   1.869  0.3659  1.2437  0.8209
 9365SOL    HW239729   4.252   3.490   2.008 -0.4948 -1.4913  1.1103
 9366SOL     OW39730   4.507   1.414   4.055  0.0563  0.5623 -0.0337
 9366SOL    HW139731   4.528   1.508   4.054  1.6022  0.2100 -2.1832
 9366SOL    HW239732   4.589   1.371   4.031  0.4840  0.1023  2.3157
 9367SOL     OW39733   0.267   2.093   7.889 -0.1655 -0.1565  0.3595
 9367SOL    HW139734   0.297   2.129   7.806  0.5899  1.4002  1.3010
 9367SOL    HW239735   0.353   2.056   7.908  0.1188  0.4161  0.1817
 9368SOL     OW39736   0.073   2.915   1.760 -0.3459 -0.4980  0.0268
 9368SOL    HW139737   0.137   2.882   1.698  0.6290 -0.4225  0.9990
 9368SOL    HW239738   0.111   3.002   1.775 -1.1753 -0.1536  0.1659
 9369SOL     OW39739   0.587   1.450   6.279  0.2084  0.1513  0.6031
 9369SOL    HW139740   0.521   1.395   6.239 -0.1543 -0.9821  2.7671
 9369SOL    HW239741   0.536   1.530   6.291  1.2785  0.6550  1.7525
 9370SOL     OW39742   0.299   3.980  16.963  0.4763  0.1091  0.6652
 9370SOL    HW139743   0.242   3.903  16.952 -0.4290  0.8876 -0.0781
 9370SOL    HW239744   0.333   3.995  16.875  0.4624  1.6169  0.9244
 9371SOL     OW39745   0.798   2.793   9.219 -0.0093  0.1744  0.4995
 9371SOL    HW139746   0.755   2.817   9.137  0.9679  0.3970  0.0586
 9371SOL    HW239747   0.858   2.867   9.224 -0.4341  0.4905  1.0043
 9372SOL     OW39748   0.606   1.435   1.968 -0.2519  0.3661  0.0483
 9372SOL    HW139749   0.605   1.408   1.877  1.2755 -1.4263  0.5600
 9372SOL    HW239750   0.578   1.525   1.949  1.4724  0.5764 -1.4417
 9373SOL     OW39751   3.703   1.418   0.928  0.6556  0.0858 -0.1507
 9373SOL    HW139752   3.626   1.375   0.966  1.3474 -0.5074  0.5861
 9373SOL    HW239753   3.752   1.451   1.004 -2.7775  2.6811  0.9449
 9374SOL     OW39754   1.370   3.853  15.963 -0.2516  0.3377  0.6202
 9374SOL    HW139755   1.387   3.882  15.873 -0.1245  1.8751  1.1391
 9374SOL    HW239756   1.294   3.795  15.965  0.9875 -1.3396 -1.0518
 9375SOL     OW39757   3.707   3.704   8.891  0.8468  0.0215 -0.0353
 9375SOL    HW139758   3.724   3.707   8.985 -2.1940  0.1788  0.5347
 9375SOL    HW239759   3.666   3.791   8.884  2.0417  0.5453 -0.5087
 9376SOL     OW39760   1.263   1.594   2.663  0.9615  0.1415 -0.2125
 9376SOL    HW139761   1.270   1.504   2.693 -0.3342 -0.5239 -1.8564
 9376SOL    HW239762   1.197   1.641   2.714 -1.1308 -0.4420 -2.3360
 9377SOL     OW39763   1.064   3.074  15.546  0.4598 -0.5171  0.1475
 9377SOL    HW139764   1.083   3.006  15.610  2.0354  0.4681  0.7263
 9377SOL    HW239765   1.120   3.142  15.584 -1.0107  1.8005 -1.8323
 9378SOL     OW39766   1.836   0.154  10.824 -0.3384  0.4622 -0.2069
 9378SOL    HW139767   1.743   0.177  10.831 -1.0879 -2.5391 -0.1330
 9378SOL    HW239768   1.867   0.211  10.753 -1.9287  1.2608 -0.2770
 9379SOL     OW39769   2.742   2.877   5.495  0.3378  0.8421  0.0453
 9379SOL    HW139770   2.734   2.820   5.419 -1.7409  3.2512 -1.5509
 9379SOL    HW239771   2.757   2.814   5.565 -2.0342 -1.8283 -1.8503
 9380SOL     OW39772   2.730   2.570   9.921  0.5917  0.1358 -0.4552
 9380SOL    HW139773   2.775   2.563  10.006 -0.9831 -1.1541  0.2612
 9380SOL    HW239774   2.723   2.477   9.897 -2.8883  0.0439  0.8935
 9381SOL     OW39775   3.302   0.463   4.834 -0.3671  0.3905 -0.6409
 9381SOL    HW139776   3.283   0.375   4.867  4.2760  0.3317  1.8250
 9381SOL    HW239777   3.341   0.494   4.915  0.6691  1.7932 -1.6647
 9382SOL     OW39778   2.270   4.047  14.087  0.3040 -0.1615 -0.2805
 9382SOL    HW139779   2.226   4.017  14.166  0.1305  0.1201 -0.2719
 9382SOL    HW239780   2.242   4.138  14.085  3.0468  0.6740 -1.9935
 9383SOL     OW39781   1.829   4.655   8.292 -0.4712  0.2630  0.3975
 9383SOL    HW139782   1.786   4.701   8.364 -0.8551 -0.8137  0.8617
 9383SOL    HW239783   1.816   4.703   8.210 -0.6353 -0.6973 -0.1412
 9384SOL     OW39784   3.169   2.821   5.913  0.5739 -0.0149 -0.4818
 9384SOL    HW139785   3.176   2.914   5.889  0.0991  0.4109  0.9980
 9384SOL    HW239786   3.153   2.828   6.007 -1.5568 -0.9843 -0.7872
 9385SOL     OW39787   1.053   1.527  11.434  0.5699 -0.3294 -0.2804
 9385SOL    HW139788   1.126   1.589  11.438  1.2411 -1.1716  0.5249
 9385SOL    HW239789   1.079   1.463  11.500 -0.7576 -1.1266 -0.5374
 9386SOL     OW39790   2.638   1.260   6.692 -0.4750  0.5297 -0.1484
 9386SOL    HW139791   2.657   1.353   6.679  0.7092  0.3447  0.2687
 9386SOL    HW239792   2.640   1.215   6.608 -1.4715  1.0907 -0.4699
 9387SOL     OW39793   3.681   3.704   0.723  0.1814 -0.1819  0.1079
 9387SOL    HW139794   3.600   3.658   0.745  1.3313 -1.6232  1.3058
 9387SOL    HW239795   3.750   3.638   0.725 -0.5952 -1.0067 -0.1708
 9388SOL     OW39796   2.075   1.003   5.603  0.5701 -0.4525  0.1134
 9388SOL    HW139797   2.137   0.955   5.549  0.9968 -0.9379  1.0350
 9388SOL    HW239798   2.098   1.090   5.569 -0.3986 -0.4458 -0.5265
 9389SOL     OW39799   2.091   3.372   8.693  0.1719 -0.2820  0.0896
 9389SOL    HW139800   2.064   3.450   8.740 -0.7663 -0.2736 -0.4520
 9389SOL    HW239801   2.019   3.310   8.707 -0.7510  0.8269  0.2227
 9390SOL     OW39802   0.577   1.276  10.423 -0.4043  0.0636 -0.3884
 9390SOL    HW139803   0.643   1.266  10.491  0.9125  0.0157 -1.6790
 9390SOL    HW239804   0.548   1.365  10.442 -0.0710  0.0698  0.0871
 9391SOL     OW39805   3.731   2.338   5.922 -0.2268  0.2808 -0.1981
 9391SOL    HW139806   3.744   2.284   5.844 -0.4378 -0.6976  0.4509
 9391SOL    HW239807   3.815   2.338   5.968  0.0020 -0.5580 -0.6236
 9392SOL     OW39808   0.210   4.638   7.324 -0.2312 -0.0075 -0.0427
 9392SOL    HW139809   0.275   4.606   7.262  0.3162 -0.5854  0.8342
 9392SOL    HW239810   0.178   4.556   7.361  0.7685  0.7358  2.4217
 9393SOL     OW39811   1.144   2.192   2.685 -0.4367  0.2422 -0.6739
 9393SOL    HW139812   1.141   2.281   2.649  0.8167  0.0284 -1.2983
 9393SOL    HW239813   1.074   2.199   2.750  0.2659  0.7058  0.0307
 9394SOL     OW39814   1.309   4.493   4.695 -0.1995 -0.2919 -0.1530
 9394SOL    HW139815   1.299   4.417   4.638 -1.7928 -1.1958  1.3415
 9394SOL    HW239816   1.400   4.487   4.724 -0.9573 -0.4268  2.1876
 9395SOL     OW39817   3.069   1.154   9.571  0.2542 -0.1618  0.0826
 9395SOL    HW139818   3.065   1.059   9.580  0.5217 -0.3267 -1.4607
 9395SOL    HW239819   2.990   1.180   9.524 -1.1839  1.7737  3.5813
 9396SOL     OW39820   2.868   4.715   5.298 -0.2764 -0.3653 -0.1986
 9396SOL    HW139821   2.828   0.062   5.292  0.0627 -0.3355 -2.1331
 9396SOL    HW239822   2.845   4.671   5.216  0.1574 -1.6287  0.3541
 9397SOL     OW39823   4.476   2.004  13.406 -0.2717  0.5822 -0.4883
 9397SOL    HW139824   4.505   2.095  13.409 -0.3365  0.5952 -0.2654
 9397SOL    HW239825   4.433   2.010  13.491  1.6461  0.1389  0.5064
 9398SOL     OW39826   2.936   0.910   0.890  0.0228  0.3448 -0.2763
 9398SOL    HW139827   2.994   0.870   0.825  0.0566  0.0654 -0.0775
 9398SOL    HW239828   2.943   0.998   0.855 -0.7293  1.3683  2.1732
 9399SOL     OW39829   1.222   2.407   3.477 -1.0141  0.3374 -0.5543
 9399SOL    HW139830   1.193   2.498   3.484  0.8529  0.9214 -0.3922
 9399SOL    HW239831   1.317   2.414   3.466 -0.8978 -1.3571 -0.6320
 9400SOL     OW39832   3.111   2.011   6.277 -0.1809  0.1059  0.2420
 9400SOL    HW139833   3.087   1.956   6.203  0.9464  1.6011 -1.2247
 9400SOL    HW239834   3.090   2.092   6.230  0.2197 -0.5439 -1.0377
 9401SOL     OW39835   3.935   0.980   3.691  0.4309 -0.0950  0.4133
 9401SOL    HW139836   3.984   1.063   3.689 -0.3657  0.3350 -1.6381
 9401SOL    HW239837   3.944   0.954   3.783 -1.6883 -1.1381  0.3173
 9402SOL     OW39838   2.670   2.494   7.880  0.4508  0.3795 -0.2833
 9402SOL    HW139839   2.646   2.569   7.824  2.7740  2.2736  1.2859
 9402SOL    HW239840   2.645   2.422   7.821 -0.9089 -0.3986  1.2593
 9403SOL     OW39841   4.566   4.592   8.711  0.0293  0.4071  0.6042
 9403SOL    HW139842   4.581   4.506   8.672  0.9957  0.6790  0.3754
 9403SOL    HW239843   4.654   4.608   8.745  0.7128  0.4094 -1.1555
 9404SOL     OW39844   3.040   1.811   8.811 -0.4767  0.7566 -0.1691
 9404SOL    HW139845   3.066   1.883   8.868  0.0636 -0.2262  0.8342
 9404SOL    HW239846   2.953   1.797   8.847  0.4595 -0.7543  1.5146
 9405SOL     OW39847   2.820   3.120   5.345 -0.1320  0.3682  0.1800
 9405SOL    HW139848   2.851   3.150   5.430 -0.8976 -0.5188  0.7712
 9405SOL    HW239849   2.799   3.030   5.368  0.9961  0.0626 -0.0037
 9406SOL     OW39850   0.222   4.413   1.010 -0.2937 -0.4110 -0.0206
 9406SOL    HW139851   0.221   4.468   1.089  1.0512  1.1229 -1.0726
 9406SOL    HW239852   0.304   4.366   1.022  0.0844 -0.0796 -1.3300
 9407SOL     OW39853   4.354   0.770  10.844 -0.0363  0.1722 -0.0393
 9407SOL    HW139854   4.338   0.858  10.879  0.0132 -0.1926  0.8926
 9407SOL    HW239855   4.360   0.785  10.749 -2.8742  0.3019 -0.2250
 9408SOL     OW39856   1.724   4.735  12.694  0.0548 -0.1592 -0.1146
 9408SOL    HW139857   1.674   0.052  12.635  2.0982  0.4307 -1.2607
 9408SOL    HW239858   1.741   4.655  12.646  0.7422 -0.2902  0.3523
 9409SOL     OW39859   0.871   4.177   3.378  0.6496 -0.3653  0.5259
 9409SOL    HW139860   0.963   4.195   3.398  1.5230 -2.6909 -1.3363
 9409SOL    HW239861   0.842   4.258   3.419  0.5658  0.0778 -0.4236
 9410SOL     OW39862   2.771   0.180   9.017  0.1933 -0.4320  0.5923
 9410SOL    HW139863   2.835   0.150   9.081  0.8059 -1.8121 -0.6823
 9410SOL    HW239864   2.759   0.101   8.964 -3.2390 -0.8541  1.9735
 9411SOL     OW39865   4.438   4.054  13.761 -0.0712 -0.0256 -0.0206
 9411SOL    HW139866   4.436   4.071  13.856  0.1089  2.6133 -0.4911
 9411SOL    HW239867   4.524   4.018  13.742 -0.3721 -0.6656 -0.1626
 9412SOL     OW39868   3.551   4.450   4.224 -0.0074 -0.3569 -0.6947
 9412SOL    HW139869   3.565   4.426   4.132  4.1129 -0.2261 -0.1038
 9412SOL    HW239870   3.510   4.375   4.268 -1.4859 -0.4858 -2.2576
 9413SOL     OW39871   0.436   0.847   6.715  0.2808  0.1442 -0.4875
 9413SOL    HW139872   0.361   0.906   6.719 -1.9777 -2.6953 -0.7458
 9413SOL    HW239873   0.397   0.776   6.664 -0.9347  0.0434  0.5878
 9414SOL     OW39874   0.406   1.018  11.907 -0.1392 -0.0564  0.0839
 9414SOL    HW139875   0.469   1.089  11.910 -1.0532  0.8383 -2.3372
 9414SOL    HW239876   0.439   0.961  11.977 -3.1796 -1.9863 -0.0090
 9415SOL     OW39877   2.167   3.620   2.854  0.1965  0.4975  0.4033
 9415SOL    HW139878   2.088   3.672   2.838  0.0708 -0.4318 -1.9123
 9415SOL    HW239879   2.166   3.622   2.950  2.4572 -0.0840  0.4412
 9416SOL     OW39880   4.509   2.937   1.246  0.2142  0.0485  0.2365
 9416SOL    HW139881   4.474   2.915   1.160  1.5795 -1.2794  0.0164
 9416SOL    HW239882   4.602   2.935   1.222 -0.1651 -0.6044 -1.1843
 9417SOL     OW39883   0.650   0.100  15.656 -0.4682  0.0505  0.2096
 9417SOL    HW139884   0.662   0.013  15.695 -1.2171  0.1937  0.7624
 9417SOL    HW239885   0.643   0.149  15.738 -2.0955  0.2739 -0.0560
 9418SOL     OW39886   4.050   2.062   5.485  0.4792 -0.1600  0.4874
 9418SOL    HW139887   4.080   2.153   5.493 -1.3239  0.4199  0.6296
 9418SOL    HW239888   4.051   2.031   5.575  0.7124 -2.1660 -0.1961
 9419SOL     OW39889   0.476   2.886   8.019  0.1505  0.0831  0.8341
 9419SOL    HW139890   0.515   2.967   7.985 -1.1684 -0.0844 -1.1059
 9419SOL    HW239891   0.420   2.919   8.090 -1.1681  1.6727 -0.9214
 9420SOL     OW39892   4.275   4.012   8.002  0.7414  0.3231 -0.1785
 9420SOL    HW139893   4.219   3.939   7.978  0.3651  0.7212 -0.5302
 9420SOL    HW239894   4.224   4.082   7.961  3.8181  1.0379 -2.8159
 9421SOL     OW39895   2.062   4.490   1.312 -0.6435 -0.0705 -0.4627
 9421SOL    HW139896   2.078   4.573   1.357 -0.6066 -0.2235 -0.1947
 9421SOL    HW239897   2.013   4.524   1.237 -4.7102 -1.5455  1.5309
 9422SOL     OW39898   0.699   1.550   4.177 -0.5351  0.2721  0.6367
 9422SOL    HW139899   0.748   1.583   4.252  3.2337 -1.5814 -1.0444
 9422SOL    HW239900   0.649   1.627   4.148 -1.9298 -1.1240 -0.7177
 9423SOL     OW39901   0.968   4.698   2.691  0.6483  0.1095 -0.3974
 9423SOL    HW139902   0.952   4.732   2.604  0.6983 -0.1201 -0.4975
 9423SOL    HW239903   0.931   0.025   2.750 -0.5984 -0.6994 -0.2693
 9424SOL     OW39904   1.849   0.257   5.738  0.6920 -0.0134  0.1560
 9424SOL    HW139905   1.855   0.311   5.817  1.5512 -1.3250  0.9855
 9424SOL    HW239906   1.755   0.245   5.721  0.1100 -0.0495  3.3606
 9425SOL     OW39907   3.729   1.716   9.256 -0.0020  0.4510  0.2503
 9425SOL    HW139908   3.708   1.756   9.171  2.4873 -0.5980 -0.8456
 9425SOL    HW239909   3.818   1.684   9.240 -0.7219 -0.8218 -1.1290
 9426SOL     OW39910   3.379   2.485   5.544  0.0607  0.1396  0.6139
 9426SOL    HW139911   3.437   2.548   5.501 -0.4283 -0.4546 -0.8933
 9426SOL    HW239912   3.378   2.530   5.629 -3.0742 -2.1649  1.7973
 9427SOL     OW39913   2.374   2.730   4.961  0.0268  0.4384 -0.0411
 9427SOL    HW139914   2.450   2.673   4.946  0.2949  0.6807  0.3876
 9427SOL    HW239915   2.341   2.754   4.875  0.3921  0.3872 -0.1980
 9428SOL     OW39916   2.914   2.013   7.457 -0.0080 -0.7189 -0.1286
 9428SOL    HW139917   2.889   1.987   7.368 -2.5878  1.6518 -0.0869
 9428SOL    HW239918   2.837   2.063   7.484  1.6787  0.7913  1.8988
 9429SOL     OW39919   2.353   1.925   7.206 -0.7830  0.2718  0.0795
 9429SOL    HW139920   2.338   2.020   7.213 -2.1548  0.1142 -0.8131
 9429SOL    HW239921   2.405   1.910   7.285  1.3647 -0.8352 -1.5647
 9430SOL     OW39922   0.024   2.278   4.327 -0.6513  0.5110 -0.7171
 9430SOL    HW139923   4.701   2.303   4.395 -2.3754 -1.9288 -1.4003
 9430SOL    HW239924   0.108   2.281   4.373 -1.0548 -0.7850  0.1096
 9431SOL     OW39925   3.578   1.948   8.191  0.0212  0.3705  0.2137
 9431SOL    HW139926   3.614   1.990   8.269 -0.0924 -0.6800  0.8293
 9431SOL    HW239927   3.636   1.872   8.178  1.6978  1.5856  0.5492
 9432SOL     OW39928   0.235   4.436   5.529 -0.3029 -0.2597 -0.0052
 9432SOL    HW139929   0.229   4.342   5.511  0.1087 -0.6882  2.1007
 9432SOL    HW239930   0.325   4.439   5.562 -0.9740 -1.4171  1.9927
 9433SOL     OW39931   0.543   1.323  13.436  0.0628 -0.6091 -0.2400
 9433SOL    HW139932   0.471   1.353  13.379  0.1545  1.4340  0.7443
 9433SOL    HW239933   0.585   1.268  13.369 -0.7761 -1.9113  0.3023
 9434SOL     OW39934   1.806   3.983   4.971  0.0267 -0.1369 -0.3288
 9434SOL    HW139935   1.825   3.980   5.065  1.6232 -3.1805 -0.7560
 9434SOL    HW239936   1.736   4.049   4.967  1.2515  1.1169 -0.9791
 9435SOL     OW39937   1.635   3.528   6.901  0.0880  0.4510 -0.2813
 9435SOL    HW139938   1.575   3.459   6.926  2.5855 -1.2838  0.9091
 9435SOL    HW239939   1.614   3.608   6.950 -0.2202 -0.5002  1.1177
 9436SOL     OW39940   2.071   3.285  11.225  0.0777  0.0698  0.6507
 9436SOL    HW139941   2.005   3.224  11.193  0.6688 -0.1415 -0.1859
 9436SOL    HW239942   2.143   3.254  11.169 -2.3608 -0.7094 -2.1024
 9437SOL     OW39943   1.376   4.669   1.638  0.5747 -0.2686 -0.1630
 9437SOL    HW139944   1.300   4.611   1.638  0.1953  0.2277  0.1524
 9437SOL    HW239945   1.341   0.009   1.597 -0.2305 -1.0583 -1.0035
 9438SOL     OW39946   0.917   4.016   3.814  0.2044  0.0530  0.1350
 9438SOL    HW139947   0.884   3.953   3.878 -0.5782  1.3160  0.9891
 9438SOL    HW239948   0.865   3.992   3.738  1.4008 -0.1017 -0.6303
 9439SOL     OW39949   1.377   4.650   6.818 -0.2111 -0.0006 -0.3436
 9439SOL    HW139950   1.446   4.679   6.878 -0.6098  1.2453 -0.4782
 9439SOL    HW239951   1.328   4.587   6.869  0.2972 -0.5822 -0.5761
 9440SOL     OW39952   1.759   3.875   7.734 -0.5795  0.1613  0.0515
 9440SOL    HW139953   1.817   3.927   7.679  0.3367 -1.0173 -0.0909
 9440SOL    HW239954   1.798   3.787   7.729  0.9449  0.8421  0.0789
 9441SOL     OW39955   2.639   3.900   5.022 -0.3302 -0.3147  0.5331
 9441SOL    HW139956   2.634   3.928   4.931 -1.9278  0.1082  0.7435
 9441SOL    HW239957   2.549   3.917   5.051  0.2915  0.1442  2.2089
 9442SOL     OW39958   2.403   4.102  10.431 -0.7042 -0.2006  0.1683
 9442SOL    HW139959   2.481   4.058  10.465 -0.1800 -0.8367 -1.8864
 9442SOL    HW239960   2.341   4.041  10.470 -3.1694  1.3264 -1.3234
 9443SOL     OW39961   2.325   3.013   5.750 -0.4038  0.0529 -0.0015
 9443SOL    HW139962   2.353   2.928   5.716  0.2147  0.3014 -0.1157
 9443SOL    HW239963   2.359   3.001   5.838 -1.6896 -1.0252  0.3574
 9444SOL     OW39964   3.610   3.010   1.875 -0.1769 -0.1833  0.3365
 9444SOL    HW139965   3.610   3.029   1.781 -0.3472  0.8185  0.5420
 9444SOL    HW239966   3.697   2.973   1.888  0.4377  0.7665 -1.0822
 9445SOL     OW39967   1.167   4.616   2.929 -0.1226  0.1631  0.1672
 9445SOL    HW139968   1.099   4.609   2.862  1.0786 -0.7208 -0.9535
 9445SOL    HW239969   1.146   4.691   2.984 -1.9522 -0.7660  0.7324
 9446SOL     OW39970   4.257   1.426   3.659 -0.1095 -0.0660  0.0962
 9446SOL    HW139971   4.314   1.478   3.603 -1.1482 -0.4687 -1.3370
 9446SOL    HW239972   4.313   1.357   3.694 -2.3184 -1.5468  0.7277
 9447SOL     OW39973   0.767   0.301  14.644 -0.1235  0.0627  0.0328
 9447SOL    HW139974   0.820   0.321  14.567 -0.3719  0.3533 -0.0626
 9447SOL    HW239975   0.677   0.303  14.610 -0.2617  0.0261  0.3960
 9448SOL     OW39976   1.490   4.271   4.187  0.1428 -0.1182 -0.1152
 9448SOL    HW139977   1.583   4.254   4.200  0.3848 -0.8029 -2.9059
 9448SOL    HW239978   1.471   4.301   4.276  0.1813 -1.4450  0.3382
 9449SOL     OW39979   3.475   4.191   6.496  0.2071 -0.5144 -0.8033
 9449SOL    HW139980   3.513   4.121   6.444  3.7729  0.6148  0.2784
 9449SOL    HW239981   3.505   4.165   6.584 -1.4364  0.6700  0.1115
 9450SOL     OW39982   1.089   2.175   5.135  0.1641 -0.3368 -0.3496
 9450SOL    HW139983   1.095   2.195   5.042  0.7926 -0.7320 -0.3933
 9450SOL    HW239984   1.011   2.120   5.135 -2.6984  3.7273  0.4472
 9451SOL     OW39985   2.155   2.497  12.691 -0.4914 -0.4506 -0.0847
 9451SOL    HW139986   2.083   2.442  12.723  1.2557 -1.8462  1.4703
 9451SOL    HW239987   2.115   2.552  12.624 -1.4619 -0.5810  0.3861
 9452SOL     OW39988   3.107   2.799   6.176 -0.4323  0.4956  0.8837
 9452SOL    HW139989   3.140   2.811   6.265 -1.5603  0.7009  1.2782
 9452SOL    HW239990   3.080   2.708   6.185  2.2170 -0.1431  2.4977
 9453SOL     OW39991   4.432   0.395   2.910 -0.1113 -1.1586 -0.1382
 9453SOL    HW139992   4.349   0.347   2.919 -0.8513 -0.1412 -1.5239
 9453SOL    HW239993   4.456   0.362   2.824 -1.1721  0.4201 -1.0458
 9454SOL     OW39994   0.900   4.659   2.218 -0.1735  0.8096  0.8153
 9454SOL    HW139995   0.853   4.737   2.248  0.7812  0.4261  3.3064
 9454SOL    HW239996   0.939   4.689   2.136  2.0107 -0.5054  1.3839
 9455SOL     OW39997   3.423   4.706   2.587 -0.0616 -0.0115  0.1303
 9455SOL    HW139998   3.328   4.713   2.599 -0.0503  2.6164 -1.2867
 9455SOL    HW239999   3.431   4.642   2.517 -1.4536 -0.7708  0.6776
 9456SOL     OW40000   1.236   4.483  14.974  0.1198 -0.6650  0.9003
 9456SOL    HW140001   1.185   4.410  14.937  0.5987 -0.1132 -0.8511
 9456SOL    HW240002   1.167   4.550  14.978  1.4840  0.8045 -0.2686
 9457SOL     OW40003   0.580   2.993  13.308  0.3430 -0.0408 -0.5086
 9457SOL    HW140004   0.531   3.035  13.238  2.2225  0.3995 -1.5385
 9457SOL    HW240005   0.668   3.014  13.278 -0.7544  2.8221 -1.6925
 9458SOL     OW40006   2.975   0.496  17.586 -0.7945 -0.1667  0.1778
 9458SOL    HW140007   3.019   0.525  17.506  0.1145 -0.1518  0.6854
 9458SOL    HW240008   2.931   0.419  17.551  1.1481 -1.0393 -0.3411
 9459SOL     OW40009   2.062   3.267  16.972  0.0249  0.7296 -0.5092
 9459SOL    HW140010   2.001   3.331  17.008  0.8758  0.8529  0.7312
 9459SOL    HW240011   2.133   3.278  17.037  0.9112 -0.3846 -1.2877
 9460SOL     OW40012   4.472   3.807   1.699 -0.1175  0.0446  0.1637
 9460SOL    HW140013   4.409   3.815   1.628  1.6101 -1.0820 -1.4758
 9460SOL    HW240014   4.418   3.783   1.774 -0.5465 -0.0694 -0.1871
 9461SOL     OW40015   0.958   3.957   4.588  0.0320 -0.1888  0.1066
 9461SOL    HW140016   0.892   3.893   4.613  1.5502 -1.4241  1.0112
 9461SOL    HW240017   0.912   4.030   4.629  1.4151  0.8330 -0.1473
 9462SOL     OW40018   1.803   1.130   6.277 -0.3758  0.7209  0.8339
 9462SOL    HW140019   1.882   1.180   6.297  0.2713  0.1229 -0.1852
 9462SOL    HW240020   1.731   1.193   6.269 -1.2040 -0.1891  1.0946
 9463SOL     OW40021   4.349   3.375  10.439  0.0671 -0.2117  0.3007
 9463SOL    HW140022   4.353   3.297  10.495 -1.1483 -1.3034 -1.1159
 9463SOL    HW240023   4.321   3.442  10.502  1.2401  1.0450 -0.5208
 9464SOL     OW40024   1.130   4.306  14.417 -0.4657 -0.4532 -0.1763
 9464SOL    HW140025   1.197   4.370  14.440 -0.7269 -0.1870 -0.1496
 9464SOL    HW240026   1.181   4.245  14.364  1.3882 -0.8320  2.0255
 9465SOL     OW40027   0.765   4.464   8.859  0.2273 -0.2925  0.3965
 9465SOL    HW140028   0.835   4.510   8.813 -0.1439 -1.0701 -0.9311
 9465SOL    HW240029   0.823   4.418   8.919 -0.4037  0.4827  1.5948
 9466SOL     OW40030   3.420   2.939   6.418 -0.6603  0.2216 -0.6807
 9466SOL    HW140031   3.436   2.941   6.512  1.6205  1.2967 -1.1072
 9466SOL    HW240032   3.373   2.855   6.411  1.3229 -0.9052 -0.3981
 9467SOL     OW40033   0.388   2.609  12.727  0.0373 -0.0514 -0.4814
 9467SOL    HW140034   0.352   2.521  12.736  1.5106 -0.7849 -1.8817
 9467SOL    HW240035   0.478   2.579  12.720 -0.1516  0.1872 -3.8887
 9468SOL     OW40036   4.394   0.713  17.336 -0.1391 -0.0846  0.1906
 9468SOL    HW140037   4.411   0.620  17.322 -0.6051 -0.2058  0.4250
 9468SOL    HW240038   4.327   0.720  17.404 -1.7993 -0.7825 -1.3886
 9469SOL     OW40039   4.451   3.242   1.807  0.0318  0.4383 -0.5084
 9469SOL    HW140040   4.483   3.159   1.772  0.2078  0.5990 -0.7318
 9469SOL    HW240041   4.508   3.306   1.764 -0.7373  1.7165  0.3674
 9470SOL     OW40042   0.158   2.665   4.313 -0.1256  0.2587  0.6177
 9470SOL    HW140043   0.199   2.750   4.330 -0.0109  0.2257  0.5075
 9470SOL    HW240044   0.113   2.650   4.396  1.5338  0.5555  1.5788
 9471SOL     OW40045   4.097   2.361   4.271  0.6128  0.2523 -0.3189
 9471SOL    HW140046   4.092   2.398   4.359  2.0562 -0.5877  0.1230
 9471SOL    HW240047   4.042   2.429   4.233 -0.8405 -1.1445 -0.7281
 9472SOL     OW40048   3.093   3.609   1.906 -0.2533  0.0607  0.3764
 9472SOL    HW140049   3.142   3.560   1.840  1.8045  1.1864  1.0836
 9472SOL    HW240050   3.164   3.657   1.947  0.5981 -1.0991  0.2424
 9473SOL     OW40051   4.541   0.406   3.371  0.9081  0.3845  0.2715
 9473SOL    HW140052   4.526   0.456   3.452 -0.6322  0.5643 -0.1282
 9473SOL    HW240053   4.462   0.353   3.365  1.6804 -0.8074  0.6854
 9474SOL     OW40054   2.452   2.718   7.211  0.3364 -0.1109 -0.5375
 9474SOL    HW140055   2.537   2.682   7.236  0.3767  0.2106 -0.2118
 9474SOL    HW240056   2.467   2.812   7.202  0.9146 -0.1237  0.2493
 9475SOL     OW40057   2.982   1.398   9.712  0.2612 -0.4186  0.3971
 9475SOL    HW140058   2.909   1.354   9.669  2.3943  0.3307 -4.0457
 9475SOL    HW240059   3.049   1.330   9.702  0.4771 -0.0403 -0.8510
 9476SOL     OW40060   3.871   0.402   9.918  0.2201  0.1982  0.1205
 9476SOL    HW140061   3.886   0.430  10.008  1.9868  0.4738 -0.2605
 9476SOL    HW240062   3.779   0.426   9.908  0.0993 -0.3537 -0.0773
 9477SOL     OW40063   2.742   1.769   2.552 -0.0944 -0.3961 -0.1938
 9477SOL    HW140064   2.793   1.764   2.633 -1.7069 -0.5712  0.8070
 9477SOL    HW240065   2.691   1.848   2.569  0.3274 -0.5234  1.6439
 9478SOL     OW40066   0.115   0.747  12.230  0.5479  0.3546 -0.6479
 9478SOL    HW140067   0.210   0.746  12.240  0.4764 -0.7229 -0.0803
 9478SOL    HW240068   0.086   0.747  12.322 -1.1429  0.5604 -1.1788
 9479SOL     OW40069   1.888   4.028   2.867  0.0724 -0.7923 -0.4080
 9479SOL    HW140070   1.866   3.936   2.883  1.1329 -0.9431  0.2078
 9479SOL    HW240071   1.801   4.061   2.844  0.1614 -1.3490 -1.5543
 9480SOL     OW40072   2.512   3.095   2.359 -0.3510 -0.0915  0.4312
 9480SOL    HW140073   2.453   3.169   2.345  0.4168  0.5627  0.6603
 9480SOL    HW240074   2.471   3.019   2.400  0.4568 -0.9681 -0.3768
 9481SOL     OW40075   0.062   0.035   9.929  0.0894  0.4362  0.1007
 9481SOL    HW140076   0.095   0.014   9.841  1.8659 -2.0186  1.3670
 9481SOL    HW240077   0.144   0.066   9.967  1.9297 -2.4643 -1.5205
 9482SOL     OW40078   0.803   2.493   7.819  0.7030  0.6152  0.7894
 9482SOL    HW140079   0.719   2.518   7.857 -0.8447 -0.9904 -1.5535
 9482SOL    HW240080   0.840   2.454   7.898 -0.4182  1.1750  1.5983
 9483SOL     OW40081   0.465   0.710  14.224 -0.0813  0.0945  0.0640
 9483SOL    HW140082   0.406   0.721  14.150 -0.6539  1.5062  0.7398
 9483SOL    HW240083   0.500   0.799  14.224 -1.0950  0.4820 -0.8864
 9484SOL     OW40084   0.532   2.730   8.637  0.2387  0.1265 -0.3182
 9484SOL    HW140085   0.579   2.800   8.593 -3.1424  0.9778 -2.5741
 9484SOL    HW240086   0.484   2.765   8.713  2.3282  2.0468  0.0948
 9485SOL     OW40087   1.171   0.280  11.799 -0.1701  0.1663  0.4694
 9485SOL    HW140088   1.225   0.323  11.733  0.3924 -1.5973 -0.2037
 9485SOL    HW240089   1.086   0.279  11.755  1.0820  1.0870 -1.9217
 9486SOL     OW40090   2.081   0.673   7.076 -0.0022 -0.2295  0.3026
 9486SOL    HW140091   2.141   0.724   7.131  2.1800 -4.0059  1.4408
 9486SOL    HW240092   2.094   0.588   7.117 -0.4404 -0.1849  0.5366
 9487SOL     OW40093   1.455   0.784   2.272  0.0215 -0.5770  0.3374
 9487SOL    HW140094   1.420   0.753   2.188  0.0152 -0.9749  0.4864
 9487SOL    HW240095   1.544   0.804   2.241  0.3259 -0.7258  1.1247
 9488SOL     OW40096   2.604   3.282   5.240 -0.1896 -0.0345 -0.0691
 9488SOL    HW140097   2.544   3.209   5.226 -2.1699  1.4077  0.9002
 9488SOL    HW240098   2.687   3.236   5.257  0.2844  0.7580 -0.2329
 9489SOL     OW40099   4.644   1.069   3.171  0.0555  0.4844  0.5927
 9489SOL    HW140100   4.648   1.038   3.081  0.6258  0.3887  0.6522
 9489SOL    HW240101   4.737   1.075   3.192  0.3286  0.1207 -0.4795
 9490SOL     OW40102   2.938   3.873  15.101 -0.9216  0.6825  0.0658
 9490SOL    HW140103   3.018   3.926  15.095 -0.3827 -0.1473 -0.1730
 9490SOL    HW240104   2.894   3.931  15.162  0.8198  1.5666  0.4991
 9491SOL     OW40105   4.339   3.991   6.142 -0.2847 -0.1725 -0.5821
 9491SOL    HW140106   4.305   4.076   6.115  0.6377  0.1559 -0.7066
 9491SOL    HW240107   4.305   3.998   6.231 -0.9050  0.1909 -0.8447
 9492SOL     OW40108   3.141   1.624   6.624  0.3476  0.1609 -0.1011
 9492SOL    HW140109   3.191   1.670   6.556 -1.1157 -1.6105 -2.3707
 9492SOL    HW240110   3.052   1.639   6.592 -0.2999 -1.5943  0.8960
 9493SOL     OW40111   3.685   1.441   9.118  0.5372 -0.0241  0.1671
 9493SOL    HW140112   3.732   1.401   9.045 -1.7168 -0.9531 -0.7756
 9493SOL    HW240113   3.749   1.506   9.147 -1.5609  0.8882  2.8107
 9494SOL     OW40114   1.992   1.827   3.328 -0.2566 -0.7597  0.0032
 9494SOL    HW140115   2.041   1.767   3.384  1.1175  0.6973  0.3448
 9494SOL    HW240116   1.988   1.771   3.251 -2.6442 -1.5177  0.6592
 9495SOL     OW40117   2.105   4.504  11.583 -0.2541  0.1807 -0.2062
 9495SOL    HW140118   2.041   4.549  11.528 -0.8236  1.0778  1.1914
 9495SOL    HW240119   2.189   4.529  11.545 -0.8488 -0.1205 -1.7158
 9496SOL     OW40120   4.139   3.777   1.337 -0.1196  0.2316 -0.3675
 9496SOL    HW140121   4.054   3.736   1.351 -0.2422  1.3075  2.0496
 9496SOL    HW240122   4.112   3.869   1.327 -1.0116 -0.1334 -1.3437
 9497SOL     OW40123   2.716   1.861  17.133  1.0609  0.2140 -0.1822
 9497SOL    HW140124   2.709   1.766  17.119  0.2188  0.4589 -1.4261
 9497SOL    HW240125   2.689   1.870  17.225  0.4963 -0.6163 -0.2668
 9498SOL     OW40126   4.285   4.434   8.795 -0.1063  0.1958  0.1042
 9498SOL    HW140127   4.340   4.470   8.865  1.2241 -3.0257  0.7582
 9498SOL    HW240128   4.204   4.483   8.809  1.1837  2.6208 -0.9259
 9499SOL     OW40129   1.307   4.296   1.702 -0.0121  0.0260 -0.8699
 9499SOL    HW140130   1.248   4.362   1.666 -0.8924 -0.4261 -0.2514
 9499SOL    HW240131   1.272   4.277   1.789  1.0143 -1.5541 -0.8001
 9500SOL     OW40132   3.417   2.610   1.473  0.2233  0.0755  0.0462
 9500SOL    HW140133   3.458   2.531   1.438 -0.8622 -0.0645 -0.8991
 9500SOL    HW240134   3.405   2.570   1.559  0.8565  0.6861  0.4171
 9501SOL     OW40135   2.092   4.491   7.952  0.1406  0.0018  0.0468
 9501SOL    HW140136   2.042   4.569   7.926 -0.7144 -0.2534  0.9331
 9501SOL    HW240137   2.052   4.417   7.907  3.4237 -0.3636 -2.2570
 9502SOL     OW40138   3.613   3.909   4.429  0.3070  0.0270 -0.0830
 9502SOL    HW140139   3.635   3.833   4.483 -2.3818 -0.7647 -0.0732
 9502SOL    HW240140   3.526   3.884   4.397  0.2277 -0.6939  0.7181
 9503SOL     OW40141   1.886   4.693   1.801  0.3366 -0.2638 -0.8033
 9503SOL    HW140142   1.826   4.624   1.830  2.3054 -0.9959  1.5172
 9503SOL    HW240143   1.830   0.004   1.742  2.3272  2.2191 -0.5591
 9504SOL     OW40144   2.637   1.998  16.165 -0.2262 -0.6734  0.0965
 9504SOL    HW140145   2.661   1.946  16.242  0.7977 -3.0081 -1.7890
 9504SOL    HW240146   2.545   2.016  16.181  0.0230  0.8570 -0.1608
 9505SOL     OW40147   3.952   2.365   3.800 -0.1485  0.1483  0.4941
 9505SOL    HW140148   4.022   2.350   3.864 -1.3802 -1.5942  1.4458
 9505SOL    HW240149   3.889   2.404   3.860 -1.1407 -2.7259  1.3365
 9506SOL     OW40150   2.086   2.664  15.804 -0.3323 -0.7383  0.1185
 9506SOL    HW140151   2.144   2.605  15.755 -3.4475 -2.3102 -1.7072
 9506SOL    HW240152   2.008   2.656  15.748  0.5344  1.7967 -1.4445
 9507SOL     OW40153   1.327   1.513  11.543 -0.5006 -0.1351  0.5131
 9507SOL    HW140154   1.417   1.534  11.568 -0.7614  1.9875 -0.3050
 9507SOL    HW240155   1.346   1.460  11.466 -2.5460  0.0510 -0.1197
 9508SOL     OW40156   4.626   1.235   6.361  0.3217 -0.2063  0.1169
 9508SOL    HW140157   4.704   1.182   6.375  0.5796  0.0779 -0.2650
 9508SOL    HW240158   4.579   1.195   6.287  3.8032  0.0951 -2.2433
 9509SOL     OW40159   2.850   0.865   3.750  0.3464  0.2099  0.2866
 9509SOL    HW140160   2.757   0.846   3.759  0.4358 -0.9935 -1.2968
 9509SOL    HW240161   2.889   0.781   3.726 -0.5731  0.1371 -0.9492
 9510SOL     OW40162   4.447   2.392   2.235 -1.2263  0.1702  0.0703
 9510SOL    HW140163   4.462   2.434   2.150  0.5843 -2.2731 -0.8222
 9510SOL    HW240164   4.443   2.471   2.289  2.3286 -0.1580  0.8168
 9511SOL     OW40165   3.509   0.790   7.041 -0.2128 -0.2620 -0.3988
 9511SOL    HW140166   3.432   0.750   7.002 -1.4503  1.6545  0.0910
 9511SOL    HW240167   3.476   0.811   7.128 -0.1763 -3.6272  0.4040
 9512SOL     OW40168   1.868   3.012   9.492  0.1244 -0.2795  0.4131
 9512SOL    HW140169   1.795   2.953   9.512 -0.8867  1.1900  1.0335
 9512SOL    HW240170   1.876   3.086   9.551  0.2905 -1.8790  2.3957
 9513SOL     OW40171   2.581   1.952   2.668  0.0087 -0.1409  0.5470
 9513SOL    HW140172   2.506   1.895   2.682 -1.3241  1.3425 -0.5721
 9513SOL    HW240173   2.541   2.024   2.618 -0.9975 -1.6124 -0.7404
 9514SOL     OW40174   4.601   1.305   4.677  0.1351  0.0661 -0.3425
 9514SOL    HW140175   4.667   1.369   4.651  0.3500 -1.5838 -3.9155
 9514SOL    HW240176   4.522   1.359   4.673 -0.4209 -0.6058  1.6075
 9515SOL     OW40177   1.314   1.906   2.866 -0.0630  0.7051  0.0549
 9515SOL    HW140178   1.278   1.968   2.930 -0.2934 -0.6325  1.2321
 9515SOL    HW240179   1.247   1.837   2.861  0.0752  0.6544 -1.1898
 9516SOL     OW40180   3.892   4.342   2.095 -0.2284 -0.1341  0.1230
 9516SOL    HW140181   3.860   4.366   2.008 -1.6946  1.8581  1.2073
 9516SOL    HW240182   3.948   4.418   2.105 -0.5416  0.0191  0.6768
 9517SOL     OW40183   1.556   2.640   6.636 -0.2711  0.0879  0.6276
 9517SOL    HW140184   1.583   2.579   6.704  1.2452  1.2026  1.0041
 9517SOL    HW240185   1.534   2.582   6.563 -0.3916 -0.6940  1.2840
 9518SOL     OW40186   3.204   4.466   1.610  0.4499 -0.7961  0.0994
 9518SOL    HW140187   3.264   4.494   1.679  0.9363 -2.8192  0.5051
 9518SOL    HW240188   3.157   4.392   1.649 -3.0721  1.3077 -0.2652
 9519SOL     OW40189   4.441   2.282  13.480  0.9189 -0.0298 -0.5294
 9519SOL    HW140190   4.420   2.354  13.421 -1.6632 -0.2918  0.0656
 9519SOL    HW240191   4.428   2.324  13.565  0.4653 -0.7144 -0.2554
 9520SOL     OW40192   1.822   3.817   5.274  0.2159  0.6791 -0.0218
 9520SOL    HW140193   1.894   3.864   5.231 -1.1170  2.1110 -0.7022
 9520SOL    HW240194   1.807   3.745   5.212  0.1393 -0.1121  0.9190
 9521SOL     OW40195   3.493   2.766   5.144 -0.0564  0.0912  0.1364
 9521SOL    HW140196   3.560   2.813   5.193  1.3384 -1.2428 -0.4883
 9521SOL    HW240197   3.534   2.686   5.110 -1.7361 -1.7278  2.3640
 9522SOL     OW40198   0.126   4.644  14.790 -0.0701  0.5291 -0.1448
 9522SOL    HW140199   0.149   4.737  14.793  0.4780  0.4370 -1.5895
 9522SOL    HW240200   0.092   4.632  14.878  2.6721 -3.5533  0.3560
 9523SOL     OW40201   1.026   3.063   2.562 -0.0641  0.1745  0.4954
 9523SOL    HW140202   1.079   3.016   2.498  2.0780  0.5926  1.9713
 9523SOL    HW240203   0.949   3.006   2.566  0.5212 -1.0000 -4.2605
 9524SOL     OW40204   2.669   4.647   8.173  0.3390 -0.3700  0.2718
 9524SOL    HW140205   2.596   4.672   8.116  0.3747 -1.2730 -0.1656
 9524SOL    HW240206   2.654   4.556   8.197 -0.8473 -0.8680 -2.3768
 9525SOL     OW40207   0.872   2.996   9.550  0.6519  0.0467  0.2130
 9525SOL    HW140208   0.930   3.069   9.571  0.0170  0.3695  0.8357
 9525SOL    HW240209   0.884   3.009   9.456  1.3734  0.6766  0.3940
 9526SOL     OW40210   3.827   4.517   6.404 -0.4111 -0.0196  0.5742
 9526SOL    HW140211   3.805   4.510   6.312  0.0709 -0.2457  0.4757
 9526SOL    HW240212   3.917   4.484   6.400 -1.2873 -2.2025 -0.8857
 9527SOL     OW40213   3.753   0.641   3.969  0.3686 -0.6772 -0.3956
 9527SOL    HW140214   3.779   0.732   3.953 -1.5993  0.1725  1.1649
 9527SOL    HW240215   3.673   0.660   4.018  0.2751  0.4735 -0.9890
 9528SOL     OW40216   1.616   4.402   9.091 -0.0449 -0.6778  0.2732
 9528SOL    HW140217   1.598   4.445   9.008 -2.0797  1.4859  1.8228
 9528SOL    HW240218   1.689   4.456   9.123  1.7287 -2.6915 -0.4287
 9529SOL     OW40219   1.041   3.495   7.969  0.3578  0.0295  0.2766
 9529SOL    HW140220   1.101   3.514   8.041 -1.3056 -0.1971  1.7073
 9529SOL    HW240221   1.088   3.431   7.916 -0.4966 -0.7524  0.4833
 9530SOL     OW40222   2.128   2.461   2.786 -0.1902 -0.2427 -0.3081
 9530SOL    HW140223   2.120   2.421   2.872 -2.7943  0.4995 -0.2035
 9530SOL    HW240224   2.153   2.383   2.736  0.6452 -0.7489  0.9071
 9531SOL     OW40225   1.172   2.765   3.415 -0.1960  0.6084 -0.5671
 9531SOL    HW140226   1.229   2.774   3.338  0.7865 -0.7784 -0.0001
 9531SOL    HW240227   1.094   2.727   3.376  0.7034 -0.8544 -0.9551
 9532SOL     OW40228   1.318   1.069  11.349  0.3035  0.2470  0.1969
 9532SOL    HW140229   1.398   1.016  11.351  1.6529  2.2070 -1.0986
 9532SOL    HW240230   1.349   1.159  11.361  1.9283 -0.1589 -0.8730
 9533SOL     OW40231   2.562   0.543   2.126  0.3240  0.0729 -0.4913
 9533SOL    HW140232   2.489   0.506   2.175  2.3638 -2.1606  0.8473
 9533SOL    HW240233   2.517   0.548   2.042 -0.3128  1.8509 -0.0390
 9534SOL     OW40234   0.092   0.910   3.432 -0.4582 -0.0779 -0.3452
 9534SOL    HW140235   0.156   0.946   3.493 -1.9678 -0.3026  1.3752
 9534SOL    HW240236   0.046   0.989   3.404 -0.6651 -0.0670  0.0172
 9535SOL     OW40237   3.822   4.453   3.828  0.1741 -0.2510 -0.1559
 9535SOL    HW140238   3.869   4.536   3.841 -0.2709  0.4182 -2.7408
 9535SOL    HW240239   3.820   4.438   3.734  0.2973  1.2650 -0.4043
 9536SOL     OW40240   0.449   4.115  14.816 -0.0006  0.0744  0.0228
 9536SOL    HW140241   0.432   4.051  14.885  3.0758  0.2458  0.9436
 9536SOL    HW240242   0.402   4.068  14.747  0.8829 -2.1396  0.9219
 9537SOL     OW40243   2.135   3.439   6.337 -0.1486 -0.1928 -0.0779
 9537SOL    HW140244   2.105   3.476   6.420 -1.2182 -1.8707  0.2917
 9537SOL    HW240245   2.151   3.521   6.291  0.7369 -0.4187 -0.1610
 9538SOL     OW40246   2.940   0.204   2.673 -0.3958  0.3837  0.1222
 9538SOL    HW140247   2.862   0.176   2.625 -2.5814  1.7702  2.9008
 9538SOL    HW240248   2.972   0.275   2.617 -1.0447  1.5215  1.1999
 9539SOL     OW40249   4.289   4.052   7.543  0.0363 -0.5102  0.3634
 9539SOL    HW140250   4.264   3.965   7.572  1.0598  0.3435  3.9315
 9539SOL    HW240251   4.384   4.041   7.550 -0.1004 -0.8992  1.6297
 9540SOL     OW40252   3.562   1.560   7.562  0.5104 -0.2579  0.3873
 9540SOL    HW140253   3.642   1.589   7.519  1.3968 -2.9686  0.1509
 9540SOL    HW240254   3.502   1.580   7.491 -1.4518  0.1221  2.1770
 9541SOL     OW40255   0.486   3.047   7.286  0.2544 -0.8481  0.1234
 9541SOL    HW140256   0.560   3.059   7.346  0.6008  2.2283 -0.9245
 9541SOL    HW240257   0.529   3.041   7.201 -1.9368 -0.7740 -0.9845
 9542SOL     OW40258   1.891   2.702  13.703 -0.4520  0.0698 -0.2942
 9542SOL    HW140259   1.971   2.672  13.746  0.4365  0.4027 -1.7219
 9542SOL    HW240260   1.881   2.788  13.744  1.7543  1.6506 -3.1463
 9543SOL     OW40261   0.547   4.388   3.190  0.2682  0.0624 -0.3747
 9543SOL    HW140262   0.535   4.436   3.271 -0.4594  0.2734 -0.6092
 9543SOL    HW240263   0.642   4.388   3.174  0.0036 -0.3651 -1.9520
 9544SOL     OW40264   2.089   3.462   1.307  0.3460  0.0719 -0.0624
 9544SOL    HW140265   2.062   3.554   1.306  0.5188  0.1138 -0.6554
 9544SOL    HW240266   2.183   3.472   1.318  0.4337 -2.1202  1.0749
 9545SOL     OW40267   2.829   0.513  15.449 -0.1575  0.2825 -0.6680
 9545SOL    HW140268   2.870   0.542  15.531 -0.9183  0.4932 -0.3618
 9545SOL    HW240269   2.875   0.582  15.400 -1.1151  1.2811 -0.1660
 9546SOL     OW40270   3.335   3.438   6.829  0.1405  0.0549  0.2581
 9546SOL    HW140271   3.312   3.368   6.890  0.6102 -0.5173 -0.2228
 9546SOL    HW240272   3.298   3.402   6.748 -1.1416 -1.1882  1.3873
 9547SOL     OW40273   2.924   2.716  12.538 -0.3762  0.5654  0.5280
 9547SOL    HW140274   3.017   2.718  12.561 -0.2680  0.2172  0.1278
 9547SOL    HW240275   2.901   2.624  12.550  0.9894  0.0834 -0.6011
 9548SOL     OW40276   1.515   1.608   5.180  0.3292 -0.4158  0.0233
 9548SOL    HW140277   1.429   1.598   5.140 -0.7376  0.6205  2.0594
 9548SOL    HW240278   1.551   1.680   5.128 -1.3246  0.3864 -0.0168
 9549SOL     OW40279   3.499   1.716   5.029  0.6362 -0.2800  0.0042
 9549SOL    HW140280   3.525   1.798   5.070  1.6773 -0.3737 -0.4591
 9549SOL    HW240281   3.457   1.759   4.954 -1.4018 -1.0941  0.6733
 9550SOL     OW40282   2.555   3.095   9.914  0.1073  0.4447  0.4810
 9550SOL    HW140283   2.558   3.180   9.871 -0.1483 -0.2530 -0.9255
 9550SOL    HW240284   2.461   3.089   9.929  0.0165  0.0268 -0.2567
 9551SOL     OW40285   3.173   3.260   4.311 -0.5445 -0.4746 -0.0378
 9551SOL    HW140286   3.090   3.262   4.358 -0.9048 -1.7665 -0.6076
 9551SOL    HW240287   3.148   3.245   4.220 -1.9433 -1.3386  0.5056
 9552SOL     OW40288   3.396   2.526   8.195 -0.1047 -0.3968  0.2756
 9552SOL    HW140289   3.405   2.576   8.276 -1.0571 -2.1090  1.4427
 9552SOL    HW240290   3.491   2.515   8.183 -0.0497 -1.7749  1.8228
 9553SOL     OW40291   3.736   3.101   9.072  0.5137 -0.3396  0.2625
 9553SOL    HW140292   3.700   3.082   9.158 -1.7382 -0.4709 -0.7044
 9553SOL    HW240293   3.830   3.090   9.087  0.5355 -1.2443 -0.5519
 9554SOL     OW40294   4.010   4.616  10.346 -0.1916 -0.4598 -0.3202
 9554SOL    HW140295   3.918   4.609  10.320 -0.4911  1.0029  0.3692
 9554SOL    HW240296   4.007   4.706  10.379 -1.0756 -0.2941 -0.8528
 9555SOL     OW40297   2.376   3.356   3.451 -0.1457  0.1924 -0.0068
 9555SOL    HW140298   2.457   3.347   3.401 -0.3706 -1.4512 -0.0745
 9555SOL    HW240299   2.329   3.418   3.394 -0.4999  0.9400  1.1017
 9556SOL     OW40300   0.880   0.842  16.256  0.1492 -0.0268 -0.0626
 9556SOL    HW140301   0.920   0.926  16.279 -2.4362  1.5464 -1.2734
 9556SOL    HW240302   0.911   0.813  16.171  0.0991 -0.1934 -0.0242
 9557SOL     OW40303   0.879   2.123   7.546  0.4050  0.1485 -0.1262
 9557SOL    HW140304   0.818   2.087   7.611  2.1772  0.0997  1.5245
 9557SOL    HW240305   0.919   2.194   7.597 -0.7245  0.2502  0.6072
 9558SOL     OW40306   2.887   0.106   3.803 -0.3254 -0.0744 -0.0156
 9558SOL    HW140307   2.843   0.076   3.883  0.4516  1.4168  0.9541
 9558SOL    HW240308   2.807   0.091   3.752 -0.5110  1.7878 -0.2754
 9559SOL     OW40309   0.970   2.636   6.915  0.0496 -0.1787 -0.2883
 9559SOL    HW140310   0.909   2.646   6.988  0.6352  0.7447  0.0797
 9559SOL    HW240311   1.056   2.647   6.957 -0.2658  0.9114  0.0631
 9560SOL     OW40312   2.050   0.623   2.237 -0.2074 -0.6385 -0.4059
 9560SOL    HW140313   2.058   0.544   2.184 -3.5843 -1.4659  0.3616
 9560SOL    HW240314   1.955   0.620   2.244 -0.1235 -1.2752  0.5582
 9561SOL     OW40315   4.723   2.487   9.075  0.0410  0.3054  0.3461
 9561SOL    HW140316   4.713   2.392   9.069  1.2088  0.1782  0.4154
 9561SOL    HW240317   4.639   2.513   9.112  1.2848  4.3768  0.2778
 9562SOL     OW40318   0.512   4.165   5.449  0.0523 -0.0881 -0.0105
 9562SOL    HW140319   0.426   4.207   5.456  0.8378  1.3578  0.8445
 9562SOL    HW240320   0.504   4.126   5.362  0.9323 -1.5920  0.5819
 9563SOL     OW40321   0.578   1.524   8.084 -0.2401 -0.0163  0.0489
 9563SOL    HW140322   0.485   1.536   8.101  0.4837  3.6956  1.3883
 9563SOL    HW240323   0.562   1.486   7.997  0.1865 -1.3064  0.5353
 9564SOL     OW40324   3.469   2.306   5.961 -0.0877 -0.3207  0.1159
 9564SOL    HW140325   3.563   2.318   5.953 -0.0336 -0.9663 -0.1934
 9564SOL    HW240326   3.457   2.242   5.891  0.5596 -1.8391  1.4012
 9565SOL     OW40327   3.170   2.760   6.457  0.3483 -0.5109  0.5599
 9565SOL    HW140328   3.218   2.677   6.457 -0.8460 -1.2001  3.5124
 9565SOL    HW240329   3.082   2.726   6.474 -0.0848  1.7960  2.9639
 9566SOL     OW40330   1.786   0.995   5.189  0.6609 -0.4063 -0.3779
 9566SOL    HW140331   1.745   1.073   5.225  1.0764 -0.9410  1.2301
 9566SOL    HW240332   1.748   1.003   5.101 -2.2702  0.1360  0.9125
 9567SOL     OW40333   2.681   2.529   6.935  0.4968  0.2812  0.7959
 9567SOL    HW140334   2.651   2.617   6.912 -2.9096 -1.4510 -1.5596
 9567SOL    HW240335   2.776   2.534   6.945  0.5052  0.9715  0.4125
 9568SOL     OW40336   4.189   1.283   9.672  0.1906 -0.6176  0.7171
 9568SOL    HW140337   4.104   1.265   9.633  0.2859 -1.4734  0.9176
 9568SOL    HW240338   4.220   1.368   9.640  3.5739 -2.0279  0.3225
 9569SOL     OW40339   2.326   1.142   6.754  0.5832 -0.0230  0.1214
 9569SOL    HW140340   2.333   1.234   6.732  0.0254 -0.5313 -2.1553
 9569SOL    HW240341   2.376   1.101   6.684 -0.6959  1.8174 -1.8479
 9570SOL     OW40342   2.270   2.599   7.716 -0.6803  1.1507 -0.5117
 9570SOL    HW140343   2.179   2.627   7.725 -0.8148  1.1859 -1.9464
 9570SOL    HW240344   2.279   2.524   7.775  0.3304 -0.1096 -2.2779
 9571SOL     OW40345   3.705   3.155   4.688 -0.3631  0.4510  0.2776
 9571SOL    HW140346   3.682   3.063   4.676 -1.2917  0.9309 -1.6834
 9571SOL    HW240347   3.765   3.168   4.615 -1.6419  0.3558 -0.8019
   4.73942   4.73942  17.75541
