Membrane in water
40347
    1TMC1    C1    1   0.884   0.408  11.808  0.0672  0.1375 -0.6491
    1TMC1    C2    2   0.893   0.531  11.867 -0.7116 -0.3758  0.7029
    1TMC1    C3    3   1.009   0.601  11.853  0.0906  0.0092 -0.2949
    1TMC1    C4    4   0.988   0.350  11.747 -0.0158  0.5025 -0.6439
    1TMC1    C5    5   1.107   0.416  11.754  0.0252 -0.4230  0.7379
    1TMC1    C6    6   1.121   0.541  11.804  0.9194 -0.0659  0.5409
    1TMC1     C    7   0.773   0.325  11.827 -0.2260 -0.0802 -0.1653
    1TMC1     O    8   0.751   0.232  11.745  0.2179 -0.0213  0.0535
    1TMC1     H    9   0.808   0.584  11.909  0.8640  1.4424  1.5815
    1TMC1    H1   10   0.987   0.245  11.722  1.7127 -0.0756  1.7179
    1TMC1    H2   11   1.214   0.593  11.817  1.0139 -0.4769  1.5049
    1TMC1    C7   12   1.215   0.342  11.692 -0.2807  0.1271  0.6862
    1TMC1    C8   13   1.019   0.698  11.958 -0.1583  0.4208  0.8362
    1TMC1    O1   14   1.214   0.221  11.670 -0.3204 -0.2403  0.0453
    1TMC1    O2   15   1.011   0.682  12.078  0.1293  0.3435 -0.6345
    1TMC1    O3   16   1.290   0.436  11.619 -0.4052 -0.5280 -0.4285
    1TMC1    H3   17   1.261   0.529  11.613 -0.3256 -0.4545  0.3233
    1TMC1    O5   18   1.071   0.810  11.899 -0.2227 -0.1019 -0.2518
    1TMC1    H5   19   1.071   0.816  11.801 -0.0212 -2.0500 -0.3774
    2MPD2     C   20   0.342   0.201  12.077  0.3526 -0.2295  0.7019
    2MPD2    C1   21   0.406   0.142  11.974 -0.1070 -0.7676  0.3480
    2MPD2    C2   22   0.514   0.203  11.921 -0.0373 -0.2780  0.0895
    2MPD2    C3   23   0.574   0.320  11.979  0.0372 -0.8349 -0.1190
    2MPD2    C4   24   0.505   0.384  12.076  0.7004  0.1485 -0.0693
    2MPD2    C5   25   0.394   0.326  12.118 -0.2596 -0.5236  0.0808
    2MPD2     H   26   0.557   0.159  11.832 -1.8648 -0.6624 -0.6016
    2MPD2    H1   27   0.526   0.486  12.108 -1.8503  0.6639 -0.0111
    2MPD2    H2   28   0.247   0.163  12.114  0.2307 -0.9301 -0.3249
    2MPD2    H3   29   0.329   0.387  12.179 -1.0893  1.1280 -2.4776
    2MPD2     N   30   0.690   0.369  11.927  0.4967 -0.2002 -0.2493
    2MPD2    H5   31   0.729   0.445  11.982  1.5808 -0.0812 -1.1881
    2MPD2    N1   32   0.352   0.023  11.917 -0.1669  0.3197 -0.5662
    2MPD2    H7   33   0.392   4.726  11.831 -1.5971 -1.9433 -0.3406
    3TMC1    C1   34   4.278   1.109  10.626  0.2823 -0.5475  0.2127
    3TMC1    C2   35   4.328   1.184  10.526 -0.4846  0.1376 -0.4311
    3TMC1    C3   36   4.335   1.133  10.402  0.3627  0.5509  0.1366
    3TMC1    C4   37   4.250   0.982  10.597 -1.1760  0.1340  0.0156
    3TMC1    C5   38   4.263   0.937  10.478  0.0295 -0.4246  0.2199
    3TMC1    C6   39   4.306   1.002  10.373 -0.0885  0.2093  0.0971
    3TMC1     C   40   4.305   1.147  10.761  0.2191  0.2755 -0.6895
    3TMC1     O   41   4.307   1.054  10.839  0.4351  0.3252  0.0631
    3TMC1     H   42   4.353   1.288  10.545 -1.2521  0.5691 -1.7877
    3TMC1    H1   43   4.208   0.917  10.672 -1.0020 -0.0007 -0.0055
    3TMC1    H2   44   4.313   0.968  10.270 -2.6798  0.2435 -0.0806
    3TMC1    C7   45   4.205   0.808  10.459 -0.0763  0.9168 -0.8879
    3TMC1    C8   46   4.409   1.197  10.300  0.4662 -0.1054 -0.3284
    3TMC1    O1   47   4.130   0.775  10.364 -0.0722 -0.2150 -0.4109
    3TMC1    O2   48   4.464   1.129  10.210  0.1163 -0.1885  0.4214
    3TMC1    O3   49   4.296   0.722  10.502 -0.8957 -0.0796  0.2142
    3TMC1    H3   50   4.324   0.757  10.589  1.7756 -1.8177  0.0308
    3TMC1    O5   51   4.378   1.327  10.284 -0.3554  0.7361  0.1436
    3TMC1    H5   52   4.321   1.368  10.352 -1.0820  0.1999 -0.1365
    4MPD2     C   53   4.325   1.474  11.145  0.2268  0.1534  0.0427
    4MPD2    C1   54   4.344   1.545  11.027 -0.2634  0.0042  0.1192
    4MPD2    C2   55   4.338   1.474  10.910  0.6340 -0.2876  0.6088
    4MPD2    C3   56   4.323   1.335  10.912 -0.0023  0.3724 -0.2992
    4MPD2    C4   57   4.302   1.266  11.029  0.4618  0.5438  0.0715
    4MPD2    C5   58   4.300   1.340  11.142 -0.3513  0.2543 -0.0963
    4MPD2     H   59   4.343   1.520  10.812  1.2882 -1.7907 -0.0672
    4MPD2    H1   60   4.294   1.158  11.033  3.6531  0.4015  2.4068
    4MPD2    H2   61   4.328   1.524  11.241 -0.5142  0.4110 -0.0667
    4MPD2    H3   62   4.274   1.302  11.240  0.4873  0.0195  0.0371
    4MPD2     N   63   4.319   1.279  10.784  0.1142  0.1781  0.5576
    4MPD2    H5   64   4.316   1.341  10.703 -0.9428  0.9749  1.1946
    4MPD2    N1   65   4.369   1.678  11.023 -0.0539  0.0349  0.3618
    4MPD2    H7   66   4.386   1.724  10.933 -5.6921  1.9965  0.3510
    5TCq1    O1   67   0.426   2.640  12.030 -0.1054 -0.0221  0.0892
    5TCq1    C1   68   0.491   2.735  11.963 -0.2785 -0.0373 -0.2606
    5TCq1    O2   69   0.612   2.740  11.940 -0.1712 -0.1093  0.3729
    5TCq1    C2   70   0.392   2.774  11.863 -0.8248  0.5493  0.2467
    5TCq1    C3   71   0.267   2.812  11.901 -0.0213 -1.0041 -0.9288
    5TCq1    C4   72   0.186   2.870  11.802  0.0971  0.3845 -0.0702
    5TCq1    C5   73   0.229   2.875  11.675  0.9252  0.1171  0.0452
    5TCq1    C6   74   0.353   2.848  11.643  0.8453  0.2227  0.7682
    5TCq1    C7   75   0.431   2.791  11.737  0.2810 -0.3473  0.4950
    5TCq1    C8   76   0.396   2.836  11.503  0.2648  0.2653 -0.3184
    5TCq1    O4   77   0.474   2.741  11.484 -0.3276 -0.4717 -0.4076
    5TCq1    C9   78   0.044   2.893  11.834  0.5497  0.2974  0.3677
    5TCq1    O5   79   0.011   2.897  11.958  0.4390  0.5112  0.3495
    5TCq1    O6   80   4.706   2.924  11.738  0.1526  0.5193  0.4336
    5TCq1    H1   81   0.329   2.656  12.032 -0.2808 -1.1110  0.2785
    5TCq1    H2   82   0.230   2.801  12.002 -0.6392  0.7829 -0.9683
    5TCq1    H3   83   0.158   2.916  11.603  0.7968 -0.7513 -0.3190
    5TCq1    H4   84   0.535   2.769  11.718 -0.9579 -2.5239 -3.7933
    6MPD2     C   85   0.378   3.087  11.252  0.4829  0.6379 -0.4709
    6MPD2    C1   86   0.408   2.962  11.300 -0.5686 -0.2034  0.2898
    6MPD2    C2   87   0.487   2.877  11.223  0.5884  0.2822  0.3097
    6MPD2    C3   88   0.527   2.909  11.099  0.5998  0.0916 -0.1783
    6MPD2    C4   89   0.498   3.036  11.055  0.0004  0.3264 -0.1724
    6MPD2    C5   90   0.433   3.126  11.132 -0.0380  0.3284 -0.1363
    6MPD2     H   91   0.519   2.782  11.265 -0.4504  0.0205  0.5101
    6MPD2    H1   92   0.530   3.073  10.959 -0.5437 -0.6781 -0.7404
    6MPD2    H2   93   0.331   3.156  11.321  0.7965 -0.7051  1.1036
    6MPD2    H3   94   0.422   3.223  11.085  1.8689 -0.0637 -1.4135
    6MPD2     N   95   0.602   2.817  11.017  0.8153 -0.3635 -0.0874
    6MPD2    H5   96   0.638   2.733  11.062 -0.1481 -0.8366 -0.1958
    6MPD2    N1   97   0.363   2.939  11.434  0.4907 -0.4683 -0.0069
    6MPD2    H7   98   0.304   3.006  11.482 -0.1705 -0.3369 -0.9984
    7TCq1    O1   99   3.076   3.162  13.568  0.3869 -0.3543 -0.2279
    7TCq1    C1  100   3.030   3.038  13.540 -0.3298 -0.1476 -1.0222
    7TCq1    O2  101   3.092   2.933  13.536 -0.2501  0.0045 -0.5994
    7TCq1    C2  102   2.890   3.053  13.494  0.0614  0.2145  0.2515
    7TCq1    C3  103   2.806   3.136  13.558 -0.1033 -0.4978  0.0760
    7TCq1    C4  104   2.673   3.109  13.558  0.1224  0.3063  0.1474
    7TCq1    C5  105   2.623   3.005  13.487  0.1231 -0.2262  0.0156
    7TCq1    C6  106   2.712   2.920  13.420  0.7710 -0.3109 -0.0690
    7TCq1    C7  107   2.842   2.935  13.445  0.5362  0.4806  0.8701
    7TCq1    C8  108   2.660   2.790  13.375  0.4644  0.8841  0.0105
    7TCq1    O4  109   2.741   2.702  13.373 -0.0280 -0.0626  0.2196
    7TCq1    C9  110   2.579   3.196  13.630 -0.7042  0.6939 -0.2111
    7TCq1    O5  111   2.471   3.137  13.662  0.5190  0.6025 -0.3572
    7TCq1    O6  112   2.612   3.316  13.652  0.2331  0.4681 -0.3300
    7TCq1    H1  113   3.021   3.231  13.524 -2.3826 -1.6719  1.1526
    7TCq1    H2  114   2.833   3.214  13.629 -3.0357  3.1563 -2.8356
    7TCq1    H3  115   2.518   2.978  13.491  0.1756 -0.1319  2.0184
    7TCq1    H4  116   2.919   2.872  13.403 -0.0502  0.2784  0.1051
    8MPD2     C  117   2.258   2.521  13.212 -0.4395 -0.0744 -0.1312
    8MPD2    C1  118   2.371   2.484  13.274  0.2379  0.6833 -0.1315
    8MPD2    C2  119   2.462   2.578  13.315 -0.0334 -0.0789 -0.3972
    8MPD2    C3  120   2.435   2.707  13.307  0.1898  0.2146  0.3694
    8MPD2    C4  121   2.319   2.748  13.245  0.1862  1.5309 -0.0139
    8MPD2    C5  122   2.233   2.655  13.198 -0.4703  0.0370 -0.0295
    8MPD2     H  123   2.557   2.539  13.348 -0.4355 -0.0927  0.7318
    8MPD2    H1  124   2.295   2.854  13.248 -2.6887  0.8682 -0.0037
    8MPD2    H2  125   2.194   2.446  13.166  0.3145 -2.0324  1.9898
    8MPD2    H3  126   2.141   2.694  13.157 -0.3985 -1.3066 -1.4803
    8MPD2     N  127   2.535   2.805  13.332  0.0798 -0.0321 -0.7306
    8MPD2    H5  128   2.496   2.899  13.324  2.3908  0.9726 -0.0901
    8MPD2    N1  129   2.389   2.345  13.296 -0.1226  0.0951 -0.2776
    8MPD2    H7  130   2.313   2.283  13.270  0.7542 -1.9737  2.1287
    9TMC1    C1  131   0.817   1.358  10.418  0.4258  0.9260 -0.7430
    9TMC1    C2  132   0.724   1.322  10.329  0.5023 -1.3005 -0.8660
    9TMC1    C3  133   0.666   1.422  10.266 -0.0397  0.3375  0.1586
    9TMC1    C4  134   0.852   1.487  10.448 -0.2990 -0.3432  0.2267
    9TMC1    C5  135   0.772   1.577  10.389 -0.0412  0.6748  0.3791
    9TMC1    C6  136   0.692   1.551  10.280  0.6956  0.1580 -0.1129
    9TMC1     C  137   0.887   1.260  10.498 -0.3690 -0.1610  0.0098
    9TMC1     O  138   1.005   1.282  10.518 -0.1535 -0.9017 -0.2778
    9TMC1     H  139   0.702   1.221  10.296  0.4397 -1.1901 -1.1653
    9TMC1    H1  140   0.929   1.518  10.518 -0.2477 -1.3424  0.6227
    9TMC1    H2  141   0.640   1.633  10.233 -1.6134 -1.4246 -0.3093
    9TMC1    C7  142   0.790   1.715  10.419  0.1499 -0.6135 -0.4500
    9TMC1    C8  143   0.567   1.395  10.165 -0.6062  0.3813  0.6998
    9TMC1    O1  144   0.853   1.782  10.344 -0.6013 -0.0942 -0.1194
    9TMC1    O2  145   0.544   1.482  10.082 -0.2974  0.2707 -0.3947
    9TMC1    O3  146   0.799   1.717  10.553 -0.2912 -0.3382 -0.3488
    9TMC1    H3  147   0.758   1.638  10.595 -1.5386  0.0229 -0.8659
    9TMC1    O5  148   0.467   1.313  10.218 -0.3645  0.4303  0.2656
    9TMC1    H5  149   0.490   1.261  10.298 -1.1531 -1.3188 -0.6326
   10MPD2     C  150   0.981   1.036  10.672 -0.1838 -0.4437 -0.3924
   10MPD2    C1  151   0.846   1.068  10.647  0.2758 -0.4279  0.1709
   10MPD2    C2  152   0.754   0.995  10.721 -0.0426 -0.2574  0.1121
   10MPD2    C3  153   0.791   0.910  10.830  0.0025  0.1557 -0.0857
   10MPD2    C4  154   0.929   0.889  10.859 -0.5955 -0.8180 -0.1454
   10MPD2    C5  155   1.022   0.948  10.773 -0.7890 -0.5640  0.3796
   10MPD2     H  156   0.649   0.998  10.697 -0.1860 -3.9536  0.2407
   10MPD2    H1  157   0.969   0.821  10.933 -0.3681  0.7290  1.1460
   10MPD2    H2  158   1.059   1.059  10.600  1.0914 -1.8794  0.5285
   10MPD2    H3  159   1.127   0.941  10.797 -1.2755  1.4052  3.2458
   10MPD2     N  160   0.702   0.844  10.920  0.2213  0.0654  0.1749
   10MPD2    H5  161   0.745   0.802  11.002  0.0629  1.3384  0.9108
   10MPD2    N1  162   0.799   1.167  10.546  0.2496  0.5229  0.0832
   10MPD2    H7  163   0.699   1.176  10.530 -0.0550 -1.3099  0.9364
   11TCq1    O1  164   0.531   1.467  14.312  0.0727  0.1305  0.2965
   11TCq1    C1  165   0.608   1.423  14.416 -0.3107  0.1138 -0.8545
   11TCq1    O2  166   0.619   1.478  14.527 -0.4939 -0.6273  0.4583
   11TCq1    C2  167   0.696   1.314  14.372  0.2280 -0.1648  0.1125
   11TCq1    C3  168   0.819   1.314  14.428 -0.5215  0.2888 -0.0788
   11TCq1    C4  169   0.895   1.206  14.396 -0.8245  0.7661 -0.4240
   11TCq1    C5  170   0.857   1.115  14.300  0.0580 -0.6470 -0.1472
   11TCq1    C6  171   0.729   1.115  14.255  0.5231 -0.4585 -0.5157
   11TCq1    C7  172   0.643   1.221  14.291 -0.2672  0.9149 -0.1891
   11TCq1    C8  173   0.680   1.001  14.179 -0.2590 -0.4750  0.3277
   11TCq1    O4  174   0.755   0.905  14.156 -0.2014 -0.0421  0.1945
   11TCq1    C9  175   1.031   1.192  14.450 -0.0585  0.6899 -0.0680
   11TCq1    O5  176   1.058   1.275  14.541 -0.1391  0.4003  0.0778
   11TCq1    O6  177   1.105   1.096  14.407  0.2395 -0.0465 -0.6444
   11TCq1    H1  178   0.546   1.412  14.232  4.0463  1.0466  0.4381
   11TCq1    H2  179   0.867   1.392  14.486 -1.3589  2.6136 -2.4760
   11TCq1    H3  180   0.926   1.040  14.265  1.2010  0.8294 -1.0770
   11TCq1    H4  181   0.536   1.212  14.274 -0.0246  0.6704 -1.5577
   12MPD2     C  182   0.358   1.013  13.990  0.0235  0.4618 -0.4662
   12MPD2    C1  183   0.476   0.958  14.026 -0.0979 -0.0075  0.0060
   12MPD2    C2  184   0.517   0.838  13.975 -0.1799  0.1835 -0.0802
   12MPD2    C3  185   0.427   0.771  13.894 -0.0177 -0.0731 -0.0208
   12MPD2    C4  186   0.303   0.817  13.866  0.1153 -0.2940  0.7786
   12MPD2    C5  187   0.271   0.938  13.913  0.4525 -0.0808 -0.4748
   12MPD2     H  188   0.606   0.788  14.011 -0.9711 -0.9344  0.3222
   12MPD2    H1  189   0.222   0.761  13.823 -0.3425  0.9068  0.0756
   12MPD2    H2  190   0.329   1.116  14.007  0.3282  0.0943  2.2028
   12MPD2    H3  191   0.170   0.971  13.893  0.7052 -0.1398 -1.8249
   12MPD2     N  192   0.469   0.646  13.833 -0.6106 -0.2195  0.3227
   12MPD2    H5  193   0.404   0.603  13.767 -1.2429 -0.5824  1.1760
   12MPD2    N1  194   0.559   1.027  14.123 -0.0435  0.1878 -0.5155
   12MPD2    H7  195   0.512   1.112  14.152 -0.4732 -0.1735 -0.1483
   13TCq1    O1  196   0.745   1.392  10.838 -0.2681  0.1537 -0.0219
   13TCq1    C1  197   0.654   1.474  10.793 -0.1589 -0.2334 -0.2127
   13TCq1    O2  198   0.675   1.545  10.695  0.4767 -0.2891  0.6109
   13TCq1    C2  199   0.549   1.372  10.778  0.0774  0.6603  0.0718
   13TCq1    C3  200   0.521   1.327  10.652 -0.8946  0.0343 -0.5674
   13TCq1    C4  201   0.440   1.216  10.648  0.0287 -0.5215  0.1076
   13TCq1    C5  202   0.383   1.163  10.759 -0.4475 -0.2210  0.2155
   13TCq1    C6  203   0.413   1.223  10.884  0.3672  0.0156 -0.3550
   13TCq1    C7  204   0.498   1.324  10.893 -1.1593  0.6024  0.9646
   13TCq1    C8  205   0.375   1.157  11.012  0.0146 -0.3591 -0.5847
   13TCq1    O4  206   0.401   1.209  11.117  0.4661  0.1247  0.1203
   13TCq1    C9  207   0.433   1.140  10.521 -0.2055 -0.9644  0.1091
   13TCq1    O5  208   0.502   1.189  10.430  0.0157  0.4269 -0.1920
   13TCq1    O6  209   0.382   1.023  10.521  0.5208  0.9393 -0.4651
   13TCq1    H1  210   0.714   1.317  10.893 -1.8958 -0.4734 -1.8319
   13TCq1    H2  211   0.584   1.358  10.570 -1.5537  5.0098  0.7987
   13TCq1    H3  212   0.329   1.070  10.751 -0.4377 -0.4018  2.2349
   13TCq1    H4  213   0.523   1.365  10.990 -0.0071  1.0062  0.4927
   14MPD2     C  214   0.174   0.848  11.050  0.3737 -0.9022  0.4597
   14MPD2    C1  215   0.254   0.953  11.090  0.0485 -0.7513 -0.5851
   14MPD2    C2  216   0.277   0.968  11.223 -0.9378 -0.0676  0.1592
   14MPD2    C3  217   0.229   0.880  11.319 -0.4241  0.3674 -0.1558
   14MPD2    C4  218   0.153   0.776  11.283 -0.0305 -0.8531 -0.0401
   14MPD2    C5  219   0.127   0.760  11.150 -0.2924 -0.0480  0.0697
   14MPD2     H  220   0.322   1.057  11.266  2.1750 -1.2993 -0.5852
   14MPD2    H1  221   0.115   0.701  11.353  0.4299 -0.7576  0.3108
   14MPD2    H2  222   0.161   0.828  10.944 -0.2930 -0.6179  0.4943
   14MPD2    H3  223   0.057   0.685  11.114 -2.0283  0.7576  1.7567
   14MPD2     N  224   0.254   0.911  11.454  0.9728  0.2629  0.4241
   14MPD2    H5  225   0.292   1.001  11.483  0.8238 -0.1921  2.0065
   14MPD2    N1  226   0.308   1.041  10.992 -0.2156 -0.4033  0.0433
   14MPD2    H7  227   0.287   1.026  10.893  0.1969  0.6218 -0.2015
   15TCq1    O1  228   3.351   1.395   1.143 -0.5335 -0.4851 -0.1516
   15TCq1    C1  229   3.328   1.435   1.267  0.2059 -0.2719  0.5178
   15TCq1    O2  230   3.375   1.535   1.320 -0.5687  0.2049  0.4881
   15TCq1    C2  231   3.193   1.402   1.298  0.1431 -1.4788 -0.4259
   15TCq1    C3  232   3.103   1.484   1.359 -0.3208 -1.1532 -0.1070
   15TCq1    C4  233   2.972   1.452   1.387  0.3163 -0.4759 -0.3736
   15TCq1    C5  234   2.926   1.329   1.355  0.0890 -0.7171  0.4547
   15TCq1    C6  235   3.014   1.243   1.308  0.4640 -0.3357  0.1847
   15TCq1    C7  236   3.149   1.272   1.280 -0.6139 -0.6470  0.5579
   15TCq1    C8  237   2.965   1.112   1.264 -0.3060  0.5874  0.5321
   15TCq1    O4  238   3.048   1.031   1.224 -0.2904 -0.1765  0.1323
   15TCq1    C9  239   2.884   1.533   1.471 -0.0166 -0.0498 -0.3433
   15TCq1    O5  240   2.781   1.487   1.521  0.2240 -0.1561  0.0115
   15TCq1    O6  241   2.943   1.641   1.514 -0.4266 -0.4511  0.4959
   15TCq1    H1  242   3.290   1.329   1.105 -2.5590  2.2039 -1.5909
   15TCq1    H2  243   3.144   1.577   1.396 -0.1807 -1.2513 -0.0166
   15TCq1    H3  244   2.828   1.295   1.387 -0.7049 -0.7439 -2.0127
   15TCq1    H4  245   3.213   1.205   1.223  0.1544 -0.5440  1.3016
   16MPD2     C  246   2.627   0.979   1.203  0.3616  0.3288  0.0226
   16MPD2    C1  247   2.762   0.971   1.220  0.0516 -0.0592 -0.1297
   16MPD2    C2  248   2.820   0.844   1.216  0.0976  0.0740 -0.0997
   16MPD2    C3  249   2.739   0.732   1.188 -0.4430  0.2559 -0.1506
   16MPD2    C4  250   2.608   0.741   1.159  0.4335 -0.7083 -0.2016
   16MPD2    C5  251   2.559   0.869   1.164  0.4903 -0.1655  0.4311
   16MPD2     H  252   2.927   0.831   1.226 -0.0470  0.6732  2.3586
   16MPD2    H1  253   2.543   0.659   1.130 -1.8078  0.0897  2.5461
   16MPD2    H2  254   2.578   1.076   1.202  1.5031  0.9125 -0.6037
   16MPD2    H3  255   2.452   0.877   1.151  0.0015 -1.7639  3.4294
   16MPD2     N  256   2.809   0.603   1.194 -0.8487 -0.0102 -0.2994
   16MPD2    H5  257   2.904   0.618   1.227 -0.0607  1.1200 -3.0685
   16MPD2    N1  258   2.825   1.094   1.257  1.3277  0.1592 -0.0286
   16MPD2    H7  259   2.767   1.175   1.279  1.4466  0.2547 -0.0663
   17TMC1    C1  260   0.792   4.034  11.461  0.2798 -0.3625  0.1530
   17TMC1    C2  261   0.822   3.951  11.562 -0.2534  0.1506  0.0177
   17TMC1    C3  262   0.852   3.821  11.530 -0.2049 -0.8438 -0.4511
   17TMC1    C4  263   0.796   3.993  11.331  0.4240  0.6614  0.6834
   17TMC1    C5  264   0.830   3.865  11.302 -0.1726 -0.3146  0.3528
   17TMC1    C6  265   0.853   3.775  11.400  0.1872 -0.5315 -0.4043
   17TMC1     C  266   0.824   4.172  11.489  0.0930 -0.2282  0.1253
   17TMC1     O  267   0.835   4.202  11.606 -0.1085  0.2488 -0.5292
   17TMC1     H  268   0.810   3.987  11.663  0.1354  0.2020  0.0459
   17TMC1    H1  269   0.750   4.048  11.250  0.2700 -1.2880 -0.5661
   17TMC1    H2  270   0.903   3.679  11.386  0.0857 -0.4190 -1.5788
   17TMC1    C7  271   0.834   3.826  11.169  0.8274  0.1122  0.1820
   17TMC1    C8  272   0.871   3.735  11.639 -0.0411 -0.0487 -0.1950
   17TMC1    O1  273   0.867   3.904  11.081 -0.3730  0.0188  0.0436
   17TMC1    O2  274   0.923   3.775  11.743 -0.1857 -0.0262  0.3766
   17TMC1    O3  275   0.778   3.704  11.158  0.6851 -0.7555  1.0601
   17TMC1    H3  276   0.748   3.655  11.237 -0.2815  1.3206  1.9843
   17TMC1    O5  277   0.790   3.627  11.637  0.2896 -0.4978  0.3938
   17TMC1    H5  278   0.739   3.601  11.558 -2.4120  0.2463  1.8823
   18MPD2     C  279   0.894   4.460  11.473 -0.2355  0.1125 -0.2500
   18MPD2    C1  280   0.908   4.372  11.361 -0.3260  0.0456 -0.5939
   18MPD2    C2  281   0.961   4.412  11.245  0.2773 -0.4858 -0.3550
   18MPD2    C3  282   0.985   4.550  11.230 -0.5393 -0.6514 -0.3357
   18MPD2    C4  283   0.977   4.636  11.346  0.7047 -0.1981  0.8463
   18MPD2    C5  284   0.937   4.588  11.469 -0.1981 -0.2798  0.0894
   18MPD2     H  285   0.971   4.346  11.160  0.2681  1.5056 -1.8694
   18MPD2    H1  286   1.020   4.736  11.347  0.6951 -0.1974  1.1271
   18MPD2    H2  287   0.878   4.421  11.573 -1.2265  1.5036  0.1419
   18MPD2    H3  288   0.938   4.661  11.548 -2.9700 -0.3544  0.1767
   18MPD2     N  289   1.036   4.601  11.106 -0.1092  0.0814  0.2101
   18MPD2    H5  290   1.074   4.695  11.106 -0.3606  0.1824 -1.4392
   18MPD2    N1  291   0.862   4.240  11.371  0.1762  1.1723 -0.4431
   18MPD2    H7  292   0.863   4.182  11.288 -1.4806 -0.2668  0.5527
   19TMC2    C1  293   1.633   1.221  13.938 -0.8513  0.5699  0.2179
   19TMC2    C2  294   1.571   1.299  13.836 -0.2472 -1.0445 -0.2486
   19TMC2    C3  295   1.479   1.234  13.757 -0.2361  0.7401  0.3070
   19TMC2    C4  296   1.596   1.097  13.974 -0.3944 -1.1497 -0.4436
   19TMC2    C5  297   1.505   1.037  13.885  0.0079 -0.1217 -0.0410
   19TMC2    C6  298   1.455   1.097  13.774 -0.0547 -0.2012 -0.3256
   19TMC2     C  299   1.744   1.285  14.001  0.0696 -0.0542 -0.2799
   19TMC2     O  300   1.771   1.400  13.972  0.1887 -0.0427 -0.3788
   19TMC2     H  301   1.626   1.381  13.792  2.0710 -2.7235 -0.4529
   19TMC2    H1  302   1.627   1.043  14.062 -0.1998  0.4593  0.4763
   19TMC2    H2  303   1.396   1.040  13.704 -0.7624  0.9700 -0.6903
   19TMC2    C7  304   1.493   0.890  13.914  0.0513 -0.3355  0.4289
   19TMC2    C8  305   1.422   1.293  13.635  0.2693  0.2057  0.2325
   19TMC2    O1  306   1.578   0.825  13.973 -0.0429 -0.0872 -0.3712
   19TMC2    O2  307   1.356   1.231  13.554 -0.1395  0.0589  0.8370
   19TMC2    O5  308   1.389   1.418  13.674 -0.0211 -0.1766 -0.0654
   19TMC2    H5  309   1.420   1.443  13.764 -0.8331  0.6454 -0.0103
   20MPD2     C  310   1.928   1.384  14.220 -0.5587 -0.5409  0.4758
   20MPD2    C1  311   1.889   1.255  14.207 -0.3234  0.4392 -0.2175
   20MPD2    C2  312   1.935   1.162  14.302  0.2254 -0.5557  0.2663
   20MPD2    C3  313   2.031   1.197  14.401  0.0427 -0.1728 -0.2050
   20MPD2    C4  314   2.071   1.331  14.402  0.5932  0.5936 -0.3620
   20MPD2    C5  315   2.017   1.424  14.319 -0.7349  0.9995 -0.7200
   20MPD2     H  316   1.912   1.057  14.289 -0.1128 -0.6416  1.5451
   20MPD2    H1  317   2.140   1.353  14.484  1.7938 -1.2571 -0.8822
   20MPD2    H2  318   1.885   1.461  14.158 -0.7700 -0.1807  1.0716
   20MPD2    H3  319   2.030   1.529  14.345 -1.1656  0.0303  3.3974
   20MPD2     N  320   2.101   1.107  14.488 -1.0252  0.3257  0.0166
   20MPD2    H5  321   2.177   1.148  14.542 -1.2883  0.5399  0.2230
   20MPD2    N1  322   1.790   1.212  14.111 -0.7732  0.2592 -0.2851
   20MPD2    H7  323   1.748   1.120  14.119  0.1560 -0.4059 -3.0899
   21TMC2    C1  324   4.369   1.021  14.237  0.2279  0.7463  0.0768
   21TMC2    C2  325   4.451   0.913  14.267  0.8260 -0.3641  0.0070
   21TMC2    C3  326   4.396   0.829  14.356  0.4711  0.8021  0.4200
   21TMC2    C4  327   4.251   1.055  14.297  0.1532 -0.0068 -0.1745
   21TMC2    C5  328   4.213   0.971  14.397 -0.0447 -0.2622  0.0821
   21TMC2    C6  329   4.280   0.857  14.420  0.1073  0.2082  0.2334
   21TMC2     C  330   4.429   1.111  14.143 -0.0044  0.0986  0.4386
   21TMC2     O  331   4.476   1.059  14.043 -0.9331  0.0471  0.3758
   21TMC2     H  332   4.546   0.896  14.218  0.7989  1.8091 -0.7896
   21TMC2    H1  333   4.202   1.147  14.268 -0.1150  0.0171  0.3512
   21TMC2    H2  334   4.247   0.791  14.500 -0.8476  2.3501  1.5847
   21TMC2    C7  335   4.181   1.040  14.523  1.0274 -0.1496  0.0892
   21TMC2    C8  336   4.461   0.696  14.356  0.1583  0.0947  0.3917
   21TMC2    O1  337   4.208   0.982  14.628 -0.0119  0.1939 -0.0921
   21TMC2    O2  338   4.554   0.659  14.284 -0.0065  0.5159  0.0513
   21TMC2    O5  339   4.433   0.627  14.467 -0.4829  0.1750  0.3079
   21TMC2    H5  340   4.398   0.682  14.541 -2.1754  0.5133 -0.7592
   22MPD2     C  341   4.392   1.422  14.534 -1.0068 -0.7274  0.0313
   22MPD2    C1  342   4.465   1.299  14.519  0.1364  0.1162 -0.1058
   22MPD2    C2  343   4.484   1.251  14.390 -0.5104  0.0530  0.2103
   22MPD2    C3  344   4.423   1.312  14.284 -0.1536  0.1053  0.1910
   22MPD2    C4  345   4.378   1.440  14.293  0.0432 -0.2299 -0.2887
   22MPD2    C5  346   4.353   1.483  14.420 -0.0694  0.1454 -0.3743
   22MPD2     H  347   4.543   1.161  14.380  0.9150  0.9048  0.9253
   22MPD2    H1  348   4.338   1.498  14.211  0.5344 -1.8182 -1.6531
   22MPD2    H2  349   4.375   1.483  14.622  3.8258  0.7658 -0.0642
   22MPD2    H3  350   4.299   1.576  14.423 -0.5827 -0.1482 -0.5041
   22MPD2     N  351   4.408   1.248  14.159  0.2252 -0.6182  0.5355
   22MPD2    H5  352   4.389   1.308  14.079  0.4366 -1.5886 -0.2469
   22MPD2    N1  353   4.499   1.222  14.631 -0.2446 -0.4111  0.2491
   22MPD2    H7  354   4.546   1.133  14.621  0.6745  0.1576 -0.5412
   23TMC2    C1  355   0.751   2.186  14.556 -0.1408 -0.3801 -0.0280
   23TMC2    C2  356   0.666   2.297  14.547 -0.2374  0.0569  0.0499
   23TMC2    C3  357   0.527   2.284  14.555 -0.5370 -0.0323 -0.3954
   23TMC2    C4  358   0.697   2.062  14.577  0.1092 -0.1873 -0.3253
   23TMC2    C5  359   0.560   2.052  14.593 -0.0587 -0.2273  0.4792
   23TMC2    C6  360   0.474   2.161  14.577 -0.5910  0.7214 -1.1248
   23TMC2     C  361   0.870   2.199  14.637 -0.1051 -0.0095 -0.3486
   23TMC2     O  362   0.902   2.100  14.705  0.0192  0.1897  0.0846
   23TMC2     H  363   0.707   2.398  14.549 -0.0570 -0.0108 -0.2538
   23TMC2    H1  364   0.751   1.969  14.563 -3.0300 -2.2898  1.7457
   23TMC2    H2  365   0.366   2.151  14.578 -0.6834  2.0091  2.1852
   23TMC2    C7  366   0.511   1.925  14.561 -0.5655 -0.2491 -0.2536
   23TMC2    C8  367   0.458   2.408  14.586  0.4022 -0.2073 -0.4406
   23TMC2    O1  368   0.573   1.822  14.595  0.2482 -0.1181 -0.0364
   23TMC2    O2  369   0.518   2.511  14.619 -0.2030  0.2472 -0.2486
   23TMC2    O5  370   0.328   2.387  14.548 -0.2097 -0.3023 -0.7142
   23TMC2    H5  371   0.310   2.311  14.488 -0.2129 -0.8848  0.0304
   24MPD2     C  372   1.280   2.456  14.816  0.0144  0.4888 -0.4239
   24MPD2    C1  373   1.203   2.358  14.874  0.3362  0.2940  0.0253
   24MPD2    C2  374   1.090   2.310  14.808 -0.8861  0.7451 -0.2552
   24MPD2    C3  375   1.047   2.367  14.691  0.0251  0.1580  0.2574
   24MPD2    C4  376   1.112   2.482  14.646  0.3427  0.5060 -0.1058
   24MPD2    C5  377   1.227   2.515  14.705  0.3866  0.4442  0.3771
   24MPD2     H  378   1.041   2.221  14.845  0.3021 -0.7427 -2.2973
   24MPD2    H1  379   1.079   2.540  14.560  0.4963 -0.0079 -0.5125
   24MPD2    H2  380   1.373   2.491  14.859  0.0471  0.6871 -0.6597
   24MPD2    H3  381   1.274   2.602  14.662  0.2231 -0.1292 -0.9545
   24MPD2     N  382   0.940   2.317  14.613  1.2048  0.2424  0.1008
   24MPD2    H5  383   0.909   2.367  14.531  3.6935  1.0305 -0.3427
   24MPD2    N1  384   1.238   2.301  15.002  0.2206  0.0843 -0.1079
   24MPD2    H7  385   1.180   2.224  15.031  0.9274 -0.7320 -0.8737
   25TMC2    C1  386   0.455   3.735  11.886 -0.2995  0.0962 -0.2946
   25TMC2    C2  387   0.564   3.719  11.958  0.2569 -0.2531 -0.4955
   25TMC2    C3  388   0.558   3.647  12.072  0.1248 -0.4842  0.4404
   25TMC2    C4  389   0.333   3.687  11.921  0.3235  0.3287  0.5285
   25TMC2    C5  390   0.327   3.612  12.039 -0.0078 -0.1090 -0.5712
   25TMC2    C6  391   0.437   3.599  12.116 -0.1606  0.1819 -0.4814
   25TMC2     C  392   0.470   3.776  11.747  0.1449 -0.9191  0.2891
   25TMC2     O  393   0.565   3.846  11.721  0.0111  0.6193 -0.2636
   25TMC2     H  394   0.662   3.746  11.922  1.2411 -0.5458  1.9966
   25TMC2    H1  395   0.244   3.718  11.866  0.3226  2.3740  1.6653
   25TMC2    H2  396   0.419   3.542  12.206  0.5788 -0.9168 -1.0295
   25TMC2    C7  397   0.197   3.566  12.093  0.3790  0.7836 -0.4635
   25TMC2    C8  398   0.670   3.662  12.163  0.0792 -0.3217 -1.2715
   25TMC2    O1  399   0.194   3.500  12.196 -0.3588 -0.0043 -0.1449
   25TMC2    O2  400   0.733   3.768  12.167  0.1968  0.4777  0.0528
   25TMC2    O5  401   0.632   3.572  12.260 -0.1194 -0.0063 -0.1435
   25TMC2    H5  402   0.631   3.481  12.223  0.2891 -0.2532  0.4473
   26MPD2     C  403   0.360   3.720  11.245 -0.4802 -0.2549 -0.2942
   26MPD2    C1  404   0.284   3.633  11.330  0.5107  0.2083  0.6876
   26MPD2    C2  405   0.277   3.637  11.469 -0.0766 -0.2226 -0.4531
   26MPD2    C3  406   0.370   3.724  11.529 -0.1558 -0.1093 -0.3628
   26MPD2    C4  407   0.451   3.805  11.455  0.6738  0.6121  0.1195
   26MPD2    C5  408   0.438   3.804  11.315  0.6222  0.2275 -1.1812
   26MPD2     H  409   0.208   3.576  11.526  0.8242 -0.3959  0.4532
   26MPD2    H1  410   0.520   3.874  11.502 -0.6661  0.6035  2.1211
   26MPD2    H2  411   0.360   3.729  11.137 -0.1280 -0.4672 -0.3136
   26MPD2    H3  412   0.498   3.873  11.256  1.1531 -1.0870 -2.1595
   26MPD2     N  413   0.375   3.720  11.673 -0.0822 -0.0534  0.1304
   26MPD2    H5  414   0.302   3.670  11.723 -0.4242  0.6447  0.3375
   26MPD2    N1  415   0.209   3.543  11.255  0.3052 -0.4192  0.0544
   26MPD2    H7  416   0.213   3.559  11.155 -1.6121 -2.1672 -0.3116
   27TMC2    C1  417   3.215   2.064  12.429 -0.1841  0.2332 -0.8191
   27TMC2    C2  418   3.340   2.100  12.387 -0.4237  0.5552 -0.4617
   27TMC2    C3  419   3.442   2.108  12.481  0.4624 -0.4698 -0.5113
   27TMC2    C4  420   3.201   2.019  12.551 -0.1989  0.0491 -0.1122
   27TMC2    C5  421   3.307   2.011  12.638  0.2694  0.2666 -0.0435
   27TMC2    C6  422   3.428   2.065  12.613  0.1809  0.5902 -0.7067
   27TMC2     C  423   3.113   2.068  12.325 -0.2071  0.6099  0.2106
   27TMC2     O  424   3.143   2.107  12.213  0.8605  0.6358  0.0280
   27TMC2     H  425   3.362   2.139  12.288  1.2124  0.5745 -0.0960
   27TMC2    H1  426   3.104   1.992  12.593 -0.2838 -1.1416 -1.0844
   27TMC2    H2  427   3.510   2.039  12.679  0.0077  0.6800 -0.4552
   27TMC2    C7  428   3.292   1.903  12.740 -0.4453  0.2577 -1.0840
   27TMC2    C8  429   3.573   2.105  12.440 -0.1125  1.3828 -0.5688
   27TMC2    O1  430   3.196   1.831  12.726 -0.6786  0.0492  0.0560
   27TMC2    O2  431   3.660   2.132  12.521 -0.1875 -0.0970 -0.1539
   27TMC2    O5  432   3.564   2.000  12.361  0.2364  0.6082 -0.0070
   27TMC2    H5  433   3.470   1.994  12.332 -0.0586 -0.5455  1.2237
   28MPD2     C  434   2.619   2.015  12.182  0.2141  0.2203  0.3679
   28MPD2    C1  435   2.638   1.940  12.300  0.2609  1.0621  0.5729
   28MPD2    C2  436   2.770   1.931  12.358 -0.8687  0.2196  0.4407
   28MPD2    C3  437   2.868   2.012  12.299 -0.3891 -0.5675 -0.5832
   28MPD2    C4  438   2.843   2.082  12.184  0.1886 -0.0492  0.1029
   28MPD2    C5  439   2.720   2.084  12.124  0.1118  0.0656 -0.6560
   28MPD2     H  440   2.781   1.895  12.459  0.7670  0.8519  0.4897
   28MPD2    H1  441   2.918   2.122  12.118 -2.1551  1.2017 -1.8095
   28MPD2    H2  442   2.521   2.013  12.137  0.8431 -0.1429 -0.9895
   28MPD2    H3  443   2.717   2.149  12.038 -0.0700  0.4423 -0.3619
   28MPD2     N  444   2.996   2.018  12.371 -0.0973  0.1614  0.3462
   28MPD2    H5  445   3.000   1.963  12.456  0.5806  1.3601  1.0946
   28MPD2    N1  446   2.526   1.874  12.349  0.1051 -0.1828 -0.3771
   28MPD2    H7  447   2.438   1.888  12.302 -0.2208  2.0807  0.9421
   29TMC2    C1  448   3.367   4.267  14.054 -0.3476  0.6401  0.6225
   29TMC2    C2  449   3.502   4.270  14.063  0.1248 -0.5998 -0.5393
   29TMC2    C3  450   3.558   4.390  14.111  0.4829  0.0887  0.0050
   29TMC2    C4  451   3.291   4.372  14.094  0.5718  0.2570  0.0578
   29TMC2    C5  452   3.358   4.485  14.141 -1.0473  0.5282  0.7194
   29TMC2    C6  453   3.491   4.499  14.153  0.3788  0.0918  0.7030
   29TMC2     C  454   3.307   4.150  13.980 -0.4579 -0.8045 -0.4094
   29TMC2     O  455   3.366   4.048  13.952  0.3027  0.2273 -0.0258
   29TMC2     H  456   3.559   4.190  14.016  0.5670  0.2217 -1.3839
   29TMC2    H1  457   3.183   4.365  14.098  0.4763  2.4411  1.5915
   29TMC2    H2  458   3.541   4.590  14.186  3.2020 -1.3453  0.4147
   29TMC2    C7  459   3.277   4.579  14.208 -0.0854  0.1968 -0.3127
   29TMC2    C8  460   3.702   4.411  14.107  0.6321 -0.1998 -0.2698
   29TMC2    O1  461   3.158   4.591  14.177  0.4631 -0.6344 -0.4312
   29TMC2    O2  462   3.751   4.502  14.171  0.2159 -0.0173  0.6628
   29TMC2    O5  463   3.766   4.349  14.012  0.3960  0.2325  0.2372
   29TMC2    H5  464   3.738   4.275  13.953 -0.4131 -1.0231  2.1948
   30MPD2     C  465   2.901   3.934  13.741 -0.1628  0.1968 -0.0028
   30MPD2    C1  466   3.015   3.877  13.796  0.4721  0.6450 -0.0812
   30MPD2    C2  467   3.104   3.958  13.855 -0.2594 -0.2820  0.0281
   30MPD2    C3  468   3.081   4.097  13.877 -0.4777 -0.6090  0.2791
   30MPD2    C4  469   2.964   4.147  13.830  0.0700  0.8672 -0.0330
   30MPD2    C5  470   2.882   4.066  13.755 -0.1433 -0.5735 -0.5039
   30MPD2     H  471   3.200   3.923  13.890  1.0215 -0.1270 -3.2871
   30MPD2    H1  472   2.936   4.251  13.844  1.8342  1.0338  2.2064
   30MPD2    H2  473   2.822   3.887  13.683 -0.0024  1.3115 -1.1320
   30MPD2    H3  474   2.800   4.119  13.708  0.1820 -0.7862 -1.3126
   30MPD2     N  475   3.174   4.181  13.944  0.2198 -0.2605 -0.4171
   30MPD2    H5  476   3.141   4.275  13.963 -0.5278 -0.5474 -0.3085
   30MPD2    N1  477   3.048   3.740  13.795 -0.3169 -0.2967 -0.4620
   30MPD2    H7  478   3.143   3.712  13.818 -0.1897 -1.3069 -2.2149
   31TMC2    C1  479   1.079   3.182  14.857  0.5872 -0.0799 -0.2776
   31TMC2    C2  480   1.014   3.301  14.861  0.0065 -0.0926  0.1051
   31TMC2    C3  481   0.936   3.326  14.973  0.1760 -0.0494 -0.2117
   31TMC2    C4  482   1.076   3.087  14.958  0.3806  0.0799 -0.7569
   31TMC2    C5  483   1.001   3.117  15.068 -0.3844  0.2632 -0.8113
   31TMC2    C6  484   0.931   3.240  15.080  0.1129 -0.1641 -0.0159
   31TMC2     C  485   1.130   3.150  14.725  0.3436  0.0230 -0.4079
   31TMC2     O  486   1.163   3.246  14.654  0.2335 -0.1296 -0.3195
   31TMC2     H  487   1.020   3.371  14.778 -2.5856 -0.8999 -0.7738
   31TMC2    H1  488   1.140   3.000  14.954 -1.1513 -0.9361 -2.7385
   31TMC2    H2  489   0.887   3.272  15.173  0.1413  1.6295 -0.6152
   31TMC2    C7  490   0.980   3.002  15.160 -0.3269 -0.1582 -0.0806
   31TMC2    C8  491   0.825   3.418  14.971 -0.2505  0.2944 -0.1778
   31TMC2    O1  492   1.058   2.914  15.187  0.6483  0.1055  0.0102
   31TMC2    O2  493   0.766   3.443  15.078 -0.7734  0.0365 -0.3803
   31TMC2    O5  494   0.755   3.368  14.867 -0.0667 -0.3041  0.1207
   31TMC2    H5  495   0.811   3.356  14.787 -0.0668  3.0682 -0.3973
   32MPD2     C  496   1.070   2.871  14.301 -0.4859  0.1870  0.4034
   32MPD2    C1  497   1.131   2.985  14.315 -0.2417 -0.2851  0.3412
   32MPD2    C2  498   1.144   3.037  14.441 -0.1452  0.3228  0.1578
   32MPD2    C3  499   1.102   2.968  14.554  0.0259 -0.3948 -0.0287
   32MPD2    C4  500   1.041   2.844  14.534  0.4419  0.0133  0.3160
   32MPD2    C5  501   1.028   2.798  14.407 -0.3334 -0.1335 -0.1317
   32MPD2     H  502   1.188   3.135  14.451 -0.1709  0.2610  0.9038
   32MPD2    H1  503   0.992   2.791  14.615  1.4498  1.9773  2.2245
   32MPD2    H2  504   1.047   2.839  14.199  0.8922 -1.2829  0.5569
   32MPD2    H3  505   0.969   2.708  14.393 -0.1325 -0.1341 -0.9874
   32MPD2     N  506   1.098   3.020  14.690  0.4955 -0.1871  0.0707
   32MPD2    H5  507   1.063   2.961  14.764 -1.6477 -0.9646 -1.5632
   32MPD2    N1  508   1.175   3.053  14.194  0.2613 -0.0014 -0.1612
   32MPD2    H7  509   1.164   3.005  14.106  0.3334 -0.5433  0.1184
   33TMC2    C1  510   0.748   0.719  10.484  0.4843  0.2193  0.6010
   33TMC2    C2  511   0.623   0.708  10.525  0.7048  0.2448 -0.4684
   33TMC2    C3  512   0.523   0.778  10.463  0.2902 -0.1754  0.3420
   33TMC2    C4  513   0.781   0.805  10.378 -0.3155  0.3020  0.1902
   33TMC2    C5  514   0.680   0.881  10.323 -0.0992 -0.0587  0.1992
   33TMC2    C6  515   0.552   0.868  10.368 -0.0297 -0.2230  0.4081
   33TMC2     C  516   0.845   0.634  10.556  0.0385 -0.4327 -0.2791
   33TMC2     O  517   0.798   0.532  10.602 -0.5147  0.2568 -0.3335
   33TMC2     H  518   0.608   0.657  10.620 -2.3601  0.6367 -0.7501
   33TMC2    H1  519   0.884   0.817  10.348 -0.6558  0.4548 -0.9148
   33TMC2    H2  520   0.475   0.927  10.319  0.2721 -0.4297 -0.3267
   33TMC2    C7  521   0.716   0.958  10.206  0.2473 -0.0450  0.1627
   33TMC2    C8  522   0.396   0.706  10.455 -1.1247 -0.7058 -0.4200
   33TMC2    O1  523   0.837   0.985  10.191 -0.0013  0.3846  0.5555
   33TMC2    O2  524   0.397   0.582  10.433 -0.1692 -0.1044  0.0627
   33TMC2    O5  525   0.301   0.789  10.400 -0.3769  0.6185 -0.2784
   33TMC2    H5  526   0.317   0.880  10.435 -0.3752  1.2167 -1.8444
   34MPD2     C  527   1.321   0.495  10.690  0.0248 -0.5448 -0.4522
   34MPD2    C1  528   1.204   0.425  10.688 -0.4947 -0.7367  0.4870
   34MPD2    C2  529   1.081   0.483  10.642 -0.2273 -1.1537 -0.2533
   34MPD2    C3  530   1.084   0.617  10.607  0.1175 -0.1004 -0.0769
   34MPD2    C4  531   1.200   0.684  10.613 -0.7236 -0.4411  0.2348
   34MPD2    C5  532   1.319   0.624  10.645 -0.7133  0.1137 -0.3030
   34MPD2     H  533   0.986   0.431  10.634 -2.7767  3.1896  2.0356
   34MPD2    H1  534   1.210   0.783  10.571  1.7447 -0.7271  0.1937
   34MPD2    H2  535   1.411   0.446  10.726  0.1778 -0.1980 -0.3651
   34MPD2    H3  536   1.411   0.680  10.656  0.2324 -1.5701  0.3082
   34MPD2     N  537   0.973   0.689  10.560  0.4941 -0.5936 -0.2211
   34MPD2    H5  538   0.978   0.786  10.529  0.8475 -1.0736 -1.6770
   34MPD2    N1  539   1.219   0.298  10.742  0.2406 -0.0930 -0.3740
   34MPD2    H7  540   1.314   0.272  10.763  0.3160 -0.1031 -0.7299
   35TMC2    C1  541   2.412   1.503  11.050 -0.1197  0.0573  0.0776
   35TMC2    C2  542   2.388   1.483  10.918 -0.2558 -0.1694 -0.4628
   35TMC2    C3  543   2.269   1.427  10.888 -0.1385  0.0100  0.7176
   35TMC2    C4  544   2.325   1.457  11.143  0.1255 -0.7358  0.0605
   35TMC2    C5  545   2.203   1.405  11.110  0.3537  0.1829 -0.7019
   35TMC2    C6  546   2.173   1.390  10.979 -0.1280 -0.0503 -0.1005
   35TMC2     C  547   2.539   1.564  11.089 -0.5682  0.4101 -0.1181
   35TMC2     O  548   2.612   1.611  11.004 -0.6996 -0.3707 -0.1887
   35TMC2     H  549   2.458   1.508  10.840 -0.4777 -1.1517 -0.9810
   35TMC2    H1  550   2.346   1.467  11.249  1.2665 -0.1972 -0.2211
   35TMC2    H2  551   2.083   1.338  10.948 -0.2302  1.3939 -2.2334
   35TMC2    C7  552   2.147   1.310  11.200 -0.2274  0.0590 -0.5373
   35TMC2    C8  553   2.236   1.430  10.750 -0.5616  0.5513  0.1182
   35TMC2    O1  554   2.223   1.283  11.294 -0.0277  0.8500 -0.0548
   35TMC2    O2  555   2.276   1.513  10.669 -0.2022 -0.6180 -0.3908
   35TMC2    O5  556   2.153   1.330  10.728 -0.4361  0.5895 -0.3426
   35TMC2    H5  557   2.158   1.260  10.796 -2.6846  1.1301  0.4063
   36MPD2     C  558   2.860   1.775  11.442 -0.4883  0.0907 -0.1681
   36MPD2    C1  559   2.771   1.693  11.512  0.2647  0.3075  0.0701
   36MPD2    C2  560   2.669   1.628  11.437 -0.9574  0.5974  0.2215
   36MPD2    C3  561   2.665   1.643  11.296 -0.7181  0.0697 -0.3338
   36MPD2    C4  562   2.752   1.733  11.231 -0.5030  0.4328  0.7994
   36MPD2    C5  563   2.839   1.800  11.309 -0.4400  0.2682 -0.1847
   36MPD2     H  564   2.591   1.575  11.491  0.7276 -1.5096  0.5790
   36MPD2    H1  565   2.752   1.749  11.123  2.7251 -1.3152  0.5338
   36MPD2    H2  566   2.934   1.833  11.497 -0.4007 -0.2732  0.1004
   36MPD2    H3  567   2.907   1.875  11.269 -0.0876 -0.4447 -0.9064
   36MPD2     N  568   2.563   1.575  11.229  0.2217  0.1635  0.1073
   36MPD2    H5  569   2.500   1.521  11.287  1.0135 -0.4691  0.3839
   36MPD2    N1  570   2.787   1.682  11.650 -0.0439 -0.3688  0.0137
   36MPD2    H7  571   2.859   1.737  11.697  0.7291 -1.9908  0.7138
   37TMC2    C1  572   3.785   2.127  11.399  0.0433 -0.5004  0.6591
   37TMC2    C2  573   3.705   2.219  11.338  0.2699  0.6432  0.7797
   37TMC2    C3  574   3.764   2.328  11.275 -0.5322  0.8955 -0.6332
   37TMC2    C4  575   3.921   2.129  11.386  0.0388 -0.3378 -0.4922
   37TMC2    C5  576   3.976   2.227  11.305  0.1770  0.7082 -0.2417
   37TMC2    C6  577   3.900   2.330  11.247  1.1127  0.5601  1.0631
   37TMC2     C  578   3.734   2.049  11.505  0.4144  0.0635 -0.2785
   37TMC2     O  579   3.612   2.051  11.507  0.8075  0.1160  0.5059
   37TMC2     H  580   3.599   2.233  11.352 -0.5249 -2.7479 -1.9957
   37TMC2    H1  581   3.992   2.053  11.418  0.1140 -0.0115  0.1172
   37TMC2    H2  582   3.943   2.403  11.180 -0.4222 -0.7484 -1.3219
   37TMC2    C7  583   4.121   2.239  11.305  0.1067 -0.1956 -0.0468
   37TMC2    C8  584   3.675   2.426  11.211 -1.0257  0.5755 -0.2728
   37TMC2    O1  585   4.189   2.139  11.338  0.2295  0.1009 -0.2612
   37TMC2    O2  586   3.556   2.415  11.182 -0.7030 -0.1091 -0.0350
   37TMC2    O5  587   3.751   2.530  11.176  0.0248  0.2608  0.5805
   37TMC2    H5  588   3.826   2.540  11.238  1.3306 -0.8054 -0.8368
   38MPD2     C  589   3.743   1.878  11.988  0.3623 -0.2727 -0.3363
   38MPD2    C1  590   3.873   1.901  11.951 -0.7545 -0.0271 -0.2564
   38MPD2    C2  591   3.900   1.947  11.826 -0.0356 -0.3165 -0.6498
   38MPD2    C3  592   3.796   1.970  11.739  0.2922 -0.0924  0.1035
   38MPD2    C4  593   3.669   1.948  11.775  0.4354  0.4041  0.1719
   38MPD2    C5  594   3.644   1.899  11.898 -0.0602 -0.3361  0.5824
   38MPD2     H  595   3.997   1.979  11.790  1.4794  0.6284  4.1924
   38MPD2    H1  596   3.577   1.956  11.717 -0.6925  0.2969  1.9578
   38MPD2    H2  597   3.706   1.845  12.084  2.2937 -1.5991 -0.0511
   38MPD2    H3  598   3.545   1.866  11.928 -0.1243  1.0059  1.8055
   38MPD2     N  599   3.824   2.012  11.606  0.6559  0.0954 -0.6110
   38MPD2    H5  600   3.918   2.045  11.585  1.6316 -1.7139  0.9715
   38MPD2    N1  601   3.981   1.855  12.032 -0.1562 -0.3487  0.0421
   38MPD2    H7  602   4.078   1.859  12.003  0.1904  1.3683  1.4470
   39TMC2    C1  603   2.562   0.641   1.521 -0.0841  0.1680  0.3121
   39TMC2    C2  604   2.462   0.730   1.506 -0.2914  0.4701 -0.3085
   39TMC2    C3  605   2.485   0.863   1.537 -0.1966  0.5861  0.1812
   39TMC2    C4  606   2.684   0.675   1.562 -0.7472 -0.2518  0.7940
   39TMC2    C5  607   2.712   0.808   1.582 -0.2348 -0.4743  0.6469
   39TMC2    C6  608   2.610   0.901   1.569  0.3332 -0.0472  0.1652
   39TMC2     C  609   2.526   0.505   1.472  0.6203 -0.3864  1.0955
   39TMC2     O  610   2.409   0.487   1.450  0.0806  0.0145  0.0593
   39TMC2     H  611   2.366   0.703   1.462  0.4200  0.3662 -1.7937
   39TMC2    H1  612   2.761   0.599   1.571 -1.8806 -1.7086 -1.7631
   39TMC2    H2  613   2.623   0.998   1.616  3.2395  0.0219 -0.8106
   39TMC2    C7  614   2.847   0.853   1.604  0.9317  0.2253  0.4434
   39TMC2    C8  615   2.386   0.971   1.515  0.1695 -0.0559 -0.3373
   39TMC2    O1  616   2.917   0.754   1.621  0.0240 -0.2020 -0.7968
   39TMC2    O2  617   2.409   1.079   1.562  0.8598 -0.2407 -0.1803
   39TMC2    O5  618   2.264   0.917   1.494 -0.2732 -0.0771  0.3036
   39TMC2    H5  619   2.259   0.844   1.430 -0.8593 -0.4467  0.7692
   40MPD2     C  620   2.727   0.199   1.428 -0.6231 -0.1318 -0.1926
   40MPD2    C1  621   2.611   0.282   1.417 -0.3193 -0.0033 -1.0746
   40MPD2    C2  622   2.495   0.233   1.360 -0.3951 -0.1594 -0.0796
   40MPD2    C3  623   2.479   0.095   1.342 -0.2870  0.1628 -0.2435
   40MPD2    C4  624   2.586   0.013   1.374 -0.1242  0.0703  0.2115
   40MPD2    C5  625   2.708   0.066   1.407 -0.0158  0.0149 -0.2944
   40MPD2     H  626   2.413   0.297   1.329 -1.4762 -2.2130 -1.4914
   40MPD2    H1  627   2.580   4.643   1.392  1.8766 -0.1537 -0.3947
   40MPD2    H2  628   2.822   0.232   1.468 -0.6777 -0.3052  0.0853
   40MPD2    H3  629   2.791   4.733   1.417 -1.4622 -1.8393 -1.2943
   40MPD2     N  630   2.371   0.025   1.283  0.3885  0.1799  0.4444
   40MPD2    H5  631   2.383   4.662   1.277 -0.3273  0.2860 -2.9315
   40MPD2    N1  632   2.627   0.416   1.461 -0.3258 -0.9303  0.1866
   40MPD2    H7  633   2.720   0.446   1.488 -0.8701  1.3373 -0.4962
   41TMC2    C1  634   1.266   2.237  13.722 -0.4414 -0.0446  0.0613
   41TMC2    C2  635   1.279   2.371  13.742 -0.4669 -0.0831  0.2185
   41TMC2    C3  636   1.373   2.435  13.664 -0.8175  0.1768 -0.3571
   41TMC2    C4  637   1.338   2.174  13.628  0.1557 -0.0286 -0.4734
   41TMC2    C5  638   1.419   2.245  13.544  0.5968  1.3696  0.1110
   41TMC2    C6  639   1.439   2.379  13.560 -0.3676  0.0871  0.2905
   41TMC2     C  640   1.209   2.152  13.829  0.3289 -0.5233 -0.2101
   41TMC2     O  641   1.148   2.051  13.797  0.1842  0.6345  0.2757
   41TMC2     H  642   1.227   2.418  13.824 -1.9013 -0.9168 -0.2004
   41TMC2    H1  643   1.341   2.066  13.628  0.1337 -0.0282  0.0475
   41TMC2    H2  644   1.522   2.435  13.516  0.2203  0.9643  2.5030
   41TMC2    C7  645   1.536   2.183  13.484  0.0383  0.1067  0.0493
   41TMC2    C8  646   1.347   2.582  13.668 -0.0915 -0.6929 -1.0246
   41TMC2    O1  647   1.638   2.254  13.484  0.3087 -0.4844  0.5005
   41TMC2    O2  648   1.243   2.625  13.718 -1.2655  0.0466  0.2138
   41TMC2    O5  649   1.461   2.643  13.653 -0.4236 -0.5125  0.4093
   41TMC2    H5  650   1.545   2.592  13.644 -0.2875 -0.3091  0.5131
   42MPD2     C  651   1.055   2.098  14.080 -0.6744  0.7801  0.0955
   42MPD2    C1  652   1.177   2.164  14.073 -0.4250  0.7718  0.3565
   42MPD2    C2  653   1.244   2.199  14.185 -0.2050  0.0155 -0.4011
   42MPD2    C3  654   1.208   2.146  14.310 -0.1959  0.6733 -0.0246
   42MPD2    C4  655   1.094   2.067  14.313  0.1456 -0.9419 -0.6882
   42MPD2    C5  656   1.018   2.052  14.197  0.1283  0.5744 -0.5667
   42MPD2     H  657   1.342   2.245  14.178 -0.6887  0.8285 -1.6352
   42MPD2    H1  658   1.061   2.014  14.402 -1.5570  0.8540 -0.2499
   42MPD2    H2  659   0.988   2.083  13.995  2.0732 -0.3864 -1.8585
   42MPD2    H3  660   0.917   2.014  14.211  2.0451 -4.2171  0.4566
   42MPD2     N  661   1.286   2.161  14.431  0.4223  0.1273 -0.2103
   42MPD2    H5  662   1.264   2.102  14.511 -3.3101  0.1407 -1.2233
   42MPD2    N1  663   1.232   2.206  13.953  0.0132  0.7224 -0.4542
   42MPD2    H7  664   1.306   2.275  13.956 -1.2026  2.0041  0.3879
   43TMC2    C1  665   3.265   0.680   0.162 -0.4677  0.3191 -0.5683
   43TMC2    C2  666   3.280   0.643   0.293 -0.3985 -0.0248 -0.1421
   43TMC2    C3  667   3.287   0.744   0.386 -0.6924  0.7270 -0.4153
   43TMC2    C4  668   3.258   0.806   0.115  0.0159 -0.2714 -0.5377
   43TMC2    C5  669   3.267   0.907   0.211 -0.1559 -0.6634  0.2120
   43TMC2    C6  670   3.274   0.882   0.350  0.6176  0.3680  0.1409
   43TMC2     C  671   3.289   0.578   0.063 -0.6578  0.0726 -0.0446
   43TMC2     O  672   3.229   0.582  17.700 -0.0535 -0.0415  0.5136
   43TMC2     H  673   3.279   0.538   0.320 -0.6333 -0.0137 -0.1021
   43TMC2    H1  674   3.258   0.830   0.009  1.3857 -1.1011 -0.7312
   43TMC2    H2  675   3.275   0.960   0.425 -0.9757 -2.1252  2.7497
   43TMC2    C7  676   3.291   1.041   0.159 -0.4109 -0.2135 -0.1064
   43TMC2    C8  677   3.321   0.723   0.528  0.1767 -0.0458  0.1604
   43TMC2    O1  678   3.322   1.057   0.045  0.6749  0.2205  0.4492
   43TMC2    O2  679   3.300   0.801   0.622  0.2972  0.4065  0.6431
   43TMC2    O5  680   3.355   0.592   0.535  0.4570  0.2670 -0.3445
   43TMC2    H5  681   3.350   0.522   0.467 -2.1156 -1.1652  1.3113
   44MPD2     C  682   3.587   0.235  17.576 -0.4231  0.6933 -0.3801
   44MPD2    C1  683   3.667   0.309  17.666 -0.4750 -0.0461  0.7449
   44MPD2    C2  684   3.615   0.407   0.005 -0.0756 -0.8313 -0.3076
   44MPD2    C3  685   3.482   0.431   0.007 -0.2989 -0.4133 -0.5009
   44MPD2    C4  686   3.404   0.346  17.678  0.7181 -0.1949 -0.0659
   44MPD2    C5  687   3.456   0.256  17.585 -0.4379 -0.0311  0.8262
   44MPD2     H  688   3.673   0.463   0.078 -3.5376  2.0680  0.1697
   44MPD2    H1  689   3.296   0.344  17.670  0.9023 -2.8262 -2.0598
   44MPD2    H2  690   3.618   0.158  17.507  1.6424  1.4996 -0.3473
   44MPD2    H3  691   3.401   0.195  17.514  1.7831 -1.8338  0.6459
   44MPD2     N  692   3.424   0.539   0.080 -0.2792 -0.3902 -0.1258
   44MPD2    H5  693   3.489   0.593   0.136  0.3820  1.1000 -2.2846
   44MPD2    N1  694   3.807   0.286  17.675 -0.2655 -0.4359  0.3672
   44MPD2    H7  695   3.856   0.345  17.740  0.4942 -0.1293 -0.4815
   45TMC2    C1  696   0.047   2.485   9.139  0.0663 -0.7141  0.1063
   45TMC2    C2  697   0.178   2.465   9.160 -0.2622  0.5548 -0.4022
   45TMC2    C3  698   0.229   2.483   9.289  0.3693  0.2008  0.5295
   45TMC2    C4  699   4.703   2.542   9.233  0.5581 -0.1219 -0.8343
   45TMC2    C5  700   0.019   2.565   9.357 -0.2809  0.0791  0.5577
   45TMC2    C6  701   0.151   2.530   9.389 -0.3207 -0.1838  0.4236
   45TMC2     C  702   4.736   2.439   9.005  0.5600  0.5033 -0.7788
   45TMC2     O  703   0.085   2.390   8.930 -0.0903 -0.1137 -0.6839
   45TMC2     H  704   0.243   2.443   9.076 -0.6535  0.4191 -0.6686
   45TMC2    H1  705   4.598   2.562   9.211 -0.1301  0.1411  2.6274
   45TMC2    H2  706   0.190   2.539   9.489 -1.3518  1.2362  0.7053
   45TMC2    C7  707   4.671   2.588   9.477  0.1146  0.0160 -0.4978
   45TMC2    C8  708   0.375   2.489   9.315 -1.0510  0.0501 -0.5471
   45TMC2    O1  709   4.731   2.602   9.584 -0.2612  0.5800 -0.1189
   45TMC2    O2  710   0.423   2.540   9.409 -0.6205 -0.0592  0.6640
   45TMC2    O5  711   0.439   2.403   9.236  0.0146  0.3751  0.5940
   45TMC2    H5  712   0.393   2.374   9.155  0.3708 -2.0203  1.2519
   46MPD2     C  713   4.567   2.322   8.790  0.4920  0.4229  0.2423
   46MPD2    C1  714   4.531   2.439   8.861 -0.6677 -0.0865  0.7070
   46MPD2    C2  715   4.404   2.490   8.841 -0.3193 -0.6912 -0.6616
   46MPD2    C3  716   4.317   2.431   8.749 -0.2484  0.0443  0.4927
   46MPD2    C4  717   4.357   2.324   8.672  0.3858 -0.7192 -0.0300
   46MPD2    C5  718   4.478   2.269   8.699  0.2752  0.2466 -1.1607
   46MPD2     H  719   4.374   2.577   8.899 -0.8428 -0.3028 -1.5225
   46MPD2    H1  720   4.293   2.276   8.600  0.4436 -0.1518 -0.4634
   46MPD2    H2  721   4.661   2.272   8.810 -0.4584 -1.4011  0.1120
   46MPD2    H3  722   4.515   2.185   8.642  2.8055 -1.0858  2.4313
   46MPD2     N  723   4.193   2.501   8.732  0.4262  0.1044 -0.2023
   46MPD2    H5  724   4.172   2.580   8.793 -3.3300 -2.2030  1.4969
   46MPD2    N1  725   4.610   2.487   8.968 -0.6493 -0.1740  0.2105
   46MPD2    H7  726   4.565   2.558   9.024  1.8720  0.1887  1.7750
   47TMC2    C1  727   0.750   2.852   9.094 -0.5947 -0.0727  0.1644
   47TMC2    C2  728   0.693   2.729   9.083 -0.2347 -0.0620  0.2265
   47TMC2    C3  729   0.557   2.719   9.055 -0.1592  0.5730  0.3155
   47TMC2    C4  730   0.675   2.968   9.073  0.0466 -0.3401  0.0801
   47TMC2    C5  731   0.541   2.958   9.035 -0.0733  0.5470  0.4389
   47TMC2    C6  732   0.482   2.831   9.033  0.6959 -0.2482 -0.2297
   47TMC2     C  733   0.893   2.875   9.138 -0.2411 -1.4553  0.5524
   47TMC2     O  734   0.925   2.993   9.151 -0.6806  0.0521  0.2067
   47TMC2     H  735   0.745   2.638   9.113  1.6294  1.1454  0.6435
   47TMC2    H1  736   0.726   3.063   9.070 -1.6768  0.6251  1.3675
   47TMC2    H2  737   0.375   2.829   9.013  0.3871  2.4254  1.1061
   47TMC2    C7  738   0.462   3.066   9.074  0.5874  0.0811 -0.2994
   47TMC2    C8  739   0.509   2.599   8.991 -0.3776 -0.0118 -0.3561
   47TMC2    O1  740   0.529   3.155   9.129 -0.1515 -0.4454 -0.2208
   47TMC2    O2  741   0.391   2.589   8.956  0.2663  0.2270 -0.1523
   47TMC2    O5  742   0.606   2.512   8.954 -0.1026  0.3584  0.0528
   47TMC2    H5  743   0.699   2.521   8.985 -0.3341  0.6863  0.6541
   48MPD2     C  744   1.152   2.863   9.263 -0.0517 -0.2649  0.2182
   48MPD2    C1  745   1.104   2.755   9.190  0.0449  0.3214 -0.5965
   48MPD2    C2  746   1.188   2.653   9.151 -0.0816  1.1335  0.0740
   48MPD2    C3  747   1.322   2.651   9.199  0.3026  0.4201  0.1467
   48MPD2    C4  748   1.358   2.760   9.275  0.0740  0.8984 -0.1848
   48MPD2    C5  749   1.277   2.865   9.310 -0.3526 -0.6383 -0.2806
   48MPD2     H  750   1.155   2.569   9.090  2.7837 -0.3115  0.5287
   48MPD2    H1  751   1.458   2.779   9.312 -1.1567  1.3724  2.8599
   48MPD2    H2  752   1.088   2.947   9.285  0.2552 -0.0982  0.4788
   48MPD2    H3  753   1.291   2.941   9.386 -0.0120  0.5314 -1.4963
   48MPD2     N  754   1.399   2.540   9.179 -0.3412 -0.0614  0.1443
   48MPD2    H5  755   1.349   2.462   9.137  1.4804 -1.0064 -0.2708
   48MPD2    N1  756   0.970   2.763   9.132 -0.5847 -0.5908 -0.3937
   48MPD2    H7  757   0.939   2.679   9.085  2.3640 -0.8387 -1.8332
   49TMC2    C1  758   4.414   4.047  11.126  0.3217  0.2275  0.0468
   49TMC2    C2  759   4.482   3.933  11.118  0.0554 -0.7759 -0.0552
   49TMC2    C3  760   4.548   3.899  11.005  0.6004 -0.3674  0.0994
   49TMC2    C4  761   4.405   4.129  11.013  0.2839 -0.9911 -0.2292
   49TMC2    C5  762   4.469   4.093  10.894  0.1589 -0.0936 -0.4694
   49TMC2    C6  763   4.540   3.973  10.885 -0.1346 -0.1548  0.3743
   49TMC2     C  764   4.390   4.094  11.262 -0.1117  0.7586 -0.1017
   49TMC2     O  765   4.416   4.018  11.354 -0.1019 -0.4594 -0.5034
   49TMC2     H  766   4.516   3.874  11.203  1.9719 -0.2054 -0.4313
   49TMC2    H1  767   4.365   4.229  11.015  1.8906 -0.3630  0.0292
   49TMC2    H2  768   4.580   3.939  10.791 -1.3401 -1.9560  0.5204
   49TMC2    C7  769   4.468   4.179  10.773 -0.4752  0.2802 -0.1079
   49TMC2    C8  770   4.592   3.760  10.983 -0.4358 -0.2498 -0.4203
   49TMC2    O1  771   4.506   4.125  10.666  0.7238  0.1292 -0.2401
   49TMC2    O2  772   4.656   3.730  10.884  0.4337 -0.0931 -0.3522
   49TMC2    O5  773   4.509   3.675  11.052  0.4407 -0.5798  0.4494
   49TMC2    H5  774   4.455   3.709  11.126  1.6175  2.3290 -0.0466
   50MPD2     C  775   4.257   4.235  11.495  0.4500  0.4965  0.4238
   50MPD2    C1  776   4.289   4.294  11.378 -0.0872  0.3331  0.0137
   50MPD2    C2  777   4.243   4.429  11.352 -0.6570  0.3763 -0.1809
   50MPD2    C3  778   4.177   4.498  11.454 -0.3489 -0.7856  0.1140
   50MPD2    C4  779   4.145   4.431  11.570 -0.2125 -0.1751 -0.4001
   50MPD2    C5  780   4.183   4.303  11.586  0.6300 -0.3318  0.4074
   50MPD2     H  781   4.261   4.482  11.259 -0.0796 -1.0312 -0.8795
   50MPD2    H1  782   4.083   4.473  11.648 -0.3696  0.0762 -0.6576
   50MPD2    H2  783   4.272   4.129  11.510 -1.7650  0.4022  1.8627
   50MPD2    H3  784   4.157   4.251  11.678 -0.3785 -2.5115 -1.1261
   50MPD2     N  785   4.127   4.627  11.430 -0.1219 -0.1504 -0.2295
   50MPD2    H5  786   4.111   4.672  11.519 -0.1445 -0.2987 -0.1578
   50MPD2    N1  787   4.345   4.224  11.265  0.2001  0.0829  0.6387
   50MPD2    H7  788   4.357   4.279  11.180 -2.3480  1.1924  1.0043
   51TMC2    C1  789   4.438   4.261   1.543 -0.1597 -0.3938 -0.6633
   51TMC2    C2  790   4.325   4.313   1.604 -0.6269  0.4017 -1.1695
   51TMC2    C3  791   4.326   4.452   1.612  0.1159 -0.7586  0.7663
   51TMC2    C4  792   4.548   4.337   1.513 -0.1185 -0.2431  0.1743
   51TMC2    C5  793   4.540   4.476   1.516 -0.5607 -0.5373  0.7478
   51TMC2    C6  794   4.422   4.535   1.561 -0.1722 -0.0592  0.0107
   51TMC2     C  795   4.467   4.121   1.553  0.2311 -0.1787  0.7292
   51TMC2     O  796   4.568   4.079   1.493 -0.1621 -0.1639  0.0027
   51TMC2     H  797   4.246   4.247   1.639  0.3405 -0.2898 -0.3043
   51TMC2    H1  798   4.641   4.290   1.481  1.1810  1.5233  1.3164
   51TMC2    H2  799   4.414   4.643   1.570  1.3631  0.2429 -2.1595
   51TMC2    C7  800   4.655   4.543   1.467 -0.3101 -0.0843  0.6706
   51TMC2    C8  801   4.204   4.519   1.662  0.2439  0.3145 -1.1047
   51TMC2    O1  802   0.024   4.476   1.462 -0.1169 -0.5975  0.2340
   51TMC2    O2  803   4.203   4.639   1.680  0.3648 -0.0692 -0.6134
   51TMC2    O5  804   4.099   4.426   1.653  0.0507  0.1597 -0.7680
   51TMC2    H5  805   4.106   4.342   1.604  1.3020 -0.0111 -0.2963
   52MPD2     C  806   4.376   3.659   1.748 -0.4640  0.5368 -0.4685
   52MPD2    C1  807   4.445   3.699   1.634  0.3622 -0.1640  0.6756
   52MPD2    C2  808   4.460   3.835   1.603 -0.3011 -0.8879  0.5781
   52MPD2    C3  809   4.399   3.922   1.681 -0.4205 -0.1924  0.4827
   52MPD2    C4  810   4.320   3.886   1.792  0.1697  0.7758 -0.1022
   52MPD2    C5  811   4.319   3.752   1.830 -0.1196  0.1796  0.5785
   52MPD2     H  812   4.519   3.866   1.517 -1.2423 -1.8605 -0.4109
   52MPD2    H1  813   4.280   3.970   1.847 -1.1678  0.4276 -0.5468
   52MPD2    H2  814   4.367   3.554   1.773  1.4914  0.3854 -0.4535
   52MPD2    H3  815   4.270   3.716   1.920 -2.2830  1.4452 -0.0923
   52MPD2     N  816   4.396   4.056   1.646  0.2197 -0.2651  0.1845
   52MPD2    H5  817   4.337   4.109   1.709  1.1168  2.1161 -0.9982
   52MPD2    N1  818   4.530   3.614   1.557 -0.0024  0.1303  0.5572
   52MPD2    H7  819   4.571   3.649   1.471 -1.1087  0.7478  0.2810
   53TMC2    C1  820   0.076   2.256  11.457  0.1517  0.9906  0.6504
   53TMC2    C2  821   0.212   2.238  11.459  0.3561 -0.4550 -0.2961
   53TMC2    C3  822   0.258   2.180  11.573 -0.2485 -0.4928  0.0976
   53TMC2    C4  823   4.721   2.226  11.557  0.3749  0.0766 -0.8352
   53TMC2    C5  824   0.046   2.178  11.669 -1.1826  0.2626  0.0644
   53TMC2    C6  825   0.179   2.147  11.681  0.3669 -0.7888  0.5188
   53TMC2     C  826   0.030   2.333  11.349  0.5366 -0.9887  0.2913
   53TMC2     O  827   0.106   2.418  11.300  0.5359 -0.0094  0.2872
   53TMC2     H  828   0.275   2.254  11.373 -0.2161 -0.7675 -0.7791
   53TMC2    H1  829   4.615   2.249  11.563 -0.2612 -3.7417  1.9915
   53TMC2    H2  830   0.216   2.094  11.768 -0.0262 -2.8258 -0.5455
   53TMC2    C7  831   4.703   2.182  11.792 -0.0119 -0.0117 -0.1457
   53TMC2    C8  832   0.379   2.102  11.573 -0.0531 -0.0653 -0.0843
   53TMC2    O1  833   4.581   2.170  11.781 -0.0729  0.1062 -0.3618
   53TMC2    O2  834   0.395   2.005  11.644 -0.5642 -0.4953 -0.3406
   53TMC2    O5  835   0.484   2.180  11.527  0.0652 -0.1461  0.2872
   53TMC2    H5  836   0.463   2.256  11.467 -1.4307  1.3859  2.7464
   54MPD2     C  837   4.549   2.523  11.270  0.5885  0.3398  0.1466
   54MPD2    C1  838   4.534   2.387  11.287  0.0165  0.1292  0.0352
   54MPD2    C2  839   4.405   2.328  11.283  1.1384 -0.6721 -0.1001
   54MPD2    C3  840   4.297   2.413  11.273  0.6677  0.6743 -0.4203
   54MPD2    C4  841   4.314   2.550  11.263 -0.9381  0.6048 -0.2776
   54MPD2    C5  842   4.439   2.608  11.266  0.3323  0.2224 -0.1683
   54MPD2     H  843   4.393   2.222  11.303 -2.3223 -0.3173 -0.2348
   54MPD2    H1  844   4.228   2.616  11.252 -1.3739  0.1360  0.3111
   54MPD2    H2  845   4.649   2.564  11.276  1.0779 -1.0971  1.8960
   54MPD2    H3  846   4.471   2.712  11.268 -1.1168  0.6788 -0.5294
   54MPD2     N  847   4.166   2.366  11.275  0.1444 -0.0879 -0.2019
   54MPD2    H5  848   4.101   2.444  11.269  1.1684  0.6070 -2.2706
   54MPD2    N1  849   4.636   2.300  11.313  0.2904 -0.3066 -0.1406
   54MPD2    H7  850   4.611   2.204  11.332 -1.5946  0.2153  0.0087
   55TMC2    C1  851   1.548   0.290  17.575  0.0797 -0.1704 -0.0777
   55TMC2    C2  852   1.631   0.255  17.470  0.2872 -0.6672  0.2156
   55TMC2    C3  853   1.675   0.123  17.459  0.0443  0.3754  0.5061
   55TMC2    C4  854   1.503   0.190  17.658 -0.2028  0.3238 -0.7274
   55TMC2    C5  855   1.554   0.059  17.652 -0.7785  0.3740  0.2441
   55TMC2    C6  856   1.637   0.022  17.548 -0.3676  0.0681  0.5017
   55TMC2     C  857   1.506   0.426  17.597  0.0005 -0.6547 -0.9200
   55TMC2     O  858   1.430   0.440  17.689  0.1737 -0.2197 -0.2499
   55TMC2     H  859   1.671   0.323  17.396  1.2201 -1.7907 -0.3079
   55TMC2    H1  860   1.452   0.224   0.001 -0.6000 -1.5694 -0.2129
   55TMC2    H2  861   1.681   4.660  17.544  1.5324  0.9639 -0.8058
   55TMC2    C7  862   1.531   4.702   0.015  0.7264  0.5016  0.3190
   55TMC2    C8  863   1.750   0.095  17.343  0.1431 -0.2466 -0.3912
   55TMC2    O1  864   1.595   4.597   0.006 -0.1698 -0.0477  0.1893
   55TMC2    O2  865   1.812   0.178  17.286 -0.0842  0.1877  0.0182
   55TMC2    O5  866   1.710   4.717  17.286  0.8149 -0.3964 -0.3848
   55TMC2    H5  867   1.641   4.665  17.332  2.7086 -1.7046  0.9642
   56MPD2     C  868   1.550   0.744  17.395  0.6926  0.1117 -0.0828
   56MPD2    C1  869   1.534   0.662  17.506 -0.2493 -0.1695  0.0415
   56MPD2    C2  870   1.502   0.722  17.631 -0.4198  0.4532 -0.4092
   56MPD2    C3  871   1.473   0.862  17.633  0.0251 -1.0507  0.7048
   56MPD2    C4  872   1.501   0.935  17.521 -0.1637 -0.8106  0.2028
   56MPD2    C5  873   1.539   0.876  17.402  1.1426 -0.8900 -0.1411
   56MPD2     H  874   1.494   0.667  17.724  1.7863 -0.2527 -0.6405
   56MPD2    H1  875   1.510   1.043  17.520  1.0335 -0.9139 -1.1273
   56MPD2    H2  876   1.593   0.699  17.306  0.9767  0.5520 -0.1673
   56MPD2    H3  877   1.563   0.942  17.319  0.7205 -1.1388 -0.4654
   56MPD2     N  878   1.416   0.911   0.003 -0.7593 -0.1083  0.5969
   56MPD2    H5  879   1.397   0.844   0.076 -0.5945  1.7673  2.3559
   56MPD2    N1  880   1.546   0.521  17.500  0.0146 -0.1981 -0.1752
   56MPD2    H7  881   1.572   0.480  17.411 -0.2415 -1.2233  0.2308
   57TMC2    C1  882   4.213   0.221  13.260 -0.1197  0.3819  0.5901
   57TMC2    C2  883   4.221   0.087  13.240 -0.0649 -0.2534  0.0145
   57TMC2    C3  884   4.281   0.044  13.126 -0.2665  0.4942 -0.8717
   57TMC2    C4  885   4.279   0.307  13.177 -0.5386  0.6682 -0.1561
   57TMC2    C5  886   4.332   0.262  13.064 -0.2651  0.3910 -0.3977
   57TMC2    C6  887   4.340   0.125  13.037 -0.5903  1.3041 -0.1475
   57TMC2     C  888   4.192   0.280  13.390  0.7108  0.5067 -0.1593
   57TMC2     O  889   4.142   0.391  13.394 -0.1774  0.0020 -0.5815
   57TMC2     H  890   4.173   0.015  13.305  1.0441 -1.0572 -0.0614
   57TMC2    H1  891   4.282   0.412  13.206  2.3461  0.7011 -0.5761
   57TMC2    H2  892   4.386   0.095  12.944 -1.8370  0.5484 -0.5305
   57TMC2    C7  893   4.389   0.359  12.973 -0.1045 -0.4520 -0.9903
   57TMC2    C8  894   4.301   4.636  13.127 -0.3860  0.4105  0.0599
   57TMC2    O1  895   4.331   0.468  12.967  0.0233 -0.2701  0.4851
   57TMC2    O2  896   4.227   4.559  13.191 -0.4662 -0.1765  0.8541
   57TMC2    O5  897   4.409   4.605  13.058 -0.0555 -0.1008 -0.4302
   57TMC2    H5  898   4.461   4.685  13.032  1.4969 -0.8551  0.3889
   58MPD2     C  899   4.256   0.241  13.908 -0.4859  0.4249 -0.0040
   58MPD2    C1  900   4.237   0.356  13.833 -0.2098 -0.2505  0.0693
   58MPD2    C2  901   4.224   0.349  13.691  0.3574 -0.5406  0.3644
   58MPD2    C3  902   4.234   0.220  13.629 -0.2931 -0.0475 -0.0570
   58MPD2    C4  903   4.258   0.107  13.705  0.7651 -0.1422 -0.1746
   58MPD2    C5  904   4.270   0.122  13.842 -0.9647 -0.2699  0.0992
   58MPD2     H  905   4.234   0.440  13.632 -0.0937  0.1868  1.4031
   58MPD2    H1  906   4.263   0.005  13.669  0.6677  0.9810 -3.3489
   58MPD2    H2  907   4.262   0.244  14.016 -0.0990  0.5839 -0.0308
   58MPD2    H3  908   4.278   0.038  13.910  1.8172  0.8340  1.1413
   58MPD2     N  909   4.215   0.193  13.492  0.5340  0.2800 -0.4263
   58MPD2    H5  910   4.245   0.099  13.470  0.2926  0.3824 -1.1829
   58MPD2    N1  911   4.239   0.488  13.890 -0.3427  0.1772 -0.5789
   58MPD2    H7  912   4.218   0.563  13.825  1.0524 -0.6833 -2.0171
   59TMC2    C1  913   2.455   1.280  12.945  0.0233 -0.3130  0.4912
   59TMC2    C2  914   2.373   1.195  13.010 -0.3944  0.1351 -0.1335
   59TMC2    C3  915   2.358   1.064  12.976  0.4374  0.4168 -0.0026
   59TMC2    C4  916   2.507   1.234  12.831  0.3356  0.6637 -0.8541
   59TMC2    C5  917   2.494   1.101  12.802 -0.3277  0.2845 -0.0785
   59TMC2    C6  918   2.415   1.014  12.873 -0.5390 -0.9919  0.5247
   59TMC2     C  919   2.529   1.383  13.017  0.1094 -0.0327  0.1523
   59TMC2     O  920   2.604   1.454  12.952  0.8002 -0.2171 -0.3459
   59TMC2     H  921   2.335   1.219  13.109  0.4609 -1.7317  0.6433
   59TMC2    H1  922   2.578   1.291  12.773  0.1873 -1.2140 -2.8856
   59TMC2    H2  923   2.386   0.918  12.832 -0.1847 -0.8405 -0.0853
   59TMC2    C7  924   2.524   1.048  12.672 -0.7041  0.7021  0.2674
   59TMC2    C8  925   2.271   0.988  13.056 -0.2898 -0.7647  0.0131
   59TMC2    O1  926   2.534   0.925  12.661 -0.2518  0.5078  0.3363
   59TMC2    O2  927   2.183   1.033  13.130  0.5947  0.6206  0.1805
   59TMC2    O5  928   2.351   0.884  13.088  0.1482 -0.0614 -0.1582
   59TMC2    H5  929   2.438   0.892  13.043  0.1715  0.4975 -0.0183
   60MPD2     C  930   2.631   1.595  13.197 -0.4323  0.0857 -0.4525
   60MPD2    C1  931   2.595   1.464  13.237 -0.0423  0.3104  0.3853
   60MPD2    C2  932   2.624   1.422  13.367 -0.7299 -0.8408 -0.8425
   60MPD2    C3  933   2.702   1.500  13.450 -0.1289 -0.0509  0.4334
   60MPD2    C4  934   2.744   1.626  13.409  0.5116 -0.3698  0.6770
   60MPD2    C5  935   2.704   1.670  13.284  0.2585 -0.1443 -0.0207
   60MPD2     H  936   2.591   1.325  13.403 -0.7446 -0.6075 -0.2226
   60MPD2    H1  937   2.796   1.691  13.477  0.8919 -0.2507  0.2755
   60MPD2    H2  938   2.610   1.636  13.099  3.6936 -0.8288 -1.7417
   60MPD2    H3  939   2.755   1.755  13.239  0.5822 -0.2172  0.2117
   60MPD2     N  940   2.732   1.453  13.582  0.8171  0.2562  0.1701
   60MPD2    H5  941   2.806   1.508  13.623  1.2806 -0.2068 -0.0436
   60MPD2    N1  942   2.529   1.367  13.153 -0.6982  0.2530  0.0508
   60MPD2    H7  943   2.485   1.288  13.199  0.4323  0.2210  1.0839
   61TMC2    C1  944   1.442   3.311  15.612  0.5118  0.5862  0.1454
   61TMC2    C2  945   1.467   3.177  15.605  0.9803 -0.1011  0.5012
   61TMC2    C3  946   1.579   3.131  15.662 -0.6152 -0.4378  0.6026
   61TMC2    C4  947   1.535   3.394  15.653 -0.1902 -0.1401 -0.4304
   61TMC2    C5  948   1.650   3.339  15.708 -0.8554  0.6277 -0.8880
   61TMC2    C6  949   1.674   3.208  15.723 -0.6418 -0.0669  0.1027
   61TMC2     C  950   1.392   3.358  15.488 -0.0015 -0.1204 -0.3285
   61TMC2     O  951   1.315   3.451  15.484  0.8207  0.2969 -0.4529
   61TMC2     H  952   1.401   3.104  15.562  1.1776  0.2282 -0.3510
   61TMC2    H1  953   1.533   3.500  15.630 -0.5764 -0.0668 -0.0555
   61TMC2    H2  954   1.777   3.177  15.736 -0.7301 -1.4876 -2.4843
   61TMC2    C7  955   1.771   3.417  15.666  0.7360 -0.3562  0.3101
   61TMC2    C8  956   1.595   2.989  15.676  0.3382 -0.4380  0.3611
   61TMC2    O1  957   1.774   3.458  15.554 -0.3567  0.0849  0.2390
   61TMC2    O2  958   1.661   2.944  15.771 -0.4598 -0.9085  0.2892
   61TMC2    O5  959   1.525   2.919  15.592 -0.5692 -0.8608 -0.5327
   61TMC2    H5  960   1.500   2.972  15.514 -2.7574 -0.8688  0.1518
   62MPD2     C  961   1.380   3.402  15.192 -0.3078 -0.4202 -0.8921
   62MPD2    C1  962   1.487   3.357  15.263  0.4869 -0.0576 -0.1741
   62MPD2    C2  963   1.601   3.327  15.196 -0.1395 -0.0245 -1.0203
   62MPD2    C3  964   1.607   3.317  15.058 -0.5793 -0.6501  0.0908
   62MPD2    C4  965   1.496   3.358  14.985  0.2402 -0.6686  0.7795
   62MPD2    C5  966   1.388   3.411  15.057  0.0029  0.1840 -0.3087
   62MPD2     H  967   1.683   3.306  15.263 -0.3457  2.1457 -0.0618
   62MPD2    H1  968   1.499   3.350  14.877 -2.6983 -1.4741  0.7447
   62MPD2    H2  969   1.290   3.440  15.239 -0.9541 -3.2896  0.1574
   62MPD2    H3  970   1.298   3.449  15.011 -0.0473  0.5420  0.0774
   62MPD2     N  971   1.725   3.269  15.000 -0.1283  0.9564  0.3773
   62MPD2    H5  972   1.724   3.238  14.903 -2.2160 -1.0126  1.0122
   62MPD2    N1  973   1.492   3.332  15.401 -0.0448  0.0078 -0.1667
   62MPD2    H7  974   1.572   3.287  15.444 -1.3851  0.0165  2.3411
   63TMC2    C1  975   1.318   2.127   9.938 -0.1787 -0.5503 -0.5424
   63TMC2    C2  976   1.378   2.242   9.981 -0.7648  0.0287  0.9093
   63TMC2    C3  977   1.334   2.364   9.934  0.1635 -0.7234  0.0356
   63TMC2    C4  978   1.215   2.135   9.847  0.7375 -0.7409  0.2504
   63TMC2    C5  979   1.187   2.256   9.789 -0.4405 -0.8341 -0.0696
   63TMC2    C6  980   1.242   2.370   9.832 -0.3310  0.5763  0.0467
   63TMC2     C  981   1.343   1.996  10.007  0.1039  0.6905  0.0401
   63TMC2     O  982   1.428   1.996  10.100  0.0565 -1.0368 -0.4256
   63TMC2     H  983   1.453   2.245  10.059  0.3702  0.9658 -0.2290
   63TMC2    H1  984   1.160   2.047   9.815 -0.0908  0.0829 -0.5837
   63TMC2    H2  985   1.200   2.467   9.805  0.2171  1.2894  1.8069
   63TMC2    C7  986   1.059   2.269   9.722 -0.2271 -0.3482  0.3121
   63TMC2    C8  987   1.368   2.480  10.007  0.4827  0.0636  0.2021
   63TMC2    O1  988   0.996   2.160   9.723  0.7291 -0.3343 -0.1813
   63TMC2    O2  989   1.379   2.590   9.950 -0.0530  0.5867 -0.1562
   63TMC2    O5  990   1.307   2.466  10.120  0.7645  0.4890  0.1145
   63TMC2    H5  991   1.290   2.375  10.153  0.1845  1.4937  2.5790
   64MPD2     C  992   1.192   1.549  10.187  0.2977 -0.0022 -0.7103
   64MPD2    C1  993   1.325   1.588  10.169  1.3435  0.0478 -0.1191
   64MPD2    C2  994   1.348   1.702  10.090 -0.6037 -0.2606 -0.6117
   64MPD2    C3  995   1.239   1.770  10.033  0.1194 -0.3852 -0.0827
   64MPD2    C4  996   1.126   1.708  10.035 -0.3558 -0.0003 -0.1165
   64MPD2    C5  997   1.095   1.605  10.111  0.6777  0.0515 -0.3912
   64MPD2     H  998   1.448   1.743  10.084  0.0981 -1.7112  1.2119
   64MPD2    H1  999   1.043   1.747   9.976 -0.9363 -2.5010 -0.9398
   64MPD2    H2 1000   1.169   1.465  10.252  0.4022 -0.1733 -0.8952
   64MPD2    H3 1001   0.998   1.557  10.113  0.7641 -0.1114  0.1457
   64MPD2     N 1002   1.246   1.901   9.976 -0.4479  0.4324  0.3407
   64MPD2    H5 1003   1.161   1.933   9.931  0.3900 -0.5327 -1.9288
   64MPD2    N1 1004   1.429   1.530  10.245  0.1668 -0.8357 -0.3290
   64MPD2    H7 1005   1.515   1.583  10.236  0.3182 -1.7175 -3.8679
   65TMC2    C1 1006   2.910   2.711  15.395 -0.3995 -0.4427 -0.4762
   65TMC2    C2 1007   2.805   2.680  15.310 -0.1715 -0.9855  0.1039
   65TMC2    C3 1008   2.758   2.788  15.240  0.1805  0.7797 -0.1904
   65TMC2    C4 1009   2.976   2.834  15.401  0.2411  0.5606 -0.7509
   65TMC2    C5 1010   2.909   2.936  15.337  1.0305  1.3753  0.0115
   65TMC2    C6 1011   2.813   2.917  15.246  0.3113  0.1609 -0.1917
   65TMC2     C 1012   2.922   2.630  15.517 -1.0850  0.3606 -0.1256
   65TMC2     O 1013   2.967   2.689  15.613 -0.6506 -0.1509 -0.3438
   65TMC2     H 1014   2.774   2.578  15.291  3.2797 -2.0924  0.4147
   65TMC2    H1 1015   3.054   2.840  15.476  3.1760  2.3795 -3.9690
   65TMC2    H2 1016   2.774   3.005  15.196  0.6425 -1.3613 -3.0944
   65TMC2    C7 1017   2.909   3.072  15.381 -0.1093  0.0236 -0.2528
   65TMC2    C8 1018   2.635   2.771  15.159 -0.1448  0.5352  0.0759
   65TMC2    O1 1019   2.929   3.156  15.300  0.1040 -0.0067 -0.2816
   65TMC2    O2 1020   2.619   2.684  15.073  0.3791 -0.3084 -0.1603
   65TMC2    O5 1021   2.536   2.844  15.209 -0.0084 -0.6973 -0.0086
   65TMC2    H5 1022   2.564   2.899  15.285 -0.5365  1.1500 -1.1601
   66MPD2     C 1023   2.915   2.435  15.731 -0.0154  0.5101 -0.8596
   66MPD2    C1 1024   2.875   2.405  15.605 -0.2300 -0.6469 -0.7024
   66MPD2    C2 1025   2.828   2.282  15.584 -0.0854 -0.3401  0.1198
   66MPD2    C3 1026   2.828   2.183  15.678  0.5343 -0.5234  0.2094
   66MPD2    C4 1027   2.878   2.212  15.803 -0.5346 -0.6480 -0.0668
   66MPD2    C5 1028   2.928   2.338  15.825  0.0225 -0.2414 -0.0470
   66MPD2     H 1029   2.772   2.257  15.495  0.1243  1.4519 -0.5263
   66MPD2    H1 1030   2.883   2.132  15.875 -0.8984  0.2458  0.9530
   66MPD2    H2 1031   2.951   2.532  15.763 -2.6168  1.0174  0.5169
   66MPD2    H3 1032   2.955   2.356  15.928 -0.6418  0.5346 -0.0108
   66MPD2     N 1033   2.765   2.054  15.662  0.6194  1.3084  0.1009
   66MPD2    H5 1034   2.740   2.007  15.748 -0.5256  2.7558  0.5437
   66MPD2    N1 1035   2.865   2.503  15.502  0.1685  0.4610  0.3299
   66MPD2    H7 1036   2.821   2.474  15.415 -1.2786  1.9733  0.5639
   67TMC2    C1 1037   3.022   1.487  14.338  0.0841 -0.0162 -0.2503
   67TMC2    C2 1038   2.983   1.618  14.324 -0.2549 -0.2303  0.4978
   67TMC2    C3 1039   3.063   1.716  14.374  0.3011  0.3494 -0.7125
   67TMC2    C4 1040   3.146   1.462  14.392 -0.4251 -0.3695  0.1237
   67TMC2    C5 1041   3.223   1.563  14.431 -1.0463 -0.1816  0.6170
   67TMC2    C6 1042   3.180   1.694  14.440  0.2862 -0.0828  0.2984
   67TMC2     C 1043   2.935   1.374  14.288  0.3188 -0.3152 -0.2737
   67TMC2     O 1044   2.971   1.260  14.317 -0.6646 -0.1248  0.1985
   67TMC2     H 1045   2.888   1.657  14.290  1.4691  2.0335 -1.6845
   67TMC2    H1 1046   3.180   1.360  14.407  1.5146  0.2048 -0.3906
   67TMC2    H2 1047   3.247   1.777  14.457 -0.7559  0.5113  1.5744
   67TMC2    C7 1048   3.328   1.536  14.524  0.5230 -0.2242 -0.5398
   67TMC2    C8 1049   3.003   1.848  14.391  0.0764 -0.4217  0.2021
   67TMC2    O1 1050   3.411   1.452  14.487 -0.2363  0.4496  0.1342
   67TMC2    O2 1051   2.907   1.896  14.329 -0.0380 -0.4088 -0.0315
   67TMC2    O5 1052   3.021   1.885  14.518 -0.2100 -0.0130  0.4043
   67TMC2    H5 1053   3.082   1.828  14.568  1.5205 -0.3178 -2.0194
   68MPD2     C 1054   2.763   1.220  14.100 -0.2732 -0.2340 -0.5715
   68MPD2    C1 1055   2.725   1.334  14.172  0.6863 -0.4819  0.0703
   68MPD2    C2 1056   2.600   1.381  14.156 -0.0688 -0.2862 -0.1080
   68MPD2    C3 1057   2.508   1.316  14.072  0.0797  0.1572 -0.5379
   68MPD2    C4 1058   2.550   1.199  14.013 -0.0449  0.3665  0.0702
   68MPD2    C5 1059   2.673   1.151  14.022 -0.3287 -0.0766 -0.9770
   68MPD2     H 1060   2.574   1.473  14.208 -0.0892 -0.9570  1.0652
   68MPD2    H1 1061   2.483   1.152  13.941  1.5437 -0.0795 -1.1247
   68MPD2    H2 1062   2.865   1.183  14.101 -0.2589 -0.2491 -2.2962
   68MPD2    H3 1063   2.701   1.064  13.964  0.5524  1.4078 -2.7959
   68MPD2     N 1064   2.382   1.370  14.030 -0.1047 -0.4155  0.1459
   68MPD2    H5 1065   2.328   1.314  13.966 -4.1976  0.3388  2.9507
   68MPD2    N1 1066   2.815   1.414  14.248  1.1559 -0.1513 -0.0485
   68MPD2    H7 1067   2.778   1.505  14.276 -0.9051 -0.2367 -2.4191
   69TMC2    C1 1068   4.322   2.519  12.188  0.0958  0.3131  0.1573
   69TMC2    C2 1069   4.202   2.536  12.130 -0.2751  0.3134  0.3771
   69TMC2    C3 1070   4.211   2.560  11.996 -0.7530  0.1882  0.0573
   69TMC2    C4 1071   4.446   2.512  12.127 -0.1900  0.3478 -0.1331
   69TMC2    C5 1072   4.448   2.529  11.989 -0.1559 -0.0766  0.1235
   69TMC2    C6 1073   4.328   2.543  11.925 -0.1827  0.5130  0.0818
   69TMC2     C 1074   4.323   2.513  12.332 -0.3648 -0.0775 -0.3088
   69TMC2     O 1075   4.225   2.469  12.393  0.8071 -0.3935  0.3136
   69TMC2     H 1076   4.111   2.549  12.187 -1.1813 -2.2898 -0.4784
   69TMC2    H1 1077   4.534   2.511  12.191 -1.6660 -0.8542  1.8901
   69TMC2    H2 1078   4.322   2.556  11.817  0.2238  0.6864  0.0792
   69TMC2    C7 1079   4.578   2.517  11.925  0.1551 -0.4865  0.1836
   69TMC2    C8 1080   4.096   2.609  11.917  0.2180  0.5302 -0.0633
   69TMC2    O1 1081   4.668   2.512  12.003  0.4623 -0.3636 -0.0353
   69TMC2    O2 1082   4.103   2.637  11.801  0.5361  0.3680 -0.6323
   69TMC2    O5 1083   4.028   2.680  12.012 -0.2184  0.1619  0.8376
   69TMC2    H5 1084   4.045   2.675  12.108 -1.3953  0.1403  1.0459
   70MPD2     C 1085   4.603   2.580  12.561  0.1311 -0.5921  0.1047
   70MPD2    C1 1086   4.482   2.525  12.525  0.3445 -0.2715  0.4629
   70MPD2    C2 1087   4.433   2.413  12.595  0.0567  0.3948 -0.0553
   70MPD2    C3 1088   4.498   2.369  12.708  0.5316 -0.3418  0.1634
   70MPD2    C4 1089   4.614   2.441  12.748 -0.4178 -0.6052  0.2660
   70MPD2    C5 1090   4.670   2.539  12.669  0.1304 -0.4116 -0.2217
   70MPD2     H 1091   4.356   2.355  12.545  1.3898 -0.9370 -0.5382
   70MPD2    H1 1092   4.671   2.418  12.838 -2.3504  0.1250  1.6736
   70MPD2    H2 1093   4.652   2.661  12.508  0.2442 -0.1275  0.9149
   70MPD2    H3 1094   0.035   2.571  12.687 -0.5919  1.9096 -0.3141
   70MPD2     N 1095   4.471   2.239  12.771  0.1217 -0.4362  0.1762
   70MPD2    H5 1096   4.548   2.207  12.830 -0.4960  0.9401  1.7314
   70MPD2    N1 1097   4.436   2.568  12.397  0.4685  0.3021 -0.0109
   70MPD2    H7 1098   4.488   2.631  12.337  0.9370 -2.3121 -2.3782
   71TMC2    C1 1099   1.885   4.656   1.437 -0.1058 -0.4962 -0.0511
   71TMC2    C2 1100   1.940   0.029   1.504 -0.2503  0.4918 -1.2200
   71TMC2    C3 1101   1.858   0.135   1.520 -0.0705 -0.2624  0.3719
   71TMC2    C4 1102   1.757   4.654   1.390 -0.0580 -0.9656  0.2864
   71TMC2    C5 1103   1.676   0.022   1.421  0.8469  0.6196 -0.4375
   71TMC2    C6 1104   1.725   0.135   1.491 -0.7257 -0.9375 -0.2395
   71TMC2     C 1105   1.974   4.539   1.428  0.7645  0.0204 -0.3792
   71TMC2     O 1106   2.089   4.549   1.469 -0.3218 -0.4683  0.0750
   71TMC2     H 1107   2.038   0.019   1.550 -0.7817  2.2355  0.2783
   71TMC2    H1 1108   1.719   4.572   1.330  2.6007 -1.0637 -1.2639
   71TMC2    H2 1109   1.656   0.203   1.539  0.9877  1.3962 -1.0604
   71TMC2    C7 1110   1.531   0.026   1.392 -0.3876  0.4226 -1.0639
   71TMC2    C8 1111   1.892   0.234   1.613 -0.2885  0.3203  0.2613
   71TMC2    O1 1112   1.483   0.135   1.396 -0.2281 -0.0781 -0.3843
   71TMC2    O2 1113   1.845   0.348   1.606 -0.4401  0.1374  0.0119
   71TMC2    O5 1114   1.935   0.170   1.729 -0.4427  0.6622  0.2608
   71TMC2    H5 1115   1.934   0.072   1.737 -1.2956  0.4684 -2.3054
   72MPD2     C 1116   1.990   4.057   1.262 -0.5162 -0.2278  0.9756
   72MPD2    C1 1117   2.097   4.147   1.288  0.1537  0.4410 -0.0701
   72MPD2    C2 1118   2.072   4.273   1.343  0.5437  0.3726  0.0938
   72MPD2    C3 1119   1.948   4.293   1.393  0.5228  0.2524  0.0496
   72MPD2    C4 1120   1.850   4.190   1.385  0.3155  0.1702 -1.0901
   72MPD2    C5 1121   1.868   4.081   1.308 -0.0300 -0.2792  0.1662
   72MPD2     H 1122   2.144   4.353   1.336  1.9110 -0.7920  0.8185
   72MPD2    H1 1123   1.750   4.203   1.427  1.3154  1.6289  0.8200
   72MPD2    H2 1124   2.000   3.953   1.233  0.9790 -0.2015  1.4309
   72MPD2    H3 1125   1.785   4.011   1.298 -2.3037  2.3612  0.7144
   72MPD2     N 1126   1.901   4.423   1.421  0.6641 -0.0495 -0.7765
   72MPD2    H5 1127   1.803   4.428   1.450  1.0542  0.8766  0.3801
   72MPD2    N1 1128   2.234   4.127   1.249  0.1943 -0.3484 -0.1532
   72MPD2    H7 1129   2.305   4.194   1.277  0.2011 -0.3165 -0.2443
   73TMC2    C1 1130   1.901   0.706  14.029  0.6739 -0.6881 -0.5287
   73TMC2    C2 1131   1.875   0.774  13.910 -0.8011 -0.2133 -0.5100
   73TMC2    C3 1132   1.936   0.895  13.901  0.1424 -0.7731  0.0591
   73TMC2    C4 1133   1.971   0.764  14.127  0.3263  0.6907  0.5522
   73TMC2    C5 1134   2.046   0.879  14.110 -0.2874  0.0741  0.4245
   73TMC2    C6 1135   2.027   0.943  13.995  0.1551  0.0483  0.5697
   73TMC2     C 1136   1.936   0.567  14.010 -0.5188 -0.0621  0.4131
   73TMC2     O 1137   2.055   0.545  14.027  0.3105 -0.0805 -0.2713
   73TMC2     H 1138   1.824   0.728  13.827 -0.8458 -0.7565 -0.1833
   73TMC2    H1 1139   1.987   0.699  14.212 -2.5152 -0.2496  0.3976
   73TMC2    H2 1140   2.081   1.036  13.981  2.4232 -1.7693 -2.4654
   73TMC2    C7 1141   2.179   0.875  14.165  0.2059 -0.6022  0.8125
   73TMC2    C8 1142   1.924   0.943  13.767 -0.6427 -0.1157 -0.1379
   73TMC2    O1 1143   2.246   0.976  14.183  0.3830  0.0030  0.6838
   73TMC2    O2 1144   1.815   0.965  13.711  0.2983 -0.2877 -0.0052
   73TMC2    O5 1145   2.048   0.967  13.724 -0.8654 -0.6250 -0.3060
   73TMC2    H5 1146   2.115   0.928  13.784 -0.2300  2.4090  0.9543
   74MPD2     C 1147   1.938   0.114  13.772 -0.7232  0.2822 -0.0569
   74MPD2    C1 1148   2.035   0.185  13.837 -0.7104  0.6970 -1.0254
   74MPD2    C2 1149   2.000   0.298  13.905  0.0908 -0.0547  0.4061
   74MPD2    C3 1150   1.878   0.359  13.880  0.5469  0.0719  0.4514
   74MPD2    C4 1151   1.787   0.296  13.807  0.2814  0.5829 -0.0059
   74MPD2    C5 1152   1.812   0.171  13.755 -0.0726 -0.6045 -0.3347
   74MPD2     H 1153   2.072   0.336  13.977 -0.0609  1.5008 -0.2509
   74MPD2    H1 1154   1.695   0.347  13.782  1.9993  3.4538 -0.3854
   74MPD2    H2 1155   1.968   0.025  13.716  1.7682  0.9793  0.1566
   74MPD2    H3 1156   1.742   0.116  13.693  1.9134 -2.3853 -1.0108
   74MPD2     N 1157   1.848   0.491  13.938  0.2436  0.5230 -0.0283
   74MPD2    H5 1158   1.752   0.521  13.927  0.5863  1.7986  0.4646
   74MPD2    N1 1159   2.173   0.141  13.841  0.6208 -0.2365 -0.0738
   74MPD2    H7 1160   2.197   0.062  13.783 -0.6117 -0.7793  0.1464
   75TMC2    C1 1161   2.191   1.510  14.026  0.4210  0.3287  0.7235
   75TMC2    C2 1162   2.136   1.623  14.080 -0.2788 -0.1176 -0.6555
   75TMC2    C3 1163   2.039   1.682  14.013 -0.2214 -0.6473  0.0880
   75TMC2    C4 1164   2.146   1.459  13.908  0.5143  0.1704  0.3215
   75TMC2    C5 1165   2.038   1.514  13.848 -0.0772 -0.1578 -0.2424
   75TMC2    C6 1166   1.982   1.625  13.908  0.4008 -0.1398 -0.4963
   75TMC2     C 1167   2.319   1.471  14.090 -0.3638 -0.3843  0.6530
   75TMC2     O 1168   2.346   1.526  14.197 -0.1512  0.1578  0.3243
   75TMC2     H 1169   2.169   1.663  14.175  0.0937  2.0864 -1.7202
   75TMC2    H1 1170   2.191   1.372  13.862  2.3317  1.4959 -0.4089
   75TMC2    H2 1171   1.902   1.680  13.861  1.7000  2.4343  0.3123
   75TMC2    C7 1172   1.969   1.435  13.751  0.3633  0.5131  0.5961
   75TMC2    C8 1173   1.990   1.825  14.044  0.2750 -0.1331 -0.0056
   75TMC2    O1 1174   1.998   1.318  13.732  0.1167 -0.6076 -0.1037
   75TMC2    O2 1175   1.878   1.859  14.017  0.6326  0.4930  0.0635
   75TMC2    O5 1176   2.088   1.901  14.106 -0.5479  0.3422  0.8180
   75TMC2    H5 1177   2.177   1.860  14.117 -0.1507  1.2054  0.8798
   76TMC2    C1 1178   0.453   1.508  12.424  0.1724  1.0948  0.1958
   76TMC2    C2 1179   0.315   1.487  12.439 -0.6134  0.0765  0.1889
   76TMC2    C3 1180   0.275   1.409  12.542  0.1144  0.0877  0.3045
   76TMC2    C4 1181   0.541   1.467  12.525 -0.8411  0.3489 -0.3028
   76TMC2    C5 1182   0.493   1.400  12.630  0.5904  0.5623  0.3306
   76TMC2    C6 1183   0.362   1.365  12.635  0.4225  0.4999  0.2517
   76TMC2     C 1184   0.494   1.610  12.334 -0.4466  0.1805  0.4980
   76TMC2     O 1185   0.410   1.684  12.285  0.3358 -0.3210  0.9253
   76TMC2     H 1186   0.247   1.512  12.358 -0.9838  2.2827  1.1769
   76TMC2    H1 1187   0.639   1.513  12.523 -1.4417  1.5836 -1.7827
   76TMC2    H2 1188   0.321   1.294  12.705 -0.2050  0.3144 -0.3066
   76TMC2    C7 1189   0.577   1.345  12.742  0.1818 -0.1887 -0.5186
   76TMC2    C8 1190   0.133   1.389  12.569  0.5306  0.2091  0.7413
   76TMC2    O1 1191   0.520   1.273  12.823  0.6053 -0.4184  0.1155
   76TMC2    O2 1192   0.101   1.285  12.626  0.1924 -0.7390  0.1624
   76TMC2    O5 1193   0.052   1.485  12.513  0.5728 -0.0949 -0.3987
   76TMC2    H5 1194   0.104   1.566  12.493 -0.3781  0.5403 -0.3484
   77MPD2     C 1195   0.837   1.826  12.016 -0.2442 -0.1489 -0.4555
   77MPD2    C1 1196   0.716   1.874  12.050 -0.6649 -0.2394  0.2132
   77MPD2    C2 1197   0.646   1.792  12.138 -0.4709 -0.1379  0.6318
   77MPD2    C3 1198   0.691   1.669  12.190  0.6351 -0.4352 -0.5621
   77MPD2    C4 1199   0.818   1.626  12.150 -0.5650  0.3038  0.2167
   77MPD2    C5 1200   0.885   1.708  12.068  0.2729 -0.3057 -0.1317
   77MPD2     H 1201   0.545   1.820  12.169 -0.4311  0.3605  0.3173
   77MPD2    H1 1202   0.858   1.529  12.176  1.7907  1.2282  0.0124
   77MPD2    H2 1203   0.902   1.878  11.946 -0.7762  2.3319  0.8899
   77MPD2    H3 1204   0.988   1.684  12.047  0.0599  0.1396 -1.6929
   77MPD2     N 1205   0.623   1.592  12.290  1.0566 -0.2853  0.0148
   77MPD2    H5 1206   0.667   1.509  12.330  0.4953  0.9306  3.1125
   77MPD2    N1 1207   0.664   1.995  11.995  0.1711 -0.3416 -0.0823
   77MPD2    H7 1208   0.581   2.036  12.037 -0.8127 -2.4991  0.0711
   78TMC2    C1 1209   3.793   0.076   1.426  0.8269  0.2439  0.2653
   78TMC2    C2 1210   3.770   0.193   1.483 -0.1232  0.4547  0.3598
   78TMC2    C3 1211   3.637   0.221   1.512  0.0089  0.4959  0.0237
   78TMC2    C4 1212   3.703   4.723   1.386 -0.7936 -0.0194  0.0070
   78TMC2    C5 1213   3.571   0.016   1.401 -0.3372 -0.7770  0.0187
   78TMC2    C6 1214   3.537   0.134   1.462 -0.5656  0.6236 -0.0977
   78TMC2     C 1215   3.928   0.056   1.398  0.0572 -0.3394 -0.1481
   78TMC2     O 1216   4.009   0.153   1.399 -0.1794 -0.2572  0.6366
   78TMC2     H 1217   3.856   0.247   1.521 -0.3742  1.8908 -1.1275
   78TMC2    H1 1218   3.730   4.628   1.342 -2.5087 -0.0332 -1.0048
   78TMC2    H2 1219   3.433   0.162   1.476 -0.8572 -0.8704  0.6688
   78TMC2    C7 1220   3.476   4.645   1.397 -0.0972 -0.0068  0.0137
   78TMC2    C8 1221   3.597   0.349   1.565  0.0296  0.1049 -0.4338
   78TMC2    O1 1222   3.498   4.559   1.309  0.1931 -0.1526  0.0131
   78TMC2    O2 1223   3.486   0.397   1.554  0.5036 -0.1821 -0.5094
   78TMC2    O5 1224   3.681   0.377   1.659  0.0609 -0.3854 -0.4663
   78TMC2    H5 1225   3.737   0.299   1.679  0.5587  0.0567 -0.1417
   79MPD1     C 1226   4.331   4.530   1.212  0.2287 -0.5194  0.4696
   79MPD1    C1 1227   4.311   4.665   1.239  0.1709  0.4513  0.2676
   79MPD1    C2 1228   4.188   4.706   1.285  0.2573  0.1785  0.6599
   79MPD1    C3 1229   4.093   4.624   1.335  0.7756 -0.2684  0.1612
   79MPD1    C4 1230   4.125   4.486   1.321 -0.4217  0.5175 -0.3457
   79MPD1    C5 1231   4.240   4.439   1.261  0.3945  0.2345 -0.3982
   79MPD1     H 1232   4.172   0.076   1.296  1.3192  0.4654 -0.6304
   79MPD1    H1 1233   4.061   4.409   1.362  3.7471 -1.7871  1.7435
   79MPD1    H2 1234   4.412   4.486   1.155 -0.3647 -1.6980  0.5392
   79MPD1    H3 1235   4.252   4.333   1.242  1.1319  0.3625 -0.6183
   79MPD1     N 1236   3.960   4.660   1.383 -0.1007 -0.2709 -0.2160
   79MPD1    H5 1237   3.885   4.596   1.405 -0.5110  0.3317  0.1524
   79MPD1    N1 1238   4.390   0.024   1.179  0.1006 -0.2012  0.3849
   79MPD1    H6 1239   4.483   4.720   1.176 -0.5401 -1.7260  1.2362
   79MPD1    H7 1240   4.395   0.115   1.225  0.9221 -0.3431  0.5715
   80TMC2    C1 1241   0.376   1.740  11.925  0.3485 -0.3071 -0.6725
   80TMC2    C2 1242   0.467   1.781  11.828 -0.4106 -0.0461 -0.1065
   80TMC2    C3 1243   0.540   1.681  11.763 -0.7295  0.4228  1.3076
   80TMC2    C4 1244   0.362   1.611  11.965 -0.8506  0.3537 -0.6624
   80TMC2    C5 1245   0.436   1.512  11.896 -0.6778 -0.0109 -0.4422
   80TMC2    C6 1246   0.522   1.552  11.796 -0.0030  0.6272 -0.3222
   80TMC2     C 1247   0.312   1.845  11.999 -0.3962 -0.4256 -0.1763
   80TMC2     O 1248   0.378   1.948  12.000  0.6665 -0.0311  0.3869
   80TMC2     H 1249   0.482   1.887  11.813 -2.0837  0.1111 -0.7493
   80TMC2    H1 1250   0.309   1.607  12.059 -0.3367  0.5569 -0.3679
   80TMC2    H2 1251   0.565   1.481  11.727 -1.3068  1.1009 -1.6096
   80TMC2    C7 1252   0.471   1.389  11.959 -0.7710 -0.1203  0.3323
   80TMC2    C8 1253   0.614   1.704  11.645 -0.1404 -0.2725  0.0279
   80TMC2    O1 1254   0.574   1.332  11.925  0.5056  0.1321  0.5918
   80TMC2    O2 1255   0.684   1.621  11.591 -0.2830  0.3983 -0.1609
   80TMC2    O5 1256   0.588   1.820  11.584 -0.7146  0.3835  0.7700
   80TMC2    H5 1257   0.527   1.876  11.637 -1.3308 -0.8012  1.3067
   81MPD2     C 1258   0.189   1.967  12.232 -0.2361 -0.2072  0.2116
   81MPD2    C1 1259   0.125   1.877  12.148 -0.0458 -0.6027 -0.1269
   81MPD2    C2 1260   0.001   1.839  12.174 -0.3056 -0.1105  0.6104
   81MPD2    C3 1261   4.667   1.899  12.282  0.0469 -0.3392 -0.4895
   81MPD2    C4 1262   4.726   1.991  12.364 -0.7201 -0.5404 -0.4110
   81MPD2    C5 1263   0.119   2.028  12.334  0.1043 -0.1880  0.0151
   81MPD2     H 1264   4.695   1.751  12.128 -1.3265  0.6868  0.0415
   81MPD2    H1 1265   4.679   2.036  12.450 -1.1923  0.2470 -1.0798
   81MPD2    H2 1266   0.289   2.008  12.221  0.0920 -1.0491 -0.0109
   81MPD2    H3 1267   0.162   2.108  12.392  1.0414  0.5124 -1.6269
   81MPD2     N 1268   4.524   1.877  12.303 -0.3503 -0.2969  0.0966
   81MPD2    H5 1269   4.477   1.932  12.374  0.1370  0.6515 -0.3198
   81MPD2    N1 1270   0.188   1.809  12.043  0.2337 -0.2316 -0.4035
   81MPD2    H7 1271   0.149   1.720  12.014 -0.3093  0.0840 -0.6326
   82TMC2    C1 1272   3.103   0.982  10.806 -0.1141  1.1757  0.3979
   82TMC2    C2 1273   3.193   1.080  10.839  1.0911  0.4656 -0.3399
   82TMC2    C3 1274   3.289   1.048  10.931 -0.4320 -0.8632  0.1500
   82TMC2    C4 1275   3.122   0.858  10.845  0.0627  0.7204 -0.7474
   82TMC2    C5 1276   3.219   0.829  10.931 -0.0102  0.0507  0.2790
   82TMC2    C6 1277   3.291   0.924  10.989  0.7555 -0.2619 -0.4560
   82TMC2     C 1278   3.000   1.018  10.709 -0.1312 -0.6328  0.9911
   82TMC2     O 1279   3.032   1.090  10.618  0.4208  0.3480  0.1991
   82TMC2     H 1280   3.190   1.182  10.802 -1.4798  0.5161 -0.0224
   82TMC2    H1 1281   3.052   0.786  10.803 -2.4065  2.8099 -0.2248
   82TMC2    H2 1282   3.363   0.904  11.067  0.0341 -1.0420  0.0133
   82TMC2    C7 1283   3.232   0.690  10.976  0.2760  0.6399 -0.0208
   82TMC2    C8 1284   3.371   1.158  10.985 -0.0107 -0.2317  0.4709
   82TMC2    O1 1285   3.245   0.675  11.096  0.1802  0.0422 -0.9623
   82TMC2    O2 1286   3.431   1.150  11.092  0.5747  0.4359 -0.2188
   82TMC2    O5 1287   3.414   1.242  10.885  0.0217  0.1642 -0.0375
   82TMC2    H5 1288   3.384   1.220  10.794  1.0715 -0.1622 -0.2964
   83MPD2     C 1289   2.532   0.930  10.511 -0.2634  0.0300 -0.8473
   83MPD2    C1 1290   2.648   0.984  10.451  0.0658 -0.2484 -0.7109
   83MPD2    C2 1291   2.764   0.993  10.528  1.1943 -0.6900  0.4782
   83MPD2    C3 1292   2.759   0.964  10.664 -0.3939 -0.1183  0.2286
   83MPD2    C4 1293   2.651   0.898  10.717 -0.4141  0.1887 -0.2726
   83MPD2    C5 1294   2.534   0.890  10.646  0.2541  0.0744  0.6063
   83MPD2     H 1295   2.856   1.026  10.482 -0.4508  2.8527 -0.2507
   83MPD2    H1 1296   2.644   0.876  10.823 -2.0586 -0.1037 -0.4338
   83MPD2    H2 1297   2.442   0.909  10.454  0.4006 -0.0119 -1.8785
   83MPD2    H3 1298   2.441   0.850  10.685  0.4052 -4.8331 -4.0678
   83MPD2     N 1299   2.873   0.974  10.750  0.4037  0.0330  0.5933
   83MPD2    H5 1300   2.863   0.936  10.844  2.1875 -1.2043  0.3030
   83MPD2    N1 1301   2.641   1.014  10.315  0.2617  0.1515 -0.1233
   83MPD2    H7 1302   2.556   0.992  10.264  1.2767 -3.3656 -0.2988
   84TMC2    C1 1303   4.075   0.308  11.423 -0.2301  0.4969  0.5243
   84TMC2    C2 1304   4.016   0.360  11.309  0.0271 -0.4746  0.2706
   84TMC2    C3 1305   3.984   0.282  11.203  0.1076  1.0721 -0.5228
   84TMC2    C4 1306   4.105   0.175  11.434 -1.1262 -0.1248  0.0761
   84TMC2    C5 1307   4.067   0.101  11.324  0.6720 -0.6901 -0.5361
   84TMC2    C6 1308   4.007   0.150  11.212  0.1795 -0.5131 -0.6064
   84TMC2     C 1309   4.141   0.399  11.513 -0.7278  1.0559 -0.5344
   84TMC2     O 1310   4.099   0.514  11.499  0.1458 -0.0860  0.3846
   84TMC2     H 1311   3.985   0.464  11.307  0.1133 -0.4798 -2.0548
   84TMC2    H1 1312   4.133   0.131  11.530  0.3413  0.7509  0.0407
   84TMC2    H2 1313   3.980   0.075  11.139 -0.4814 -2.2886  1.4613
   84TMC2    C7 1314   4.115   4.700  11.313  0.0821 -0.0633 -0.1796
   84TMC2    C8 1315   3.991   0.344  11.074  0.1219 -0.3644 -0.1375
   84TMC2    O1 1316   4.131   4.670  11.193  0.6777 -0.2365  0.2726
   84TMC2    O2 1317   3.921   0.307  10.975 -0.7152 -0.0596 -0.5461
   84TMC2    O5 1318   4.116   0.370  11.052  0.2571  0.0976  0.1015
   84TMC2    H5 1319   4.150   0.410  11.135 -1.6066 -0.9803  1.3780
   85TMC2    C1 1320   0.634   3.487  15.950 -0.6656 -0.1894 -0.4495
   85TMC2    C2 1321   0.619   3.613  15.901  0.4376  0.3142  0.5463
   85TMC2    C3 1322   0.717   3.650  15.810  0.0906 -0.2079  0.1309
   85TMC2    C4 1323   0.744   3.410  15.920  0.3034 -0.5483 -0.2203
   85TMC2    C5 1324   0.841   3.461  15.839  0.9863 -0.0674  0.9299
   85TMC2    C6 1325   0.831   3.586  15.782  0.3912  0.0312 -1.2548
   85TMC2     C 1326   0.560   3.449  16.065  0.1125  0.1887  0.2118
   85TMC2     O 1327   0.532   3.528  16.153 -0.0112  0.3287  0.5528
   85TMC2     H 1328   0.527   3.670  15.909 -0.6229 -1.0943 -1.6847
   85TMC2    H1 1329   0.751   3.311  15.964 -1.6812  0.5349  2.5742
   85TMC2    H2 1330   0.897   3.631  15.709  1.9625  2.0410  1.4618
   85TMC2    C7 1331   0.958   3.380  15.826 -0.3546  0.1461  0.0473
   85TMC2    C8 1332   0.696   3.776  15.745 -0.1052 -0.3066  0.0055
   85TMC2    O1 1333   0.980   3.293  15.915 -0.3987 -0.4264  0.1874
   85TMC2    O2 1334   0.698   3.788  15.623  0.4519 -0.1686 -0.6198
   85TMC2    O5 1335   0.685   3.870  15.841 -0.0143 -0.0646  0.2976
   85TMC2    H5 1336   0.700   3.831  15.929  3.2586  0.4810 -0.0170
   86MPD2     C 1337   0.290   3.110  16.345 -0.0427 -0.0460  0.3674
   86MPD2    C1 1338   0.299   3.059  16.210  0.7293  0.3422  0.7038
   86MPD2    C2 1339   0.376   3.129  16.123  0.1984 -0.1469 -0.4280
   86MPD2    C3 1340   0.454   3.237  16.155 -0.8667 -0.3156  0.5483
   86MPD2    C4 1341   0.450   3.274  16.284  0.5409 -0.5673  0.1600
   86MPD2    C5 1342   0.368   3.216  16.377  0.4721  0.3661 -0.1792
   86MPD2     H 1343   0.372   3.098  16.019 -2.0643  0.0987 -0.4192
   86MPD2    H1 1344   0.524   3.344  16.319  1.0538 -1.0393  0.0140
   86MPD2    H2 1345   0.234   3.070  16.429 -3.2660  1.0281 -1.2656
   86MPD2    H3 1346   0.384   3.250  16.479 -1.0690  0.8122 -0.0974
   86MPD2     N 1347   0.526   3.313  16.056  0.4615  0.4533 -0.6030
   86MPD2    H5 1348   0.545   3.265  15.968 -0.2306 -1.6033  0.3620
   86MPD2    N1 1349   0.228   2.952  16.167 -0.2945  0.0960 -0.1098
   86MPD2    H7 1350   0.213   2.937  16.068 -0.8272  0.2508 -0.0539
   87TMC2    C1 1351   3.132   1.861   0.276  0.3061 -0.2782  0.4658
   87TMC2    C2 1352   3.209   1.941   0.197  0.3285  0.4332  0.2063
   87TMC2    C3 1353   3.198   2.078   0.212  0.4916  0.2518  0.1595
   87TMC2    C4 1354   3.039   1.913   0.358 -0.6877 -0.9166  0.1936
   87TMC2    C5 1355   3.022   2.044   0.353  0.0805  0.4328  0.3150
   87TMC2    C6 1356   3.101   2.130   0.292  0.6507  0.1203  0.2497
   87TMC2     C 1357   3.133   1.713   0.262  0.4939  0.6970  0.4076
   87TMC2     O 1358   3.162   1.685   0.141  0.2653  0.3532 -0.2809
   87TMC2     H 1359   3.285   1.899   0.131 -1.0758  0.4869 -1.4392
   87TMC2    H1 1360   2.970   1.849   0.410 -1.3899  0.0923  0.5039
   87TMC2    H2 1361   3.083   2.237   0.295 -0.6464 -0.0987  0.0314
   87TMC2    C7 1362   2.909   2.101   0.419 -0.1422  0.0046 -0.1766
   87TMC2    C8 1363   3.294   2.162   0.135  0.1521 -0.0219 -0.2355
   87TMC2    O1 1364   2.919   2.213   0.458 -0.5732  0.1208  0.4047
   87TMC2    O2 1365   3.370   2.104   0.059 -0.0856 -0.3309  0.2137
   87TMC2    O5 1366   3.331   2.265   0.209  0.0528  0.0852 -0.4974
   87TMC2    H5 1367   3.284   2.294   0.290 -0.0239  2.4204 -1.3870
   88MPD2     C 1368   2.573   1.964   0.457  0.6154  0.0842  1.2526
   88MPD2    C1 1369   2.669   2.059   0.466 -0.2719 -0.4997 -0.0011
   88MPD2    C2 1370   2.629   2.179   0.523  0.8267 -0.8105  1.2075
   88MPD2    C3 1371   2.496   2.210   0.551  0.0049 -0.1040 -0.4132
   88MPD2    C4 1372   2.402   2.114   0.531  0.2335 -0.6616 -0.0973
   88MPD2    C5 1373   2.442   1.991   0.493  0.2502 -0.1445  0.8201
   88MPD2     H 1374   2.703   2.255   0.546 -0.8440  0.9596  0.6638
   88MPD2    H1 1375   2.299   2.129   0.562 -0.3053 -0.6544 -1.9132
   88MPD2    H2 1376   2.586   1.859   0.434  0.0263  0.4519 -0.7215
   88MPD2    H3 1377   2.370   1.910   0.478  0.6194 -0.2775 -0.3019
   88MPD2     N 1378   2.449   2.324   0.611 -0.3461  0.8654 -0.3907
   88MPD2    H5 1379   2.350   2.322   0.632 -0.2971  3.8986  0.0955
   88MPD2    N1 1380   2.801   2.017   0.412  0.6648 -0.3838  0.0649
   88MPD2    H7 1381   2.813   1.922   0.379  0.1894 -0.6789  0.7280
   89TMC2    C1 1382   3.314   1.554   1.676 -0.0066  0.1090  0.1221
   89TMC2    C2 1383   3.198   1.615   1.712 -0.2425  0.1485  0.2917
   89TMC2    C3 1384   3.196   1.755   1.706 -0.1495 -0.1028 -0.5660
   89TMC2    C4 1385   3.422   1.622   1.623  0.1103  0.5727  0.7513
   89TMC2    C5 1386   3.426   1.761   1.638  0.4316 -0.2180 -0.8578
   89TMC2    C6 1387   3.311   1.828   1.683  0.5278  0.2403 -0.8628
   89TMC2     C 1388   3.312   1.411   1.668  0.6004 -1.0483  0.7521
   89TMC2     O 1389   3.417   1.360   1.639  0.2145  0.1719  0.0139
   89TMC2     H 1390   3.114   1.561   1.753 -1.4526 -0.7585 -3.3206
   89TMC2    H1 1391   3.513   1.566   1.606  0.7550  1.8697 -0.0932
   89TMC2    H2 1392   3.321   1.936   1.677 -0.6888  0.3758 -0.4379
   89TMC2    C7 1393   3.504   1.838   1.542 -0.0994  0.0698  0.1419
   89TMC2    C8 1394   3.089   1.824   1.774  0.8618 -0.1907 -0.6806
   89TMC2    O1 1395   3.521   1.957   1.568  0.3396  0.2327  0.2168
   89TMC2    O2 1396   3.111   1.915   1.848  0.4577  0.0655  0.0746
   89TMC2    O5 1397   2.978   1.778   1.728  0.3520 -0.0702 -0.4162
   89TMC2    H5 1398   2.986   1.712   1.655  2.2496  0.3247 -0.5614
   90MPD2     C 1399   3.120   0.947   1.631 -0.1791  0.1985  0.1850
   90MPD2    C1 1400   3.012   1.038   1.628  0.0602 -0.3044 -0.6930
   90MPD2    C2 1401   3.034   1.168   1.643 -0.1492 -0.3715 -0.1897
   90MPD2    C3 1402   3.164   1.222   1.668  0.4767  0.3381 -0.3692
   90MPD2    C4 1403   3.264   1.129   1.691  0.5591  0.1152  0.3209
   90MPD2    C5 1404   3.240   0.996   1.667 -0.1830  0.2479  0.1690
   90MPD2     H 1405   2.948   1.234   1.637 -0.3330 -0.7085 -1.2592
   90MPD2    H1 1406   3.361   1.159   1.730  1.2815 -1.0769 -0.5679
   90MPD2    H2 1407   3.128   0.842   1.604 -0.2114  0.2027  0.1589
   90MPD2    H3 1408   3.326   0.929   1.671 -0.9261 -0.8733 -2.4523
   90MPD2     N 1409   3.187   1.358   1.670 -0.1903 -0.2582  0.6177
   90MPD2    H5 1410   3.107   1.419   1.656 -1.2190 -1.5660  0.7609
   90MPD2    N1 1411   2.879   0.984   1.611  0.5002 -0.1471  0.0037
   90MPD2    H7 1412   2.803   1.049   1.598 -0.6599 -1.8917 -1.8423
   91TMC2    C1 1413   0.430   4.352  16.096 -1.2613  0.1529 -0.2805
   91TMC2    C2 1414   0.460   4.336  16.222 -0.2001 -0.4563 -0.3026
   91TMC2    C3 1415   0.430   4.210  16.272 -0.4300  0.0827 -0.1829
   91TMC2    C4 1416   0.344   4.270  16.019  0.0057  0.2299 -0.4167
   91TMC2    C5 1417   0.296   4.166  16.084  0.5432 -0.0209  0.2983
   91TMC2    C6 1418   0.334   4.131  16.211  0.3444 -1.0377  0.1841
   91TMC2     C 1419   0.485   4.461  16.029 -0.6462  0.1232  0.0166
   91TMC2     O 1420   0.434   4.488  15.921  0.2226 -0.0545  0.5008
   91TMC2     H 1421   0.520   4.410  16.274 -0.9551 -0.6283  0.8071
   91TMC2    H1 1422   0.336   4.285  15.912  1.2704  0.4822 -0.4833
   91TMC2    H2 1423   0.296   4.039  16.255 -1.0264  0.2125  1.6006
   91TMC2    C7 1424   0.177   4.098  16.044  0.2096  0.3565  0.1734
   91TMC2    C8 1425   0.460   4.177  16.407 -0.0104 -0.9653 -0.3914
   91TMC2    O1 1426   0.102   4.048  16.127 -0.0619  0.0495 -0.5157
   91TMC2    O2 1427   0.392   4.099  16.474 -0.1859  0.1711  0.7443
   91TMC2    O5 1428   0.555   4.259  16.453 -0.6537 -0.3992 -0.4453
   91TMC2    H5 1429   0.617   4.291  16.383  1.3992 -2.5478  0.3682
   92MPD2     C 1430   0.662   4.678  15.945  0.3075 -0.2944  0.6395
   92MPD2    C1 1431   0.698   4.580  16.035  0.1074 -0.1947 -0.5930
   92MPD2    C2 1432   0.827   4.582  16.079  0.7554  0.2411 -0.0060
   92MPD2    C3 1433   0.916   4.658  16.013 -0.3567  0.6497 -0.0795
   92MPD2    C4 1434   0.881   0.008  15.914 -0.4787  0.9344 -0.0406
   92MPD2    C5 1435   0.749   0.025  15.886  0.0170 -0.3883  0.0610
   92MPD2     H 1436   0.861   4.505  16.148  0.0089  1.0268  1.2514
   92MPD2    H1 1437   0.958   0.069  15.868  2.1176 -1.9707  0.4129
   92MPD2    H2 1438   0.561   4.679  15.908  1.2115 -2.2638 -1.9141
   92MPD2    H3 1439   0.708   0.093  15.813  1.1175  2.6802  2.2953
   92MPD2     N 1440   1.049   4.639  16.058 -0.1302  0.7415 -0.0786
   92MPD2    H5 1441   1.070   4.550  16.102 -3.1816 -0.3824 -0.8949
   92MPD2    N1 1442   0.610   4.488  16.084  0.0670  0.4616  0.0744
   92MPD2    H7 1443   0.654   4.425  16.150 -0.0758 -2.2251 -2.3878
   93TMC2    C1 1444   2.398   4.321  13.440 -0.8003 -0.6275  0.0706
   93TMC2    C2 1445   2.323   4.439  13.456 -0.4628 -0.5775  0.2507
   93TMC2    C3 1446   2.387   4.547  13.523 -0.0696  0.2455  0.1824
   93TMC2    C4 1447   2.538   4.325  13.462 -0.3693  0.3569 -0.5200
   93TMC2    C5 1448   2.592   4.425  13.537  0.9411 -0.3104 -0.2439
   93TMC2    C6 1449   2.519   4.541  13.566  0.4458  0.2585 -0.9202
   93TMC2     C 1450   2.343   4.196  13.410 -0.2461  0.2477  0.0308
   93TMC2     O 1451   2.419   4.100  13.408 -0.2622 -0.3830  0.1263
   93TMC2     H 1452   2.230   4.456  13.403 -0.3628  0.1631  0.3066
   93TMC2    H1 1453   2.610   4.253  13.426  1.7472  1.2251  1.9537
   93TMC2    H2 1454   2.570   4.625  13.611 -0.5605  1.2541 -1.6265
   93TMC2    C7 1455   2.730   4.414  13.576  0.2647  0.4571  0.3416
   93TMC2    C8 1456   2.328   4.678  13.516 -0.3327 -0.4734 -0.7201
   93TMC2    O1 1457   2.806   4.338  13.514  0.0967  0.0156 -0.2383
   93TMC2    O2 1458   2.208   4.711  13.526  0.4385 -0.3314  0.0765
   93TMC2    O5 1459   2.423   0.005  13.441 -0.0321  0.6221  0.4596
   93TMC2    H5 1460   2.506   4.691  13.426 -2.3355 -2.1292 -3.0940
   94MPD2     C 1461   2.170   3.987  13.284  0.0018 -0.2046 -0.1050
   94MPD2    C1 1462   2.119   4.104  13.349  0.1679  0.3251  0.2913
   94MPD2    C2 1463   1.981   4.126  13.353  0.2866  0.0641  0.0099
   94MPD2    C3 1464   1.893   4.036  13.298  0.6489  0.0206 -0.6817
   94MPD2    C4 1465   1.943   3.918  13.238 -0.2040 -0.4118  0.8698
   94MPD2    C5 1466   2.081   3.898  13.233  0.5372  0.1865  0.3130
   94MPD2     H 1467   1.951   4.215  13.407 -0.2615 -0.0992 -0.0306
   94MPD2    H1 1468   1.878   3.838  13.203  0.5866 -1.0555  0.8604
   94MPD2    H2 1469   2.273   3.966  13.261  0.2692  0.8932  0.0844
   94MPD2    H3 1470   2.129   3.815  13.182 -1.7647 -2.8391  3.0282
   94MPD2     N 1471   1.755   4.063  13.289 -0.0143  0.2771  0.7690
   94MPD2    H5 1472   1.697   3.990  13.250 -0.3626  0.6784  0.5411
   94MPD2    N1 1473   2.207   4.206  13.388 -0.1656  0.4159 -0.3279
   94MPD2    H7 1474   2.162   4.292  13.416 -2.5307 -1.1356  0.6798
   95TMC2    C1 1475   2.242   1.902  16.413 -0.4083  0.4014 -0.1735
   95TMC2    C2 1476   2.342   1.987  16.459 -0.3119  0.5411 -0.7283
   95TMC2    C3 1477   2.337   2.012  16.590  0.5074  0.0981  0.3652
   95TMC2    C4 1478   2.148   1.848  16.500 -0.2519 -0.5210  0.2562
   95TMC2    C5 1479   2.142   1.886  16.631 -0.4249  0.2045  0.4849
   95TMC2    C6 1480   2.246   1.957  16.681 -0.7994  0.2285  0.1486
   95TMC2     C 1481   2.244   1.871  16.271  0.1659  0.0016  0.4617
   95TMC2     O 1482   2.315   1.930  16.190 -0.1249  0.2436  0.8999
   95TMC2     H 1483   2.432   2.010  16.403  0.3288 -1.9614 -0.7390
   95TMC2    H1 1484   2.075   1.775  16.466 -0.0372 -1.1268  1.0942
   95TMC2    H2 1485   2.242   1.976  16.788  1.1201  2.7660 -0.2400
   95TMC2    C7 1486   2.033   1.834  16.711 -0.4195  0.3178  0.5897
   95TMC2    C8 1487   2.461   2.054  16.660 -0.4672 -0.3515 -0.0880
   95TMC2    O1 1488   1.941   1.773  16.661 -0.0198 -0.6580  0.3082
   95TMC2    O2 1489   2.501   2.014  16.770 -0.0932 -0.4840  0.1587
   95TMC2    O5 1490   2.520   2.148  16.588 -0.2765  0.1756  0.5556
   95TMC2    H5 1491   2.459   2.190  16.524  1.3848  0.8562 -0.5618
   96MPD2     C 1492   2.158   1.518  15.900 -0.3338 -0.5651  0.0653
   96MPD2    C1 1493   2.232   1.640  15.893 -0.0859  0.5163  0.7344
   96MPD2    C2 1494   2.240   1.718  16.006  0.4263 -0.1982  0.9086
   96MPD2    C3 1495   2.178   1.673  16.125 -0.4699  0.0757  0.0657
   96MPD2    C4 1496   2.114   1.556  16.129 -0.3312 -0.1220  0.3120
   96MPD2    C5 1497   2.109   1.478  16.023  0.4918  0.4068  0.4986
   96MPD2     H 1498   2.310   1.800  16.017 -3.1071  2.4177  3.6349
   96MPD2    H1 1499   2.073   1.517  16.221 -0.9413 -3.1805 -1.2501
   96MPD2    H2 1500   2.155   1.454  15.812  0.3009  1.1829 -1.2314
   96MPD2    H3 1501   2.056   1.386  16.043 -2.4730  1.6047 -1.8948
   96MPD2     N 1502   2.185   1.745  16.249  0.3200 -0.0113  0.0951
   96MPD2    H5 1503   2.151   1.698  16.333  0.4861 -0.1728  0.0714
   96MPD2    N1 1504   2.303   1.673  15.771  0.3757  0.4167  0.0674
   96MPD2    H7 1505   2.292   1.606  15.696  2.4289  0.7186 -0.4901
   97TMC2    C1 1506   4.503   4.416   0.571  0.0662 -1.3011 -0.1682
   97TMC2    C2 1507   4.388   4.374   0.503 -0.1863 -0.0511 -0.2921
   97TMC2    C3 1508   4.361   4.443   0.386 -0.2341 -1.0024  0.0856
   97TMC2    C4 1509   4.590   4.504   0.517 -0.3198  0.0140 -0.4202
   97TMC2    C5 1510   4.555   4.573   0.407 -0.1493  0.0083 -0.6177
   97TMC2    C6 1511   4.433   4.551   0.344  0.2491 -0.3158 -0.4502
   97TMC2     C 1512   4.515   4.364   0.704  0.2430 -0.6319 -0.0793
   97TMC2     O 1513   4.420   4.305   0.742  0.1222 -0.1068  0.0960
   97TMC2     H 1514   4.321   4.298   0.542 -0.0136 -0.3109 -0.4952
   97TMC2    H1 1515   4.683   4.527   0.568 -1.6549  0.3947  1.8435
   97TMC2    H2 1516   4.405   4.604   0.253  2.9178  2.3077  0.2329
   97TMC2    C7 1517   4.646   4.665   0.350  0.0337  0.1389  0.0563
   97TMC2    C8 1518   4.233   4.430   0.328  0.1237 -0.4357  0.3653
   97TMC2    O1 1519   4.716   4.732   0.424  0.2307  0.0715  0.0014
   97TMC2    O2 1520   4.200   4.477   0.219  0.3745  0.9993  0.0720
   97TMC2    O5 1521   4.149   4.405   0.432  0.1923 -0.7542  0.2921
   97TMC2    H5 1522   4.196   4.431   0.515  1.7712  0.2814 -0.9290
   98MPD2     C 1523   4.717   4.308   1.185  0.0297 -0.2479  0.6426
   98MPD2    C1 1524   4.649   4.221   1.099  0.1363  0.7486  0.3510
   98MPD2    C2 1525   4.609   4.262   0.973  0.6876  0.5191  0.1282
   98MPD2    C3 1526   4.634   4.391   0.925  0.0747 -0.3602  0.0796
   98MPD2    C4 1527   4.700   4.481   1.015 -0.4105  0.4554  0.0522
   98MPD2    C5 1528   0.006   4.435   1.140 -0.2382  0.4652  0.8862
   98MPD2     H 1529   4.566   4.192   0.903 -0.6231  0.5185  0.9296
   98MPD2    H1 1530   4.726   4.582   0.983 -0.3585  0.7105  0.8900
   98MPD2    H2 1531   0.010   4.267   1.281  1.9624  4.8574  2.1726
   98MPD2    H3 1532   0.055   4.498   1.214  1.5431  1.2399 -0.9517
   98MPD2     N 1533   4.615   4.418   0.786 -0.3182 -0.6733 -0.1699
   98MPD2    H5 1534   4.675   4.493   0.753 -1.4099 -0.7717 -2.3749
   98MPD2    N1 1535   4.616   4.091   1.143 -0.4849  0.5705 -0.0899
   98MPD2    H7 1536   4.612   4.080   1.243 -1.1205 -2.0219 -0.3929
   99TMC2    C1 1537   3.466   1.710   0.646  0.5386  0.0368  0.3685
   99TMC2    C2 1538   3.576   1.793   0.674 -0.0962  0.4487 -0.1330
   99TMC2    C3 1539   3.585   1.832   0.805 -0.0018  0.1785  0.0353
   99TMC2    C4 1540   3.368   1.669   0.738 -0.2450  0.4897 -0.4961
   99TMC2    C5 1541   3.382   1.722   0.864  0.0389 -0.0672 -0.2231
   99TMC2    C6 1542   3.489   1.800   0.902  0.0960 -0.6044  0.6589
   99TMC2     C 1543   3.467   1.664   0.512  0.0346  0.2575 -0.0643
   99TMC2     O 1544   3.510   1.742   0.430  0.4118 -0.4015 -0.5730
   99TMC2     H 1545   3.642   1.822   0.593 -1.9685  0.8512 -1.5263
   99TMC2    H1 1546   3.281   1.609   0.712 -0.0377 -0.4220  0.9061
   99TMC2    H2 1547   3.497   1.831   1.005  1.2363 -3.1018  1.3287
   99TMC2    C7 1548   3.266   1.719   0.951 -0.1879 -0.0911  0.1278
   99TMC2    C8 1549   3.649   1.954   0.828  0.4293 -1.0636  0.1023
   99TMC2    O1 1550   3.258   1.816   1.022  0.2662  0.2776  0.4512
   99TMC2    O2 1551   3.587   2.057   0.853 -0.5786 -0.4257  0.1317
   99TMC2    O5 1552   3.772   1.945   0.772  0.4024  0.2798 -0.3191
   99TMC2    H5 1553   3.794   1.849   0.780 -0.5325  0.1015  0.0820
  100MPD2     C 1554   3.459   1.518   0.247  0.5371  0.2384  0.1265
  100MPD2    C1 1555   3.405   1.470   0.365  0.5337 -0.1275  0.6028
  100MPD2    C2 1556   3.359   1.343   0.368  0.4913  0.1411  0.5663
  100MPD2    C3 1557   3.351   1.262   0.252 -0.0767  1.1639  0.0437
  100MPD2    C4 1558   3.389   1.313   0.133 -0.0539 -0.3339  0.4153
  100MPD2    C5 1559   3.446   1.441   0.134 -0.1267 -0.3913 -0.2572
  100MPD2     H 1560   3.327   1.297   0.460 -0.8775 -0.7678 -0.3632
  100MPD2    H1 1561   3.374   1.268   0.036  0.1483 -1.9233  1.1100
  100MPD2    H2 1562   3.509   1.614   0.240  0.8843  0.1761  1.8398
  100MPD2    H3 1563   3.489   1.487   0.046 -1.2241  1.4613  0.1647
  100MPD2     N 1564   3.296   1.134   0.260  0.9696  0.1842  0.2173
  100MPD2    H5 1565   3.265   1.102   0.351  0.5857  1.3709  0.5002
  100MPD2    N1 1566   3.418   1.533   0.494 -0.1901 -0.0653 -0.0137
  100MPD2    H7 1567   3.404   1.474   0.576  0.7287 -0.9715 -0.4977
  101TMC2    C1 1568   3.673   1.453  13.305 -0.3275 -0.0130 -0.3234
  101TMC2    C2 1569   3.725   1.569  13.358 -0.6972 -0.2980 -0.5844
  101TMC2    C3 1570   3.792   1.649  13.268 -0.1657 -0.0187 -0.5708
  101TMC2    C4 1571   3.694   1.417  13.174 -1.4529 -0.1308 -0.1853
  101TMC2    C5 1572   3.769   1.496  13.094 -0.0279 -0.0292 -0.0253
  101TMC2    C6 1573   3.814   1.614  13.139 -0.1060 -0.3937 -0.0079
  101TMC2     C 1574   3.582   1.375  13.398  0.4953  0.0257  0.1129
  101TMC2     O 1575   3.539   1.431  13.497  0.1811  0.7043 -0.1349
  101TMC2     H 1576   3.711   1.601  13.461 -0.3204 -0.2557 -0.5462
  101TMC2    H1 1577   3.648   1.330  13.130  2.2289 -1.7145 -0.8909
  101TMC2    H2 1578   3.891   1.655  13.075 -0.2866  0.9007  0.6093
  101TMC2    C7 1579   3.739   1.478  12.952 -0.2103  0.2827  0.3920
  101TMC2    C8 1580   3.851   1.763  13.331 -0.3937  0.2033 -0.7441
  101TMC2    O1 1581   3.672   1.384  12.911 -0.4213  0.2327 -0.0440
  101TMC2    O2 1582   3.873   1.770  13.455  0.2133  0.2616  0.2340
  101TMC2    O5 1583   3.937   1.814  13.243  0.0978 -0.3979 -0.0350
  101TMC2    H5 1584   3.905   1.801  13.151  0.6991  1.5771 -0.5252
  102MPD2     C 1585   3.455   1.024  13.329  0.1525 -0.5635  0.2136
  102MPD2    C1 1586   3.462   1.150  13.385  0.0293  0.0927  0.1330
  102MPD2    C2 1587   3.366   1.185  13.476 -0.7550  0.0342  0.8365
  102MPD2    C3 1588   3.261   1.092  13.503 -0.1497 -0.0862  0.0103
  102MPD2    C4 1589   3.257   0.968  13.441 -0.7437 -0.4836  0.2211
  102MPD2    C5 1590   3.350   0.942  13.350 -0.5707 -0.0377 -0.4690
  102MPD2     H 1591   3.376   1.288  13.510 -2.7657  0.8403 -0.9973
  102MPD2    H1 1592   3.171   0.905  13.462 -0.6407 -0.0785  1.8451
  102MPD2    H2 1593   3.533   0.999  13.257 -0.1572 -0.2861 -0.2130
  102MPD2    H3 1594   3.352   0.847  13.296  2.7718 -0.9905  1.3312
  102MPD2     N 1595   3.177   1.118  13.615  0.5164 -0.3507 -0.0130
  102MPD2    H5 1596   3.203   1.206  13.659  1.7806 -1.8168  2.1825
  102MPD2    N1 1597   3.554   1.248  13.340 -0.2237 -0.4184  0.1267
  102MPD2    H7 1598   3.614   1.223  13.261  1.5046 -1.7131  1.8622
  103TMC2    C1 1599   1.353   1.491  12.826  0.1755  0.8728  0.3738
  103TMC2    C2 1600   1.429   1.380  12.811  0.9579 -0.0616 -0.3061
  103TMC2    C3 1601   1.533   1.367  12.901 -0.0412 -0.4588  0.6555
  103TMC2    C4 1602   1.378   1.577  12.929  0.3756 -0.1432 -0.0535
  103TMC2    C5 1603   1.483   1.565  13.004  0.2307  0.3911 -0.2864
  103TMC2    C6 1604   1.559   1.455  12.998 -0.5687 -0.3684 -1.1009
  103TMC2     C 1605   1.210   1.471  12.813  0.5943  0.3126 -0.2866
  103TMC2     O 1606   1.143   1.564  12.768 -0.4959  0.2370 -0.3425
  103TMC2     H 1607   1.408   1.294  12.748 -0.5366  0.2899 -0.2897
  103TMC2    H1 1608   1.303   1.655  12.943  2.4234  1.8953 -0.4653
  103TMC2    H2 1609   1.635   1.432  13.072 -2.3345 -0.5717  0.6335
  103TMC2    C7 1610   1.497   1.652  13.121  0.1489 -0.0316 -0.5258
  103TMC2    C8 1611   1.593   1.239  12.926  0.4673 -0.1503  0.0154
  103TMC2    O1 1612   1.396   1.698  13.168  0.3335  0.4320  0.5604
  103TMC2    O2 1613   1.549   1.124  12.903 -0.3962  0.5210 -0.5924
  103TMC2    O5 1614   1.725   1.259  12.930 -0.5195 -0.1612 -0.1829
  103TMC2    H5 1615   1.730   1.353  12.958  2.8696 -1.3083  3.0996
  104MPD2     C 1616   1.011   1.224  12.988 -0.4742 -0.1897 -0.0836
  104MPD2    C1 1617   1.038   1.323  12.895  0.2102 -0.5761  0.2843
  104MPD2    C2 1618   0.935   1.367  12.816 -0.1137 -0.4628 -0.1570
  104MPD2    C3 1619   0.805   1.332  12.836 -0.0175  0.4430 -0.3046
  104MPD2    C4 1620   0.780   1.242  12.941  0.0128 -0.0943  0.7919
  104MPD2    C5 1621   0.887   1.185  13.011 -0.1166  0.3252  0.2304
  104MPD2     H 1622   0.960   1.442  12.741  1.5121 -0.1318  0.7048
  104MPD2    H1 1623   0.683   1.207  12.974  0.1448 -1.4209 -0.1936
  104MPD2    H2 1624   1.087   1.177  13.049 -0.3882 -1.0458 -0.8537
  104MPD2    H3 1625   0.877   1.107  13.086  0.7131  0.6205  0.6540
  104MPD2     N 1626   0.709   1.385  12.746  0.3229  0.4040 -0.4179
  104MPD2    H5 1627   0.740   1.444  12.669  0.3678  1.1631  0.1852
  104MPD2    N1 1628   1.168   1.367  12.893 -0.4564 -0.1843 -0.0561
  104MPD2    H7 1629   1.229   1.325  12.962 -0.1369 -0.2375 -0.3724
  105TMC2    C1 1630   3.089   0.965  17.562  0.2280  0.0827  0.7161
  105TMC2    C2 1631   3.007   0.858  17.570  0.4194 -0.7369 -0.5929
  105TMC2    C3 1632   2.886   0.867  17.620 -0.2684 -0.3741  0.3833
  105TMC2    C4 1633   3.051   1.088  17.622  0.3902  0.7107 -0.5221
  105TMC2    C5 1634   2.933   1.085  17.693  0.8196 -0.6737 -0.1068
  105TMC2    C6 1635   2.841   0.986  17.669 -0.6875 -0.1785  0.4304
  105TMC2     C 1636   3.212   0.955  17.494  0.2121 -0.0128  0.5694
  105TMC2     O 1637   3.264   0.843  17.511 -0.1619  0.0237  0.4403
  105TMC2     H 1638   3.043   0.758  17.550 -0.3671 -0.7989 -1.6517
  105TMC2    H1 1639   3.122   1.170  17.628 -0.5418  1.4266  0.6802
  105TMC2    H2 1640   2.743   0.983  17.715 -1.5190  0.7427 -1.2896
  105TMC2    C7 1641   2.934   1.120   0.086  0.9317  0.4148 -0.0079
  105TMC2    C8 1642   2.839   0.746  17.689  0.0853 -0.3948  0.1032
  105TMC2    O1 1643   2.866   1.048   0.158 -0.1707  0.4711 -0.7398
  105TMC2    O2 1644   2.792   0.647  17.635 -0.0277  0.5077 -0.7627
  105TMC2    O5 1645   2.804   0.791   0.065  0.2033 -0.3415 -0.4224
  105TMC2    H5 1646   2.828   0.884   0.086 -1.1908 -0.0672 -0.0263
  106MPD2     C 1647   3.656   1.134  17.298  0.0935 -0.3128  0.2911
  106MPD2    C1 1648   3.558   1.210  17.243  0.9667 -0.1681  0.2834
  106MPD2    C2 1649   3.432   1.191  17.305 -0.2011 -0.2967 -0.4947
  106MPD2    C3 1650   3.399   1.086  17.387  0.8417 -0.0592  0.2727
  106MPD2    C4 1651   3.506   1.010  17.432 -0.6566 -0.4530  0.1436
  106MPD2    C5 1652   3.630   1.033  17.384 -0.5244  0.3854  0.1504
  106MPD2     H 1653   3.354   1.265  17.290 -0.4753 -0.5812 -0.4664
  106MPD2    H1 1654   3.492   0.945  17.517  0.8884  2.0941  2.3460
  106MPD2    H2 1655   3.759   1.135  17.264  0.1836  2.6770  0.6063
  106MPD2    H3 1656   3.718   0.996  17.436 -0.3490 -0.3038 -0.6267
  106MPD2     N 1657   3.265   1.073  17.438 -0.6063 -0.1439 -0.4015
  106MPD2    H5 1658   3.207   1.155  17.425 -0.4795  0.3122  1.8338
  106MPD2    N1 1659   3.581   1.313  17.147  0.1321 -0.5683  0.1526
  106MPD2    H7 1660   3.498   1.368  17.125  0.7187 -0.1855 -1.0838
  107TMC2    C1 1661   4.219   1.120  11.774  0.3640 -0.0898 -0.1650
  107TMC2    C2 1662   4.271   1.232  11.711 -0.2595 -0.2273  0.1173
  107TMC2    C3 1663   4.397   1.221  11.666 -1.0545  0.0498 -0.3861
  107TMC2    C4 1664   4.294   1.015  11.824 -0.2087 -0.4669  0.0570
  107TMC2    C5 1665   4.426   1.018  11.779  0.1663 -0.0825 -0.4768
  107TMC2    C6 1666   4.479   1.115  11.702 -0.5906 -0.2811 -0.6442
  107TMC2     C 1667   4.083   1.131  11.819  0.0253 -0.1004 -0.1845
  107TMC2     O 1668   4.059   1.063  11.915  0.6138  0.0786 -0.5028
  107TMC2     H 1669   4.206   1.317  11.692  1.3289  0.5724 -1.6626
  107TMC2    H1 1670   4.258   0.941  11.894  1.6188 -1.7326 -0.3270
  107TMC2    H2 1671   4.586   1.112  11.685 -0.0224 -0.4119  2.9827
  107TMC2    C7 1672   4.495   0.886  11.760  0.2103  0.7800 -0.9273
  107TMC2    C8 1673   4.455   1.320  11.577  0.3221 -0.1056 -0.4219
  107TMC2    O1 1674   4.616   0.889  11.734 -0.2117  0.0719  0.0762
  107TMC2    O2 1675   4.571   1.321  11.550 -0.0236  0.1252  0.3434
  107TMC2    O5 1676   4.364   1.333  11.473  0.3264 -0.5303 -0.2176
  107TMC2    H5 1677   4.275   1.296  11.493  0.2636 -0.7376 -0.8663
  108MPD2     C 1678   3.809   1.260  11.632  0.0039 -0.0713  0.2769
  108MPD2    C1 1679   3.863   1.193  11.734 -0.5952  1.0144 -0.0225
  108MPD2    C2 1680   3.787   1.127  11.833  0.5495 -0.4501  0.0109
  108MPD2    C3 1681   3.649   1.146  11.828  0.7272  0.1297  0.0260
  108MPD2    C4 1682   3.592   1.214  11.726 -0.0368  0.9838  0.9097
  108MPD2    C5 1683   3.670   1.267  11.623  0.0780 -0.6528  0.7982
  108MPD2     H 1684   3.831   1.070  11.914 -0.2444  1.7153  1.9634
  108MPD2    H1 1685   3.485   1.229  11.718 -0.1848  0.4881  1.9609
  108MPD2    H2 1686   3.865   1.338  11.581 -1.7676 -0.2111 -1.9342
  108MPD2    H3 1687   3.624   1.335  11.553  0.6303 -0.9712  0.1208
  108MPD2     N 1688   3.561   1.084  11.918 -0.4687 -0.6801 -0.2075
  108MPD2    H5 1689   3.462   1.095  11.897 -0.6184 -1.1110  0.2759
  108MPD2    N1 1690   4.003   1.196  11.733  0.1145  0.2580  0.5400
  108MPD2    H7 1691   4.052   1.245  11.659 -1.2585  0.7145 -0.0806
  109TMC2    C1 1692   3.677   3.491   0.487  0.3418 -0.0551 -0.1628
  109TMC2    C2 1693   3.713   3.499   0.351 -0.2911  0.0396 -0.0369
  109TMC2    C3 1694   3.837   3.449   0.315  0.0480 -0.3143 -0.0118
  109TMC2    C4 1695   3.762   3.436   0.577  0.8475 -0.4825 -0.2076
  109TMC2    C5 1696   3.887   3.393   0.534  0.5172 -1.0039 -0.2248
  109TMC2    C6 1697   3.925   3.404   0.406 -0.2948 -0.5770  0.0553
  109TMC2     C 1698   3.540   3.512   0.536  0.0807 -0.7694 -0.0723
  109TMC2     O 1699   3.446   3.490   0.461 -0.1594  0.6414  0.5620
  109TMC2     H 1700   3.638   3.530   0.280 -1.9158 -0.4990  1.4612
  109TMC2    H1 1701   3.722   3.416   0.676  0.5239 -1.6761 -0.5824
  109TMC2    H2 1702   4.025   3.378   0.373  0.2224  0.8092  0.4946
  109TMC2    C7 1703   3.990   3.392   0.641 -0.1572 -0.6734  0.4732
  109TMC2    C8 1704   3.892   3.507   0.201 -0.0399 -0.0580  0.3417
  109TMC2    O1 1705   3.956   3.458   0.740  0.2697  0.2354 -0.2984
  109TMC2    O2 1706   3.989   3.465   0.147  0.4264  0.1770  0.6834
  109TMC2    O5 1707   3.861   3.633   0.219 -0.0097 -0.0767 -0.3358
  109TMC2    H5 1708   3.802   3.655   0.294  1.2781 -0.3695  0.7648
  110MPD2     C 1709   3.220   3.482   0.937  0.6151  0.0804 -0.9194
  110MPD2    C1 1710   3.326   3.561   0.973  0.1215 -0.2209 -0.0228
  110MPD2    C2 1711   3.429   3.590   0.880 -0.1011 -0.0396 -0.3909
  110MPD2    C3 1712   3.432   3.534   0.755 -0.1077 -0.5580 -0.3373
  110MPD2    C4 1713   3.329   3.451   0.723  0.1796  0.4942  0.3857
  110MPD2    C5 1714   3.232   3.411   0.814 -0.2119  0.1821 -0.1669
  110MPD2     H 1715   3.515   3.651   0.905 -0.6328  0.2037  0.8501
  110MPD2    H1 1716   3.342   3.401   0.628  0.3063 -0.6965  1.0362
  110MPD2    H2 1717   3.136   3.469   1.005 -2.2764  1.4003 -4.2823
  110MPD2    H3 1718   3.144   3.360   0.775 -1.4030  1.1714  1.2081
  110MPD2     N 1719   3.535   3.571   0.662  0.1743  0.6624 -0.5201
  110MPD2    H5 1720   3.612   3.634   0.679 -0.2874  0.9776  0.4322
  110MPD2    N1 1721   3.327   3.618   1.100  0.1583  0.6651  0.3640
  110MPD2    H7 1722   3.270   3.578   1.175  1.1859 -4.4254 -1.5629
  111TMC2    C1 1723   3.281   2.618  11.633  0.2006  0.0988 -0.1589
  111TMC2    C2 1724   3.153   2.568  11.661 -0.4233 -0.0631  0.0548
  111TMC2    C3 1725   3.140   2.461  11.743 -0.2748  0.0228 -0.7338
  111TMC2    C4 1726   3.394   2.555  11.682 -0.4693 -0.4036 -0.1390
  111TMC2    C5 1727   3.378   2.437  11.760  0.1288  1.4442  0.1819
  111TMC2    C6 1728   3.249   2.399  11.801 -0.6502 -0.4624  0.7075
  111TMC2     C 1729   3.306   2.729  11.537  0.2758 -0.5021  0.4648
  111TMC2     O 1730   3.406   2.726  11.468 -0.2198 -0.2464  0.3266
  111TMC2     H 1731   3.067   2.596  11.601 -0.8587  0.7089  1.0404
  111TMC2    H1 1732   3.492   2.601  11.666 -1.5395  2.0497  0.3360
  111TMC2    H2 1733   3.234   2.314  11.866 -1.4403  1.6654  3.2548
  111TMC2    C7 1734   3.495   2.370  11.817  0.5091 -0.1909  0.3221
  111TMC2    C8 1735   3.017   2.385  11.751 -0.0110  0.1350  0.0670
  111TMC2    O1 1736   3.485   2.300  11.917 -0.1653  0.0294 -0.2473
  111TMC2    O2 1737   2.937   2.403  11.661  0.3171 -0.5878 -0.1828
  111TMC2    O5 1738   3.008   2.320  11.870 -0.3022  0.6494  0.4032
  111TMC2    H5 1739   3.074   2.348  11.937 -1.3276  2.5655  0.6039
  112MPD2     C 1740   3.150   3.158  11.327  0.0995  0.4280 -0.3110
  112MPD2    C1 1741   3.262   3.079  11.302  0.3698  0.2455  0.8791
  112MPD2    C2 1742   3.276   2.974  11.382  0.3575  0.2564  0.6418
  112MPD2    C3 1743   3.182   2.930  11.473 -0.5479 -0.1481  0.2145
  112MPD2    C4 1744   3.069   3.002  11.487 -0.4521 -0.0511  0.0762
  112MPD2    C5 1745   3.066   3.123  11.424 -0.4677  0.6672  0.0557
  112MPD2     H 1746   3.372   2.926  11.370  1.9366  3.6560 -0.3886
  112MPD2    H1 1747   2.991   2.964  11.552 -1.1937  2.1464  0.4787
  112MPD2    H2 1748   3.125   3.253  11.281 -0.3597 -0.0010 -0.9451
  112MPD2    H3 1749   2.982   3.190  11.438 -1.4477 -0.5712  0.1703
  112MPD2     N 1750   3.201   2.813  11.545  0.4798 -0.1778 -0.5217
  112MPD2    H5 1751   3.130   2.790  11.615  0.2639  2.8831  0.2598
  112MPD2    N1 1752   3.357   3.096  11.204  0.5448 -0.4191 -0.1137
  112MPD2    H7 1753   3.431   3.028  11.215  1.2710  0.5516  1.0207
  113TMC2    C1 1754   2.093   1.544   0.519  0.9097 -0.5940 -0.5766
  113TMC2    C2 1755   1.985   1.598   0.574  0.1284 -0.5295 -0.5414
  113TMC2    C3 1756   1.861   1.533   0.546 -0.2233  0.8254  0.3262
  113TMC2    C4 1757   2.096   1.426   0.451  0.2248  0.0468  0.2735
  113TMC2    C5 1758   1.977   1.353   0.456  0.1795  0.5815  0.6184
  113TMC2    C6 1759   1.863   1.404   0.501 -0.2068  0.8887  0.0503
  113TMC2     C 1760   2.218   1.610   0.547  0.6376  0.4151 -0.8013
  113TMC2     O 1761   2.210   1.732   0.565  0.1201 -0.0166 -0.0259
  113TMC2     H 1762   1.996   1.687   0.635  2.3257 -1.4632  0.4217
  113TMC2    H1 1763   2.184   1.390   0.399 -0.3504 -0.5833 -0.2694
  113TMC2    H2 1764   1.769   1.350   0.507 -0.8093  1.8674 -0.5926
  113TMC2    C7 1765   1.997   1.211   0.442  0.2393  0.6323  0.1428
  113TMC2    C8 1766   1.746   1.576   0.626  0.1058 -0.9197 -0.5909
  113TMC2    O1 1767   2.109   1.172   0.412 -0.1677 -0.3678 -0.4536
  113TMC2    O2 1768   1.766   1.641   0.729  0.1597 -0.0114  0.1936
  113TMC2    O5 1769   1.635   1.583   0.550 -0.0806 -0.4016 -0.1160
  113TMC2    H5 1770   1.642   1.538   0.462 -0.6095  0.4308 -0.5829
  114MPD2     C 1771   2.720   1.618   0.665 -0.1065  1.1639  0.1817
  114MPD2    C1 1772   2.622   1.713   0.684 -0.3668 -0.1225  0.0920
  114MPD2    C2 1773   2.500   1.679   0.643 -0.1536 -0.2232  0.0630
  114MPD2    C3 1774   2.465   1.554   0.595 -0.0107  0.5939  0.2370
  114MPD2    C4 1775   2.565   1.453   0.591 -0.3166  0.0192 -0.0011
  114MPD2    C5 1776   2.689   1.495   0.614 -0.5679 -0.6214  0.0557
  114MPD2     H 1777   2.421   1.752   0.650 -1.4778 -1.6117 -0.3081
  114MPD2    H1 1778   2.545   1.357   0.543 -0.4853  0.1148 -0.1223
  114MPD2    H2 1779   2.825   1.639   0.682  0.9051 -1.5695 -2.8461
  114MPD2    H3 1780   2.767   1.421   0.598  0.0708  0.1636 -0.4458
  114MPD2     N 1781   2.330   1.524   0.561  0.5277 -0.1350  0.1940
  114MPD2    H5 1782   2.313   1.425   0.545 -1.0891  0.0405  0.8123
  114MPD2    N1 1783   2.646   1.841   0.737 -0.8321 -0.2600  0.2634
  114MPD2    H7 1784   2.559   1.893   0.737 -0.0555  1.0271 -0.0843
  115TMC2    C1 1785   3.467   3.804  17.714 -0.3100  0.0645  0.7686
  115TMC2    C2 1786   3.596   3.772  17.677  0.4222 -0.0696 -0.5269
  115TMC2    C3 1787   3.690   3.873  17.683 -0.0447 -0.3971  0.3309
  115TMC2    C4 1788   3.435   3.935   0.007  1.1158  0.3165 -0.4019
  115TMC2    C5 1789   3.530   4.033   0.001  0.0532  0.4027 -0.2332
  115TMC2    C6 1790   3.661   4.003  17.718 -0.3685 -0.2735  0.5415
  115TMC2     C 1791   3.361   3.717  17.662 -1.0082  0.2785  0.2764
  115TMC2     O 1792   3.398   3.617  17.610 -0.4247  0.2063  0.3005
  115TMC2     H 1793   3.624   3.670  17.653 -0.6425 -0.3836 -0.4404
  115TMC2    H1 1794   3.334   3.965   0.030  0.7317 -1.4575  0.2594
  115TMC2    H2 1795   3.737   4.080  17.720 -0.0793 -0.4977 -1.6370
  115TMC2    C7 1796   3.497   4.169   0.014 -0.3723 -0.1787 -0.4572
  115TMC2    C8 1797   3.821   3.855  17.636  0.0388 -0.4992  0.6681
  115TMC2    O1 1798   3.409   4.201   0.094  0.5478 -0.9067 -0.2065
  115TMC2    O2 1799   3.896   3.952  17.637  0.3412  0.0444  0.1173
  115TMC2    O5 1800   3.823   3.754  17.543 -0.6831  0.0952  0.6066
  115TMC2    H5 1801   3.764   3.677  17.558 -0.2178 -0.0584  1.6507
  116MPD2     C 1802   2.899   3.681  17.439 -0.2111  0.5735 -0.2715
  116MPD2    C1 1803   2.980   3.578  17.473  0.2317 -0.3699  0.8611
  116MPD2    C2 1804   3.102   3.612  17.541  0.7000  0.1509 -0.2028
  116MPD2    C3 1805   3.121   3.738  17.586 -0.1279 -0.1834  0.6091
  116MPD2    C4 1806   3.033   3.842  17.551 -0.1832  0.1563 -0.0667
  116MPD2    C5 1807   2.928   3.809  17.470  0.4627 -0.4047 -0.5842
  116MPD2     H 1808   3.187   3.544  17.549  0.0592 -0.7551 -1.1055
  116MPD2    H1 1809   3.046   3.946  17.578  1.1305  0.0968 -0.5031
  116MPD2    H2 1810   2.805   3.665  17.387  1.2520 -2.0635 -2.1208
  116MPD2    H3 1811   2.853   3.881  17.437  1.3883  0.3961 -0.9209
  116MPD2     N 1812   3.247   3.780  17.646  0.0926  0.3390  0.5189
  116MPD2    H5 1813   3.238   3.876  17.679 -1.4365  0.0973  0.8156
  116MPD2    N1 1814   2.944   3.446  17.433  0.1668 -0.5451 -0.0076
  116MPD2    H7 1815   2.864   3.434  17.372 -0.6961  0.4365  0.9161
  117TMC2    C1 1816   1.473   0.000  14.073  0.7040 -0.6572 -1.0162
  117TMC2    C2 1817   1.601   4.685  14.053 -0.2238  0.7392 -0.0199
  117TMC2    C3 1818   1.703   0.038  14.054 -0.3815  0.5826  0.0832
  117TMC2    C4 1819   1.446   0.132  14.086  0.3211 -0.0234  0.2832
  117TMC2    C5 1820   1.550   0.216  14.086 -0.5983  0.3040 -0.7022
  117TMC2    C6 1821   1.678   0.171  14.073  0.1586 -0.0019 -0.1484
  117TMC2     C 1822   1.368   4.640  14.055  0.2001  0.6494 -1.0971
  117TMC2     O 1823   1.372   4.531  14.112  0.1614 -0.1797 -0.0062
  117TMC2     H 1824   1.614   4.579  14.032 -0.1904  0.9156 -0.8885
  117TMC2    H1 1825   1.354   0.172  14.128  1.4721  1.6629  1.2211
  117TMC2    H2 1826   1.765   0.236  14.070  0.5820 -0.5295  0.5628
  117TMC2    C7 1827   1.520   0.352  14.058 -0.1692  0.5698 -0.3566
  117TMC2    C8 1828   1.830   4.707  14.082 -0.2203 -0.5137  0.0844
  117TMC2    O1 1829   1.591   0.441  14.100 -0.3357  0.1025 -0.0145
  117TMC2    O2 1830   1.859   4.593  14.049 -0.1125 -0.6163  0.1973
  117TMC2    O5 1831   1.893   0.057  14.173 -0.0806  0.3567 -1.0365
  117TMC2    H5 1832   1.844   0.141  14.186  0.0248  0.3952 -0.8912
  118MPD2     C 1833   1.213   0.446  13.859  0.1511 -1.2533  0.0471
  118MPD2    C1 1834   1.335   0.471  13.926  0.2402 -0.0369 -0.2629
  118MPD2    C2 1835   1.393   0.599  13.924  0.3823  0.7064 -0.3609
  118MPD2    C3 1836   1.326   0.704  13.867 -0.2689 -0.2344 -0.6266
  118MPD2    C4 1837   1.196   0.683  13.829 -0.3386 -0.1466 -0.8177
  118MPD2    C5 1838   1.142   0.557  13.810 -0.6031  1.0959  0.0223
  118MPD2     H 1839   1.496   0.614  13.955 -0.2908  1.3270  1.5622
  118MPD2    H1 1840   1.132   0.768  13.808  1.8827  1.6687 -0.2847
  118MPD2    H2 1841   1.175   0.345  13.849  1.3507 -1.8525  1.5459
  118MPD2    H3 1842   1.041   0.545  13.773  0.1749 -0.6303 -1.5685
  118MPD2     N 1843   1.370   0.843  13.870 -0.3663 -0.7047  0.4832
  118MPD2    H5 1844   1.310   0.913  13.828  0.0030  0.2316  1.5387
  118MPD2    N1 1845   1.407   0.357  13.978 -0.5218 -0.6102 -0.1963
  118MPD2    H7 1846   1.363   0.269  13.952  0.8159 -0.9029 -1.4673
  119TMC2    C1 1847   4.062   0.697  13.219 -0.0044 -0.1012 -0.4713
  119TMC2    C2 1848   4.065   0.762  13.104  0.1949 -0.3539  0.2436
  119TMC2    C3 1849   3.940   0.787  13.043  0.0467  0.9802 -0.3765
  119TMC2    C4 1850   3.945   0.668  13.288  0.4099  0.9607  0.6660
  119TMC2    C5 1851   3.829   0.720  13.239 -0.0933  1.1681  0.1662
  119TMC2    C6 1852   3.822   0.771  13.116  0.2036  0.4377 -0.3991
  119TMC2     C 1853   4.168   0.734  13.306 -0.6340  0.5858 -0.3751
  119TMC2     O 1854   4.137   0.782  13.417 -0.3896  0.4496  0.0325
  119TMC2     H 1855   4.160   0.796  13.066  0.0956 -0.3325  0.0197
  119TMC2    H1 1856   3.951   0.618  13.384 -1.5277  0.4389  0.5174
  119TMC2    H2 1857   3.733   0.820  13.080  1.1386  2.3815 -0.0734
  119TMC2    C7 1858   3.702   0.712  13.315 -0.0909 -0.1599 -0.2322
  119TMC2    C8 1859   3.944   0.898  12.949 -0.2405 -0.5363 -0.1382
  119TMC2    O1 1860   3.599   0.714  13.249  0.0630 -0.0501  0.8357
  119TMC2    O2 1861   3.875   0.993  12.971  0.3194  1.2313 -0.4737
  119TMC2    O5 1862   4.058   0.891  12.885 -0.2476  0.3004  0.0277
  119TMC2    H5 1863   4.085   0.797  12.877 -0.7841  0.0505  1.1960
  120MPD2     C 1864   4.596   0.583  13.531 -0.1007 -0.7249 -0.1078
  120MPD2    C1 1865   4.512   0.688  13.563 -0.3180  0.7095  0.4473
  120MPD2    C2 1866   4.419   0.721  13.467 -0.2377 -0.0350  0.2610
  120MPD2    C3 1867   4.405   0.655  13.347 -0.2156  0.3240 -0.4532
  120MPD2    C4 1868   4.501   0.557  13.311  0.7066  0.1148 -0.6709
  120MPD2    C5 1869   4.589   0.523  13.409  0.5989 -0.4297  0.5250
  120MPD2     H 1870   4.361   0.811  13.479  0.2895  0.8702 -3.7829
  120MPD2    H1 1871   4.488   0.504  13.217  1.1089 -1.6236  0.2590
  120MPD2    H2 1872   4.674   0.553  13.600 -1.3339 -0.8847  1.2220
  120MPD2    H3 1873   4.654   0.439  13.387  0.0917 -0.2038 -1.7659
  120MPD2     N 1874   4.292   0.680  13.261  0.5239  0.0179 -0.2245
  120MPD2    H5 1875   4.285   0.622  13.179  1.1747 -1.0831  0.5058
  120MPD2    N1 1876   4.497   0.734  13.696  0.0973  0.0020  0.6529
  120MPD2    H7 1877   4.546   0.676  13.763 -1.4498 -0.5660  1.2813
  121TMC2    C1 1878   1.395   2.795  14.069  0.8846 -0.2972  0.2332
  121TMC2    C2 1879   1.473   2.783  14.180  0.2514 -0.3764 -1.0167
  121TMC2    C3 1880   1.438   2.688  14.265  0.8949  0.3176  0.1778
  121TMC2    C4 1881   1.283   2.723  14.032 -0.0470  0.0609  0.1997
  121TMC2    C5 1882   1.250   2.640  14.137  0.8445 -0.2333 -0.9071
  121TMC2    C6 1883   1.325   2.614  14.244  0.1077  0.1958 -0.0256
  121TMC2     C 1884   1.425   2.915  13.993  0.2692 -0.5392 -0.5692
  121TMC2     O 1885   1.497   2.996  14.050  0.1707 -0.0716 -0.3820
  121TMC2     H 1886   1.570   2.831  14.183  0.8019 -1.5553  0.0752
  121TMC2    H1 1887   1.221   2.737  13.945 -1.1945  0.3427  1.0611
  121TMC2    H2 1888   1.290   2.539  14.315  0.6335 -0.0643 -0.0452
  121TMC2    C7 1889   1.132   2.547  14.125 -0.1446 -1.1159  1.4578
  121TMC2    C8 1890   1.512   2.677  14.392 -0.0003 -0.0396  0.1080
  121TMC2    O1 1891   1.114   2.466  14.214 -0.1984 -0.2977  0.3624
  121TMC2    O2 1892   1.455   2.666  14.502 -0.3894  0.1410 -0.6233
  121TMC2    O5 1893   1.642   2.708  14.380  0.8769  0.3791 -0.5573
  121TMC2    H5 1894   1.669   2.704  14.286 -0.2885  2.9715 -1.0094
  122MPD2     C 1895   1.465   3.139  13.800 -0.3678  0.9978  0.2609
  122MPD2    C1 1896   1.415   3.015  13.769 -1.1043  0.3389  0.5523
  122MPD2    C2 1897   1.396   2.986  13.639  0.0264 -0.6198  0.1510
  122MPD2    C3 1898   1.423   3.080  13.542 -0.0663  0.8245  0.1051
  122MPD2    C4 1899   1.464   3.203  13.573 -0.0573 -0.1698  0.2584
  122MPD2    C5 1900   1.492   3.235  13.705  0.3784  0.4846  0.6092
  122MPD2     H 1901   1.371   2.884  13.610  1.2448 -1.0777  0.6989
  122MPD2    H1 1902   1.510   3.267  13.499 -2.2455  1.3324  0.1797
  122MPD2    H2 1903   1.480   3.166  13.904 -1.8614 -1.4962  1.1241
  122MPD2    H3 1904   1.534   3.334  13.721  2.4018 -0.2922  0.2199
  122MPD2     N 1905   1.410   3.055  13.403  0.1160 -0.1873 -0.4092
  122MPD2    H5 1906   1.439   3.125  13.335  1.2428 -1.5306 -1.3211
  122MPD2    N1 1907   1.378   2.910  13.861 -0.0246  0.5020 -0.9421
  122MPD2    H7 1908   1.336   2.825  13.824  1.2911  0.2301 -1.8137
  123TMC2    C1 1909   4.457   0.976  11.158  0.5270 -0.6360 -0.1633
  123TMC2    C2 1910   4.526   1.069  11.232  0.0791 -0.5016  1.0779
  123TMC2    C3 1911   4.639   1.119  11.182 -0.0678  0.3657  0.4679
  123TMC2    C4 1912   4.511   0.934  11.040 -1.1054  0.4138 -0.0335
  123TMC2    C5 1913   4.620   0.990  10.986  0.0886 -0.2685  0.4755
  123TMC2    C6 1914   4.688   1.084  11.057  0.2252 -0.0635 -0.1333
  123TMC2     C 1915   4.319   0.945  11.192 -0.7929  0.2566  0.4265
  123TMC2     O 1916   4.274   0.969  11.305  0.0034  0.9091  0.4596
  123TMC2     H 1917   4.478   1.120  11.315 -0.0644  1.6941 -0.3825
  123TMC2    H1 1918   4.450   0.863  10.985 -0.0876  0.3727 -1.1014
  123TMC2    H2 1919   0.035   1.129  11.005  0.1601 -0.7870 -0.8605
  123TMC2    C7 1920   4.648   0.959  10.847  0.8290 -0.4825  0.0086
  123TMC2    C8 1921   4.734   1.174  11.276  1.1951  0.3319  0.3326
  123TMC2    O1 1922   4.600   0.854  10.805  0.5514  0.1652 -0.0353
  123TMC2    O2 1923   0.046   1.289  11.269  0.3233 -0.5272 -0.2130
  123TMC2    O5 1924   4.734   1.084  11.379 -0.3247  1.1417 -0.4142
  123TMC2    H5 1925   4.677   1.005  11.365  0.6804  0.3626 -0.0400
  124MPD2     C 1926   3.883   0.686  11.106  0.0237  0.3758  0.2567
  124MPD2    C1 1927   3.948   0.699  10.988  0.4552 -0.4370 -1.1676
  124MPD2    C2 1928   4.065   0.779  10.977 -0.2385  0.5138 -0.0290
  124MPD2    C3 1929   4.120   0.827  11.097 -0.4666 -0.0733  0.8585
  124MPD2    C4 1930   4.045   0.817  11.215 -0.3169 -0.0160  0.4128
  124MPD2    C5 1931   3.933   0.741  11.218  0.4747  0.2268 -0.4410
  124MPD2     H 1932   4.118   0.785  10.882 -0.5594 -0.3041 -0.2581
  124MPD2    H1 1933   4.077   0.864  11.307  1.9755 -0.2466 -0.2569
  124MPD2    H2 1934   3.791   0.630  11.114 -0.4453  0.5706 -4.3327
  124MPD2    H3 1935   3.882   0.718  11.311 -1.5264  0.3176 -1.5036
  124MPD2     N 1936   4.245   0.898  11.084  0.2027 -0.4914  0.5836
  124MPD2    H5 1937   4.278   0.917  10.990 -0.5579 -1.2939  0.1508
  124MPD2    N1 1938   3.892   0.641  10.871 -0.5590  0.0262  0.3087
  124MPD2    H7 1939   3.807   0.586  10.879 -1.2094  0.7575 -1.4770
  125TMC2    C1 1940   0.243   3.716   9.555 -0.6751  0.3990 -0.0623
  125TMC2    C2 1941   0.223   3.851   9.551 -0.8863 -0.9358 -0.0133
  125TMC2    C3 1942   0.170   3.898   9.439  0.4320 -0.2405  0.0119
  125TMC2    C4 1943   0.217   3.630   9.458  0.1783 -0.0118  0.3041
  125TMC2    C5 1944   0.154   3.681   9.350 -0.8013 -0.1785  0.7182
  125TMC2    C6 1945   0.129   3.816   9.339 -0.0824  0.7886  0.2189
  125TMC2     C 1946   0.323   3.672   9.669 -0.0163 -0.3640 -0.0007
  125TMC2     O 1947   0.357   3.756   9.750  0.0768 -0.3235 -0.3128
  125TMC2     H 1948   0.236   3.926   9.629  0.0836 -1.1857  0.0652
  125TMC2    H1 1949   0.216   3.523   9.475  1.0730 -0.1765 -0.7036
  125TMC2    H2 1950   0.051   3.845   9.270  3.1876 -0.4664 -4.0684
  125TMC2    C7 1951   0.107   3.595   9.244 -0.0828  0.3554  0.8334
  125TMC2    C8 1952   0.110   4.030   9.443  0.4533 -0.5021 -0.3379
  125TMC2    O1 1953   0.030   3.645   9.162 -0.0424 -0.5125 -0.3485
  125TMC2    O2 1954   0.051   4.078   9.539 -0.3639  0.0345 -0.2085
  125TMC2    O5 1955   0.101   4.073   9.318 -0.5295 -0.1067 -0.1530
  125TMC2    H5 1956   0.164   4.020   9.264 -2.1202 -3.3881  1.1576
  126MPD1     C 1957   0.414   3.347  10.056 -0.4212  0.5137  0.5668
  126MPD1    C1 1958   0.360   3.267   9.954  0.1694  0.7539 -0.0816
  126MPD1    C2 1959   0.336   3.337   9.832  0.0136  0.0355  0.3084
  126MPD1    C3 1960   0.371   3.471   9.811 -0.0366 -0.3226  0.2089
  126MPD1    C4 1961   0.443   3.534   9.912 -0.2421 -0.0381 -0.3570
  126MPD1    C5 1962   0.460   3.475  10.030  0.0272  0.3502  0.4750
  126MPD1     H 1963   0.281   3.295   9.749 -1.7454 -0.8923  1.9439
  126MPD1    H1 1964   0.475   3.637   9.904 -0.0713  0.0943  2.0547
  126MPD1    H2 1965   0.425   3.311  10.158 -0.4000  0.4907  0.5564
  126MPD1    H3 1966   0.495   3.535  10.114 -1.5364  3.6050 -1.2133
  126MPD1     N 1967   0.331   3.539   9.691  0.1549  0.5489 -0.2033
  126MPD1    H5 1968   0.306   3.474   9.617 -1.8701  0.3440  0.6759
  126MPD1    N1 1969   0.294   3.147   9.981 -0.1515 -0.1397  0.2198
  126MPD1    H6 1970   0.330   3.108  10.068 -0.2729 -2.9407 -0.9757
  126MPD1    H7 1971   0.194   3.164   9.990 -0.0148  0.0004  1.4059
  127TMC2    C1 1972   1.171   1.532   9.604 -0.0911 -0.9296 -0.0952
  127TMC2    C2 1973   1.270   1.472   9.679 -1.3205  0.1716  0.0925
  127TMC2    C3 1974   1.228   1.414   9.797 -0.0987  0.2798  0.2061
  127TMC2    C4 1975   1.043   1.529   9.648 -0.1385 -0.5045 -0.2886
  127TMC2    C5 1976   1.007   1.455   9.755  0.2224  0.6916 -0.0824
  127TMC2    C6 1977   1.103   1.401   9.840 -0.3114  0.9540  0.1976
  127TMC2     C 1978   1.216   1.625   9.504  0.0882  0.1955 -0.0245
  127TMC2     O 1979   1.333   1.658   9.512 -0.0665 -1.0148 -0.0768
  127TMC2     H 1980   1.371   1.465   9.643 -1.3264 -2.2795  0.5252
  127TMC2    H1 1981   0.964   1.576   9.591 -0.9490 -0.7976  0.5829
  127TMC2    H2 1982   1.080   1.360   9.937  0.4784  0.5984  0.2285
  127TMC2    C7 1983   0.875   1.396   9.741 -0.1434 -0.6157  0.4586
  127TMC2    C8 1984   1.340   1.370   9.873 -0.5270  0.0584  0.2165
  127TMC2    O1 1985   0.800   1.429   9.650  0.7936  0.5325  0.2233
  127TMC2    O2 1986   1.459   1.399   9.856  0.5096  0.2958 -0.3289
  127TMC2    O5 1987   1.298   1.280   9.958  0.7197  0.1339  0.1242
  127TMC2    H5 1988   1.203   1.268   9.978  0.6085 -1.6775 -1.4754
  128MPD2     C 1989   1.070   1.709   9.186 -0.2756 -0.3229 -0.5869
  128MPD2    C1 1990   1.152   1.718   9.293  0.2419 -0.8048 -0.5711
  128MPD2    C2 1991   1.261   1.806   9.283 -0.5405  0.4215  0.0698
  128MPD2    C3 1992   1.281   1.883   9.174 -0.7934 -0.1818  0.2488
  128MPD2    C4 1993   1.191   1.876   9.064  0.4728 -0.5346  0.4140
  128MPD2    C5 1994   1.088   1.791   9.076  0.2113  0.0266  0.0927
  128MPD2     H 1995   1.324   1.824   9.370  0.5162 -1.4732 -0.3047
  128MPD2    H1 1996   1.185   1.938   8.976 -0.1685  4.0920  3.6783
  128MPD2    H2 1997   0.980   1.650   9.199 -1.0270  0.9420 -0.0396
  128MPD2    H3 1998   1.011   1.772   9.002  1.6958  3.2419 -2.3031
  128MPD2     N 1999   1.393   1.968   9.183  0.7155  0.0334  0.0122
  128MPD2    H5 2000   1.449   1.958   9.266  0.1740  0.2674  0.4055
  128MPD2    N1 2001   1.122   1.638   9.405 -0.3469 -0.1493  0.1002
  128MPD2    H7 2002   1.043   1.574   9.401 -0.6197  0.1197  1.2996
  129TMC2    C1 2003   0.347   2.581   1.994  0.1712 -0.5977 -0.4362
  129TMC2    C2 2004   0.423   2.529   2.094  0.6769 -0.2651  0.7654
  129TMC2    C3 2005   0.363   2.421   2.149 -0.3302 -0.4955 -0.2048
  129TMC2    C4 2006   0.231   2.532   1.933  0.0457 -0.4567  0.5067
  129TMC2    C5 2007   0.193   2.411   1.980  1.0223  0.3463 -0.6841
  129TMC2    C6 2008   0.260   2.355   2.085  0.1618  0.2772  0.7427
  129TMC2     C 2009   0.420   2.679   1.911  1.1807  0.5361  0.0580
  129TMC2     O 2010   0.543   2.669   1.903  1.0036 -0.0855 -0.1283
  129TMC2     H 2011   0.522   2.565   2.118  1.0515 -0.9845  0.3003
  129TMC2    H1 2012   0.197   2.565   1.836 -0.4211  0.4523  0.9833
  129TMC2    H2 2013   0.230   2.260   2.126 -1.0322  1.1528  1.9036
  129TMC2    C7 2014   0.107   2.334   1.893 -0.1140  0.4183  0.2135
  129TMC2    C8 2015   0.432   2.360   2.260  0.1732  0.0705  0.1867
  129TMC2    O1 2016   0.070   2.382   1.787  0.1417  0.3599  0.1953
  129TMC2    O2 2017   0.552   2.348   2.262  0.1616 -0.4503  0.3128
  129TMC2    O5 2018   0.351   2.316   2.360 -0.2949  0.2677 -0.3310
  129TMC2    H5 2019   0.256   2.338   2.347 -0.5568  0.3139  1.5848
  130MPD2     C 2020   0.493   2.881   1.724  1.0198 -0.6725  0.0187
  130MPD2    C1 2021   0.366   2.877   1.770 -0.1224  0.5354 -0.8414
  130MPD2    C2 2022   0.267   2.964   1.725 -0.2881 -0.0798 -0.1372
  130MPD2    C3 2023   0.296   3.061   1.633 -0.3671  0.0860 -0.1538
  130MPD2    C4 2024   0.428   3.074   1.600 -0.3380 -0.3146 -0.1881
  130MPD2    C5 2025   0.523   2.982   1.641  0.2419  0.3923  0.3983
  130MPD2     H 2026   0.171   2.961   1.776  0.3696  0.2224  1.1358
  130MPD2    H1 2027   0.476   3.149   1.539  3.5639 -0.9704  2.0546
  130MPD2    H2 2028   0.570   2.807   1.745  2.4631  0.2202 -2.0452
  130MPD2    H3 2029   0.624   2.995   1.605  0.6220 -1.1171  0.8944
  130MPD2     N 2030   0.196   3.148   1.584 -0.5109  0.5525 -0.2076
  130MPD2    H5 2031   0.103   3.132   1.623 -0.4307 -0.0559 -0.2602
  130MPD2    N1 2032   0.332   2.773   1.859  0.7173 -0.2353  0.5938
  130MPD2    H7 2033   0.239   2.763   1.898  0.2770 -2.1342 -0.9781
  131TMC2    C1 2034   4.121   1.184   9.926 -0.0690 -0.5998  0.0586
  131TMC2    C2 2035   4.110   1.209   9.793 -0.3562  0.4678 -0.4633
  131TMC2    C3 2036   4.106   1.343   9.759  0.1473  0.2143  0.0326
  131TMC2    C4 2037   4.129   1.276  10.021  0.2584 -0.5093 -0.0004
  131TMC2    C5 2038   4.112   1.410   9.983 -0.6834  0.1907 -0.4304
  131TMC2    C6 2039   4.100   1.443   9.851  0.5640 -0.1585 -0.1393
  131TMC2     C 2040   4.109   1.051   9.982  0.0507  0.1414 -0.5330
  131TMC2     O 2041   4.140   1.034  10.100  0.4694  0.3140 -0.1257
  131TMC2     H 2042   4.094   1.131   9.720  2.2334 -0.6452  0.1303
  131TMC2    H1 2043   4.133   1.250  10.126  1.0303  2.1456  0.6200
  131TMC2    H2 2044   4.080   1.544   9.819 -1.4961 -0.7303 -0.6678
  131TMC2    C7 2045   4.110   1.514  10.080  0.3765  0.4281 -0.0262
  131TMC2    C8 2046   4.096   1.380   9.617 -0.2136  0.3490  0.6486
  131TMC2    O1 2047   4.065   1.485  10.191  0.2779  0.6439  0.5409
  131TMC2    O2 2048   4.121   1.494   9.583  0.2825 -0.6612  0.7379
  131TMC2    O5 2049   4.051   1.281   9.538 -0.2524  0.0926 -0.0821
  131TMC2    H5 2050   4.020   1.203   9.589 -1.1820  0.3475 -0.2689
  132MPD2     C 2051   3.953   0.751   9.832  0.0773 -0.0150  0.0244
  132MPD2    C1 2052   4.010   0.834   9.934  0.4398  0.3736  0.1891
  132MPD2    C2 2053   4.004   0.786  10.061  0.3131  1.5173 -0.6849
  132MPD2    C3 2054   3.945   0.662  10.098 -0.4765 -0.0096 -0.3472
  132MPD2    C4 2055   3.883   0.593   9.993  0.3201  0.9657 -0.0883
  132MPD2    C5 2056   3.893   0.633   9.860  0.4926  0.7376 -0.7671
  132MPD2     H 2057   4.034   0.848  10.145  1.2270 -2.3992  1.8508
  132MPD2    H1 2058   3.835   0.497  10.004  2.7341 -0.2314 -0.1908
  132MPD2    H2 2059   3.954   0.788   9.731 -0.0758 -2.0403 -0.7233
  132MPD2    H3 2060   3.833   0.579   9.788  0.6267 -0.5251  0.0564
  132MPD2     N 2061   3.942   0.621  10.236  0.3414 -0.0218  0.2677
  132MPD2    H5 2062   3.997   0.670  10.306  0.8101  1.5589 -1.2057
  132MPD2    N1 2063   4.041   0.963   9.900 -0.2766 -0.2919  1.0719
  132MPD2    H7 2064   4.022   0.984   9.802 -2.9409 -0.3178  1.5805
  133TMC2    C1 2065   4.590   3.073   9.247 -0.6307 -0.1920  0.2648
  133TMC2    C2 2066   4.678   2.974   9.236  0.1133  0.0527  0.5842
  133TMC2    C3 2067   0.049   2.980   9.314  0.1558 -0.3062 -0.1194
  133TMC2    C4 2068   4.609   3.178   9.331 -0.1604  0.3233 -0.3241
  133TMC2    C5 2069   4.721   3.176   9.413 -0.7176  0.2278  0.3627
  133TMC2    C6 2070   0.080   3.082   9.404  0.6951 -0.4560  0.5880
  133TMC2     C 2071   4.474   3.063   9.166  0.0797  0.3194 -0.4430
  133TMC2     O 2072   4.476   2.989   9.070  0.2738 -0.1488  0.0988
  133TMC2     H 2073   4.660   2.888   9.173  0.8272 -1.1803  2.0690
  133TMC2    H1 2074   4.536   3.257   9.343 -1.0829 -0.8327  1.6040
  133TMC2    H2 2075   0.175   3.087   9.456  0.5963 -1.0536  0.8322
  133TMC2    C7 2076   0.000   3.274   9.524 -0.2927 -0.0172  0.2990
  133TMC2    C8 2077   0.149   2.876   9.300  0.4593 -0.2496 -0.4260
  133TMC2    O1 2078   0.088   3.243   9.598  0.1211 -0.1014  0.0200
  133TMC2    O2 2079   0.177   2.817   9.198 -0.1917  0.0678 -0.5498
  133TMC2    O5 2080   0.189   2.838   9.420  0.0603  0.3304 -0.1041
  133TMC2    H5 2081   0.132   2.876   9.490 -1.5441  0.8421 -1.6844
  134MPD2     C 2082   4.147   3.208   9.249  0.7304  0.0822  0.1913
  134MPD2    C1 2083   4.233   3.121   9.177  0.0296 -0.0255  0.0314
  134MPD2    C2 2084   4.181   3.025   9.093  0.1705  0.3283  0.3650
  134MPD2    C3 2085   4.044   3.012   9.076  0.7417 -0.6681 -0.5195
  134MPD2    C4 2086   3.962   3.088   9.152  0.1971 -0.1190 -0.3526
  134MPD2    C5 2087   4.012   3.183   9.237  0.0466  0.1215 -0.0199
  134MPD2     H 2088   4.250   2.961   9.040 -1.0999 -0.7285 -0.0004
  134MPD2    H1 2089   3.855   3.084   9.142  0.3024 -1.0295 -1.1474
  134MPD2    H2 2090   4.187   3.280   9.320  1.6646  0.9051 -1.1764
  134MPD2    H3 2091   3.949   3.241   9.304  0.9843 -0.6965  1.5798
  134MPD2     N 2092   3.986   2.920   8.984  0.5385 -0.4601 -0.2080
  134MPD2    H5 2093   3.886   2.910   8.973  0.1535  1.4584  1.5359
  134MPD2    N1 2094   4.370   3.136   9.219  0.0116 -0.5714 -0.4513
  134MPD2    H7 2095   4.397   3.197   9.295 -0.4067  1.8227 -2.2014
  135TMC2    C1 2096   0.709   3.241   9.774  0.0897  0.4312 -0.1629
  135TMC2    C2 2097   0.759   3.249   9.903  0.0413  0.2529  0.5524
  135TMC2    C3 2098   0.713   3.160   9.997  0.3510  0.1040 -1.2307
  135TMC2    C4 2099   0.618   3.143   9.744 -0.4203 -0.1780 -0.5560
  135TMC2    C5 2100   0.581   3.047   9.844 -0.0811  0.1067 -0.1629
  135TMC2    C6 2101   0.633   3.056   9.966 -0.4420  0.8541 -0.3665
  135TMC2     C 2102   0.723   3.355   9.686 -0.4134  0.0899 -0.1935
  135TMC2     O 2103   0.785   3.455   9.728  0.5317  0.4844 -0.0754
  135TMC2     H 2104   0.807   3.342   9.933  2.4785 -0.2825 -1.6001
  135TMC2    H1 2105   0.582   3.136   9.642 -1.8303 -0.6227 -0.0179
  135TMC2    H2 2106   0.611   2.987  10.047 -1.8870  0.6518 -0.9358
  135TMC2    C7 2107   0.503   2.931   9.805 -0.5192  0.0800 -0.4155
  135TMC2    C8 2108   0.769   3.180  10.130  0.6887 -0.8241 -0.2534
  135TMC2    O1 2109   0.475   2.921   9.688  0.5283  0.3379  0.0171
  135TMC2    O2 2110   0.794   3.285  10.193 -0.4401  0.3252 -0.6064
  135TMC2    O5 2111   0.809   3.056  10.165 -0.0569 -0.3273  0.0555
  135TMC2    H5 2112   0.791   2.968  10.124 -2.6969 -0.6612  1.9434
  136MPD2     C 2113   0.622   3.568   9.522  0.6061 -0.2959  0.3600
  136MPD2    C1 2114   0.635   3.442   9.479 -0.5005  0.7469  0.7115
  136MPD2    C2 2115   0.606   3.412   9.346  0.6764  0.0512  0.4957
  136MPD2    C3 2116   0.557   3.511   9.263 -0.3352  0.5406  0.7530
  136MPD2    C4 2117   0.532   3.634   9.316  0.5992  0.0364 -0.5868
  136MPD2    C5 2118   0.569   3.662   9.440  0.1784  0.4203 -0.2713
  136MPD2     H 2119   0.620   3.311   9.308  1.0721  0.0045  0.7676
  136MPD2    H1 2120   0.503   3.719   9.256 -0.7984 -0.7735 -1.0609
  136MPD2    H2 2121   0.653   3.592   9.624  0.2051 -0.1734  0.4525
  136MPD2    H3 2122   0.556   3.761   9.480 -2.6662 -1.3247  3.1952
  136MPD2     N 2123   0.536   3.494   9.127 -0.1705  0.1686 -0.3354
  136MPD2    H5 2124   0.570   3.404   9.092 -2.5355 -0.9474  0.2302
  136MPD2    N1 2125   0.670   3.333   9.562  0.4059 -0.3582 -0.0688
  136MPD2    H7 2126   0.664   3.239   9.524 -0.6056 -0.3600  0.0782
  137TMC2    C1 2127   0.465   1.722   9.395  0.1975  0.0428 -0.6859
  137TMC2    C2 2128   0.545   1.659   9.302 -0.2513  0.3001  0.5395
  137TMC2    C3 2129   0.563   1.729   9.192 -0.1623  0.4334  0.4956
  137TMC2    C4 2130   0.432   1.856   9.384  0.0534  0.0116  0.7896
  137TMC2    C5 2131   0.464   1.925   9.269 -0.0154 -0.3326  0.2083
  137TMC2    C6 2132   0.530   1.856   9.171  0.0489 -0.3047  0.3177
  137TMC2     C 2133   0.389   1.654   9.491  0.4897  0.0015  0.9843
  137TMC2     O 2134   0.343   1.721   9.581  0.1936  0.6581 -0.1078
  137TMC2     H 2135   0.585   1.564   9.335 -0.6532  0.7951  2.5083
  137TMC2    H1 2136   0.365   1.889   9.464 -1.5784  1.4391 -1.1677
  137TMC2    H2 2137   0.569   1.907   9.083  0.0625  0.1308  0.5731
  137TMC2    C7 2138   0.365   2.018   9.222  0.0048 -0.5338 -0.0468
  137TMC2    C8 2139   0.687   1.689   9.127 -0.2673 -0.0771 -0.2817
  137TMC2    O1 2140   0.341   1.994   9.108  0.2911  0.5588  0.7967
  137TMC2    O2 2141   0.771   1.771   9.086 -0.4000  0.0055  0.1044
  137TMC2    O5 2142   0.647   1.580   9.056  0.0092  0.0142 -0.1489
  137TMC2    H5 2143   0.558   1.552   9.088 -0.1645 -0.6197 -1.2027
  138MPD2     C 2144   0.279   1.307   9.488  0.1103 -0.0516  0.2833
  138MPD2    C1 2145   0.309   1.427   9.545 -0.6682  0.2146  0.0133
  138MPD2    C2 2146   0.274   1.451   9.674  0.0077  0.2776 -0.5770
  138MPD2    C3 2147   0.197   1.357   9.744 -0.1487 -0.0419  0.1536
  138MPD2    C4 2148   0.164   1.234   9.685  0.1520  0.7642  0.6551
  138MPD2    C5 2149   0.199   1.216   9.554  0.9390  0.9045  0.1478
  138MPD2     H 2150   0.299   1.543   9.725  2.4962  0.9343 -2.9632
  138MPD2    H1 2151   0.116   1.163   9.751  1.6951 -1.3121 -0.4690
  138MPD2    H2 2152   0.307   1.284   9.386  0.8568 -0.7345  0.6462
  138MPD2    H3 2153   0.168   1.122   9.510 -0.2058  1.8295 -1.0051
  138MPD2     N 2154   0.177   1.385   9.881  0.2084 -0.3994 -0.3641
  138MPD2    H5 2155   0.218   1.472   9.915 -0.1002 -0.8271  1.0818
  138MPD2    N1 2156   0.383   1.518   9.468  0.3426 -0.7691  0.2424
  138MPD2    H7 2157   0.427   1.491   9.381 -2.1819 -0.0110 -1.2596
  139TMC2    C1 2158   0.297   0.540  13.306 -0.3965  0.4742  0.7589
  139TMC2    C2 2159   0.241   0.414  13.281  0.1421  0.4063  0.3576
  139TMC2    C3 2160   0.128   0.409  13.206 -0.6739  0.2680  0.1178
  139TMC2    C4 2161   0.256   0.647  13.243 -0.2690 -0.4629  0.4879
  139TMC2    C5 2162   0.135   0.646  13.168 -0.6752 -0.8306  0.9617
  139TMC2    C6 2163   0.068   0.525  13.151 -0.0507  0.2585  0.2672
  139TMC2     C 2164   0.420   0.555  13.379  0.1596 -0.0069  0.4384
  139TMC2     O 2165   0.491   0.454  13.391  0.2506  0.0608 -0.2160
  139TMC2     H 2166   0.291   0.335  13.336  0.8970 -0.2802 -1.3276
  139TMC2    H1 2167   0.312   0.739  13.255  0.4935 -0.7904 -0.6080
  139TMC2    H2 2168   4.703   0.530  13.112 -0.7577 -1.5171  1.8704
  139TMC2    C7 2169   0.053   0.769  13.173 -0.2956 -0.7574 -0.1481
  139TMC2    C8 2170   0.051   0.286  13.206 -0.0492 -0.1891 -0.2657
  139TMC2    O1 2171   0.092   0.850  13.253  0.4859  0.0647  0.1024
  139TMC2    O2 2172   4.667   0.293  13.193  0.0492 -0.1723 -0.1702
  139TMC2    O5 2173   0.121   0.194  13.140  0.4033 -0.3845  0.2003
  139TMC2    H5 2174   0.215   0.219  13.139 -0.0764  1.6047  2.9590
  140MPD2     C 2175   0.516   0.847  13.581 -0.8726 -0.0691  0.4633
  140MPD2    C1 2176   0.539   0.731  13.511 -0.0566  0.3683 -0.8335
  140MPD2    C2 2177   0.665   0.675  13.491  0.9006 -0.3935 -0.1061
  140MPD2    C3 2178   0.768   0.739  13.564  0.3496  0.3260 -0.9883
  140MPD2    C4 2179   0.746   0.855  13.633  0.3450 -0.5520 -0.1541
  140MPD2    C5 2180   0.622   0.905  13.646 -0.1457  0.0415  0.1595
  140MPD2     H 2181   0.684   0.584  13.434 -2.3328 -1.6675  0.7900
  140MPD2    H1 2182   0.830   0.900  13.685  1.2161 -0.5999 -1.5229
  140MPD2    H2 2183   0.416   0.889  13.591 -0.7854 -0.4162  2.8505
  140MPD2    H3 2184   0.601   0.999  13.695 -0.6239 -0.2709  0.5478
  140MPD2     N 2185   0.902   0.692  13.549 -0.5667 -0.8229  0.1248
  140MPD2    H5 2186   0.978   0.755  13.570  0.0581 -0.3775 -3.5642
  140MPD2    N1 2187   0.424   0.675  13.445  0.3882  0.2290  0.4342
  140MPD2    H7 2188   0.348   0.742  13.447  1.3852  1.3942 -0.5594
  141TMC2    C1 2189   1.457   2.212  14.567  0.2977  0.4451 -0.0346
  141TMC2    C2 2190   1.433   2.093  14.637 -1.1072 -0.0526 -0.2611
  141TMC2    C3 2191   1.503   2.079  14.754 -0.2537  0.2479  0.5077
  141TMC2    C4 2192   1.522   2.318  14.627 -0.2277 -0.2844 -0.3595
  141TMC2    C5 2193   1.575   2.296  14.752 -0.4481  0.1743 -0.1374
  141TMC2    C6 2194   1.578   2.177  14.812  0.4811  0.6750  0.0205
  141TMC2     C 2195   1.397   2.235  14.441  0.1067  0.0678  0.2823
  141TMC2     O 2196   1.435   2.329  14.373  0.1681 -0.1575 -0.3361
  141TMC2     H 2197   1.378   2.013  14.590 -3.4352  1.5458 -0.2601
  141TMC2    H1 2198   1.542   2.413  14.579 -0.8294 -0.1638 -0.3728
  141TMC2    H2 2199   1.611   2.163  14.914 -1.7390  1.4709  0.8582
  141TMC2    C7 2200   1.669   2.399  14.800 -0.1834  0.3930  0.0704
  141TMC2    C8 2201   1.463   1.986  14.852 -0.0946  0.5555 -0.0591
  141TMC2    O1 2202   1.644   2.515  14.768 -0.2011 -0.5122 -0.0840
  141TMC2    O2 2203   1.540   1.965  14.945  0.0703  0.7871 -0.3546
  141TMC2    O5 2204   1.326   2.015  14.870 -0.5802 -0.2308 -0.8886
  141TMC2    H5 2205   1.279   2.037  14.787  1.1292  0.3566 -1.7103
  142TMC2    C1 2206   4.349   0.554  10.205 -0.2286  0.3535 -0.9413
  142TMC2    C2 2207   4.327   0.607  10.080 -0.4872  0.1778  0.2411
  142TMC2    C3 2208   4.405   0.715  10.051 -0.3095  0.1842 -0.5555
  142TMC2    C4 2209   4.447   0.585  10.296  0.2126 -0.0666 -0.9992
  142TMC2    C5 2210   4.527   0.690  10.259  0.5007 -0.0259 -0.0961
  142TMC2    C6 2211   4.505   0.757  10.139 -0.4158  0.2613 -0.0796
  142TMC2     C 2212   4.256   0.456  10.255  0.1271 -0.1428 -0.5364
  142TMC2     O 2213   4.213   0.367  10.184 -0.1352  0.0335 -0.2486
  142TMC2     H 2214   4.245   0.582  10.014 -1.1215 -3.3272  2.3946
  142TMC2    H1 2215   4.467   0.530  10.388  3.0925 -0.2441 -1.7128
  142TMC2    H2 2216   4.560   0.838  10.092  1.1667 -0.7011  0.1049
  142TMC2    C7 2217   4.612   0.754  10.367  0.2882 -1.5062  0.1285
  142TMC2    C8 2218   4.404   0.777   9.918 -0.5634 -0.2320 -0.7900
  142TMC2    O1 2219   4.616   0.695  10.473  0.1784  0.3604 -0.4153
  142TMC2    O2 2220   4.439   0.889   9.886 -0.6207 -0.2743 -0.7959
  142TMC2    O5 2221   4.369   0.672   9.838  0.0243 -0.6273 -0.2709
  142TMC2    H5 2222   4.383   0.584   9.879 -1.3038 -0.7890 -0.1756
  143MPD2     C 2223   4.111   0.221  10.684 -0.5180  0.1014  0.8231
  143MPD2    C1 2224   4.098   0.179  10.552 -0.2703 -0.2236 -0.6232
  143MPD2    C2 2225   4.128   0.265  10.448  0.0327  0.4945  0.0009
  143MPD2    C3 2226   4.179   0.389  10.482 -0.0461  0.2424 -0.0164
  143MPD2    C4 2227   4.187   0.427  10.610 -0.5329  0.1424 -0.2355
  143MPD2    C5 2228   4.145   0.346  10.712 -0.7582 -0.2948 -0.3587
  143MPD2     H 2229   4.122   0.226  10.347  1.2748  2.0002 -0.6556
  143MPD2    H1 2230   4.226   0.522  10.644  0.8492  0.3130 -2.3025
  143MPD2    H2 2231   4.086   0.157  10.768 -1.4213 -0.9043 -0.2135
  143MPD2    H3 2232   4.155   0.371  10.817 -0.9647  0.9358 -0.6360
  143MPD2     N 2233   4.245   0.471  10.389  0.4145  0.2900 -0.2848
  143MPD2    H5 2234   4.289   0.556  10.423  0.3945  0.3070 -0.3004
  143MPD2    N1 2235   4.058   0.045  10.533  0.0916 -1.1852 -0.2087
  143MPD2    H7 2236   4.066   4.727  10.619 -0.9961 -0.2598  0.4821
  144TMC2    C1 2237   2.526   4.665   0.714 -0.5219 -0.2056 -0.7768
  144TMC2    C2 2238   2.554   4.560   0.638  0.2588  0.6686 -0.4265
  144TMC2    C3 2239   2.680   4.544   0.585  0.0340  0.3347 -0.1898
  144TMC2    C4 2240   2.631   0.013   0.755 -0.1221 -0.6503  0.0174
  144TMC2    C5 2241   2.753   4.727   0.706 -0.7645 -0.5416 -0.0695
  144TMC2    C6 2242   2.784   4.624   0.622 -0.5001  0.0076 -0.0690
  144TMC2     C 2243   2.394   4.679   0.777  0.5336 -0.2688 -0.1896
  144TMC2     O 2244   2.319   4.584   0.757  0.2960  0.2101 -0.4218
  144TMC2     H 2245   2.468   4.502   0.607 -1.4053  2.2661  1.2064
  144TMC2    H1 2246   2.613   0.096   0.821  2.2145  0.2549 -0.4820
  144TMC2    H2 2247   2.884   4.605   0.583 -0.8366  0.0868 -0.9821
  144TMC2    C7 2248   2.857   0.096   0.722 -0.8925  0.1478 -0.3737
  144TMC2    C8 2249   2.689   4.449   0.483  0.1069 -0.4641  0.1176
  144TMC2    O1 2250   2.966   0.061   0.676  0.1209  0.3622 -0.6119
  144TMC2    O2 2251   2.611   4.353   0.483 -0.4131 -0.2861  0.2644
  144TMC2    O5 2252   2.791   4.470   0.396 -0.4511  0.2651  0.5768
  144TMC2    H5 2253   2.831   4.560   0.399 -2.2728  1.0500  1.3425
  145MPD2     C 2254   1.976   0.235   0.853 -0.5878  0.9438 -0.7391
  145MPD2    C1 2255   1.980   0.109   0.800  0.8140  0.0687 -0.1712
  145MPD2    C2 2256   2.106   0.049   0.796 -0.5102  0.3833 -0.0333
  145MPD2    C3 2257   2.228   0.116   0.832  0.7431 -0.3455 -1.0630
  145MPD2    C4 2258   2.215   0.250   0.871 -0.3764 -0.7108  0.4612
  145MPD2    C5 2259   2.087   0.307   0.883 -0.5220 -0.7588  0.6185
  145MPD2     H 2260   2.112   4.686   0.752  0.8076 -0.2099  1.4699
  145MPD2    H1 2261   2.300   0.309   0.902 -0.8191  0.1914 -0.0296
  145MPD2    H2 2262   1.886   0.289   0.877 -0.9670  0.2469 -0.6022
  145MPD2    H3 2263   2.078   0.404   0.930  1.6045 -0.0422 -0.4238
  145MPD2     N 2264   2.364   0.074   0.812  0.0565 -0.2555  0.2078
  145MPD2    H5 2265   2.438   0.143   0.813  0.1600 -0.3106 -3.6996
  145MPD2    N1 2266   1.863   0.054   0.745 -0.1736 -0.2319  0.0246
  145MPD2    H7 2267   1.775   0.103   0.755  0.3354  0.2845  2.0504
  146TMC2    C1 2268   2.872   2.948  12.575  0.6143 -0.1006  0.0188
  146TMC2    C2 2269   2.742   2.975  12.555 -0.2681 -0.3627 -0.0651
  146TMC2    C3 2270   2.677   2.931  12.446  0.0740 -0.4653  0.2574
  146TMC2    C4 2271   2.953   2.894  12.477  0.1398 -0.5270  0.0450
  146TMC2    C5 2272   2.877   2.857  12.372 -0.3665 -0.6198 -0.2942
  146TMC2    C6 2273   2.744   2.869  12.351  0.4134  0.5596 -0.1760
  146TMC2     C 2274   2.936   2.997  12.690  0.3541 -0.8414 -0.7709
  146TMC2     O 2275   2.873   3.065  12.775  0.0543  0.3668  0.2899
  146TMC2     H 2276   2.699   3.054  12.615 -1.7799 -0.2238 -1.3313
  146TMC2    H1 2277   3.061   2.905  12.477  0.1930 -1.0855  0.3649
  146TMC2    H2 2278   2.689   2.837  12.264  0.6304 -1.5292  0.4642
  146TMC2    C7 2279   2.948   2.801  12.259 -0.2458 -0.6128  0.3801
  146TMC2    C8 2280   2.556   2.995  12.398 -0.0347 -0.6850 -0.7610
  146TMC2    O1 2281   2.902   2.816  12.147 -0.1772  0.0324 -0.5422
  146TMC2    O2 2282   2.552   3.031  12.278  0.2871  0.2865 -0.3195
  146TMC2    O5 2283   2.458   2.940  12.470  0.3323 -0.3169 -0.5257
  146TMC2    H5 2284   2.485   2.917  12.562  2.1314 -0.0102 -0.9746
  147MPD2     C 2285   3.393   2.681  12.032 -0.7745 -0.8211 -0.7052
  147MPD2    C1 2286   3.401   2.649  12.166  0.2967 -0.0629 -0.0504
  147MPD2    C2 2287   3.293   2.656  12.248 -0.1708 -0.4031  0.6221
  147MPD2    C3 2288   3.174   2.713  12.200  0.4571 -0.5339 -0.5139
  147MPD2    C4 2289   3.166   2.755  12.069 -0.1110  0.4573 -0.0896
  147MPD2    C5 2290   3.270   2.737  11.986 -0.7241 -0.2520 -0.2205
  147MPD2     H 2291   3.293   2.624  12.352 -1.1899 -0.3387  0.6420
  147MPD2    H1 2292   3.084   2.809  12.024 -0.6173  0.8067  1.2744
  147MPD2    H2 2293   3.481   2.676  11.969 -0.6693  0.6393 -0.6730
  147MPD2    H3 2294   3.263   2.780  11.887 -1.1388 -3.2937 -1.4846
  147MPD2     N 2295   3.069   2.743  12.298 -0.2217  0.5984  0.0652
  147MPD2    H5 2296   3.085   2.717  12.395  0.2481  0.3435 -0.0808
  147MPD2    N1 2297   3.519   2.589  12.215  0.3146  0.0687 -0.1558
  147MPD2    H7 2298   3.603   2.590  12.159 -0.9395  0.1398 -2.0237
  148TMC2    C1 2299   3.813   1.884  10.664  0.0037 -0.0504 -0.2307
  148TMC2    C2 2300   3.822   1.948  10.788  0.3407  0.2104 -0.0406
  148TMC2    C3 2301   3.870   1.875  10.893  0.0356  0.3999  0.1539
  148TMC2    C4 2302   3.873   1.761  10.646  0.2122  0.2141  0.4816
  148TMC2    C5 2303   3.940   1.702  10.749 -0.3957  0.1201  0.1145
  148TMC2    C6 2304   3.927   1.752  10.875 -0.0817  0.1903  0.5544
  148TMC2     C 2305   3.759   1.952  10.549  0.8544  0.8276 -0.3453
  148TMC2     O 2306   3.739   2.072  10.554  0.1177  0.0728 -0.3777
  148TMC2     H 2307   3.775   2.045  10.789 -0.5186 -0.2054  0.5484
  148TMC2    H1 2308   3.875   1.712  10.549 -0.6227 -2.8602  2.0139
  148TMC2    H2 2309   3.986   1.710  10.955  0.7994  0.0732 -0.1593
  148TMC2    C7 2310   3.976   1.564  10.721  0.3425 -0.1142 -0.6642
  148TMC2    C8 2311   3.887   1.927  11.027  0.8633 -0.0264  0.1073
  148TMC2    O1 2312   3.988   1.541  10.601 -0.4142 -0.1088  0.4301
  148TMC2    O2 2313   3.945   1.870  11.120  0.2795 -0.5623 -0.0210
  148TMC2    O5 2314   3.769   1.987  11.044 -0.4935  0.7266 -0.0872
  148TMC2    H5 2315   3.760   2.041  10.963 -2.8831  1.1500  0.4729
  149MPD2     C 2316   3.752   2.016  10.254 -0.4568  0.0683  0.1199
  149MPD2    C1 2317   3.708   1.895  10.310 -0.4561  0.1552 -0.4414
  149MPD2    C2 2318   3.643   1.799  10.231 -0.6374 -0.3079  0.2629
  149MPD2    C3 2319   3.618   1.830  10.094  0.0346  0.6365  0.4401
  149MPD2    C4 2320   3.666   1.950  10.044  0.3889 -0.7717  0.5407
  149MPD2    C5 2321   3.736   2.041  10.121  0.0983 -0.7289 -1.1267
  149MPD2     H 2322   3.617   1.704  10.276  1.8397 -0.0007  2.3285
  149MPD2    H1 2323   3.663   1.972   9.938  0.1011  0.1909  0.7525
  149MPD2    H2 2324   3.813   2.083  10.312 -0.9261  0.7596 -0.1817
  149MPD2    H3 2325   3.782   2.125  10.072 -0.7199  1.0563  1.1438
  149MPD2     N 2326   3.555   1.741   9.996 -0.1611  0.3774 -0.0932
  149MPD2    H5 2327   3.550   1.760   9.897  2.1280 -2.1697 -0.7196
  149MPD2    N1 2328   3.741   1.866  10.446 -0.5232 -0.3566  0.0739
  149MPD2    H7 2329   3.734   1.769  10.474 -1.1809 -0.1137  0.7760
  150TMC2    C1 2330   0.889   1.074  11.962  0.1316  0.1586 -0.3305
  150TMC2    C2 2331   0.869   1.189  11.890 -0.5825  0.1514 -0.4423
  150TMC2    C3 2332   0.964   1.290  11.896  0.0287 -0.0431 -0.5124
  150TMC2    C4 2333   0.995   1.059  12.045  0.0009  0.3287 -0.0274
  150TMC2    C5 2334   1.089   1.162  12.057  0.0248  0.8674  0.0632
  150TMC2    C6 2335   1.068   1.280  11.985  0.4753 -0.2191  0.3202
  150TMC2     C 2336   0.788   0.966  11.965  0.2488  0.2731 -0.2721
  150TMC2     O 2337   0.767   0.916  12.075 -0.0108 -0.6073  0.2411
  150TMC2     H 2338   0.779   1.196  11.831  0.1654 -0.4473 -1.6533
  150TMC2    H1 2339   0.996   0.966  12.101 -0.2005 -0.4065 -1.2460
  150TMC2    H2 2340   1.146   1.355  11.991 -1.8867  2.2987 -0.7800
  150TMC2    C7 2341   1.236   1.146  12.074 -0.4967 -0.4229  1.0578
  150TMC2    C8 2342   0.950   1.421  11.837  0.0767  0.3773 -0.3809
  150TMC2    O1 2343   1.300   1.241  12.113 -0.4162  0.0859 -0.9825
  150TMC2    O2 2344   1.041   1.501  11.851  0.0232 -0.8134  0.1036
  150TMC2    O5 2345   0.820   1.460  11.849  0.4040 -0.2114 -0.0920
  150TMC2    H5 2346   0.758   1.387  11.868  2.0646 -1.0467  2.0308
  151MPD2     C 2347   0.456   0.682  11.717  0.0824  0.1629  0.7115
  151MPD2    C1 2348   0.537   0.747  11.626  0.0108 -0.1830 -0.0855
  151MPD2    C2 2349   0.633   0.829  11.673  0.0859 -0.1972  0.3368
  151MPD2    C3 2350   0.645   0.846  11.806 -0.6077  0.1262 -0.1564
  151MPD2    C4 2351   0.569   0.780  11.901 -0.2877 -0.1144  0.2062
  151MPD2    C5 2352   0.480   0.688  11.853  0.0967  0.3949  0.4248
  151MPD2     H 2353   0.698   0.885  11.607 -0.1935 -3.4628 -2.7378
  151MPD2    H1 2354   0.582   0.803  12.006 -0.8548  2.5189 -0.2965
  151MPD2    H2 2355   0.380   0.616  11.677  0.8091 -0.3018  0.0988
  151MPD2    H3 2356   0.416   0.640  11.926  1.2080  1.8560  2.3381
  151MPD2     N 2357   0.747   0.940  11.836  0.0560  0.4515 -0.3175
  151MPD2    H5 2358   0.786   0.988  11.756 -1.3301  1.7246 -0.2050
  151MPD2    N1 2359   0.519   0.721  11.484  0.1678 -0.0749  0.2260
  151MPD2    H7 2360   0.439   0.665  11.455  0.4226  0.7488 -2.0370
  152TMC2    C1 2361   0.734   0.471  12.482  0.2129  0.1559 -0.7766
  152TMC2    C2 2362   0.791   0.344  12.510 -0.2559 -0.0292 -0.6057
  152TMC2    C3 2363   0.921   0.346  12.534 -0.2761 -0.5615 -0.1147
  152TMC2    C4 2364   0.807   0.580  12.488  0.0180 -0.1671 -0.0266
  152TMC2    C5 2365   0.944   0.570  12.515  0.2991  0.6004 -0.0922
  152TMC2    C6 2366   1.002   0.453  12.543 -0.5117 -0.4602  0.4727
  152TMC2     C 2367   0.594   0.489  12.468 -0.2287 -0.4339 -0.2678
  152TMC2     O 2368   0.560   0.601  12.494  0.2468  0.0622 -0.3082
  152TMC2     H 2369   0.732   0.254  12.517 -0.7605  0.5588  2.7472
  152TMC2    H1 2370   0.768   0.681  12.484 -2.1240 -1.0211 -1.0600
  152TMC2    H2 2371   1.106   0.432  12.564 -0.0159  0.7404 -0.7871
  152TMC2    C7 2372   1.018   0.694  12.523 -0.1142 -0.0691 -0.0864
  152TMC2    C8 2373   0.966   0.216  12.581  0.1521  0.2033 -0.6392
  152TMC2    O1 2374   1.001   0.780  12.440  0.1434  0.2303  0.0311
  152TMC2    O2 2375   0.902   0.115  12.555 -0.0242  0.5057  0.2784
  152TMC2    O5 2376   1.030   0.232  12.699  0.1550  0.7669  0.6761
  152TMC2    H5 2377   1.076   0.313  12.730  0.6435  1.7541 -2.7160
  153MPD2     C 2378   0.316   0.248  12.448  0.4103 -0.7035 -0.1187
  153MPD2    C1 2379   0.380   0.372  12.449  0.9391  0.1574 -0.1277
  153MPD2    C2 2380   0.302   0.487  12.452 -0.1418  0.2430  0.5401
  153MPD2    C3 2381   0.172   0.486  12.461 -0.2239 -0.4002 -0.5775
  153MPD2    C4 2382   0.103   0.368  12.447  0.7275 -0.2572 -0.0942
  153MPD2    C5 2383   0.174   0.253  12.445 -0.5389 -0.3384 -0.3792
  153MPD2     H 2384   0.346   0.585  12.471  1.4046 -0.2610 -0.3847
  153MPD2    H1 2385   4.732   0.359  12.450  0.7609 -0.9164 -0.8502
  153MPD2    H2 2386   0.356   0.148  12.437  0.8389 -0.6404  0.8940
  153MPD2    H3 2387   0.128   0.155  12.432  3.6170 -2.6050  1.8353
  153MPD2     N 2388   0.106   0.602  12.477 -0.1768  0.3220 -0.1725
  153MPD2    H5 2389   0.171   0.679  12.492  1.9964 -1.5326 -0.0884
  153MPD2    N1 2390   0.519   0.376  12.452  0.0844 -0.0461  0.2132
  153MPD2    H7 2391   0.567   0.286  12.453  1.0298  0.4582 -0.1433
  154TMC2    C1 2392   2.449   1.576   0.159 -0.1847  0.2066  0.1406
  154TMC2    C2 2393   2.553   1.652   0.211 -0.0477 -0.0038 -1.0549
  154TMC2    C3 2394   2.682   1.604   0.182  0.0896 -0.2047 -0.6971
  154TMC2    C4 2395   2.470   1.472   0.072  0.3968  0.4014 -0.3164
  154TMC2    C5 2396   2.597   1.448   0.032  0.4300 -1.4552 -0.4230
  154TMC2    C6 2397   2.712   1.504   0.089 -0.2061  0.4289 -0.0185
  154TMC2     C 2398   2.312   1.642   0.172 -0.2652  0.0799  0.0428
  154TMC2     O 2399   2.312   1.760   0.202  0.7262  0.6466 -0.1758
  154TMC2     H 2400   2.521   1.721   0.288  0.0881 -0.3190 -0.7110
  154TMC2    H1 2401   2.385   1.432   0.017 -0.0062 -3.2082  2.9299
  154TMC2    H2 2402   2.813   1.481   0.055 -0.7895 -1.9529 -0.1197
  154TMC2    C7 2403   2.606   1.358  17.673  0.2466 -0.3027 -0.1057
  154TMC2    C8 2404   2.785   1.697   0.226 -0.2625 -0.7298  0.3545
  154TMC2    O1 2405   2.523   1.269  17.669 -0.0231  0.4747 -0.2260
  154TMC2    O2 2406   2.773   1.752   0.331  0.1077  0.1467  0.4555
  154TMC2    O5 2407   2.811   1.773   0.119 -0.2219  0.2199 -0.5995
  154TMC2    H5 2408   2.793   1.732   0.032 -0.5571  2.7127 -1.6966
  155MPD2     C 2409   1.971   1.529   0.067 -0.5584  0.4727 -0.0241
  155MPD2    C1 2410   2.065   1.602   0.134  0.0378 -0.0703  0.7859
  155MPD2    C2 2411   2.020   1.702   0.223  0.3638 -0.9249  0.2219
  155MPD2    C3 2412   1.882   1.731   0.228  1.2331  0.4565 -0.5622
  155MPD2    C4 2413   1.797   1.665   0.140 -0.2462  0.4155 -0.2016
  155MPD2    C5 2414   1.842   1.562   0.061  0.0734  0.1898 -0.4923
  155MPD2     H 2415   2.093   1.751   0.286 -0.8146 -0.9013  1.5846
  155MPD2    H1 2416   1.691   1.679   0.151 -0.2163  2.0410 -2.0534
  155MPD2    H2 2417   1.997   1.434   0.021 -2.4721 -0.5349  0.9504
  155MPD2    H3 2418   1.779   1.495   0.003 -1.5014  2.8460 -1.8957
  155MPD2     N 2419   1.838   1.823   0.331  0.0559  0.1653 -0.6032
  155MPD2    H5 2420   1.915   1.880   0.364  1.4050 -2.8815  1.4968
  155MPD2    N1 2421   2.206   1.565   0.121  0.2245 -0.3926 -0.4842
  155MPD2    H7 2422   2.216   1.469   0.089  0.0434 -0.5216 -0.1551
  156TMC2    C1 2423   1.572   2.854  11.864  0.0060  0.2000 -0.4115
  156TMC2    C2 2424   1.699   2.811  11.885 -0.5400  0.2734 -0.4030
  156TMC2    C3 2425   1.782   2.783  11.786  0.3160 -0.5344 -0.7869
  156TMC2    C4 2426   1.535   2.886  11.732 -0.4922  1.4915 -0.3707
  156TMC2    C5 2427   1.625   2.874  11.635  0.4100  0.0647  0.0351
  156TMC2    C6 2428   1.750   2.819  11.659 -0.2838  0.2411 -0.1860
  156TMC2     C 2429   1.473   2.858  11.976 -0.9079 -0.0389  0.6039
  156TMC2     O 2430   1.366   2.910  11.958  0.0394  0.0197  0.2047
  156TMC2     H 2431   1.739   2.785  11.982 -2.6103  0.6752  0.5800
  156TMC2    H1 2432   1.432   2.907  11.709 -1.2603 -1.3630  0.4686
  156TMC2    H2 2433   1.822   2.805  11.580 -0.5395  0.3423 -0.4394
  156TMC2    C7 2434   1.584   2.884  11.501 -0.2177  0.6786 -0.5572
  156TMC2    C8 2435   1.919   2.757  11.811 -0.0477 -0.1806 -0.0836
  156TMC2    O1 2436   1.645   2.814  11.420  0.0312  0.5412  0.3887
  156TMC2    O2 2437   1.981   2.800  11.903 -0.2182  0.3325 -0.5978
  156TMC2    O5 2438   1.946   2.643  11.744  0.3412 -0.1713  0.0025
  156TMC2    H5 2439   1.876   2.608  11.684  0.5218 -0.8509  0.1809
  157MPD2     C 2440   1.522   2.730  12.318 -0.4552  0.2791 -0.7145
  157MPD2    C1 2441   1.456   2.801  12.225 -0.8038  0.1485  0.9569
  157MPD2    C2 2442   1.335   2.864  12.255 -0.0589 -0.0157  0.2676
  157MPD2    C3 2443   1.288   2.866  12.388  0.0333  0.2520  0.1979
  157MPD2    C4 2444   1.359   2.805  12.482 -0.7785  0.4918  0.2221
  157MPD2    C5 2445   1.483   2.743  12.446 -0.8468 -0.9631 -0.1407
  157MPD2     H 2446   1.290   2.917  12.172  0.1396  1.6474  1.2220
  157MPD2    H1 2447   1.327   2.782  12.583 -1.4979  1.4239  0.1990
  157MPD2    H2 2448   1.618   2.691  12.288 -0.5832 -2.8632  2.9466
  157MPD2    H3 2449   1.535   2.702  12.532 -3.6184 -1.9953  1.0521
  157MPD2     N 2450   1.157   2.921  12.419  0.4678 -0.2683 -0.7526
  157MPD2    H5 2451   1.101   2.960  12.343  0.5264 -0.4625 -0.8958
  157MPD2    N1 2452   1.524   2.805  12.093 -0.1835 -0.0437 -0.2025
  157MPD2    H7 2453   1.606   2.748  12.074 -0.5135  0.0006 -1.7591
  158TMC2    C1 2454   0.421   2.116  12.933 -0.7965  0.7957 -0.2805
  158TMC2    C2 2455   0.437   2.200  12.822 -0.6001  0.2120  0.0708
  158TMC2    C3 2456   0.321   2.271  12.789  0.5707 -0.2598  0.6080
  158TMC2    C4 2457   0.302   2.111  12.999  0.5420 -0.2672  0.1155
  158TMC2    C5 2458   0.191   2.181  12.954 -0.1723 -0.0890  0.2392
  158TMC2    C6 2459   0.200   2.272  12.850 -0.6268  0.1234 -0.5439
  158TMC2     C 2460   0.540   2.035  12.975  0.2943  0.0057  0.2332
  158TMC2     O 2461   0.633   2.027  12.891  0.0366 -0.1228  0.5309
  158TMC2     H 2462   0.527   2.224  12.765  0.5654 -1.6292  1.1181
  158TMC2    H1 2463   0.295   2.030  13.070 -0.1605  0.4294  0.8411
  158TMC2    H2 2464   0.117   2.328  12.809  0.6596  1.4436 -1.3498
  158TMC2    C7 2465   0.053   2.128  12.974 -0.2290 -0.3159  0.3019
  158TMC2    C8 2466   0.320   2.346  12.669 -0.5855  0.1782  0.2887
  158TMC2    O1 2467   4.699   2.184  12.911 -0.1470  0.0203  0.0036
  158TMC2    O2 2468   0.406   2.424  12.630 -0.2621 -0.1744  0.3455
  158TMC2    O5 2469   0.243   2.285  12.584  0.1854  0.2301  0.1168
  158TMC2    H5 2470   0.185   2.217  12.625  0.1585 -0.1508 -0.5574
  159MPD2     C 2471   0.823   1.799  13.341 -0.7679  0.8593  0.5659
  159MPD2    C1 2472   0.700   1.827  13.395  0.0974  0.5038 -0.4486
  159MPD2    C2 2473   0.602   1.882  13.313 -0.1417 -0.3735 -0.2846
  159MPD2    C3 2474   0.635   1.914  13.182  0.1176  0.2414  0.2618
  159MPD2    C4 2475   0.758   1.890  13.130 -0.1102 -0.4442 -0.4932
  159MPD2    C5 2476   0.852   1.832  13.208  0.2047  0.2008 -0.5005
  159MPD2     H 2477   0.507   1.909  13.358  0.6046 -2.1450  2.3207
  159MPD2    H1 2478   0.792   1.918  13.031 -1.2958  0.5577 -0.6115
  159MPD2    H2 2479   0.907   1.765  13.400  0.2870  0.8466 -0.9240
  159MPD2    H3 2480   0.956   1.823  13.179  0.1699  0.3171 -0.6585
  159MPD2     N 2481   0.538   1.986  13.105  0.1738  0.1006 -0.7036
  159MPD2    H5 2482   0.449   2.001  13.152  0.6986 -0.6470  0.5405
  159MPD2    N1 2483   0.682   1.813  13.533 -0.8816 -0.3368 -0.3033
  159MPD2    H7 2484   0.771   1.813  13.582 -0.6776  0.0703 -0.6802
  160TMC2    C1 2485   0.703   0.552   1.468  0.4017  0.2514  0.0611
  160TMC2    C2 2486   0.662   0.461   1.556 -0.3971  1.1926  0.0625
  160TMC2    C3 2487   0.737   0.348   1.580  0.3239  0.6373 -0.0576
  160TMC2    C4 2488   0.824   0.539   1.409  0.2251 -0.7663 -0.3200
  160TMC2    C5 2489   0.903   0.423   1.441 -0.2894  0.3277 -0.0059
  160TMC2    C6 2490   0.849   0.323   1.513  0.3784 -0.0081 -0.0579
  160TMC2     C 2491   0.608   0.657   1.420 -0.5602  0.4333 -0.0517
  160TMC2     O 2492   0.488   0.636   1.425  0.2471 -0.3166 -0.0907
  160TMC2     H 2493   0.561   0.467   1.594  0.2254 -1.9866  2.2888
  160TMC2    H1 2494   0.857   0.616   1.340  2.2390 -1.6413 -0.3269
  160TMC2    H2 2495   0.909   0.232   1.521  0.2641  0.0813  1.9087
  160TMC2    C7 2496   1.018   0.401   1.367  0.7345 -0.0086 -0.4272
  160TMC2    C8 2497   0.652   0.233   1.616  0.6346  0.5347 -0.7135
  160TMC2    O1 2498   1.078   0.303   1.401  0.3634  0.1782 -0.3210
  160TMC2    O2 2499   0.538   0.226   1.582  0.6495 -0.3369 -0.4419
  160TMC2    O5 2500   0.743   0.130   1.612 -0.3122 -0.4605 -0.0010
  160TMC2    H5 2501   0.813   0.150   1.677 -0.0701 -0.6391 -0.2061
  161MPD2     C 2502   0.703   1.006   1.373 -0.4693 -0.2343 -0.0837
  161MPD2    C1 2503   0.616   0.900   1.366 -0.6856  0.0221  0.7153
  161MPD2    C2 2504   0.487   0.923   1.339  0.2555  0.2851 -0.3114
  161MPD2    C3 2505   0.438   1.055   1.325 -0.2363 -0.1324 -0.2899
  161MPD2    C4 2506   0.523   1.153   1.337 -0.2930  0.5926 -0.6374
  161MPD2    C5 2507   0.656   1.130   1.357 -0.4098  0.3596 -0.2733
  161MPD2     H 2508   0.418   0.843   1.314  2.1675 -0.5985 -2.7720
  161MPD2    H1 2509   0.491   1.256   1.324  0.0200  0.9599  1.5069
  161MPD2    H2 2510   0.805   0.983   1.401 -0.2088  1.8395  0.6705
  161MPD2    H3 2511   0.721   1.213   1.381 -0.9075  0.6944 -0.0875
  161MPD2     N 2512   0.301   1.089   1.305  0.6294  0.0913  0.8510
  161MPD2    H5 2513   0.272   1.186   1.304  1.3831  0.3118  0.2170
  161MPD2    N1 2514   0.673   0.774   1.390 -0.1402  0.6602 -0.0105
  161MPD2    H7 2515   0.774   0.770   1.396 -0.0757 -0.4725 -1.8941
  162TMC2    C1 2516   3.712   2.858   0.955 -1.3090 -0.2407  0.1962
  162TMC2    C2 2517   3.605   2.906   1.023  0.1597 -0.0067  0.6174
  162TMC2    C3 2518   3.627   2.968   1.139 -0.0001 -0.3339  0.1844
  162TMC2    C4 2519   3.832   2.846   1.022  0.6964 -0.4311 -0.1902
  162TMC2    C5 2520   3.848   2.911   1.138 -0.3873 -0.1860 -0.0375
  162TMC2    C6 2521   3.751   2.986   1.190  0.2493 -0.1973  0.2359
  162TMC2     C 2522   3.704   2.783   0.827  0.0895 -0.0828  0.1192
  162TMC2     O 2523   3.777   2.687   0.806  0.1063 -0.2824 -0.6373
  162TMC2     H 2524   3.509   2.889   0.977  0.3709  1.8734 -0.5151
  162TMC2    H1 2525   3.921   2.806   0.976  1.3515  0.6758  0.1222
  162TMC2    H2 2526   3.761   3.051   1.276  0.1452  0.5496 -0.3240
  162TMC2    C7 2527   3.978   2.910   1.210 -0.4953 -0.2008 -0.0121
  162TMC2    C8 2528   3.527   3.071   1.176  0.2890  0.2380  0.4239
  162TMC2    O1 2529   4.004   3.006   1.284 -0.0939 -0.0125 -0.4796
  162TMC2    O2 2530   3.548   3.172   1.247 -0.2943  0.1759 -0.1734
  162TMC2    O5 2531   3.409   3.031   1.130 -0.0421 -0.7702 -0.0620
  162TMC2    H5 2532   3.406   2.935   1.107  0.5389 -0.5842 -0.9092
  163MPD2     C 2533   3.458   2.733   0.378 -0.7123  0.5098  0.4182
  163MPD2    C1 2534   3.581   2.683   0.413 -0.7947 -0.4515 -0.2470
  163MPD2    C2 2535   3.627   2.701   0.540  0.1228 -0.7961  0.9136
  163MPD2    C3 2536   3.553   2.786   0.622 -0.2794  0.0754  0.0667
  163MPD2    C4 2537   3.430   2.834   0.585  0.3778  0.8802 -0.0738
  163MPD2    C5 2538   3.372   2.798   0.465 -0.0158 -0.7521  0.4793
  163MPD2     H 2539   3.718   2.650   0.568  1.4994  1.4263  0.4622
  163MPD2    H1 2540   3.360   2.872   0.659 -0.3400 -0.3279 -0.1379
  163MPD2    H2 2541   3.424   2.721   0.276 -0.7727 -1.8661  0.7153
  163MPD2    H3 2542   3.275   2.839   0.439 -0.4028 -1.2619  1.1189
  163MPD2     N 2543   3.594   2.827   0.752  0.5988 -0.8663 -0.1292
  163MPD2    H5 2544   3.534   2.895   0.796 -1.0769 -1.9344 -0.7788
  163MPD2    N1 2545   3.665   2.618   0.317  0.4779 -0.1260 -0.5035
  163MPD2    H7 2546   3.624   2.621   0.224 -1.0277 -0.0596  0.1523
  164TMC2    C1 2547   4.411   1.894  11.078  0.0506 -0.0788  0.0821
  164TMC2    C2 2548   4.535   1.913  11.025 -0.2504 -0.3592 -0.3763
  164TMC2    C3 2549   4.552   2.032  10.966  0.3926  0.9384  0.3498
  164TMC2    C4 2550   4.313   1.992  11.081 -0.2295  0.3282  1.1550
  164TMC2    C5 2551   4.346   2.114  11.021 -0.4485 -0.3449 -0.6087
  164TMC2    C6 2552   4.470   2.142  10.970  0.5937  0.7077 -0.4895
  164TMC2     C 2553   4.367   1.768  11.125  0.8902 -0.2387 -0.1368
  164TMC2     O 2554   4.309   1.763  11.235 -0.0983 -0.0210  0.6742
  164TMC2     H 2555   4.612   1.838  11.034 -0.6384 -0.8793 -1.3613
  164TMC2    H1 2556   4.219   1.976  11.132 -2.3459  0.3617 -2.7846
  164TMC2    H2 2557   4.506   2.237  10.934 -1.7633  1.2628 -1.4284
  164TMC2    C7 2558   4.239   2.169  10.956 -0.3815  0.7887 -0.7551
  164TMC2    C8 2559   4.673   2.053  10.898  0.1330 -0.1985  0.2317
  164TMC2    O1 2560   4.147   2.094  10.950 -0.5610  0.0431 -0.5921
  164TMC2    O2 2561   0.031   1.987  10.930  0.7099 -0.0902 -0.1650
  164TMC2    O5 2562   4.642   2.085  10.769  0.1651  0.5003 -1.2796
  164TMC2    H5 2563   4.547   2.092  10.742  0.0356  0.5201 -0.8203
  165TMC2    C1 2564   0.546   4.718   1.320  0.7949 -0.3537  0.6114
  165TMC2    C2 2565   0.618   4.624   1.382 -0.1736  0.0683 -0.0252
  165TMC2    C3 2566   0.750   4.624   1.362  0.0565  0.1906 -0.4247
  165TMC2    C4 2567   0.592   0.078   1.233 -0.5536 -0.2512  0.3125
  165TMC2    C5 2568   0.728   0.067   1.208 -0.2196  0.2240 -0.8438
  165TMC2    C6 2569   0.806   4.715   1.273  0.3081  0.0125  0.3377
  165TMC2     C 2570   0.403   4.713   1.329  0.0122 -0.1424 -0.5165
  165TMC2     O 2571   0.363   4.607   1.373 -0.2634  0.3290 -0.0357
  165TMC2     H 2572   0.576   4.546   1.445 -0.8789  2.4129  2.4103
  165TMC2    H1 2573   0.519   0.127   1.169  2.3361  0.8857 -2.1501
  165TMC2    H2 2574   0.902   4.690   1.230  0.2577  1.7721 -0.8298
  165TMC2    C7 2575   0.795   0.177   1.147  0.5498 -1.0546  0.3811
  165TMC2    C8 2576   0.820   4.512   1.423 -0.5225 -0.2524  0.2082
  165TMC2    O1 2577   0.905   0.147   1.103 -0.0155  0.3189  0.1588
  165TMC2    O2 2578   0.763   4.407   1.447  0.5171 -0.0044 -0.0746
  165TMC2    O5 2579   0.953   4.527   1.387  0.0769 -0.4235  0.6007
  165TMC2    H5 2580   0.985   4.617   1.407 -3.6786  0.9106  0.7254
  166MPD2     C 2581   4.672   0.168   1.366 -0.1532 -0.7508 -0.3624
  166MPD2    C1 2582   4.713   0.038   1.383 -0.3476 -0.4527 -0.0236
  166MPD2    C2 2583   0.109   0.008   1.357 -0.5421  0.5522  0.2364
  166MPD2    C3 2584   0.199   0.108   1.324  0.5261 -0.6169  0.2740
  166MPD2    C4 2585   0.154   0.233   1.307 -0.3381 -0.0612  0.1194
  166MPD2    C5 2586   0.025   0.261   1.338  0.8516 -0.1674 -0.1786
  166MPD2     H 2587   0.142   4.644   1.381 -0.6599  1.1715  3.0425
  166MPD2    H1 2588   0.223   0.316   1.291 -1.9339  1.1402 -0.4830
  166MPD2    H2 2589   4.568   0.195   1.384 -0.0242  0.0335 -0.8024
  166MPD2    H3 2590   4.719   0.359   1.325  0.4311 -0.8062 -3.7826
  166MPD2     N 2591   0.333   0.096   1.305  0.3271 -0.8411 -0.3521
  166MPD2    H5 2592   0.385   0.178   1.276  0.1914  0.3242  2.6253
  166MPD2    N1 2593   4.620   4.676   1.426 -0.1424 -0.0311  0.6434
  166MPD2    H7 2594   4.522   4.703   1.429  0.4159  1.9747  0.8086
  167TMC2    C1 2595   3.271   1.239  13.097 -0.5956 -0.1343 -0.2435
  167TMC2    C2 2596   3.189   1.153  13.162  0.0177  0.3052 -0.3812
  167TMC2    C3 2597   3.145   1.039  13.097  0.0628 -0.0297 -0.6793
  167TMC2    C4 2598   3.338   1.197  12.985  0.0270 -0.5427 -0.6042
  167TMC2    C5 2599   3.294   1.081  12.927  0.3500 -0.2655  0.1839
  167TMC2    C6 2600   3.195   1.000  12.979 -0.2528  0.3591 -0.3041
  167TMC2     C 2601   3.280   1.373  13.145  0.4391  0.1552  0.0508
  167TMC2     O 2602   3.243   1.402  13.258  0.0335 -0.0053 -0.3148
  167TMC2     H 2603   3.156   1.189  13.259  0.3360  0.3720 -0.2974
  167TMC2    H1 2604   3.402   1.258  12.922 -0.2507 -0.4720 -0.8175
  167TMC2    H2 2605   3.165   0.904  12.939 -3.0010  0.9550  0.2752
  167TMC2    C7 2606   3.292   1.086  12.784 -0.2373 -0.3161 -0.2129
  167TMC2    C8 2607   3.052   0.950  13.168  0.2428  0.1680 -0.3707
  167TMC2    O1 2608   3.179   1.083  12.739  0.2025  0.7536  0.3737
  167TMC2    O2 2609   3.057   0.826  13.145  0.6170 -0.2840  0.1755
  167TMC2    O5 2610   2.986   1.022  13.257  0.0182  0.5919 -0.7158
  167TMC2    H5 2611   3.005   1.118  13.249 -0.0751  0.6997  0.3371
  168MPD2     C 2612   3.415   1.632  13.165 -0.9010 -0.3888 -0.1153
  168MPD2    C1 2613   3.347   1.592  13.053  0.0408 -0.4514  0.0747
  168MPD2    C2 2614   3.335   1.682  12.945 -0.2899  0.3591  0.1539
  168MPD2    C3 2615   3.395   1.806  12.942 -0.1149  0.1561  0.4140
  168MPD2    C4 2616   3.480   1.833  13.052  0.3074  0.0668  0.2218
  168MPD2    C5 2617   3.476   1.755  13.164 -0.3484 -0.4327  0.7923
  168MPD2     H 2618   3.275   1.663  12.857  3.1149  0.9558 -2.3046
  168MPD2    H1 2619   3.533   1.927  13.059  2.3387 -1.0154 -0.3936
  168MPD2    H2 2620   3.405   1.576  13.257 -0.1168 -2.5613 -1.3465
  168MPD2    H3 2621   3.534   1.781  13.253  2.7883 -0.1923 -1.3022
  168MPD2     N 2622   3.384   1.906  12.838 -0.2773  0.0471  0.3030
  168MPD2    H5 2623   3.435   1.993  12.850  1.9863 -1.2736  0.2404
  168MPD2    N1 2624   3.298   1.458  13.040  0.4945 -0.0957 -0.0648
  168MPD2    H7 2625   3.268   1.438  12.945  0.8468 -1.5849  0.1388
  169MPD1     C 2626   0.008   0.642   9.111 -0.2696  0.1413 -0.3933
  169MPD1    C1 2627   0.106   0.557   9.145 -0.1792  0.3930  0.2579
  169MPD1    C2 2628   0.212   0.599   9.221  0.4469 -0.1833 -0.2902
  169MPD1    C3 2629   0.212   0.724   9.273  0.0961  0.2628 -0.0487
  169MPD1    C4 2630   0.123   0.810   9.224 -0.2411 -0.5690  0.1896
  169MPD1    C5 2631   0.020   0.770   9.148 -0.1225  0.5089 -0.4588
  169MPD1     H 2632   0.289   0.530   9.252 -0.6556 -0.6072  1.4856
  169MPD1    H1 2633   0.127   0.914   9.254  1.6088 -0.6645  0.3298
  169MPD1    H2 2634   4.651   0.608   9.068  2.5979  0.1917 -6.6239
  169MPD1    H3 2635   4.683   0.844   9.121 -3.1147 -1.9413  1.0006
  169MPD1     N 2636   0.317   0.764   9.361  0.4816 -0.2105 -0.3958
  169MPD1    H5 2637   0.382   0.702   9.408  0.0146  0.1889  0.7918
  169MPD1    N1 2638   0.081   0.424   9.117  0.0395 -0.7019  0.1044
  169MPD1    H6 2639   0.008   0.405   9.049  0.9594 -0.7671 -0.8665
  169MPD1    H7 2640   0.165   0.372   9.096  0.0226  0.0631 -1.9303
  170MPD1     C 2641   0.422   3.855  13.004  0.2362  0.7960  0.1731
  170MPD1    C1 2642   0.291   3.804  12.987  0.7850 -0.0496  0.0977
  170MPD1    C2 2643   0.208   3.810  13.096  0.7770 -0.3992 -0.3040
  170MPD1    C3 2644   0.246   3.865  13.222  0.1629 -0.0075  0.1793
  170MPD1    C4 2645   0.370   3.925  13.225 -0.4922  0.2152  0.4758
  170MPD1    C5 2646   0.455   3.924  13.120  0.7210 -0.7014  1.0492
  170MPD1     H 2647   0.113   3.759  13.100  0.4596  0.2811  0.8534
  170MPD1    H1 2648   0.399   3.977  13.316  4.3772 -2.8267  0.6301
  170MPD1    H2 2649   0.497   3.843  12.927 -1.8629 -0.1087 -1.7474
  170MPD1    H3 2650   0.555   3.965  13.128 -0.0842  1.6906 -1.4244
  170MPD1     N 2651   0.161   3.849  13.336  0.7907 -0.4995 -0.6616
  170MPD1    H5 2652   0.068   3.814  13.318 -0.2773  1.5003  0.9680
  170MPD1    N1 2653   0.260   3.733  12.874 -0.2424 -0.5939 -0.1027
  170MPD1    H6 2654   0.160   3.742  12.860 -0.8274 -2.3115  3.1122
  170MPD1    H7 2655   0.322   3.760  12.798  2.5779 -1.7627  1.7530
  171MPD1     C 2656   2.858   0.665  15.270  0.0258 -0.0045 -0.3513
  171MPD1    C1 2657   2.823   0.542  15.214 -0.0092  0.1784  0.3329
  171MPD1    C2 2658   2.894   0.431  15.237  0.2511 -0.5024 -0.2938
  171MPD1    C3 2659   3.006   0.436  15.316  0.0583 -0.0507 -0.0490
  171MPD1    C4 2660   3.049   0.556  15.362  0.1437  0.3116 -0.0047
  171MPD1    C5 2661   2.979   0.674  15.337 -0.0974 -0.0484  0.0815
  171MPD1     H 2662   2.852   0.336  15.206 -0.4796 -0.0965 -0.5487
  171MPD1    H1 2663   3.147   0.556  15.407 -0.7482 -0.2448  1.9360
  171MPD1    H2 2664   2.794   0.753  15.264  1.4583  1.0311 -0.5179
  171MPD1    H3 2665   3.016   0.768  15.377  2.3061 -1.3033  0.8006
  171MPD1     N 2666   3.080   0.321  15.356 -0.3662  0.2189  0.3512
  171MPD1    H5 2667   3.166   0.342  15.404  1.0125 -0.2316 -1.9559
  171MPD1    N1 2668   2.706   0.537  15.132 -0.5546 -1.1527  0.4760
  171MPD1    H6 2669   2.717   0.465  15.061 -3.4527  0.8809 -2.0031
  171MPD1    H7 2670   2.689   0.628  15.090  0.7984 -0.9885  0.2912
  172MPD1     C 2671   2.293   4.678   0.394  0.0128  0.6129 -0.1679
  172MPD1    C1 2672   2.254   0.052   0.467 -0.3004 -0.1614 -0.1671
  172MPD1    C2 2673   2.347   0.153   0.471  0.3003  0.2911 -0.4610
  172MPD1    C3 2674   2.469   0.143   0.416 -0.1048 -0.0247 -0.0984
  172MPD1    C4 2675   2.506   0.029   0.347  0.2124 -0.1421 -0.5001
  172MPD1    C5 2676   2.419   4.665   0.337  0.4729 -0.4544  0.0699
  172MPD1     H 2677   2.320   0.252   0.503  0.3317 -0.2075  1.0938
  172MPD1    H1 2678   2.602   0.030   0.296  0.6184 -1.0111  0.2637
  172MPD1    H2 2679   2.225   4.598   0.368  1.4508 -0.5267 -0.4573
  172MPD1    H3 2680   2.437   4.580   0.272  0.1631 -0.4993  0.0444
  172MPD1     N 2681   2.572   0.238   0.430 -0.0821 -0.0258  0.0759
  172MPD1    H5 2682   2.653   0.225   0.371 -1.8447  0.2852 -2.3947
  172MPD1    N1 2683   2.118   0.070   0.504  0.4493 -0.4541 -0.1619
  172MPD1    H6 2684   2.066   4.720   0.511 -1.3015  0.9702  4.6059
  172MPD1    H7 2685   2.109   0.117   0.594  0.8856  0.3926 -0.5637
  173MPD1     C 2686   4.094   3.707  14.209  0.3573 -0.1459 -0.4035
  173MPD1    C1 2687   4.030   3.620  14.297 -0.7858 -0.3789  0.1192
  173MPD1    C2 2688   3.893   3.594  14.277  0.5466  0.0344  0.2365
  173MPD1    C3 2689   3.816   3.672  14.194  0.3367 -1.2592 -0.1198
  173MPD1    C4 2690   3.875   3.776  14.132 -0.2266  0.1854  1.2504
  173MPD1    C5 2691   4.016   3.789  14.136 -0.0979 -0.2398  0.2265
  173MPD1     H 2692   3.846   3.511  14.328  2.4464 -1.9391 -1.2531
  173MPD1    H1 2693   3.829   3.833  14.052  3.2170  0.1226 -0.8055
  173MPD1    H2 2694   4.201   3.715  14.197  0.7645  0.4084  3.6873
  173MPD1    H3 2695   4.068   3.869  14.084  2.2042 -2.0231 -0.1931
  173MPD1     N 2696   3.676   3.645  14.179  0.1208  0.1361  0.1926
  173MPD1    H5 2697   3.630   3.577  14.239  0.0624  0.4053  0.4549
  173MPD1    N1 2698   4.111   3.531  14.379  0.1150 -0.3036  0.5415
  173MPD1    H6 2699   4.068   3.502  14.466 -0.7124 -1.3026 -0.1971
  173MPD1    H7 2700   4.192   3.586  14.406  0.9760 -1.4740  0.3662
  174MPD1     C 2701   3.339   2.943  14.452  0.2209 -0.3601 -0.3372
  174MPD1    C1 2702   3.246   2.991  14.365  0.0062 -0.7187 -0.4865
  174MPD1    C2 2703   3.259   3.115  14.315 -0.2713 -0.5078  0.1644
  174MPD1    C3 2704   3.356   3.204  14.362 -0.0318 -0.8405 -0.2942
  174MPD1    C4 2705   3.447   3.161  14.454 -0.3867 -0.3051 -0.4342
  174MPD1    C5 2706   3.441   3.031  14.489 -0.5816  0.7020  0.1075
  174MPD1     H 2707   3.196   3.147  14.233 -0.1981 -1.1397 -0.1441
  174MPD1    H1 2708   3.528   3.225  14.487  2.3515 -2.7967 -2.2848
  174MPD1    H2 2709   3.339   2.843  14.494 -1.0589 -0.5264 -0.7370
  174MPD1    H3 2710   3.505   3.006  14.573 -0.6428 -0.7717 -0.2761
  174MPD1     N 2711   3.363   3.336  14.314  0.3955  0.0672  0.4927
  174MPD1    H5 2712   3.451   3.382  14.334  0.3276 -0.1995  1.3960
  174MPD1    N1 2713   3.157   2.902  14.309 -0.0762 -0.0464  0.1871
  174MPD1    H6 2714   3.065   2.945  14.299 -0.0057 -0.0072 -0.3151
  174MPD1    H7 2715   3.146   2.820  14.369 -0.5244  0.8638  1.3408
  175MPD1     C 2716   1.936   0.613  15.223 -0.7806 -1.0762  0.0894
  175MPD1    C1 2717   1.999   0.491  15.268  0.3751 -0.1577  0.2403
  175MPD1    C2 2718   1.996   0.468  15.403 -0.6290  0.5996  0.8242
  175MPD1    C3 2719   1.944   0.564  15.495  1.9170  0.0739 -0.9969
  175MPD1    C4 2720   1.898   0.684  15.443 -0.3571 -0.2735  0.1571
  175MPD1    C5 2721   1.894   0.713  15.311  0.5896 -0.8724  0.2372
  175MPD1     H 2722   2.030   0.374  15.446  1.1466 -0.0120 -1.9494
  175MPD1    H1 2723   1.870   0.762  15.513 -0.7451 -0.4560  0.2049
  175MPD1    H2 2724   1.928   0.634  15.117 -0.6588  0.4113  0.3775
  175MPD1    H3 2725   1.843   0.801  15.275 -0.2860 -1.4151  0.1421
  175MPD1     N 2726   1.939   0.544  15.633 -1.1374 -0.4056 -0.0058
  175MPD1    H5 2727   1.889   0.617  15.683 -0.3294  0.2405 -0.1434
  175MPD1    N1 2728   2.041   0.394  15.173 -0.4782  0.3720  0.0418
  175MPD1    H6 2729   2.083   0.437  15.091  0.1167 -0.3138 -0.0162
  175MPD1    H7 2730   2.111   0.327  15.205 -0.6058 -0.2212 -0.9207
  176MPD1     C 2731   3.289   3.860  17.302 -0.6069  0.7574 -0.8291
  176MPD1    C1 2732   3.382   3.786  17.234  0.4906 -0.1658  0.5011
  176MPD1    C2 2733   3.512   3.827  17.235  0.3178  0.4333 -0.1034
  176MPD1    C3 2734   3.559   3.936  17.307  1.0111  0.3031  0.4228
  176MPD1    C4 2735   3.464   4.007  17.374  0.3979 -0.2348 -0.1933
  176MPD1    C5 2736   3.328   3.971  17.373  0.7508  0.3011 -0.2918
  176MPD1     H 2737   3.583   3.759  17.188  1.3487  1.5058 -0.0926
  176MPD1    H1 2738   3.494   4.097  17.427 -1.7130 -0.7841  1.9538
  176MPD1    H2 2739   3.185   3.831  17.307 -0.2255 -0.3033  0.6938
  176MPD1    H3 2740   3.245   4.017  17.426 -0.8321 -0.0413 -2.5246
  176MPD1     N 2741   3.694   3.979  17.289 -0.4028 -0.1779 -0.9435
  176MPD1    H5 2742   3.748   3.914  17.233 -0.7731 -1.1327 -0.2026
  176MPD1    N1 2743   3.341   3.673  17.166  0.1687  0.2213  0.4176
  176MPD1    H6 2744   3.250   3.689  17.123  0.9962 -0.7474 -1.7187
  176MPD1    H7 2745   3.402   3.639  17.092 -0.2382 -0.3951  0.3679
  177MPD1     C 2746   2.209   2.152   9.709 -0.1796 -0.7570 -0.0654
  177MPD1    C1 2747   2.208   2.257   9.617 -0.0762 -0.3125 -0.2831
  177MPD1    C2 2748   2.098   2.279   9.530 -0.5279 -0.2622 -1.1428
  177MPD1    C3 2749   1.982   2.206   9.545  0.5931 -0.8263  0.5370
  177MPD1    C4 2750   1.987   2.098   9.635 -0.5987  0.0606  0.2589
  177MPD1    C5 2751   2.098   2.066   9.711  0.7353  0.3668 -0.4343
  177MPD1     H 2752   2.106   2.356   9.454 -0.9420 -0.5377 -1.4633
  177MPD1    H1 2753   1.901   2.032   9.646 -1.6739  1.0430 -2.2104
  177MPD1    H2 2754   2.302   2.132   9.761  0.2913 -1.8808 -1.3396
  177MPD1    H3 2755   2.099   1.985   9.782 -1.0826  0.6695 -0.0588
  177MPD1     N 2756   1.866   2.230   9.453  0.6649  0.0987  0.3091
  177MPD1    H5 2757   1.873   2.313   9.394  0.0600 -1.0076 -1.2999
  177MPD1    N1 2758   2.338   2.310   9.586  0.2720  0.4170 -0.4268
  177MPD1    H6 2759   2.337   2.402   9.541 -0.5228  0.5719 -0.0837
  177MPD1    H7 2760   2.395   2.320   9.670  0.5349 -1.2462 -0.4002
  178MPD1     C 2761   4.212   3.830  17.492  0.6940  0.2321 -0.4494
  178MPD1    C1 2762   4.337   3.836  17.558 -0.9889 -0.1655 -0.8991
  178MPD1    C2 2763   4.454   3.831  17.481  0.0515  0.0724 -0.2451
  178MPD1    C3 2764   4.446   3.817  17.348 -0.4993  0.1164 -0.3459
  178MPD1    C4 2765   4.325   3.810  17.289  0.6541 -0.8669  0.3062
  178MPD1    C5 2766   4.214   3.806  17.361 -0.0196  0.3360 -0.1583
  178MPD1     H 2767   4.550   3.830  17.530  1.0357  0.4029 -2.1498
  178MPD1    H1 2768   4.312   3.798  17.182  0.5022  1.9403  0.0181
  178MPD1    H2 2769   4.118   3.821  17.545  1.3252  0.2105  0.6721
  178MPD1    H3 2770   4.119   3.795  17.309 -0.9472 -1.7176  1.9751
  178MPD1     N 2771   4.561   3.796  17.264 -0.2066  0.0476  0.4004
  178MPD1    H5 2772   4.549   3.787  17.164  0.6009 -3.4984  0.6046
  178MPD1    N1 2773   4.339   3.858  17.697 -0.3224 -0.5236 -0.4456
  178MPD1    H6 2774   4.431   3.892  17.722 -0.2333  0.3559 -1.9651
  178MPD1    H7 2775   4.283   3.941  17.715 -0.1195 -0.2874 -0.8971
  179MPD1     C 2776   4.281   2.077  15.357 -0.6654  0.6479 -0.0684
  179MPD1    C1 2777   4.382   2.041  15.442  1.1280  0.1430 -0.1776
  179MPD1    C2 2778   4.367   1.919  15.503 -0.1843 -0.6150 -0.3208
  179MPD1    C3 2779   4.266   1.824  15.476 -0.5249  0.2781 -0.0942
  179MPD1    C4 2780   4.170   1.873  15.382 -0.1960 -1.0517 -1.1764
  179MPD1    C5 2781   4.182   1.998  15.334  0.0750 -0.2350 -0.1003
  179MPD1     H 2782   4.449   1.891  15.569 -0.0124  0.1838 -0.2019
  179MPD1    H1 2783   4.084   1.816  15.350 -0.3941 -1.3389 -0.1207
  179MPD1    H2 2784   4.285   2.175  15.312 -1.4037  0.0255 -1.4704
  179MPD1    H3 2785   4.106   2.018  15.259 -2.9432 -1.3851  2.6403
  179MPD1     N 2786   4.238   1.696  15.536  0.7363  0.7476 -0.1438
  179MPD1    H5 2787   4.165   1.636  15.501  1.8441 -0.3279 -0.6164
  179MPD1    N1 2788   4.477   2.135  15.484 -0.0904 -0.0408 -0.2377
  179MPD1    H6 2789   4.559   2.086  15.519  0.1795  1.3198  1.0211
  179MPD1    H7 2790   4.501   2.195  15.405  0.2192 -0.5371 -0.5240
  180MPD1     C 2791   3.853   3.063  14.920  0.9474 -0.4871  1.0783
  180MPD1    C1 2792   3.944   3.061  14.817  0.2292  0.5871  0.3213
  180MPD1    C2 2793   3.919   3.000  14.700  0.8602  0.0524  0.7832
  180MPD1    C3 2794   3.795   2.926  14.689  0.3329 -0.5132 -0.1896
  180MPD1    C4 2795   3.705   2.923  14.788 -0.2320 -0.0288  0.1225
  180MPD1    C5 2796   3.743   2.981  14.902  0.2179 -0.5944  0.2998
  180MPD1     H 2797   3.989   3.005  14.618  0.6603  1.5817  0.7028
  180MPD1    H1 2798   3.610   2.871  14.780  0.7959 -2.0225  1.0670
  180MPD1    H2 2799   3.856   3.108  15.019 -2.6151  2.2371 -0.0718
  180MPD1    H3 2800   3.666   2.976  14.978 -0.1364 -0.0263 -0.0156
  180MPD1     N 2801   3.779   2.861  14.565  0.5660  0.1676 -0.4913
  180MPD1    H5 2802   3.846   2.888  14.494  0.2111  0.2157 -0.8115
  180MPD1    N1 2803   4.053   3.157  14.826 -0.1998  0.1748 -0.8778
  180MPD1    H6 2804   4.080   3.176  14.922  0.0763 -0.8885 -0.7486
  180MPD1    H7 2805   4.134   3.129  14.771  1.4733 -1.8644  2.6111
  181MPD1     C 2806   0.388   4.271  10.533  0.7743  0.2516  0.4649
  181MPD1    C1 2807   0.405   4.212  10.411  0.5221  0.1941 -0.0977
  181MPD1    C2 2808   0.484   4.277  10.325 -0.5285  0.3298  1.0867
  181MPD1    C3 2809   0.570   4.378  10.363  0.1712 -0.4516  0.6544
  181MPD1    C4 2810   0.552   4.439  10.482  0.3697 -0.4119  0.1328
  181MPD1    C5 2811   0.458   4.385  10.566 -0.1359 -0.0017 -0.3990
  181MPD1     H 2812   0.491   4.241  10.223  0.8562  1.0235  0.9456
  181MPD1    H1 2813   0.623   4.512  10.518  0.5573 -0.7199  0.3927
  181MPD1    H2 2814   0.333   4.223  10.613  0.0931 -0.8769 -0.7002
  181MPD1    H3 2815   0.451   4.427  10.666 -1.6934  2.4281 -1.5286
  181MPD1     N 2816   0.678   4.436  10.280 -0.8810 -0.4876  0.2089
  181MPD1    H5 2817   0.721   4.520  10.318  0.7260 -1.6716  1.0017
  181MPD1    N1 2818   0.310   4.113  10.371  0.4594  0.2738 -0.1256
  181MPD1    H6 2819   0.273   4.062  10.450  3.9470 -0.5536  0.9710
  181MPD1    H7 2820   0.360   4.048  10.311 -0.7652 -1.8333  1.1345
  182MPD1     C 2821   2.221   4.319   0.484 -0.4346 -0.0126 -0.1254
  182MPD1    C1 2822   2.267   4.211   0.408 -0.0650  0.0215  0.4202
  182MPD1    C2 2823   2.178   4.113   0.385 -0.4480 -0.2266 -0.8539
  182MPD1    C3 2824   2.060   4.102   0.449 -0.0834 -0.3104 -0.5306
  182MPD1    C4 2825   2.021   4.206   0.520 -0.3943 -0.0831  0.5480
  182MPD1    C5 2826   2.097   4.319   0.529 -0.2505  0.0130  0.2529
  182MPD1     H 2827   2.226   4.034   0.327  1.7656  0.0521  0.5890
  182MPD1    H1 2828   1.926   4.202   0.572 -0.3255 -1.0011  0.6007
  182MPD1    H2 2829   2.279   4.410   0.495  0.3670 -0.2620 -2.3405
  182MPD1    H3 2830   2.057   4.405   0.580 -1.1298  0.0395 -0.4951
  182MPD1     N 2831   1.964   4.007   0.420  0.4355 -0.7030  0.5167
  182MPD1    H5 2832   1.875   4.017   0.468 -0.7706 -2.7851 -1.3023
  182MPD1    N1 2833   2.392   4.212   0.347  0.5189  0.6122 -0.5088
  182MPD1    H6 2834   2.461   4.265   0.401 -0.0876  1.8274 -0.9428
  182MPD1    H7 2835   2.434   4.122   0.327  0.0959  0.2898  0.0495
  183MPD1     C 2836   2.277   2.248   8.522  0.5565 -0.0261 -0.5311
  183MPD1    C1 2837   2.256   2.355   8.440  0.5354  0.0115 -0.2477
  183MPD1    C2 2838   2.203   2.473   8.492  0.0273  0.5916  0.0405
  183MPD1    C3 2839   2.142   2.472   8.617  0.3953 -0.1526 -0.3585
  183MPD1    C4 2840   2.150   2.355   8.695  0.4785  0.2617 -0.7295
  183MPD1    C5 2841   2.228   2.254   8.650 -0.6703 -0.2642  0.1750
  183MPD1     H 2842   2.190   2.565   8.437 -1.3122  0.6664  0.4758
  183MPD1    H1 2843   2.098   2.361   8.790 -0.1148 -1.7878 -0.9162
  183MPD1    H2 2844   2.337   2.164   8.489 -1.0701 -0.0967 -3.2829
  183MPD1    H3 2845   2.244   2.161   8.704 -0.6652  0.1041  0.8037
  183MPD1     N 2846   2.064   2.583   8.659 -0.3097  0.1020 -0.2017
  183MPD1    H5 2847   2.033   2.648   8.587  0.0948  0.0136 -0.4526
  183MPD1    N1 2848   2.308   2.361   8.311  0.0259  0.2029 -0.2095
  183MPD1    H6 2849   2.332   2.272   8.268 -1.4444 -0.5274  0.4878
  183MPD1    H7 2850   2.258   2.417   8.243  2.5576  0.9390 -1.4537
  184MPD1     C 2851   0.714   1.768   9.957 -0.4066  0.2657  0.1288
  184MPD1    C1 2852   0.694   1.712   9.833  0.7281  0.4095  0.1268
  184MPD1    C2 2853   0.755   1.768   9.720  0.1417 -0.3613 -0.3752
  184MPD1    C3 2854   0.838   1.878   9.733  0.1870  0.4446  0.0907
  184MPD1    C4 2855   0.847   1.929   9.853 -0.0824 -0.4384 -0.0024
  184MPD1    C5 2856   0.793   1.876   9.965  0.1695  0.4412 -0.6467
  184MPD1     H 2857   0.731   1.734   9.620  0.2818 -0.9318 -0.2159
  184MPD1    H1 2858   0.894   2.027   9.859 -1.3547  0.2802 -1.7534
  184MPD1    H2 2859   0.663   1.737  10.048 -2.3610 -0.0136 -1.0518
  184MPD1    H3 2860   0.816   1.932  10.055  2.7965  1.0505 -1.7177
  184MPD1     N 2861   0.891   1.947   9.619 -0.4352  0.5500  0.3168
  184MPD1    H5 2862   0.944   2.031   9.640  0.3380  0.2589 -0.4328
  184MPD1    N1 2863   0.590   1.618   9.826 -0.0472  0.9849  0.4292
  184MPD1    H6 2864   0.606   1.556   9.747 -2.2335 -1.0826  1.6088
  184MPD1    H7 2865   0.579   1.563   9.910  1.2276  0.1434  0.0449
  185MPD1     C 2866   0.568   2.076   8.665  0.3794  0.5209 -0.2415
  185MPD1    C1 2867   0.600   2.189   8.737 -0.2908 -0.2420  0.2745
  185MPD1    C2 2868   0.686   2.169   8.852 -0.4448 -0.0651  0.4128
  185MPD1    C3 2869   0.736   2.049   8.885 -0.5546 -0.5176  0.5953
  185MPD1    C4 2870   0.686   1.932   8.819  1.0654  0.1416 -0.3029
  185MPD1    C5 2871   0.609   1.956   8.710  0.1934  0.7541  0.5571
  185MPD1     H 2872   0.726   2.262   8.892 -0.1214 -0.2921  0.6155
  185MPD1    H1 2873   0.724   1.831   8.833  1.3218  0.2133 -0.4839
  185MPD1    H2 2874   0.500   2.085   8.581  0.1567 -0.4971 -0.1714
  185MPD1    H3 2875   0.587   1.868   8.650  2.2322 -0.6033  1.7859
  185MPD1     N 2876   0.821   2.036   8.997  0.3775 -0.7624  0.8375
  185MPD1    H5 2877   0.814   1.941   9.032  0.2769 -1.0680  0.0028
  185MPD1    N1 2878   0.538   2.309   8.704  0.7608  0.5467  0.1135
  185MPD1    H6 2879   0.579   2.379   8.765  2.2563 -0.9652  0.8288
  185MPD1    H7 2880   0.549   2.338   8.607 -0.9758  3.1081  0.6769
  186MPD1     C 2881   4.496   2.622  15.625 -0.2536  0.4336  1.0739
  186MPD1    C1 2882   4.390   2.602  15.714  0.8240  0.5337  0.1239
  186MPD1    C2 2883   4.409   2.505  15.812  0.0130 -0.3583  0.4117
  186MPD1    C3 2884   4.514   2.415  15.808 -0.4031 -0.3210 -0.1963
  186MPD1    C4 2885   4.600   2.423  15.699 -0.2307  0.5357  0.4768
  186MPD1    C5 2886   4.598   2.533  15.617  0.7395  0.0514  0.2133
  186MPD1     H 2887   4.338   2.501  15.894 -0.3843  0.3765  0.0991
  186MPD1    H1 2888   4.680   2.351  15.681 -0.8338 -0.1661  0.6098
  186MPD1    H2 2889   4.501   2.706  15.557 -0.9893  1.4560  2.2980
  186MPD1    H3 2890   4.678   2.551  15.546  0.6050  0.4600  0.1671
  186MPD1     N 2891   4.536   2.304  15.886  0.1805  0.3442 -0.3008
  186MPD1    H5 2892   4.615   2.244  15.865 -0.2460 -1.2483  2.6422
  186MPD1    N1 2893   4.292   2.702  15.723  0.0027  0.4349  0.8679
  186MPD1    H6 2894   4.274   2.749  15.634  2.6786  2.7261  1.5509
  186MPD1    H7 2895   4.206   2.659  15.755  0.2408 -1.5713 -1.1377
  187MPD1     C 2896   4.022   4.537  17.610 -0.6375  0.2033 -0.3073
  187MPD1    C1 2897   3.892   4.503  17.580 -0.3551  0.8760 -0.1605
  187MPD1    C2 2898   3.865   4.476  17.449  0.1183  0.6477  0.1670
  187MPD1    C3 2899   3.962   4.471  17.347 -0.6966  0.3377  1.1089
  187MPD1    C4 2900   4.091   4.494  17.387  0.1290 -0.1073  0.1253
  187MPD1    C5 2901   4.117   4.540  17.516  0.1234  0.0485  0.1535
  187MPD1     H 2902   3.764   4.442  17.429 -0.1377  0.7362  1.3204
  187MPD1    H1 2903   4.167   4.492  17.310 -2.4194 -1.3804 -2.3363
  187MPD1    H2 2904   4.043   4.562  17.714  2.0010 -0.3878 -0.6964
  187MPD1    H3 2905   4.218   4.557  17.550  1.2520 -2.5490 -1.8769
  187MPD1     N 2906   3.926   4.446  17.210 -0.0647 -0.5207 -0.2393
  187MPD1    H5 2907   4.011   4.440  17.154 -1.1124 -1.3499 -1.7401
  187MPD1    N1 2908   3.797   4.475  17.683 -0.2212  0.6323 -0.0022
  187MPD1    H6 2909   3.701   4.478  17.648  0.3950 -1.3193 -1.8117
  187MPD1    H7 2910   3.802   4.533   0.021  0.6833  2.2494 -1.1626
  188MPD1     C 2911   4.566   3.052   9.712 -0.1374 -0.5310  0.0090
  188MPD1    C1 2912   4.595   2.944   9.631  0.0839 -0.1096  0.1073
  188MPD1    C2 2913   4.505   2.908   9.533 -0.1272 -0.3502 -0.5011
  188MPD1    C3 2914   4.372   2.955   9.540  0.3104 -0.2384  0.5050
  188MPD1    C4 2915   4.338   3.037   9.641 -0.4968 -0.6001 -0.4548
  188MPD1    C5 2916   4.432   3.086   9.723 -0.0720  0.7277 -0.2423
  188MPD1     H 2917   4.534   2.847   9.448  1.0453  0.0065 -0.3623
  188MPD1    H1 2918   4.238   3.076   9.652  0.9086  2.7433  0.3134
  188MPD1    H2 2919   4.638   3.096   9.780 -0.9711  1.4102 -0.3590
  188MPD1    H3 2920   4.401   3.159   9.798  3.0674  0.4567  1.3410
  188MPD1     N 2921   4.267   2.907   9.460  0.1773  0.6683  0.5701
  188MPD1    H5 2922   4.174   2.944   9.474  0.6860  2.0471  0.3207
  188MPD1    N1 2923   4.724   2.903   9.629 -0.1743 -0.1592 -0.1226
  188MPD1    H6 2924   0.030   2.926   9.718 -1.0167 -1.9052  0.7393
  188MPD1    H7 2925   4.717   2.801   9.622 -0.1568 -0.0932 -1.0398
  189MPD1     C 2926   0.373   1.021   0.952  0.4418 -0.2403  0.1596
  189MPD1    C1 2927   0.339   1.096   0.842 -0.3220  0.2911  0.1797
  189MPD1    C2 2928   0.348   1.030   0.719 -0.6048  0.3297  0.3423
  189MPD1    C3 2929   0.360   0.892   0.712 -0.1660 -0.0985  1.5794
  189MPD1    C4 2930   0.393   0.821   0.821  0.1234  0.2321 -0.2973
  189MPD1    C5 2931   0.408   0.890   0.936  0.4534  0.3843 -0.1207
  189MPD1     H 2932   0.323   1.086   0.630 -3.6014 -0.1332  0.9208
  189MPD1    H1 2933   0.392   0.713   0.831  0.1469  0.0172 -2.5835
  189MPD1    H2 2934   0.386   1.071   1.047 -1.4277  0.7947 -0.1181
  189MPD1    H3 2935   0.451   0.831   1.017 -0.7884  0.1624  0.3781
  189MPD1     N 2936   0.357   0.825   0.583 -0.5230 -0.5641 -0.1316
  189MPD1    H5 2937   0.348   0.891   0.507  0.3268 -1.9531 -1.4489
  189MPD1    N1 2938   0.328   1.235   0.848  0.1204 -0.4712 -0.1682
  189MPD1    H6 2939   0.288   1.278   0.765 -0.6226  1.4073  1.1553
  189MPD1    H7 2940   0.288   1.281   0.930 -1.3032  1.3397 -1.8958
  190MPD1     C 2941   3.944   3.070  15.477  0.0695  0.8882 -0.2598
  190MPD1    C1 2942   3.997   3.106  15.602  0.3009 -0.1985 -0.6437
  190MPD1    C2 2943   4.134   3.099  15.625 -0.0047  0.2099 -0.5156
  190MPD1    C3 2944   4.220   3.047  15.530  0.3452  0.3667  0.7517
  190MPD1    C4 2945   4.165   3.008  15.406  0.0897  0.2550 -0.7324
  190MPD1    C5 2946   4.033   3.030  15.381  0.3438 -0.5900  0.2738
  190MPD1     H 2947   4.175   3.127  15.721  0.0313 -2.1268  0.1584
  190MPD1    H1 2948   4.228   2.962  15.330  2.7705 -0.8383  2.1627
  190MPD1    H2 2949   3.841   3.082  15.444 -0.0362  0.8466  0.0531
  190MPD1    H3 2950   3.985   3.004  15.288 -1.1453 -0.1343  0.8997
  190MPD1     N 2951   4.366   3.037  15.566 -0.1837  0.0760  0.6038
  190MPD1    H5 2952   4.390   3.062  15.661 -2.9582  0.3752  1.2223
  190MPD1    N1 2953   3.916   3.162  15.708  0.1964  0.1706 -0.4729
  190MPD1    H6 2954   3.962   3.146  15.798  0.7450  3.2147 -0.1964
  190MPD1    H7 2955   3.824   3.118  15.710  0.6435 -0.8011 -1.8491
  191MPD1     C 2956   3.344   4.155  13.187 -0.2907 -0.2307  0.3113
  191MPD1    C1 2957   3.457   4.224  13.192  0.3413  0.2854 -0.5048
  191MPD1    C2 2958   3.453   4.361  13.172  0.3880 -0.4028 -0.6960
  191MPD1    C3 2959   3.343   4.425  13.127  0.1652  0.1733  0.3943
  191MPD1    C4 2960   3.228   4.350  13.107 -0.2629 -0.2341  0.4142
  191MPD1    C5 2961   3.226   4.217  13.147 -0.1489  0.0357  0.0572
  191MPD1     H 2962   3.540   4.422  13.194 -0.1115 -0.2108  0.7570
  191MPD1    H1 2963   3.131   4.389  13.081 -1.1191 -1.1925  2.1217
  191MPD1    H2 2964   3.331   4.050  13.210 -0.3197 -0.7449 -2.0246
  191MPD1    H3 2965   3.124   4.182  13.150 -0.5525  1.1717 -0.2020
  191MPD1     N 2966   3.362   4.562  13.089 -0.7270 -0.4254 -0.1000
  191MPD1    H5 2967   3.456   4.599  13.100 -1.0585  0.2572  0.4608
  191MPD1    N1 2968   3.578   4.165  13.237  0.9716  0.0640  0.6795
  191MPD1    H6 2969   3.580   4.065  13.217 -0.5835  0.1811 -0.0320
  191MPD1    H7 2970   3.667   4.208  13.213  1.3084 -0.5382  0.8279
  192MPD1     C 2971   2.827   0.775  12.807 -0.0479  0.2455 -0.4892
  192MPD1    C1 2972   2.783   0.659  12.880  0.6587  0.1738  0.5529
  192MPD1    C2 2973   2.873   0.556  12.889 -0.0442  0.4361  0.8595
  192MPD1    C3 2974   3.010   0.569  12.861 -0.6526  0.0864 -0.0433
  192MPD1    C4 2975   3.048   0.692  12.811  0.7388 -0.2956 -0.9864
  192MPD1    C5 2976   2.961   0.797  12.786  0.3689 -0.0356  0.1138
  192MPD1     H 2977   2.829   0.471  12.941  1.3360  1.0409  2.9923
  192MPD1    H1 2978   3.153   0.702  12.785  0.8634  1.3633  0.1320
  192MPD1    H2 2979   2.767   0.861  12.779 -2.2859 -1.2399 -0.2197
  192MPD1    H3 2980   2.983   0.890  12.736  1.5727 -0.9374 -1.0508
  192MPD1     N 2981   3.112   0.471  12.882  0.7576 -0.6687 -0.8959
  192MPD1    H5 2982   3.208   0.502  12.872  0.0677  1.0196 -2.2004
  192MPD1    N1 2983   2.650   0.646  12.920 -0.3273 -0.5110 -0.2305
  192MPD1    H6 2984   2.584   0.651  12.843  0.4399 -0.8540 -0.9036
  192MPD1    H7 2985   2.634   0.555  12.964  1.3918 -0.4992  0.4355
  193MPD1     C 2986   2.930   0.004  17.031  0.1129  0.0132  1.2600
  193MPD1    C1 2987   2.828   0.096  17.003 -0.1306 -0.0410  0.2125
  193MPD1    C2 2988   2.868   0.224  16.968  0.1568 -0.4340 -0.5254
  193MPD1    C3 2989   2.995   0.273  16.987 -0.3540  0.8534  0.1937
  193MPD1    C4 2990   3.092   0.184  17.034 -0.5232 -0.3921 -0.6230
  193MPD1    C5 2991   3.054   0.051  17.055 -0.1946 -0.7069 -0.7919
  193MPD1     H 2992   2.792   0.297  16.943  2.1675  1.1703 -1.9595
  193MPD1    H1 2993   3.194   0.212  17.056 -0.7650  0.5168 -0.6228
  193MPD1    H2 2994   2.917   4.633  17.041 -0.4033  0.0580  1.1025
  193MPD1    H3 2995   3.135   4.722  17.085  1.4465  1.3497 -0.6938
  193MPD1     N 2996   3.046   0.407  16.964 -0.1963 -0.5758  0.3004
  193MPD1    H5 2997   3.147   0.416  16.971 -0.1309 -0.7119 -0.4278
  193MPD1    N1 2998   2.703   0.044  16.963 -0.1908 -0.5984 -0.7159
  193MPD1    H6 2999   2.627   0.106  16.989  0.8721  1.0233 -1.4771
  193MPD1    H7 3000   2.689   4.698  17.020  0.0184 -0.0163  0.1929
  194MPD1     C 3001   1.342   2.633  16.313  0.3800 -0.2677  0.2042
  194MPD1    C1 3002   1.304   2.516  16.254  0.7189 -0.7207 -0.4415
  194MPD1    C2 3003   1.270   2.417  16.345  0.9920 -0.0069 -0.1498
  194MPD1    C3 3004   1.304   2.426  16.481 -0.2853 -0.5374  0.2224
  194MPD1    C4 3005   1.374   2.528  16.528  0.7005 -0.1047  0.5700
  194MPD1    C5 3006   1.383   2.636  16.445  0.6592 -0.1179 -0.7048
  194MPD1     H 3007   1.216   2.334  16.300 -1.1794  1.8884 -1.0083
  194MPD1    H1 3008   1.400   2.530  16.633 -0.3364  1.0815  0.8051
  194MPD1    H2 3009   1.350   2.725  16.256  0.0643 -1.0193 -1.0635
  194MPD1    H3 3010   1.415   2.732  16.486  1.6260 -0.2837 -1.0885
  194MPD1     N 3011   1.261   2.328  16.575 -0.6496 -0.5314  0.2085
  194MPD1    H5 3012   1.292   2.345  16.670 -2.1912 -1.2499  0.8344
  194MPD1    N1 3013   1.265   2.504  16.121  0.0992  0.8412  0.8351
  194MPD1    H6 3014   1.257   2.406  16.097  2.7043  0.4979  1.2729
  194MPD1    H7 3015   1.330   2.549  16.056 -0.7758 -0.4427 -0.9043
  195MPD1     C 3016   3.737   0.023   0.647  0.0782 -0.3195 -0.0047
  195MPD1    C1 3017   3.667   4.677   0.735 -0.1048 -0.0095  0.2751
  195MPD1    C2 3018   3.714   4.547   0.748  0.4664 -0.3921  0.0887
  195MPD1    C3 3019   3.803   4.491   0.654  0.4155  0.1370 -0.1416
  195MPD1    C4 3020   3.884   4.579   0.578 -0.9805  0.3975  0.1179
  195MPD1    C5 3021   3.845   4.710   0.571  0.4926  0.8569 -0.6289
  195MPD1     H 3022   3.671   4.485   0.826  1.7341 -1.7358 -0.2699
  195MPD1    H1 3023   3.977   4.550   0.531 -0.4615  0.8776  0.8454
  195MPD1    H2 3024   3.708   0.127   0.633  1.3833 -0.0996 -1.0160
  195MPD1    H3 3025   3.903   0.038   0.507  0.1636  2.2855  0.5187
  195MPD1     N 3026   3.828   4.349   0.644  0.0063  0.2979 -0.4887
  195MPD1    H5 3027   3.905   4.316   0.587 -0.9996 -1.9713 -0.4983
  195MPD1    N1 3028   3.586   4.731   0.837  0.3899 -0.7198 -0.2219
  195MPD1    H6 3029   3.535   0.077   0.809  0.8892  0.2798  1.8407
  195MPD1    H7 3030   3.526   4.656   0.871  0.4616  0.0532  1.6459
  196MPD1     C 3031   2.904   3.451   0.686  0.2437  0.2241  0.0246
  196MPD1    C1 3032   2.856   3.419   0.814 -0.2137 -0.6229 -0.2656
  196MPD1    C2 3033   2.782   3.520   0.874 -0.2982  0.3206 -0.0910
  196MPD1    C3 3034   2.772   3.648   0.822  0.2390 -0.3187 -0.4309
  196MPD1    C4 3035   2.838   3.679   0.710 -0.2127  0.3439 -0.6880
  196MPD1    C5 3036   2.900   3.581   0.641  0.3368 -0.2381  0.0702
  196MPD1     H 3037   2.724   3.501   0.964  0.6539 -1.5271  0.1201
  196MPD1    H1 3038   2.854   3.777   0.667  2.1598 -0.2699 -1.1969
  196MPD1    H2 3039   2.946   3.381   0.615 -1.7018  0.1138 -1.0000
  196MPD1    H3 3040   2.947   3.601   0.545 -2.8686  1.0253 -1.2496
  196MPD1     N 3041   2.702   3.757   0.874  0.1853  0.1276 -0.0489
  196MPD1    H5 3042   2.716   3.850   0.835  1.4700  0.4924  1.2809
  196MPD1    N1 3043   2.850   3.285   0.857 -0.0015 -0.0923 -0.3177
  196MPD1    H6 3044   2.936   3.236   0.831 -1.4528 -2.1236 -1.2412
  196MPD1    H7 3045   2.848   3.282   0.958  2.5800  0.7647 -0.2275
  197MPD1     C 3046   1.895   0.517  17.388 -0.9407 -0.3315 -0.3167
  197MPD1    C1 3047   1.973   0.634  17.426 -0.1706  0.1711  0.5397
  197MPD1    C2 3048   1.962   0.742  17.344 -0.0124  0.6493 -0.1643
  197MPD1    C3 3049   1.918   0.731  17.213 -0.2624  0.1143  0.7885
  197MPD1    C4 3050   1.858   0.612  17.171  0.1117  0.5167 -0.2643
  197MPD1    C5 3051   1.852   0.508  17.264  0.8050 -0.8458 -0.6500
  197MPD1     H 3052   2.022   0.828  17.371  1.9844 -0.4221 -1.1714
  197MPD1    H1 3053   1.821   0.591  17.071 -0.4443 -1.5268  0.3569
  197MPD1    H2 3054   1.883   0.431  17.453  0.6688 -0.2911  0.0336
  197MPD1    H3 3055   1.812   0.412  17.232 -0.3245 -0.5762 -0.0839
  197MPD1     N 3056   1.924   0.835  17.121  0.3064 -0.4924  0.4251
  197MPD1    H5 3057   1.877   0.813  17.033  3.1063  0.9216 -1.3951
  197MPD1    N1 3058   2.016   0.654  17.558 -0.4377 -0.8299 -0.5445
  197MPD1    H6 3059   2.079   0.734  17.557 -0.7833 -0.5538 -0.3724
  197MPD1    H7 3060   2.076   0.577  17.586 -1.4223 -0.7696  1.7515
  198MPD1     C 3061   4.087   3.900  14.557 -0.8977  0.0200 -0.0105
  198MPD1    C1 3062   4.221   3.923  14.532 -0.0343  0.3578  0.7765
  198MPD1    C2 3063   4.306   3.950  14.644 -0.4594  0.3708  0.3787
  198MPD1    C3 3064   4.254   3.961  14.768 -0.0494  0.4296 -1.0018
  198MPD1    C4 3065   4.120   3.939  14.785  0.0033  0.6528  0.8789
  198MPD1    C5 3066   4.041   3.897  14.685  0.1188 -0.4476  0.0434
  198MPD1     H 3067   4.412   3.947  14.625 -0.6549 -0.9299 -0.5180
  198MPD1    H1 3068   4.072   3.958  14.881 -1.8599  1.8873 -0.2882
  198MPD1    H2 3069   4.014   3.881  14.480 -0.3766 -0.0490 -0.4899
  198MPD1    H3 3070   3.933   3.904  14.688 -0.0878 -2.5479 -2.6742
  198MPD1     N 3071   4.336   3.993  14.880 -0.9234 -0.2401  0.0456
  198MPD1    H5 3072   4.434   4.015  14.869 -0.5942 -0.3917  2.7251
  198MPD1    N1 3073   4.273   3.891  14.403  0.1430 -0.4642 -0.0156
  198MPD1    H6 3074   4.201   3.889  14.332  1.3699 -0.5169 -1.2470
  198MPD1    H7 3075   4.354   3.945  14.374  1.3468 -2.5214 -0.4769
  199MPD1     C 3076   2.029   0.614  10.125  0.0752 -0.0755  1.0752
  199MPD1    C1 3077   1.935   0.641  10.225  0.2006  0.1322  0.3982
  199MPD1    C2 3078   1.805   0.618  10.199 -0.6469 -0.0085 -0.6349
  199MPD1    C3 3079   1.758   0.562  10.086 -0.2288  0.0874  0.6179
  199MPD1    C4 3080   1.851   0.517   9.992  0.2806  0.7004  0.2718
  199MPD1    C5 3081   1.984   0.554  10.009 -0.3268 -0.1366  0.5930
  199MPD1     H 3082   1.744   0.648  10.284 -0.3794 -0.2839 -0.3466
  199MPD1    H1 3083   1.838   0.446   9.911  1.1177  1.0269 -0.1539
  199MPD1    H2 3084   2.133   0.640  10.138 -0.0462  1.4466 -0.9141
  199MPD1    H3 3085   2.047   0.526   9.926 -0.4060  1.6040 -0.0683
  199MPD1     N 3086   1.620   0.546  10.070 -0.0330 -0.3440  0.4043
  199MPD1    H5 3087   1.604   0.526   9.972  0.8960 -4.3291  1.0802
  199MPD1    N1 3088   1.977   0.683  10.350 -1.0953  0.7799  0.0426
  199MPD1    H6 3089   1.902   0.683  10.419 -1.5798  0.5466 -0.4899
  199MPD1    H7 3090   2.064   0.634  10.371 -2.0846 -0.1562  1.9368
  200MPD1     C 3091   0.340   0.298  15.262 -0.6582 -0.1406 -0.1891
  200MPD1    C1 3092   0.278   0.294  15.133 -0.1979 -0.4093 -0.4294
  200MPD1    C2 3093   0.337   0.377  15.043  0.4156  0.6140 -0.4894
  200MPD1    C3 3094   0.461   0.438  15.061 -0.1534 -0.4153 -0.3872
  200MPD1    C4 3095   0.526   0.411  15.183 -0.2551  0.9789  0.0818
  200MPD1    C5 3096   0.464   0.345  15.278 -1.4063 -0.5603  0.4796
  200MPD1     H 3097   0.291   0.406  14.950  1.2101  3.2847 -0.0705
  200MPD1    H1 3098   0.623   0.455  15.204 -0.5018  2.1712 -1.2181
  200MPD1    H2 3099   0.289   0.247  15.343  0.6902  2.4893  2.3125
  200MPD1    H3 3100   0.513   0.332  15.374 -0.3789 -2.8341 -0.3450
  200MPD1     N 3101   0.527   0.501  14.949  0.1553 -0.2954 -0.2730
  200MPD1    H5 3102   0.487   0.507  14.855  0.2578 -0.8270 -0.3499
  200MPD1    N1 3103   0.152   0.244  15.109  0.1245 -0.0320 -0.3266
  200MPD1    H6 3104   0.140   0.239  15.008 -1.5787  1.4469 -0.2202
  200MPD1    H7 3105   0.128   0.166  15.170 -1.1069  0.0118 -0.7549
  201MPD1     C 3106   2.645   4.557  13.070 -0.1334  0.3299  0.0935
  201MPD1    C1 3107   2.753   4.499  13.133 -0.1279  0.3104 -0.4417
  201MPD1    C2 3108   2.765   4.363  13.151  0.5162 -0.2114 -0.1981
  201MPD1    C3 3109   2.664   4.280  13.110  0.0768  0.1895 -0.3817
  201MPD1    C4 3110   2.550   4.336  13.055 -0.0049 -0.6081 -0.4956
  201MPD1    C5 3111   2.543   4.472  13.031 -0.3388 -0.3539  0.8207
  201MPD1     H 3112   2.848   4.321  13.206  0.0808 -0.0453  0.5906
  201MPD1    H1 3113   2.470   4.273  13.017  0.7039 -1.4680 -0.5683
  201MPD1    H2 3114   2.645   4.664  13.054  1.8977 -0.0320 -2.4847
  201MPD1    H3 3115   2.458   4.516  12.981 -0.2986 -0.6839  0.4665
  201MPD1     N 3116   2.677   4.146  13.134 -0.8702  0.1265 -0.0432
  201MPD1    H5 3117   2.772   4.122  13.161 -0.4101  1.3177 -0.5790
  201MPD1    N1 3118   2.858   4.581  13.180 -0.5322 -0.9527 -0.9941
  201MPD1    H6 3119   2.847   4.671  13.134 -2.4435  0.6046  2.4813
  201MPD1    H7 3120   2.950   4.551  13.148 -0.7545 -2.2848 -0.4034
  202MPD1     C 3121   2.524   3.088  10.656 -0.2450  0.2829 -0.3115
  202MPD1    C1 3122   2.452   2.973  10.629  1.0679  0.2482 -0.3992
  202MPD1    C2 3123   2.388   2.967  10.506  0.5709  0.1284  0.1756
  202MPD1    C3 3124   2.427   3.064  10.408  0.4039 -0.5644  0.1283
  202MPD1    C4 3125   2.515   3.165  10.438 -0.0924  0.3316  0.7804
  202MPD1    C5 3126   2.562   3.179  10.563 -0.3685 -0.3540 -0.1330
  202MPD1     H 3127   2.328   2.879  10.484  2.0677 -1.2908  1.8179
  202MPD1    H1 3128   2.543   3.240  10.365  2.3406 -2.1063 -0.7856
  202MPD1    H2 3129   2.563   3.102  10.756 -1.0998 -0.6479  0.1517
  202MPD1    H3 3130   2.633   3.256  10.591 -0.9389  0.1072  0.0671
  202MPD1     N 3131   2.383   3.061  10.277 -0.1666 -0.3223  0.2021
  202MPD1    H5 3132   2.432   3.129  10.219 -3.6708  2.8764  0.9921
  202MPD1    N1 3133   2.398   2.898  10.737  0.9980  0.0937 -0.8096
  202MPD1    H6 3134   2.463   2.875  10.812 -0.9608 -0.1876  0.8046
  202MPD1    H7 3135   2.360   2.810  10.703  0.8772  0.5555 -1.8708
  203MPD1     C 3136   0.630   3.266  11.524  0.4539 -1.4414 -0.0139
  203MPD1    C1 3137   0.730   3.186  11.488  0.3198 -0.2133  0.6306
  203MPD1    C2 3138   0.841   3.182  11.568 -0.5967 -0.2899  0.4225
  203MPD1    C3 3139   0.858   3.255  11.683  0.4083 -0.9376 -0.4411
  203MPD1    C4 3140   0.755   3.334  11.714  0.0802  0.2521  0.0832
  203MPD1    C5 3141   0.637   3.335  11.644 -0.0162 -0.1936 -0.5261
  203MPD1     H 3142   0.927   3.124  11.537  0.0414  1.2340 -0.7044
  203MPD1    H1 3143   0.740   3.397  11.801  1.4832  0.9328 -0.1794
  203MPD1    H2 3144   0.539   3.276  11.465 -0.0029 -1.0592  0.7617
  203MPD1    H3 3145   0.556   3.402  11.671 -0.5948 -1.9296  2.1220
  203MPD1     N 3146   0.984   3.244  11.755 -0.1320  0.0744 -0.9443
  203MPD1    H5 3147   1.051   3.176  11.721 -0.1943 -0.7644  0.5868
  203MPD1    N1 3148   0.738   3.124  11.363 -0.0001  0.4574  0.3538
  203MPD1    H6 3149   0.646   3.097  11.329  0.4243 -1.7199  0.9336
  203MPD1    H7 3150   0.791   3.037  11.370 -0.6378  0.1855  1.7172
  204MPD1     C 3151   1.056   1.395  17.536 -0.7275  0.0871  0.0622
  204MPD1    C1 3152   1.171   1.357  17.467  1.1827  1.3634 -0.6400
  204MPD1    C2 3153   1.205   1.218  17.462 -0.4483 -0.0202 -0.1826
  204MPD1    C3 3154   1.123   1.119  17.508  0.4635 -0.3473 -0.3421
  204MPD1    C4 3155   1.011   1.156  17.579  0.5357 -0.1913  0.0724
  204MPD1    C5 3156   0.976   1.291  17.584  0.0075  0.0176  0.0998
  204MPD1     H 3157   1.297   1.185  17.416 -0.2363 -1.1769  1.0495
  204MPD1    H1 3158   0.933   1.087  17.609 -1.8479  1.5790 -2.1017
  204MPD1    H2 3159   1.024   1.498  17.525  0.4105  0.6137  1.6178
  204MPD1    H3 3160   0.872   1.312  17.604 -0.0454  0.7954 -0.9926
  204MPD1     N 3161   1.164   0.987  17.497  0.2121  0.6368  0.1603
  204MPD1    H5 3162   1.257   0.978  17.458 -0.1069  2.7431 -1.1215
  204MPD1    N1 3163   1.264   1.449  17.410 -0.1516  0.1084 -0.2830
  204MPD1    H6 3164   1.216   1.536  17.392 -1.6669 -1.0651 -1.8521
  204MPD1    H7 3165   1.309   1.405  17.330 -2.3917  1.2287 -2.1242
  205MPD1     C 3166   1.858   3.843  17.681  0.5290 -0.2011  0.0455
  205MPD1    C1 3167   1.858   3.958  17.741  0.3049 -0.2391  0.0679
  205MPD1    C2 3168   1.742   4.035  17.737  0.2720  0.0508 -0.0225
  205MPD1    C3 3169   1.636   3.987  17.667  0.1561 -0.2778 -0.7740
  205MPD1    C4 3170   1.637   3.867  17.600  0.4849 -0.1913  0.6705
  205MPD1    C5 3171   1.754   3.804  17.602  0.1028 -0.5317 -0.0047
  205MPD1     H 3172   1.737   4.135   0.033  0.6871  0.7943 -1.7617
  205MPD1    H1 3173   1.552   3.830  17.545  0.8249 -2.1761  1.4829
  205MPD1    H2 3174   1.946   3.779  17.671  1.2939  1.1546 -1.7098
  205MPD1    H3 3175   1.766   3.725  17.529 -0.0405  0.7546 -1.4268
  205MPD1     N 3176   1.511   4.056  17.660 -0.1536 -0.1396 -0.8518
  205MPD1    H5 3177   1.450   4.021  17.587 -0.3613  0.5714 -1.0196
  205MPD1    N1 3178   1.983   4.017   0.030 -0.8451  0.1752 -0.1474
  205MPD1    H6 3179   2.056   3.954   0.062 -0.8898  0.1370 -0.1210
  205MPD1    H7 3180   1.965   4.092   0.097 -2.4307  0.7876 -1.2567
  206MPD1     C 3181   0.852   2.753  16.576 -1.0077  0.6102 -0.3833
  206MPD1    C1 3182   0.770   2.658  16.516  0.1850  0.3791 -0.8090
  206MPD1    C2 3183   0.814   2.617  16.387  0.1667  0.6702 -0.2963
  206MPD1    C3 3184   0.933   2.652  16.331  0.7503  0.2422  0.0138
  206MPD1    C4 3185   1.011   2.745  16.398  0.0449 -0.4596  0.0532
  206MPD1    C5 3186   0.967   2.794  16.515 -0.2089  0.5837  0.5639
  206MPD1     H 3187   0.740   2.556  16.336 -0.8054 -0.0918  2.0497
  206MPD1    H1 3188   1.109   2.774  16.362 -0.5250  0.0480 -1.0890
  206MPD1    H2 3189   0.818   2.812  16.660  4.0271  0.9089  1.4305
  206MPD1    H3 3190   1.018   2.878  16.561  1.2557 -0.0656  0.1135
  206MPD1     N 3191   0.982   2.607  16.206  0.0176  0.0559  0.0169
  206MPD1    H5 3192   1.066   2.652  16.173 -0.6465  1.6706  0.4763
  206MPD1    N1 3193   0.639   2.630  16.557 -0.7222  0.2343 -0.2138
  206MPD1    H6 3194   0.615   2.536  16.526 -2.3190  0.4335  0.4516
  206MPD1    H7 3195   0.618   2.634  16.656 -1.4611 -0.0200 -0.3601
  207MPD1     C 3196   3.878   3.940   9.871 -0.7813  0.7960 -0.5286
  207MPD1    C1 3197   3.783   4.039   9.887 -0.6843  0.0942 -0.0337
  207MPD1    C2 3198   3.803   4.116   9.997  0.5120 -0.3594  0.3133
  207MPD1    C3 3199   3.912   4.101  10.090 -0.1391  0.7142 -0.6807
  207MPD1    C4 3200   4.000   3.994  10.068  0.5386 -1.1865 -0.3532
  207MPD1    C5 3201   3.975   3.912   9.964  0.0734 -0.3658 -0.4468
  207MPD1     H 3202   3.719   4.181  10.022  0.4902 -0.8705  1.5970
  207MPD1    H1 3203   4.085   3.963  10.128  0.8036  0.0163 -0.1209
  207MPD1    H2 3204   3.855   3.860   9.801  2.5480 -0.7338  0.1140
  207MPD1    H3 3205   4.025   3.816   9.955 -1.4542 -1.1465 -0.6903
  207MPD1     N 3206   3.943   4.184  10.195 -0.1338  0.0710  0.0383
  207MPD1    H5 3207   4.018   4.164  10.260 -0.2489  1.0652  0.4779
  207MPD1    N1 3208   3.661   4.039   9.811 -0.3259  0.0479  0.3696
  207MPD1    H6 3209   3.642   4.126   9.762  0.0448 -0.8297 -1.3253
  207MPD1    H7 3210   3.661   3.966   9.740  0.3632 -0.4850  0.9234
  208MPD1     C 3211   1.563   2.689  16.828 -0.0699 -1.1737 -0.7597
  208MPD1    C1 3212   1.589   2.680  16.960  0.2980  0.3098  0.1538
  208MPD1    C2 3213   1.584   2.794  17.035  0.2550  0.2855  0.2462
  208MPD1    C3 3214   1.527   2.912  16.977  0.1973  0.4094  0.0079
  208MPD1    C4 3215   1.458   2.901  16.855 -0.1515 -0.0742 -0.8244
  208MPD1    C5 3216   1.499   2.796  16.782 -0.1795 -0.0698  0.6364
  208MPD1     H 3217   1.599   2.800  17.142 -0.4777 -0.8329  0.4115
  208MPD1    H1 3218   1.407   2.978  16.800 -0.2119  0.1322 -0.4773
  208MPD1    H2 3219   1.576   2.600  16.767  3.7242 -1.2082  0.1079
  208MPD1    H3 3220   1.469   2.802  16.679 -0.4155 -0.6781  0.6719
  208MPD1     N 3221   1.513   3.029  17.057  0.3948  0.5954 -0.2577
  208MPD1    H5 3222   1.554   3.033  17.150  0.1604 -1.8088 -0.0330
  208MPD1    N1 3223   1.643   2.564  17.009  0.8720  0.4619 -0.7781
  208MPD1    H6 3224   1.624   2.547  17.108 -1.1063 -0.0028 -1.2419
  208MPD1    H7 3225   1.602   2.482  16.965 -1.1173 -0.0643  1.9887
  209MPD1     C 3226   3.592   4.710  11.585 -0.1785  0.6573  0.1399
  209MPD1    C1 3227   3.663   4.694  11.472 -0.7168 -0.0122  0.1843
  209MPD1    C2 3228   3.740   4.577  11.460 -0.4587 -0.2973 -0.0324
  209MPD1    C3 3229   3.735   4.472  11.550  0.0071 -0.0634  0.2055
  209MPD1    C4 3230   3.651   4.496  11.663 -0.8475  0.0824 -0.2532
  209MPD1    C5 3231   3.583   4.611  11.678 -0.2182  0.0854  0.3889
  209MPD1     H 3232   3.815   4.573  11.381  0.0759 -1.3021  0.5273
  209MPD1    H1 3233   3.633   4.425  11.742  1.9983 -0.7852 -0.4121
  209MPD1    H2 3234   3.540   0.066  11.603  0.8543  1.4163 -0.7664
  209MPD1    H3 3235   3.515   4.624  11.761 -2.7977 -0.0245 -1.6790
  209MPD1     N 3236   3.822   4.357  11.528 -0.6169 -0.5347  0.0117
  209MPD1    H5 3237   3.876   4.370  11.443  0.0624 -0.0714  0.5169
  209MPD1    N1 3238   3.673   0.069  11.393 -0.1166 -0.6558  0.7667
  209MPD1    H6 3239   3.585   0.121  11.392 -0.0736 -0.5682  2.3507
  209MPD1    H7 3240   3.690   0.038  11.297 -1.0373  0.6584  0.1712
  210MPD1     C 3241   4.075   3.428  11.858 -0.4814  0.5320 -0.1333
  210MPD1    C1 3242   4.149   3.453  11.740 -0.5284 -0.3722  0.3366
  210MPD1    C2 3243   4.136   3.572  11.671 -0.3740  0.5357 -0.2000
  210MPD1    C3 3244   4.049   3.662  11.721 -0.1135 -0.9180  0.3585
  210MPD1    C4 3245   3.970   3.636  11.832 -0.2376 -0.9906 -0.3542
  210MPD1    C5 3246   3.980   3.517  11.895  0.0210  0.3744 -0.0499
  210MPD1     H 3247   4.211   3.600  11.599 -0.1566  0.5602  0.0346
  210MPD1    H1 3248   3.902   3.711  11.871  0.8945 -0.4921  0.6731
  210MPD1    H2 3249   4.081   3.336  11.913  0.2180 -0.2829 -1.5631
  210MPD1    H3 3250   3.925   3.499  11.986 -0.0012 -1.9354 -0.5040
  210MPD1     N 3251   4.035   3.789  11.657  0.2491 -0.1884 -0.1195
  210MPD1    H5 3252   3.964   3.847  11.702 -0.2304  0.0221 -1.1550
  210MPD1    N1 3253   4.230   3.351  11.682 -0.1686  0.1280 -0.1527
  210MPD1    H6 3254   4.268   3.278  11.741  1.2030  0.3749 -0.7318
  210MPD1    H7 3255   4.314   3.381  11.633  0.1290 -2.5956 -1.2938
  211MPD1     C 3256   1.652   4.019  16.508 -0.7510  0.3196 -0.4147
  211MPD1    C1 3257   1.729   4.130  16.520 -0.6163 -0.5399  0.6063
  211MPD1    C2 3258   1.683   4.249  16.460 -0.4805 -0.3987 -0.4021
  211MPD1    C3 3259   1.558   4.254  16.390 -0.0302 -0.1987 -0.0908
  211MPD1    C4 3260   1.490   4.140  16.367 -0.7121  0.6785 -0.2478
  211MPD1    C5 3261   1.538   4.028  16.435 -0.6017  0.0066  0.1156
  211MPD1     H 3262   1.747   4.336  16.469 -1.3544  0.0918  1.0747
  211MPD1    H1 3263   1.410   4.138  16.294  0.8730  0.4788 -1.9696
  211MPD1    H2 3264   1.679   3.921  16.548  0.7532  0.8969 -0.0291
  211MPD1    H3 3265   1.483   3.935  16.420  0.7389 -0.6871 -0.5282
  211MPD1     N 3266   1.521   4.379  16.338  0.1427  0.5665  0.7554
  211MPD1    H5 3267   1.594   4.448  16.347  1.7776 -1.2279  1.2220
  211MPD1    N1 3268   1.847   4.132  16.600 -0.0334 -0.4583 -0.1518
  211MPD1    H6 3269   1.895   4.043  16.604 -1.2194 -1.1969 -2.4465
  211MPD1    H7 3270   1.912   4.208  16.580 -1.1493  0.0703 -1.7697
  212MPD1     C 3271   0.715   2.928  16.928 -0.2622 -0.3175  1.1788
  212MPD1    C1 3272   0.770   2.799  16.927  0.0860  0.1678 -0.1416
  212MPD1    C2 3273   0.673   2.699  16.937 -0.4513  0.1644  0.4166
  212MPD1    C3 3274   0.535   2.724  16.931  0.5634 -0.4370  0.3287
  212MPD1    C4 3275   0.495   2.851  16.918  0.4344  0.8063 -0.2642
  212MPD1    C5 3276   0.583   2.955  16.915 -0.1162  0.7106 -0.1943
  212MPD1     H 3277   0.701   2.594  16.942 -3.7316 -0.7274  0.1917
  212MPD1    H1 3278   0.389   2.875  16.916 -0.1855 -1.9432 -0.6032
  212MPD1    H2 3279   0.783   3.011  16.943  1.5447 -1.2230 -1.9094
  212MPD1    H3 3280   0.547   3.057  16.922 -1.0412  0.3120  0.8019
  212MPD1     N 3281   0.435   2.629  16.938 -0.0796  0.1364  0.4647
  212MPD1    H5 3282   0.342   2.668  16.927  0.1963  1.1350  1.7270
  212MPD1    N1 3283   0.907   2.777  16.946  0.1032 -0.3812  0.2607
  212MPD1    H6 3284   0.961   2.839  16.885  1.4805 -0.5223  1.3412
  212MPD1    H7 3285   0.926   2.687  16.903  1.2057 -0.9732  2.0205
  213MPD1     C 3286   3.636   3.046  16.041  0.1791  0.2330 -0.5043
  213MPD1    C1 3287   3.624   2.909  16.044 -0.6685  0.0949 -0.2978
  213MPD1    C2 3288   3.614   2.847  15.918  0.2340 -0.6634 -0.1328
  213MPD1    C3 3289   3.588   2.928  15.803  0.1681 -0.2091  0.8524
  213MPD1    C4 3290   3.569   3.064  15.820 -0.0775  0.2350  0.2175
  213MPD1    C5 3291   3.580   3.119  15.942 -0.2567  0.2102 -0.3835
  213MPD1     H 3292   3.624   2.741  15.900 -0.6943 -0.4156 -2.1061
  213MPD1    H1 3293   3.547   3.132  15.738 -1.0774  0.9831  1.1198
  213MPD1    H2 3294   3.656   3.104  16.131 -1.5102  0.6295 -0.3796
  213MPD1    H3 3295   3.572   3.226  15.958 -1.0188  0.4963 -2.6418
  213MPD1     N 3296   3.553   2.870  15.681  0.2350 -0.1437  0.7848
  213MPD1    H5 3297   3.554   2.769  15.673 -1.4576 -0.2025  1.2784
  213MPD1    N1 3298   3.686   2.848  16.152 -0.2208  0.7856 -0.3597
  213MPD1    H6 3299   3.672   2.891  16.244 -1.3614 -0.0953 -0.1168
  213MPD1    H7 3300   3.658   2.750  16.161 -0.7516  1.0675  1.1478
  214MPD1     C 3301   3.140   2.121  15.575  0.2460 -0.2772  1.4811
  214MPD1    C1 3302   3.113   2.190  15.459  0.2247  0.0113  0.4734
  214MPD1    C2 3303   3.190   2.304  15.429  0.2450  0.0900 -0.2312
  214MPD1    C3 3304   3.254   2.364  15.530 -0.1436 -0.0626  0.4252
  214MPD1    C4 3305   3.263   2.311  15.655 -0.4233 -0.3573 -0.9232
  214MPD1    C5 3306   3.205   2.186  15.672 -0.2308  0.0193 -0.3419
  214MPD1     H 3307   3.186   2.341  15.327 -2.2758  1.1197  0.2465
  214MPD1    H1 3308   3.316   2.362  15.735 -0.6062 -1.9851  0.2524
  214MPD1    H2 3309   3.098   2.021  15.586 -2.0060  0.5711  0.5137
  214MPD1    H3 3310   3.234   2.137  15.764  0.4031 -0.8937 -1.0282
  214MPD1     N 3311   3.313   2.492  15.501  0.1386  0.6259 -0.5874
  214MPD1    H5 3312   3.383   2.531  15.563 -0.7547  0.0516  0.7696
  214MPD1    N1 3313   3.034   2.134  15.360 -1.1550  0.2438  0.3790
  214MPD1    H6 3314   2.953   2.099  15.411 -0.5092  0.0568  1.2710
  214MPD1    H7 3315   2.998   2.203  15.294 -1.3238  1.6450  1.9390
  215MPD1     C 3316   4.025   3.548  10.044  0.0294 -0.3694 -0.3736
  215MPD1    C1 3317   3.890   3.515  10.065 -0.4268 -0.1262 -0.0179
  215MPD1    C2 3318   3.832   3.559  10.181  0.2292  0.1984 -0.1493
  215MPD1    C3 3319   3.918   3.617  10.280  0.1444  0.1799 -0.5233
  215MPD1    C4 3320   4.046   3.637  10.255 -0.8745 -0.1948  0.8301
  215MPD1    C5 3321   4.107   3.608  10.140 -0.6147 -0.5004  0.3772
  215MPD1     H 3322   3.727   3.540  10.200 -0.3613  0.6168 -2.9117
  215MPD1    H1 3323   4.110   3.697  10.319 -0.9337  0.8547 -0.0866
  215MPD1    H2 3324   4.068   3.538   9.945 -0.2751  0.4070 -0.5876
  215MPD1    H3 3325   4.211   3.622  10.113  0.0583 -0.2223  3.1216
  215MPD1     N 3326   3.853   3.673  10.391 -0.3940 -0.0499 -0.3370
  215MPD1    H5 3327   3.754   3.694  10.392 -0.1013  1.2909  1.0052
  215MPD1    N1 3328   3.802   3.480   9.967 -0.0321 -0.7191 -0.3425
  215MPD1    H6 3329   3.722   3.431  10.005  1.5390 -2.5823  0.5746
  215MPD1    H7 3330   3.852   3.417   9.903 -0.3841  1.8734 -3.1564
  216MPD1     C 3331   1.177   2.573  16.838  0.5458 -0.2310 -1.0212
  216MPD1    C1 3332   1.196   2.509  16.960  0.5818 -0.0950  0.5834
  216MPD1    C2 3333   1.110   2.417  17.005 -0.0608  0.4566  0.3349
  216MPD1    C3 3334   1.001   2.377  16.933 -0.4998  0.1248  0.3845
  216MPD1    C4 3335   0.983   2.443  16.814  0.4300 -0.2616  0.4439
  216MPD1    C5 3336   1.069   2.537  16.768 -0.4784 -0.2323 -0.3821
  216MPD1     H 3337   1.119   2.378  17.106 -0.9327  0.8939  0.5780
  216MPD1    H1 3338   0.898   2.424  16.749 -1.1273  1.1038  2.1134
  216MPD1    H2 3339   1.233   2.661  16.812  1.6342 -1.2070 -1.9571
  216MPD1    H3 3340   1.037   2.597  16.685  0.2622  0.8832  0.1335
  216MPD1     N 3341   0.903   2.289  16.984  0.3123  0.7268  0.1814
  216MPD1    H5 3342   0.916   2.258  17.080  1.6796 -0.0853 -0.2713
  216MPD1    N1 3343   1.298   2.557  17.041 -0.3197  0.0138 -0.6849
  216MPD1    H6 3344   1.380   2.592  16.991  0.9214 -2.2695 -0.2434
  216MPD1    H7 3345   1.339   2.484  17.099  0.0148  2.0768  1.6986
  217MPD1     C 3346   4.472   3.257   8.470 -0.2547 -0.3885 -0.0469
  217MPD1    C1 3347   4.516   3.382   8.502  0.6787  0.2931 -0.3960
  217MPD1    C2 3348   4.648   3.391   8.555 -0.4495  0.7123 -0.2123
  217MPD1    C3 3349   4.729   3.280   8.577 -0.6183 -0.0007  0.0715
  217MPD1    C4 3350   4.686   3.159   8.535  0.5822  0.5949  0.3873
  217MPD1    C5 3351   4.558   3.149   8.498 -0.1686 -0.1432 -0.0354
  217MPD1     H 3352   4.693   3.488   8.567 -0.7928  1.1067 -2.0142
  217MPD1    H1 3353   0.014   3.072   8.541  1.1191  1.0132  0.6212
  217MPD1    H2 3354   4.378   3.242   8.417 -0.0999  0.2701 -0.5018
  217MPD1    H3 3355   4.515   3.052   8.479 -0.8172  0.4671 -1.6816
  217MPD1     N 3356   0.120   3.299   8.638  0.0603  0.4363 -0.3596
  217MPD1    H5 3357   0.172   3.212   8.647  0.5980  0.8042  0.0676
  217MPD1    N1 3358   4.445   3.492   8.459  0.4134 -0.8134 -0.0549
  217MPD1    H6 3359   4.347   3.472   8.474  0.1901  0.1005 -0.3018
  217MPD1    H7 3360   4.468   3.578   8.508  1.8882 -0.7852 -0.7885
  218MPD1     C 3361   2.564   0.479  12.454 -0.2425  0.7976 -0.0233
  218MPD1    C1 3362   2.663   0.520  12.541 -0.3880  0.4480 -0.7838
  218MPD1    C2 3363   2.740   0.424  12.608 -0.9334  0.0524  0.0954
  218MPD1    C3 3364   2.719   0.294  12.586 -0.5130 -0.5792 -0.8450
  218MPD1    C4 3365   2.632   0.253  12.484 -0.4359 -0.1537  0.1238
  218MPD1    C5 3366   2.554   0.344  12.427  0.4891  0.0829 -0.1236
  218MPD1     H 3367   2.819   0.463  12.671  0.6001  0.5179 -2.0972
  218MPD1    H1 3368   2.617   0.153  12.445 -0.0315 -0.8271  1.6751
  218MPD1    H2 3369   2.498   0.548  12.404 -0.2774  2.6689  2.5875
  218MPD1    H3 3370   2.483   0.316  12.349  2.9018 -0.8076 -1.9983
  218MPD1     N 3371   2.793   0.202  12.663 -0.0034  0.7284 -0.3785
  218MPD1    H5 3372   2.864   0.230  12.730 -0.1390  0.9103 -0.3110
  218MPD1    N1 3373   2.708   0.654  12.540 -0.1911  0.6303  0.0850
  218MPD1    H6 3374   2.763   0.676  12.622  0.4118 -0.9508  0.1049
  218MPD1    H7 3375   2.627   0.715  12.548  1.9020  3.3578  0.5720
  219MPD1     C 3376   3.703   4.441  12.678  0.2833  0.0932 -0.3749
  219MPD1    C1 3377   3.658   4.553  12.617 -0.1411  1.1645 -0.4371
  219MPD1    C2 3378   3.521   4.585  12.633 -0.5204 -0.0637 -0.1861
  219MPD1    C3 3379   3.442   4.507  12.720 -0.2444 -0.4283  0.1369
  219MPD1    C4 3380   3.495   4.397  12.780  0.0899 -0.4753 -0.4032
  219MPD1    C5 3381   3.626   4.362  12.758  0.5136 -0.1399 -0.0927
  219MPD1     H 3382   3.477   4.663  12.573 -1.1982 -0.1318  0.2197
  219MPD1    H1 3383   3.425   4.335  12.836  1.9690 -1.0575  1.3018
  219MPD1    H2 3384   3.803   4.399  12.674  0.0287 -0.5157 -0.4425
  219MPD1    H3 3385   3.670   4.270  12.795  0.7608  1.4156  3.4788
  219MPD1     N 3386   3.303   4.530  12.748  0.0222  0.3688  0.1808
  219MPD1    H5 3387   3.266   4.463  12.815  1.6688  0.7081  1.4343
  219MPD1    N1 3388   3.737   4.615  12.520 -0.1296  0.5120  0.2397
  219MPD1    H6 3389   3.835   4.601  12.545  0.5235  1.6164 -1.7231
  219MPD1    H7 3390   3.725   4.714  12.502 -3.2744  0.5483  2.5357
  220MPD1     C 3391   3.199   4.658   9.098  0.0923 -0.2391  0.1541
  220MPD1    C1 3392   3.180   4.526   9.069 -0.4858  0.1084  1.1067
  220MPD1    C2 3393   3.193   4.448   9.182  0.0824 -0.2898  0.3918
  220MPD1    C3 3394   3.191   4.503   9.311 -0.5239  0.7955  0.3260
  220MPD1    C4 3395   3.192   4.640   9.329 -0.4937  0.2620  1.0062
  220MPD1    C5 3396   3.199   4.717   9.221 -0.5406 -0.3527  0.5142
  220MPD1     H 3397   3.201   4.342   9.165  1.9495 -0.2084  0.8267
  220MPD1    H1 3398   3.192   4.685   9.428 -2.0391  2.7458 -0.1131
  220MPD1    H2 3399   3.212   4.723   9.012  1.5300  0.9747  1.2944
  220MPD1    H3 3400   3.205   0.088   9.216 -2.0128 -0.1935  1.9505
  220MPD1     N 3401   3.199   4.411   9.416  0.3042 -0.4458  0.0630
  220MPD1    H5 3402   3.213   4.314   9.389 -1.1693 -0.5763 -0.2039
  220MPD1    N1 3403   3.189   4.479   8.938 -0.7602  0.3253 -0.6538
  220MPD1    H6 3404   3.173   4.379   8.922 -0.3784 -0.1854  2.2020
  220MPD1    H7 3405   3.141   4.537   8.869 -1.4792  3.3595  2.4137
  221MPD1     C 3406   0.683   4.355  15.745 -0.5685  0.5072 -0.3742
  221MPD1    C1 3407   0.688   4.224  15.776  0.2089  0.2962  0.4575
  221MPD1    C2 3408   0.816   4.170  15.802 -0.1780  0.5890  0.2171
  221MPD1    C3 3409   0.926   4.253  15.825  0.0999 -0.6257 -0.4806
  221MPD1    C4 3410   0.912   4.390  15.806 -0.5813  0.4664  0.2730
  221MPD1    C5 3411   0.794   4.436  15.759 -0.6294 -0.4606  0.4408
  221MPD1     H 3412   0.825   4.062  15.801 -0.1462  0.5928 -0.0792
  221MPD1    H1 3413   0.993   4.457  15.831  0.6534 -1.5892  1.8581
  221MPD1    H2 3414   0.597   4.413  15.714 -1.1914  0.8312  1.9915
  221MPD1    H3 3415   0.776   4.540  15.734 -0.4585 -0.7384 -0.8217
  221MPD1     N 3416   1.052   4.203  15.873  0.0391 -0.5007 -0.8437
  221MPD1    H5 3417   1.133   4.264  15.872  0.4640 -1.0597 -0.4504
  221MPD1    N1 3418   0.576   4.141  15.752 -0.2063  0.3485  0.1036
  221MPD1    H6 3419   0.490   4.193  15.764  0.0187  0.9411 -0.8736
  221MPD1    H7 3420   0.583   4.064  15.818  1.8122  0.4607  0.0336
  222MPD1     C 3421   0.483   3.560  17.224  0.0333  0.5501  0.1362
  222MPD1    C1 3422   0.388   3.475  17.179  0.5825  1.0074  0.1156
  222MPD1    C2 3423   0.271   3.461  17.246 -0.6113 -0.9878  0.5792
  222MPD1    C3 3424   0.235   3.539  17.357 -0.0372  0.1124 -0.2938
  222MPD1    C4 3425   0.334   3.621  17.412  0.6894 -0.5018  0.9624
  222MPD1    C5 3426   0.451   3.628  17.339 -0.1424 -0.4369 -0.2388
  222MPD1     H 3427   0.201   3.390  17.204 -1.4431  0.4481 -0.4771
  222MPD1    H1 3428   0.319   3.687  17.497  0.5959  0.3888  0.2595
  222MPD1    H2 3429   0.582   3.565  17.180  0.3104 -1.0924  0.5693
  222MPD1    H3 3430   0.531   3.685  17.385  1.4367 -1.6746 -1.4190
  222MPD1     N 3431   0.108   3.534  17.417 -0.4325 -0.2177 -0.4590
  222MPD1    H5 3432   0.089   3.595  17.496 -0.1711 -0.6321 -0.0765
  222MPD1    N1 3433   0.411   3.375  17.080  0.3714 -0.1098 -0.1468
  222MPD1    H6 3434   0.472   3.407  17.004  2.4135 -1.9843  0.6920
  222MPD1    H7 3435   0.325   3.329  17.052  1.3056 -1.8188 -0.2074
  223MPD1     C 3436   3.751   3.446  17.319 -0.4101  0.2605 -0.2293
  223MPD1    C1 3437   3.775   3.448  17.454 -0.1162 -0.4081 -0.0668
  223MPD1    C2 3438   3.903   3.448  17.499 -0.4687  0.1645  0.1805
  223MPD1    C3 3439   4.012   3.430  17.411 -0.0550 -0.1241 -0.0295
  223MPD1    C4 3440   3.988   3.419  17.276 -0.5265 -0.1213 -0.4311
  223MPD1    C5 3441   3.863   3.430  17.232  0.6908 -0.3611 -0.1488
  223MPD1     H 3442   3.933   3.462  17.602 -2.2438 -0.6937  0.8235
  223MPD1    H1 3443   4.071   3.426  17.207  0.4608  2.7324  1.0565
  223MPD1    H2 3444   3.654   3.454  17.272 -0.3385  0.0647 -0.4088
  223MPD1    H3 3445   3.847   3.422  17.125 -1.9996 -1.0132  0.3126
  223MPD1     N 3446   4.143   3.449  17.462  0.5982 -0.2637 -0.6251
  223MPD1    H5 3447   4.150   3.464  17.562 -0.7865 -0.1691 -0.5400
  223MPD1    N1 3448   3.672   3.462  17.546 -0.5205  0.0059  0.3346
  223MPD1    H6 3449   3.583   3.421  17.518  0.3845 -1.7440  0.0338
  223MPD1    H7 3450   3.696   3.411  17.631 -0.7483  0.8904  0.9367
  224MPD1     C 3451   0.410   3.794   8.573  0.6434 -0.0124 -0.0756
  224MPD1    C1 3452   0.376   3.864   8.685  0.2282 -0.3063 -0.4647
  224MPD1    C2 3453   0.464   3.868   8.795 -0.7476 -0.0191 -0.3594
  224MPD1    C3 3454   0.588   3.810   8.792  1.0714  0.5130 -0.7617
  224MPD1    C4 3455   0.614   3.735   8.682  0.2843  0.4691  1.5005
  224MPD1    C5 3456   0.522   3.721   8.580  0.5257  0.0493 -0.4108
  224MPD1     H 3457   0.426   3.922   8.880 -0.8015 -1.8102  0.7495
  224MPD1    H1 3458   0.709   3.684   8.669  0.1579  0.6707 -0.2708
  224MPD1    H2 3459   0.363   3.802   8.476 -2.1123  0.9519  1.3261
  224MPD1    H3 3460   0.547   3.671   8.487  0.1797 -1.1055  0.1191
  224MPD1     N 3461   0.687   3.810   8.898 -0.6700 -0.1869  0.2040
  224MPD1    H5 3462   0.777   3.767   8.880 -0.1513  1.3935 -0.9406
  224MPD1    N1 3463   0.259   3.945   8.680  0.3383 -0.0747  0.3103
  224MPD1    H6 3464   0.195   3.894   8.620 -0.8634 -0.0530  1.5690
  224MPD1    H7 3465   0.219   3.950   8.774  0.5391 -2.0893  0.5142
  225MPD1     C 3466   3.274   0.431  12.580  0.5260  0.0834 -0.0546
  225MPD1    C1 3467   3.279   0.305  12.528 -0.0997 -0.1719 -0.4446
  225MPD1    C2 3468   3.174   0.267  12.446 -0.3739 -0.3073  0.4794
  225MPD1    C3 3469   3.060   0.333  12.428 -0.4827  0.3321 -0.2355
  225MPD1    C4 3470   3.054   0.461  12.477 -0.3437 -0.4081 -0.5257
  225MPD1    C5 3471   3.160   0.508  12.553  0.4883 -0.1834 -0.9337
  225MPD1     H 3472   3.178   0.174  12.390  2.4254 -0.1549  0.4057
  225MPD1    H1 3473   2.962   0.518  12.473  0.2237  0.4689 -1.2042
  225MPD1    H2 3474   3.352   0.470  12.644  0.0691 -2.1025  1.8290
  225MPD1    H3 3475   3.144   0.607  12.596  0.5590 -0.3728 -0.4746
  225MPD1     N 3476   2.944   0.285  12.354  0.6871 -0.1426 -0.3169
  225MPD1    H5 3477   2.863   0.344  12.338  0.4317 -0.4983 -0.3349
  225MPD1    N1 3478   3.396   0.229  12.533 -0.2603 -0.1584  0.2188
  225MPD1    H6 3479   3.468   0.262  12.598 -0.2919  0.4487 -0.0493
  225MPD1    H7 3480   3.377   0.129  12.539 -0.0028 -0.0548  2.7948
  226MPD1     C 3481   0.243   3.239   8.296  0.1944 -0.1909  0.3526
  226MPD1    C1 3482   0.366   3.295   8.319  0.1915  0.4051  0.1091
  226MPD1    C2 3483   0.479   3.215   8.306 -0.2871 -0.6348 -0.2338
  226MPD1    C3 3484   0.461   3.075   8.312  0.0166  0.2246 -0.5955
  226MPD1    C4 3485   0.333   3.021   8.312 -0.0382 -0.0313 -0.4203
  226MPD1    C5 3486   0.223   3.105   8.298 -0.1584  0.4327  0.1147
  226MPD1     H 3487   0.581   3.251   8.315 -0.0305 -0.3443 -4.3279
  226MPD1    H1 3488   0.307   2.916   8.321 -0.9484  0.2275 -0.0186
  226MPD1    H2 3489   0.155   3.301   8.282  0.8677  1.0514  1.6693
  226MPD1    H3 3490   0.123   3.064   8.289 -0.3564  1.1179 -0.8011
  226MPD1     N 3491   0.577   3.005   8.332  0.1541 -0.2377 -0.6937
  226MPD1    H5 3492   0.658   3.063   8.350 -0.3826  1.0010 -2.2037
  226MPD1    N1 3493   0.378   3.434   8.326 -0.5066 -0.1947  0.2265
  226MPD1    H6 3494   0.293   3.479   8.360  0.7868  1.3895  1.3553
  226MPD1    H7 3495   0.464   3.477   8.359  1.5164 -3.3023 -1.0452
  227MPD1     C 3496   1.129   2.182   8.757 -0.0977  0.6334  0.3335
  227MPD1    C1 3497   1.212   2.293   8.737  0.2615 -0.1371  0.8081
  227MPD1    C2 3498   1.178   2.386   8.642  0.0045  0.1681 -0.7928
  227MPD1    C3 3499   1.054   2.385   8.582 -0.1354 -0.6243 -0.5570
  227MPD1    C4 3500   0.962   2.296   8.629  0.3199 -0.2684  0.3137
  227MPD1    C5 3501   1.005   2.184   8.702  0.2694  0.6926  0.2053
  227MPD1     H 3502   1.244   2.469   8.619  0.8374 -0.2834 -0.0209
  227MPD1    H1 3503   0.854   2.304   8.617  0.5003  1.1147 -0.3250
  227MPD1    H2 3504   1.158   2.093   8.811  1.1580  0.8420 -0.0020
  227MPD1    H3 3505   0.932   2.107   8.725  0.7847  0.2226  0.2651
  227MPD1     N 3506   1.032   2.497   8.499 -0.2848 -0.5726 -0.5196
  227MPD1    H5 3507   1.105   2.566   8.484 -1.2580  0.5249 -0.2393
  227MPD1    N1 3508   1.340   2.283   8.790 -0.5572  0.6190 -0.1244
  227MPD1    H6 3509   1.334   2.229   8.876  0.6234  1.6810  0.6191
  227MPD1    H7 3510   1.381   2.374   8.809 -0.4166  0.2349  1.4131
  228MPD1     C 3511   4.396   2.957  12.360  0.0028 -0.0113  0.1479
  228MPD1    C1 3512   4.382   2.913  12.490 -0.1789 -0.0997 -0.4980
  228MPD1    C2 3513   4.262   2.853  12.520  0.4685 -1.1175 -0.6611
  228MPD1    C3 3514   4.162   2.827  12.425  0.5493 -0.1063  0.9974
  228MPD1    C4 3515   4.177   2.881  12.299  0.2001 -0.0117  0.3636
  228MPD1    C5 3516   4.293   2.946  12.267  0.1250  0.4811 -0.0231
  228MPD1     H 3517   4.254   2.810  12.619  0.0457 -1.4477 -0.8394
  228MPD1    H1 3518   4.100   2.883  12.223  0.9797  1.9554 -0.3950
  228MPD1    H2 3519   4.493   3.002  12.342 -0.3362  0.1513 -1.2574
  228MPD1    H3 3520   4.314   2.990  12.171 -0.6562 -1.7430 -1.2020
  228MPD1     N 3521   4.044   2.756  12.471  0.0082 -0.2827 -0.1521
  228MPD1    H5 3522   4.035   2.736  12.570  0.5477  0.5007  0.0574
  228MPD1    N1 3523   4.482   2.935  12.590 -0.3088  0.6179 -0.0737
  228MPD1    H6 3524   4.479   2.876  12.673  0.7867 -0.0868 -0.5225
  228MPD1    H7 3525   4.573   2.935  12.544  0.0688 -0.5253  0.6718
  229MPD1     C 3526   4.273   1.922  14.538 -0.2752 -0.2245  0.5229
  229MPD1    C1 3527   4.341   1.961  14.653 -0.5013 -0.1839  0.2096
  229MPD1    C2 3528   4.332   1.886  14.769  0.1064 -0.1666  0.6358
  229MPD1    C3 3529   4.264   1.760  14.769  0.1650  0.2763  0.2095
  229MPD1    C4 3530   4.202   1.723  14.653 -0.3357  0.0407 -0.1345
  229MPD1    C5 3531   4.206   1.805  14.541 -0.4977  0.1031 -0.0250
  229MPD1     H 3532   4.406   1.920  14.841 -0.1919  1.3321  0.2249
  229MPD1    H1 3533   4.141   1.634  14.649 -2.0104  1.1829  0.2867
  229MPD1    H2 3534   4.276   1.981  14.447 -0.0937 -0.9435  0.0664
  229MPD1    H3 3535   4.151   1.782  14.450  1.2370 -2.5981 -0.3978
  229MPD1     N 3536   4.272   1.668  14.876 -0.2155  0.5080  0.2982
  229MPD1    H5 3537   4.249   1.571  14.856  0.7416 -0.0406  1.8310
  229MPD1    N1 3538   4.400   2.089  14.662  0.2746  0.4057 -0.2316
  229MPD1    H6 3539   4.471   2.109  14.733 -1.9175  2.4194  1.3933
  229MPD1    H7 3540   4.437   2.121  14.573  1.5174 -0.3520  0.0184
  230MPD1     C 3541   0.144   1.857  15.640 -0.1943  0.0516 -0.5136
  230MPD1    C1 3542   0.066   1.937  15.554  0.4574 -0.0186  0.6210
  230MPD1    C2 3543   4.698   1.876  15.484 -0.1630 -0.1073 -0.5141
  230MPD1    C3 3544   4.672   1.743  15.482  0.0416 -0.0574 -0.9765
  230MPD1    C4 3545   0.018   1.670  15.566  0.6296 -0.4143 -0.3688
  230MPD1    C5 3546   0.121   1.722  15.642 -0.0458 -0.0322  0.2958
  230MPD1     H 3547   4.630   1.928  15.417 -0.2967 -0.6079 -0.7657
  230MPD1    H1 3548   0.011   1.562  15.555 -0.1526 -0.4419  0.3615
  230MPD1    H2 3549   0.236   1.889  15.689 -1.3191  0.7984  1.1257
  230MPD1    H3 3550   0.176   1.653  15.706 -0.1589 -0.0199  0.4056
  230MPD1     N 3551   4.568   1.694  15.399  0.1840 -0.5124 -0.0143
  230MPD1    H5 3552   4.549   1.756  15.321  0.6220 -2.6042 -1.7692
  230MPD1    N1 3553   0.069   2.083  15.561  0.8094  0.6865  0.2428
  230MPD1    H6 3554   0.083   2.128  15.470 -0.2875 -1.4957 -1.0049
  230MPD1    H7 3555   0.153   2.109  15.613 -0.7468  4.3984  0.8389
  231MPD1     C 3556   2.588   3.523  15.764  0.2742  0.1687  0.3248
  231MPD1    C1 3557   2.538   3.460  15.652 -0.0716 -0.2942 -0.0152
  231MPD1    C2 3558   2.613   3.484  15.532 -0.2120  0.1353  0.6277
  231MPD1    C3 3559   2.717   3.585  15.523 -0.0103  0.3922  0.4066
  231MPD1    C4 3560   2.751   3.651  15.639 -0.2867 -0.0283 -0.1238
  231MPD1    C5 3561   2.692   3.618  15.759 -0.3963 -0.6415  0.6202
  231MPD1     H 3562   2.584   3.414  15.455  0.4128  1.2994 -0.6635
  231MPD1    H1 3563   2.828   3.727  15.647 -0.8945  0.7330 -1.3780
  231MPD1    H2 3564   2.569   3.484  15.863  1.7739 -1.2079  0.0844
  231MPD1    H3 3565   2.713   3.666  15.854 -1.4893  0.9070  0.0815
  231MPD1     N 3566   2.781   3.597  15.395 -0.8363  0.6044 -0.0663
  231MPD1    H5 3567   2.737   3.537  15.326 -0.1717 -0.7912  0.7310
  231MPD1    N1 3568   2.455   3.345  15.671 -0.2469  0.2668  0.4119
  231MPD1    H6 3569   2.404   3.353  15.759 -0.2760 -1.0242  0.5144
  231MPD1    H7 3570   2.391   3.336  15.592 -1.4472 -0.1561  1.4182
  232MPD1     C 3571   4.717   1.434   0.175 -0.4392  0.0863  0.0928
  232MPD1    C1 3572   4.680   1.344   0.276  0.2533  0.2411 -0.4549
  232MPD1    C2 3573   4.612   1.228   0.236  0.4465 -0.7809 -0.3751
  232MPD1    C3 3574   4.569   1.213   0.103 -0.1604 -0.1223  0.7518
  232MPD1    C4 3575   4.612   1.301   0.012 -0.1955 -0.4101  0.2520
  232MPD1    C5 3576   4.684   1.415   0.048  0.0444  0.5166 -0.5926
  232MPD1     H 3577   4.580   1.155   0.310  1.2546  0.4191  1.1693
  232MPD1    H1 3578   4.585   1.288  17.654  2.0425  0.7491 -0.4535
  232MPD1    H2 3579   0.049   1.515   0.198  0.4729 -0.3783 -1.0060
  232MPD1    H3 3580   4.700   1.488  17.716 -0.1589  1.3627  0.1602
  232MPD1     N 3581   4.490   1.101   0.075  0.3769  0.2567 -0.0750
  232MPD1    H5 3582   4.475   1.036   0.152  0.7562  0.6673  0.3456
  232MPD1    N1 3583   4.730   1.353   0.403  0.0800 -0.2280 -0.3913
  232MPD1    H6 3584   4.666   1.308   0.468 -0.3446  0.9182 -0.0324
  232MPD1    H7 3585   0.012   1.450   0.427 -1.1132  0.3144 -1.6618
  233MPD1     C 3586   0.851   3.328  17.537 -0.0150 -0.5260  0.1259
  233MPD1    C1 3587   0.744   3.410  17.518  0.5718  0.3056  0.3130
  233MPD1    C2 3588   0.739   3.539  17.559 -0.1678  0.2846  0.1426
  233MPD1    C3 3589   0.850   3.595  17.625  0.2572  0.4989  0.4959
  233MPD1    C4 3590   0.961   3.509  17.642 -0.6918 -0.2499  0.5603
  233MPD1    C5 3591   0.966   3.381  17.585 -0.0633  0.2674 -0.2999
  233MPD1     H 3592   0.655   3.605  17.541  0.6236  1.6277  1.3427
  233MPD1    H1 3593   1.045   3.544  17.701 -1.1454 -0.9921  1.6457
  233MPD1    H2 3594   0.850   3.228  17.495 -3.1514 -0.3485 -0.2033
  233MPD1    H3 3595   1.051   3.315  17.593  0.2297  0.3622 -2.6953
  233MPD1     N 3596   0.840   3.721  17.691 -0.1929 -0.4418 -0.1140
  233MPD1    H5 3597   0.922   3.739   0.003  0.4497  0.1399 -1.2139
  233MPD1    N1 3598   0.634   3.359  17.450  0.5295 -0.2706 -0.2171
  233MPD1    H6 3599   0.602   3.264  17.467 -1.0349 -0.0785 -2.0046
  233MPD1    H7 3600   0.553   3.420  17.457 -1.5224 -2.8673 -1.3641
  234MPD1     C 3601   1.892   2.323   8.955  0.3690 -0.6082 -0.6190
  234MPD1    C1 3602   1.885   2.418   9.053  0.5881  0.1315  0.3525
  234MPD1    C2 3603   1.792   2.516   9.051  0.3979  0.5194  0.7976
  234MPD1    C3 3604   1.702   2.528   8.940 -0.2128  0.0436 -1.3976
  234MPD1    C4 3605   1.716   2.436   8.835 -0.7595 -0.2405  0.8823
  234MPD1    C5 3606   1.810   2.333   8.848  0.6697  0.1983 -0.3786
  234MPD1     H 3607   1.781   2.577   9.140 -0.2434  0.4042  0.7995
  234MPD1    H1 3608   1.660   2.443   8.742  2.3172 -1.4433 -1.0569
  234MPD1    H2 3609   1.949   2.230   8.950  0.4683 -0.5478 -0.6089
  234MPD1    H3 3610   1.812   2.257   8.771 -2.0224 -0.4504  0.2016
  234MPD1     N 3611   1.602   2.626   8.941 -0.2447  0.5075  0.0896
  234MPD1    H5 3612   1.602   2.691   9.018 -0.3114  2.7184 -1.7929
  234MPD1    N1 3613   1.970   2.398   9.163 -0.2244  0.0313 -0.0731
  234MPD1    H6 3614   2.050   2.342   9.134 -0.9662 -1.4908  0.8459
  234MPD1    H7 3615   2.008   2.483   9.204  1.3296  0.0545 -1.5548
  235MPD1     C 3616   3.675   4.531  10.919  0.3010  0.0633 -0.0872
  235MPD1    C1 3617   3.693   4.650  10.996 -0.5211 -0.2368  0.2810
  235MPD1    C2 3618   3.741   0.030  10.944  0.0189  0.1947  0.6834
  235MPD1    C3 3619   3.733   0.050  10.809  0.1934  0.3862  0.3932
  235MPD1    C4 3620   3.700   4.675  10.729  0.4640 -0.4222 -0.0313
  235MPD1    C5 3621   3.683   4.553  10.779  0.6625 -0.5713  0.2168
  235MPD1     H 3622   3.766   0.104  11.019  2.1923  3.7207 -3.5539
  235MPD1    H1 3623   3.683   4.685  10.622 -1.5033  1.1083  0.4154
  235MPD1    H2 3624   3.662   4.432  10.960 -1.1275  0.3262  0.0991
  235MPD1    H3 3625   3.661   4.469  10.715 -0.1200 -0.8370  0.8286
  235MPD1     N 3626   3.778   0.175  10.755 -0.3864 -0.3042  0.1736
  235MPD1    H5 3627   3.816   0.244  10.818  0.0101  0.9513 -1.4484
  235MPD1    N1 3628   3.705   4.639  11.133 -0.3342 -0.1534  0.1827
  235MPD1    H6 3629   3.787   4.585  11.158 -1.2225  0.2870  3.9711
  235MPD1    H7 3630   3.638   4.576  11.176  0.4061 -0.8538  0.3123
  236MPD1     C 3631   3.354   1.924   9.186  0.8024 -1.3500 -0.5419
  236MPD1    C1 3632   3.359   1.788   9.186  0.2072  0.4635 -0.0155
  236MPD1    C2 3633   3.353   1.723   9.307 -0.6202  1.0261  0.2890
  236MPD1    C3 3634   3.340   1.800   9.423 -0.2666 -0.0697 -0.1678
  236MPD1    C4 3635   3.352   1.935   9.421 -0.0336  0.0676  0.4727
  236MPD1    C5 3636   3.356   1.998   9.297  0.5395 -0.4224 -0.1319
  236MPD1     H 3637   3.371   1.618   9.327  0.9551  1.0403 -1.0922
  236MPD1    H1 3638   3.350   1.996   9.511  2.2840 -1.3070  1.4657
  236MPD1    H2 3639   3.356   1.974   9.089 -0.0398  1.4619  0.8892
  236MPD1    H3 3640   3.357   2.106   9.299  0.0384 -0.4004 -1.7414
  236MPD1     N 3641   3.333   1.742   9.556  0.8951 -0.2489 -0.5720
  236MPD1    H5 3642   3.328   1.805   9.635 -1.4802  1.0105 -1.7510
  236MPD1    N1 3643   3.354   1.720   9.066 -0.1029 -0.5677 -0.0917
  236MPD1    H6 3644   3.381   1.625   9.091  0.7250 -0.9709 -2.5533
  236MPD1    H7 3645   3.406   1.759   8.988  0.2028  0.5362  0.6573
  237MPD1     C 3646   3.475   4.303  14.566  0.3422  1.2073  0.9924
  237MPD1    C1 3647   3.378   4.280  14.469 -0.4867 -0.0223  0.1127
  237MPD1    C2 3648   3.250   4.336  14.488 -0.0901  0.6256  0.0654
  237MPD1    C3 3649   3.218   4.418  14.598 -0.7676 -0.7128 -0.4029
  237MPD1    C4 3650   3.318   4.440  14.684 -1.4096 -0.0535 -0.7881
  237MPD1    C5 3651   3.448   4.395  14.661  0.1262 -0.5620  0.4817
  237MPD1     H 3652   3.173   4.318  14.413  1.2608 -1.8742 -0.7252
  237MPD1    H1 3653   3.301   4.506  14.767  0.3812  0.2692 -0.6714
  237MPD1    H2 3654   3.580   4.277  14.557 -0.7012 -2.6552 -0.0027
  237MPD1    H3 3655   3.524   4.430  14.729  0.4355 -0.2069 -0.0460
  237MPD1     N 3656   3.093   4.480  14.622 -0.5644 -0.2082 -0.3493
  237MPD1    H5 3657   3.093   4.541  14.704 -2.3419 -1.5722  0.6731
  237MPD1    N1 3658   3.420   4.202  14.359 -0.2174  0.1714 -0.4782
  237MPD1    H6 3659   3.498   4.141  14.382  0.3013  0.5693 -1.1666
  237MPD1    H7 3660   3.345   4.146  14.320 -0.0694 -0.5235  0.2402
  238MPD1     C 3661   0.284   3.172  13.808 -0.1133 -0.3493 -0.7103
  238MPD1    C1 3662   0.266   3.108  13.926 -0.6500  0.3045 -0.0916
  238MPD1    C2 3663   0.142   3.054  13.955  0.2232  0.0218  0.3120
  238MPD1    C3 3664   0.044   3.052  13.853 -0.1604  0.1636  0.3642
  238MPD1    C4 3665   0.073   3.104  13.726 -0.9279  0.1866  1.2981
  238MPD1    C5 3666   0.197   3.152  13.703  0.1583  0.4453 -0.4016
  238MPD1     H 3667   0.126   3.012  14.054  1.2413 -1.1412 -0.0252
  238MPD1    H1 3668   0.001   3.083  13.648 -0.3782  0.2148  0.7871
  238MPD1    H2 3669   0.361   3.246  13.794 -0.6318  0.2739 -0.2844
  238MPD1    H3 3670   0.224   3.198  13.609  1.0447 -0.9859 -0.8392
  238MPD1     N 3671   4.650   3.000  13.879 -0.7882  0.3822  0.0286
  238MPD1    H5 3672   4.572   3.026  13.819 -1.8171 -0.1234  1.1434
  238MPD1    N1 3673   0.344   3.135  14.035  0.7559 -0.8572  0.5986
  238MPD1    H6 3674   0.348   3.054  14.096 -0.3987  0.1047  1.9476
  238MPD1    H7 3675   0.437   3.165  14.006 -0.4756  1.8040 -0.6916
  239MPD1     C 3676   4.631   0.057  14.898  0.3589 -0.1550 -0.4488
  239MPD1    C1 3677   4.503   0.072  14.847 -0.2183  0.3227  0.1840
  239MPD1    C2 3678   4.463   4.713  14.752  0.4189  0.6215 -0.1710
  239MPD1    C3 3679   4.544   4.611  14.702 -0.6831 -0.3720 -0.0676
  239MPD1    C4 3680   4.664   4.596  14.771 -0.5300 -0.0905 -0.0031
  239MPD1    C5 3681   4.709   4.690  14.860 -0.1470 -0.2376 -0.8051
  239MPD1     H 3682   4.364   4.723  14.709 -0.5251 -0.9196  1.6514
  239MPD1    H1 3683   4.729   4.510  14.758 -1.7255 -1.3260  2.1243
  239MPD1    H2 3684   4.663   0.128  14.973 -0.3964  1.8950 -2.0619
  239MPD1    H3 3685   0.071   4.692  14.903 -0.4032  3.1500 -0.3863
  239MPD1     N 3686   4.504   4.507  14.611 -0.0178  0.7483 -0.4764
  239MPD1    H5 3687   4.561   4.424  14.596  2.6899  2.3421  1.0781
  239MPD1    N1 3688   4.421   0.184  14.878  0.5421  0.1239  0.1983
  239MPD1    H6 3689   4.322   0.165  14.867  0.1898  0.4484  2.8677
  239MPD1    H7 3690   4.426   0.236  14.965 -0.3185 -2.4613  1.7877
  240MPD1     C 3691   4.420   3.669  13.208 -0.0815 -0.5973 -0.1976
  240MPD1    C1 3692   4.506   3.627  13.307  0.5255 -0.3538  0.4220
  240MPD1    C2 3693   4.462   3.623  13.441 -0.2319  0.1488  0.5703
  240MPD1    C3 3694   4.329   3.640  13.466 -0.5703  0.1631  0.5630
  240MPD1    C4 3695   4.244   3.674  13.360  0.6634  0.4199  0.2101
  240MPD1    C5 3696   4.290   3.690  13.229  0.6793 -0.2151 -0.0966
  240MPD1     H 3697   4.527   3.603  13.525  0.4562 -0.8433 -0.1945
  240MPD1    H1 3698   4.137   3.671  13.373  0.2902  1.5298 -2.5756
  240MPD1    H2 3699   4.458   3.680  13.107  2.0769  4.0848  1.0923
  240MPD1    H3 3700   4.226   3.708  13.144  1.7462  0.4395 -0.7531
  240MPD1     N 3701   4.285   3.626  13.598 -0.7951  0.7232  0.2173
  240MPD1    H5 3702   4.351   3.596  13.668 -1.5811 -0.8911  0.2562
  240MPD1    N1 3703   4.643   3.617  13.268  0.0222  0.0334  0.8925
  240MPD1    H6 3704   4.692   3.553  13.330 -0.5825 -1.2481  0.0525
  240MPD1    H7 3705   4.638   3.575  13.175  2.0426  1.2906  0.2218
  241MPD1     C 3706   4.532   3.166  14.407 -0.3210 -0.4364  0.1764
  241MPD1    C1 3707   4.591   3.204  14.292  0.3306 -0.2813 -0.0003
  241MPD1    C2 3708   4.505   3.264  14.204  0.0369  0.1485 -0.4018
  241MPD1    C3 3709   4.359   3.267  14.217  0.6282  0.2547  0.4688
  241MPD1    C4 3710   4.309   3.212  14.336 -0.6686 -0.8965 -0.6016
  241MPD1    C5 3711   4.398   3.175  14.431 -0.3128  0.8033 -0.2518
  241MPD1     H 3712   4.544   3.303  14.111  1.3201  2.5958  1.1492
  241MPD1    H1 3713   4.204   3.215  14.361 -1.3474 -1.1211 -3.4213
  241MPD1    H2 3714   4.596   3.125  14.484  1.0001  1.0414 -0.1169
  241MPD1    H3 3715   4.353   3.139  14.523  1.4297 -0.5365  0.0809
  241MPD1     N 3716   4.273   3.326  14.119 -0.0877 -0.3492  0.5710
  241MPD1    H5 3717   4.175   3.319  14.144  0.1360  1.6828  1.9929
  241MPD1    N1 3718   4.720   3.157  14.251 -1.1741  0.2105  0.4308
  241MPD1    H6 3719   0.026   3.207  14.173 -2.4663  1.9498  0.8300
  241MPD1    H7 3720   0.051   3.144  14.325 -1.6906  1.6214  1.1685
  242MPD1     C 3721   3.934   2.709  15.787  0.8209 -0.2432 -0.3883
  242MPD1    C1 3722   3.990   2.584  15.772 -0.0093  0.4580 -0.4514
  242MPD1    C2 3723   4.027   2.546  15.646  0.6409 -0.0992  0.3454
  242MPD1    C3 3724   3.983   2.614  15.534  0.1587  0.2161  0.4217
  242MPD1    C4 3725   3.902   2.732  15.551  0.0750 -0.4897 -0.5199
  242MPD1    C5 3726   3.874   2.776  15.678  0.7160  0.3854  0.1240
  242MPD1     H 3727   4.091   2.459  15.634 -0.3658 -0.4159 -2.7366
  242MPD1    H1 3728   3.877   2.791  15.464 -2.0052  0.3771  0.6724
  242MPD1    H2 3729   3.910   2.748  15.885 -0.9758 -0.2017 -0.8471
  242MPD1    H3 3730   3.820   2.868  15.695 -0.5938 -0.0136 -1.8727
  242MPD1     N 3731   4.028   2.586  15.406 -0.1209 -0.2327 -1.0156
  242MPD1    H5 3732   3.972   2.622  15.329  0.7838  0.7102 -1.2486
  242MPD1    N1 3733   4.047   2.527  15.884 -0.5206 -0.1371 -0.1001
  242MPD1    H6 3734   3.990   2.531  15.969  1.6534 -3.0029  1.5062
  242MPD1    H7 3735   4.074   2.429  15.878 -1.0470 -0.4459  2.5879
  243MPD1     C 3736   0.660   1.515  17.365  0.3486  0.1651 -0.2607
  243MPD1    C1 3737   0.594   1.415  17.425 -0.6551 -0.6236  0.5820
  243MPD1    C2 3738   0.631   1.286  17.407 -0.0063 -0.2720 -0.2651
  243MPD1    C3 3739   0.742   1.254  17.335  0.1881  0.1414 -0.4565
  243MPD1    C4 3740   0.820   1.361  17.292 -0.0230 -0.2945  0.0808
  243MPD1    C5 3741   0.771   1.490  17.301 -0.0238 -0.3256  0.2276
  243MPD1     H 3742   0.562   1.208  17.435  1.0081 -1.1247 -0.1376
  243MPD1    H1 3743   0.914   1.354  17.238  0.5330  0.3698  0.9477
  243MPD1    H2 3744   0.626   1.617  17.371  3.6007  1.2016  0.8043
  243MPD1    H3 3745   0.833   1.569  17.261 -0.7123  0.1133  0.0219
  243MPD1     N 3746   0.764   1.120  17.307 -0.6008 -0.2786 -0.3497
  243MPD1    H5 3747   0.704   1.047  17.342 -0.4238 -0.2481  0.0219
  243MPD1    N1 3748   0.474   1.436  17.488  0.1009  0.1576  0.0842
  243MPD1    H6 3749   0.461   1.370  17.563 -0.9374  0.7391  0.4161
  243MPD1    H7 3750   0.466   1.530  17.528 -0.5287 -0.1972  0.7819
  244MPD1     C 3751   0.731   0.437   0.090 -0.3559  0.0727 -0.0987
  244MPD1    C1 3752   0.791   0.560   0.096  0.2858 -0.8903 -0.1060
  244MPD1    C2 3753   0.805   0.630  17.725  0.1803 -0.4884 -0.2693
  244MPD1    C3 3754   0.790   0.569  17.603  0.8353 -0.4398 -0.9089
  244MPD1    C4 3755   0.744   0.439  17.599  0.1252  0.3638 -0.2504
  244MPD1    C5 3756   0.711   0.379  17.715 -0.7978  1.2233 -0.2976
  244MPD1     H 3757   0.839   0.732  17.740  0.1044 -0.5685  0.4938
  244MPD1    H1 3758   0.745   0.384  17.505  2.5340  0.9694 -0.5651
  244MPD1    H2 3759   0.711   0.389   0.185 -1.7053  0.0689 -0.3918
  244MPD1    H3 3760   0.661   0.283  17.713 -1.2897  1.5007 -1.2038
  244MPD1     N 3761   0.816   0.644  17.484  0.1325  0.0336  0.2974
  244MPD1    H5 3762   0.842   0.741  17.497 -3.5013  1.1386 -0.5772
  244MPD1    N1 3763   0.815   0.614   0.222 -0.0365 -0.4666 -0.9296
  244MPD1    H6 3764   0.900   0.669   0.215  0.6623 -1.5259 -0.8147
  244MPD1    H7 3765   0.831   0.543   0.294 -0.5517  0.1353 -0.2164
  245MPD1     C 3766   2.159   1.409  13.000 -0.4770  0.1857  0.3554
  245MPD1    C1 3767   2.172   1.396  13.142  1.0566 -0.1425  0.6546
  245MPD1    C2 3768   2.216   1.509  13.213 -0.7603  0.0783  0.3822
  245MPD1    C3 3769   2.254   1.622  13.143  0.4108 -0.1285 -0.0571
  245MPD1    C4 3770   2.255   1.630  13.001 -0.1335  0.7127 -0.0991
  245MPD1    C5 3771   2.207   1.519  12.930 -0.0165  0.2977 -0.7372
  245MPD1     H 3772   2.225   1.509  13.321  1.1815 -1.2170  0.2186
  245MPD1    H1 3773   2.283   1.718  12.945  1.5072  0.1642 -0.1503
  245MPD1    H2 3774   2.131   1.324  12.939  1.9515  0.4243 -1.1046
  245MPD1    H3 3775   2.199   1.513  12.822  0.4863 -0.4839 -0.7316
  245MPD1     N 3776   2.292   1.739  13.219 -0.1951 -0.2545  0.2203
  245MPD1    H5 3777   2.281   1.727  13.319 -0.7368  0.9491  0.2994
  245MPD1    N1 3778   2.115   1.281  13.203 -0.1917 -0.4605 -0.4521
  245MPD1    H6 3779   2.150   1.264  13.297 -1.9673 -3.7320 -0.3978
  245MPD1    H7 3780   2.126   1.196  13.148  1.8869 -0.4612 -0.0307
  246MPD1     C 3781   4.658   3.712   9.779 -0.4824 -0.0869 -0.6528
  246MPD1    C1 3782   4.578   3.718   9.666 -0.2120  0.0196  0.8905
  246MPD1    C2 3783   4.572   3.604   9.579 -0.8211 -0.5099  0.2994
  246MPD1    C3 3784   4.662   3.497   9.601 -0.3270  0.1823  0.1212
  246MPD1    C4 3785   0.009   3.500   9.709  0.6102  0.1968 -0.2804
  246MPD1    C5 3786   4.730   3.598   9.803 -0.0875 -0.1719  0.7542
  246MPD1     H 3787   4.505   3.603   9.494 -1.2680 -0.1633  0.6494
  246MPD1    H1 3788   0.078   3.419   9.728 -0.3710 -0.4320  0.6236
  246MPD1    H2 3789   4.670   3.801   9.839 -0.2031  0.5769 -1.6992
  246MPD1    H3 3790   0.061   3.598   9.887 -1.4132  0.7239  1.8174
  246MPD1     N 3791   4.652   3.383   9.513 -0.3538  0.6648  0.4762
  246MPD1    H5 3792   4.582   3.396   9.441 -0.1214  0.9422  0.3010
  246MPD1    N1 3793   4.498   3.832   9.641 -0.4874  0.2301  0.3662
  246MPD1    H6 3794   4.540   3.912   9.687  2.0587  0.9666 -3.1894
  246MPD1    H7 3795   4.480   3.848   9.542 -0.1627  1.9225  0.5892
  247MPD1     C 3796   1.810   1.769  17.164  0.2024 -0.5004  0.3059
  247MPD1    C1 3797   1.786   1.705  17.045  0.6074 -0.1015 -0.5203
  247MPD1    C2 3798   1.868   1.736  16.936  0.2615 -1.2405  0.4941
  247MPD1    C3 3799   1.954   1.843  16.940  0.1100  0.6103 -0.6239
  247MPD1    C4 3800   1.977   1.915  17.059 -0.4835  0.3200  0.2579
  247MPD1    C5 3801   1.900   1.877  17.168  0.4968 -0.7092 -0.5619
  247MPD1     H 3802   1.872   1.667  16.853  3.0052  0.8230 -1.0856
  247MPD1    H1 3803   2.040   2.003  17.071 -0.3322  0.4772 -1.6825
  247MPD1    H2 3804   1.762   1.745  17.258  2.5793  1.6514  2.0518
  247MPD1    H3 3805   1.912   1.920  17.267 -1.9785 -0.2070 -0.4863
  247MPD1     N 3806   2.042   1.881  16.836  0.1079  0.1474  0.4227
  247MPD1    H5 3807   2.102   1.962  16.851  1.6057 -0.9280  0.1944
  247MPD1    N1 3808   1.717   1.587  17.046 -0.0709 -0.3846 -0.8697
  247MPD1    H6 3809   1.689   1.568  16.950 -0.3725  1.0201 -1.0558
  247MPD1    H7 3810   1.636   1.595  17.107  0.2727 -2.3976 -0.1370
  248MPD1     C 3811   2.820   1.220  17.227 -0.0931  0.4829  0.0649
  248MPD1    C1 3812   2.864   1.352  17.252 -0.6482 -0.0752 -0.0699
  248MPD1    C2 3813   2.827   1.396  17.379  0.3486 -0.3415 -1.1183
  248MPD1    C3 3814   2.746   1.327  17.466 -0.0406 -0.1987 -0.6785
  248MPD1    C4 3815   2.715   1.196  17.442  0.4570  0.3174 -0.1835
  248MPD1    C5 3816   2.744   1.150  17.313 -0.2488  0.0293 -0.4268
  248MPD1     H 3817   2.858   1.494  17.413  0.0556 -0.1195 -1.4864
  248MPD1    H1 3818   2.668   1.140  17.522 -0.4564 -0.4776 -1.2731
  248MPD1    H2 3819   2.838   1.165  17.135 -3.2833  0.3234 -0.4795
  248MPD1    H3 3820   2.717   1.047  17.292  0.0207  0.0556 -0.8944
  248MPD1     N 3821   2.706   1.397  17.584 -0.5195  0.1181  0.0019
  248MPD1    H5 3822   2.757   1.483  17.603 -0.1140 -0.3336  0.9296
  248MPD1    N1 3823   2.958   1.418  17.170  0.0379 -0.5801  0.3261
  248MPD1    H6 3824   2.943   1.400  17.071  0.7817  1.2454 -0.1211
  248MPD1    H7 3825   2.962   1.517  17.193 -1.1702 -0.2559 -0.8863
  249MPD1     C 3826   4.365   4.614  10.534  0.2160 -0.4988  0.1357
  249MPD1    C1 3827   4.386   4.644  10.664 -0.2406 -0.2682  0.2605
  249MPD1    C2 3828   4.402   4.540  10.751  0.2657 -0.3909  0.4415
  249MPD1    C3 3829   4.407   4.409  10.711  0.8593 -0.1507  0.5419
  249MPD1    C4 3830   4.383   4.381  10.577  0.7880  0.3575 -0.6048
  249MPD1    C5 3831   4.357   4.484  10.490  0.6440 -0.3927 -0.3195
  249MPD1     H 3832   4.417   4.567  10.855  0.5454 -1.0024  0.5613
  249MPD1    H1 3833   4.385   4.279  10.539 -0.4504  0.5701 -1.2479
  249MPD1    H2 3834   4.367   4.693  10.460 -2.8399 -1.0767 -0.5545
  249MPD1    H3 3835   4.358   4.458  10.385  1.4815 -0.5739 -0.2652
  249MPD1     N 3836   4.437   4.308  10.801  0.2348  0.3771 -0.2532
  249MPD1    H5 3837   4.420   4.332  10.899 -1.4042 -0.1566 -0.3978
  249MPD1    N1 3838   4.395   0.046  10.700 -0.0586  0.2062 -0.0954
  249MPD1    H6 3839   4.341   0.101  10.633  1.9508  0.8725 -1.2121
  249MPD1    H7 3840   4.374   0.067  10.797  0.1383  2.7114 -0.5812
  250MPD2     C 3841   0.941   4.513  12.717  0.5476 -0.2235  0.0237
  250MPD2    C1 3842   0.807   4.523  12.697 -0.6092 -0.6156 -0.0980
  250MPD2    C2 3843   0.730   4.407  12.683 -0.1428 -0.3620  0.0639
  250MPD2    C3 3844   0.794   4.284  12.666  0.3241  0.2147  0.2450
  250MPD2    C4 3845   0.930   4.279  12.668  1.0757 -0.5535 -0.1500
  250MPD2    C5 3846   1.003   4.391  12.709 -0.2157  0.2249  0.3963
  250MPD2     H 3847   0.622   4.410  12.675 -0.1218 -1.6957 -0.8222
  250MPD2    H1 3848   0.975   4.182  12.652  1.4019 -0.0795 -2.1692
  250MPD2    H2 3849   0.995   4.601  12.748 -1.5024  1.1683 -0.3622
  250MPD2    H3 3850   1.108   4.375  12.731 -0.6212 -1.3094  1.2152
  250MPD2     N 3851   0.736   4.150  12.653 -0.1925 -0.2034 -0.5838
  250MPD2    H5 3852   0.802   4.076  12.628  0.4864  0.7048 -1.4771
  250MPD2    N1 3853   0.750   4.650  12.707  0.2619 -0.0112  0.2743
  250MPD2    H7 3854   0.808   4.733  12.714 -1.4101  1.4390 -2.7339
  251TMC3    C1 3855   0.593   0.087  12.727 -0.4479  0.6563 -0.7905
  251TMC3    C2 3856   0.464   0.126  12.727 -0.3453 -0.0770  0.0682
  251TMC3    C3 3857   0.428   0.249  12.770  0.5137  0.1943  0.6104
  251TMC3    C4 3858   0.686   0.163  12.782  0.4411  0.2877 -0.5926
  251TMC3    C5 3859   0.656   0.293  12.817  0.7273 -0.8367 -0.1376
  251TMC3    C6 3860   0.525   0.338  12.811 -0.6679  0.2224 -0.2590
  251TMC3     C 3861   0.617   4.681  12.693 -0.1585 -0.6679 -0.0989
  251TMC3     O 3862   0.524   4.607  12.657  0.5282  0.2057 -0.9718
  251TMC3     H 3863   0.390   0.062  12.679 -1.1487  1.5637 -0.9144
  251TMC3    H1 3864   0.793   0.144  12.789 -0.0111 -1.1772  2.2132
  251TMC3    H2 3865   0.502   0.425  12.871 -0.9901 -1.1190  1.5601
  251TMC3    C7 3866   0.759   0.378  12.873  0.4595  1.0788 -0.2790
  251TMC3    C8 3867   0.288   0.264  12.807  0.6418  0.7246  0.5165
  251TMC3    O1 3868   0.864   0.332  12.916 -0.8203  0.4437 -0.0205
  251TMC3    O2 3869   0.223   0.163  12.825  0.0690  0.5233  0.5903
  252TMC3    C1 3870   0.457   0.892   9.500 -0.2918 -0.9019  0.0861
  252TMC3    C2 3871   0.570   0.972   9.480  0.4396 -0.3557 -0.2973
  252TMC3    C3 3872   0.653   0.984   9.584  0.4511  0.5969  0.4652
  252TMC3    C4 3873   0.426   0.833   9.622  0.1002  0.5392 -0.2368
  252TMC3    C5 3874   0.514   0.857   9.725 -0.5557 -0.2637 -0.6425
  252TMC3    C6 3875   0.628   0.927   9.706  0.1653  0.1871 -0.1742
  252TMC3     C 3876   0.351   0.892   9.395  0.8874 -0.0082  0.8006
  252TMC3     O 3877   0.327   0.999   9.340  0.2212 -0.2876 -0.1207
  252TMC3     H 3878   0.583   1.013   9.380  0.7241  0.9103  0.2560
  252TMC3    H1 3879   0.344   0.763   9.617 -1.0760  1.9514 -0.7595
  252TMC3    H2 3880   0.699   0.953   9.783  0.5359 -2.0909  0.2560
  252TMC3    C7 3881   0.502   0.755   9.823  0.0047  0.4163  0.2484
  252TMC3    C8 3882   0.771   1.061   9.563  0.2763  0.3370 -0.0552
  252TMC3    O1 3883   0.393   0.703   9.844 -0.0934 -0.2255 -0.3020
  252TMC3    O2 3884   0.770   1.125   9.459  0.3687 -0.2722  0.8894
  253MPD2     C 3885   2.371   0.174  15.010  0.0801  0.4014 -0.6845
  253MPD2    C1 3886   2.257   0.096  15.016  0.5180 -0.1384  0.0438
  253MPD2    C2 3887   2.181   0.084  15.136  0.4069 -0.1467 -0.1604
  253MPD2    C3 3888   2.232   0.143  15.249  0.2934  0.6004 -0.8936
  253MPD2    C4 3889   2.350   0.210  15.247 -0.5604  0.3829 -0.2950
  253MPD2    C5 3890   2.411   0.238  15.130  0.2948  0.9063 -0.4543
  253MPD2     H 3891   2.109   0.004  15.142 -0.3587  0.5470 -0.0138
  253MPD2    H1 3892   2.395   0.257  15.334  0.1021 -1.1451  0.1919
  253MPD2    H2 3893   2.429   0.196  14.921 -1.8218  1.0828 -1.7444
  253MPD2    H3 3894   2.502   0.295  15.118  1.3946 -0.8182 -0.2977
  253MPD2     N 3895   2.162   0.128  15.371 -0.6504 -0.2099  0.2194
  253MPD2    H5 3896   2.214   0.157  15.453 -1.0358 -1.0833  0.7674
  253MPD2    N1 3897   2.204   0.022  14.911 -0.5163  0.0340 -0.2795
  253MPD2    H7 3898   2.118   4.707  14.928 -0.1831 -0.6489 -0.6854
  254TMC3    C1 3899   1.983   0.061  15.512 -0.0823  0.4920 -0.9349
  254TMC3    C2 3900   1.850   0.048  15.525 -0.6940  0.4561 -0.4183
  254TMC3    C3 3901   1.806   0.024  15.651 -0.3010  0.1574  0.1109
  254TMC3    C4 3902   2.078   0.048  15.611 -0.1586 -0.4466  0.4618
  254TMC3    C5 3903   2.027   0.000  15.726 -0.0734 -0.2897 -0.1117
  254TMC3    C6 3904   1.894   4.725  15.750  0.0475 -0.1370 -0.1175
  254TMC3     C 3905   2.031   0.083  15.375 -0.4888  0.4278  0.8449
  254TMC3     O 3906   1.954   0.060  15.282 -0.6956 -0.2201 -0.2757
  254TMC3     H 3907   1.783   0.068  15.442  0.6924  0.6862 -1.4887
  254TMC3    H1 3908   2.185   0.066  15.607 -0.6114  2.1850  0.2961
  254TMC3    H2 3909   1.844   4.701  15.843  0.5667  1.5664  0.6147
  254TMC3    C7 3910   2.101   4.716  15.848  0.1755  0.6586 -0.2149
  254TMC3    C8 3911   1.696   0.102  15.711 -0.1342  0.5861 -0.4959
  254TMC3    O1 3912   2.039   4.726  15.955  0.2001 -0.0459  0.1538
  254TMC3    O2 3913   1.666   0.062  15.823 -0.0995 -0.1457 -0.5454
  255MPD2     C 3914   4.710   1.987  10.006 -0.0352 -0.3013 -0.4736
  255MPD2    C1 3915   4.711   1.958  10.136 -0.1557 -0.0675  0.0147
  255MPD2    C2 3916   4.660   1.836  10.180 -0.7321  0.4280 -1.2419
  255MPD2    C3 3917   4.609   1.741  10.087 -0.2543 -0.1069  0.0078
  255MPD2    C4 3918   4.610   1.775   9.952 -0.5179  0.0791  0.4630
  255MPD2    C5 3919   4.663   1.896   9.913 -0.0749 -0.0202  0.6654
  255MPD2     H 3920   4.673   1.809  10.284 -0.0766  1.8299 -0.9687
  255MPD2    H1 3921   4.576   1.701   9.880  0.9089 -0.6015  0.4803
  255MPD2    H2 3922   0.000   2.085   9.968  2.5786 -1.2715 -1.1233
  255MPD2    H3 3923   4.666   1.919   9.807  1.1154 -0.8887  0.5189
  255MPD2     N 3924   4.575   1.606  10.122 -0.2952 -0.6631  0.3245
  255MPD2    H5 3925   4.547   1.543  10.047  0.7322  0.6847 -1.1795
  255MPD2    N1 3926   0.039   2.050  10.223  0.4003  1.0261  0.2410
  255MPD2    H7 3927   0.106   2.115  10.183 -0.9521  3.3970  1.8155
  256TMC3    C1 3928   0.154   2.119  10.415  0.3295 -0.4688  0.0588
  256TMC3    C2 3929   0.247   2.164  10.326 -0.3370  0.4489  0.8182
  256TMC3    C3 3930   0.284   2.293  10.316 -0.2211  0.2422  0.3567
  256TMC3    C4 3931   0.105   2.210  10.505  0.2831 -0.4890  0.5826
  256TMC3    C5 3932   0.149   2.341  10.501  0.2932  0.2240 -0.0206
  256TMC3    C6 3933   0.244   2.388  10.405 -0.3109 -0.2360  0.9098
  256TMC3     C 3934   0.051   2.033  10.358  0.1342  0.7032 -0.8863
  256TMC3     O 3935   4.707   1.979  10.432 -0.2135 -0.3273 -0.0858
  256TMC3     H 3936   0.288   2.098  10.251 -0.4655 -4.0650  4.7369
  256TMC3    H1 3937   0.025   2.179  10.571 -0.7907  2.3869  0.6180
  256TMC3    H2 3938   0.274   2.492  10.400 -0.6402 -0.1897 -0.1765
  256TMC3    C7 3939   0.094   2.437  10.596 -0.3551 -0.7822  0.3024
  256TMC3    C8 3940   0.262   2.343  10.180  0.3123 -0.3482 -0.4404
  256TMC3    O1 3941   0.046   2.394  10.697  0.2436 -0.8842  0.2069
  256TMC3    O2 3942   0.193   2.273  10.107  0.1691 -0.2698 -0.1810
  257MPD2     C 3943   4.188   4.262  13.401 -0.3986 -0.2310 -0.4768
  257MPD2    C1 3944   4.272   4.210  13.305 -0.2062 -0.1431  0.2523
  257MPD2    C2 3945   4.358   4.108  13.343 -0.1235 -0.1437  0.8036
  257MPD2    C3 3946   4.365   4.065  13.476 -0.3785  0.8927  0.2327
  257MPD2    C4 3947   4.287   4.122  13.576  0.3280 -0.2724 -0.6748
  257MPD2    C5 3948   4.188   4.217  13.534 -0.6361 -0.4129  0.4919
  257MPD2     H 3949   4.425   4.057  13.274 -1.5298 -0.2582 -0.4675
  257MPD2    H1 3950   4.290   4.099  13.682 -0.4318  1.2878 -0.3185
  257MPD2    H2 3951   4.118   4.341  13.375 -1.1777 -0.8374 -0.2343
  257MPD2    H3 3952   4.122   4.266  13.605 -0.0640  1.5011 -0.3114
  257MPD2     N 3953   4.463   3.971  13.507 -0.7654 -0.5682 -0.1036
  257MPD2    H5 3954   4.524   3.946  13.429  1.7091  0.6683  1.4233
  257MPD2    N1 3955   4.273   4.256  13.172 -0.0598 -0.3220 -0.1738
  257MPD2    H7 3956   4.210   4.336  13.165  0.4668  0.2130  1.1089
  258TMC3    C1 3957   4.618   3.845  13.638 -0.3758 -0.1285 -0.8126
  258TMC3    C2 3958   4.709   3.863  13.540 -0.7046 -0.2599  0.0498
  258TMC3    C3 3959   0.104   3.839  13.567  0.4303 -0.2757  0.1196
  258TMC3    C4 3960   4.661   3.804  13.767 -0.3894 -0.0513  0.2311
  258TMC3    C5 3961   0.064   3.798  13.789 -0.7115 -0.7756 -0.3625
  258TMC3    C6 3962   0.154   3.806  13.687  0.0186 -0.0237 -0.0036
  258TMC3     C 3963   4.489   3.914  13.633  0.3087  0.1507 -0.2683
  258TMC3     O 3964   4.418   3.912  13.735 -0.4097 -0.2645  0.0378
  258TMC3     H 3965   4.676   3.882  13.438  0.8616  0.7088 -0.2854
  258TMC3    H1 3966   4.583   3.811  13.842 -1.1233  2.9147 -0.7895
  258TMC3    H2 3967   0.259   3.797  13.712 -0.2244  0.4193  1.1762
  258TMC3    C7 3968   0.094   3.802  13.931 -0.0211  0.0982  0.2048
  258TMC3    C8 3969   0.210   3.855  13.466 -0.5237 -0.4321 -0.1295
  258TMC3    O1 3970   0.009   3.773  14.015  0.2821 -0.6760 -0.3288
  258TMC3    O2 3971   0.321   3.892  13.508  0.7460  0.3609 -0.0417
  259MPD2     C 3972   3.503   1.855  17.626  0.3172  0.3074  0.2197
  259MPD2    C1 3973   3.590   1.814  17.726 -0.1124  0.3190  0.1670
  259MPD2    C2 3974   3.673   1.704  17.701 -0.1381 -0.3025 -0.1255
  259MPD2    C3 3975   3.664   1.644  17.577 -0.5298 -0.1427  0.7644
  259MPD2    C4 3976   3.576   1.686  17.478 -0.0923  0.0837 -0.3716
  259MPD2    C5 3977   3.492   1.791  17.503 -0.6267 -0.3246  0.5748
  259MPD2     H 3978   3.750   1.669   0.023 -1.3878 -1.4624  0.7020
  259MPD2    H1 3979   3.574   1.643  17.378 -1.3439 -0.1023 -0.2644
  259MPD2    H2 3980   3.442   1.945  17.632  0.4700  0.3912  0.5067
  259MPD2    H3 3981   3.432   1.841  17.429  0.4141 -0.7951 -0.5925
  259MPD2     N 3982   3.761   1.540  17.558  0.1572 -0.1157  0.4824
  259MPD2    H5 3983   3.800   1.492  17.638 -1.6584  1.8534  2.5712
  259MPD2    N1 3984   3.592   1.897   0.096  0.3787  0.0867 -0.1352
  259MPD2    H7 3985   3.549   1.989   0.101  0.6550  0.1088  1.6044
  260TMC3    C1 3986   3.879   1.380  17.444 -0.3510  0.3292  0.5645
  260TMC3    C2 3987   3.974   1.366  17.348 -0.1694 -0.2727 -1.1205
  260TMC3    C3 3988   4.095   1.306  17.364 -0.4125 -0.6337 -0.2496
  260TMC3    C4 3989   3.902   1.321  17.566 -0.3674 -0.1146 -0.2968
  260TMC3    C5 3990   4.027   1.261  17.581 -0.6213  0.6400  0.1858
  260TMC3    C6 3991   4.126   1.264  17.491  0.1293  0.4230  0.6317
  260TMC3     C 3992   3.805   1.498  17.433  0.0924 -0.9455  0.4490
  260TMC3     O 3993   3.805   1.559  17.323  0.2927  0.4526 -0.1759
  260TMC3     H 3994   3.959   1.424  17.257 -0.5431  1.2327 -0.1149
  260TMC3    H1 3995   3.828   1.325  17.645  0.1104 -0.2420  0.1646
  260TMC3    H2 3996   4.218   1.210  17.511 -0.0637 -0.1684 -0.0544
  260TMC3    C7 3997   4.026   1.134  17.647  0.0984 -0.4454 -0.4290
  260TMC3    C8 3998   4.132   1.211  17.264  0.7206  0.0772  0.5440
  260TMC3    O1 3999   4.083   1.049  17.580 -0.0232  0.2049  1.0838
  260TMC3    O2 4000   4.131   1.246  17.146 -0.1247  0.3525 -0.1136
  261MPD2     C 4001   0.140   3.895  12.175 -0.0495 -0.2411  0.4738
  261MPD2    C1 4002   0.261   3.965  12.192 -0.5135 -0.1870  1.1396
  261MPD2    C2 4003   0.281   4.074  12.109 -0.7845  0.2905  0.0366
  261MPD2    C3 4004   0.177   4.112  12.019  0.2591 -0.3544 -0.3631
  261MPD2    C4 4005   0.069   4.040  12.005  0.1057 -0.0202  0.4910
  261MPD2    C5 4006   0.051   3.931  12.080 -0.8857  0.4424  0.1121
  261MPD2     H 4007   0.358   4.144  12.138  0.8897 -0.9420 -1.4031
  261MPD2    H1 4008   4.722   4.066  11.942  1.0329 -2.1356 -1.6103
  261MPD2    H2 4009   0.101   3.821  12.244  0.6025 -1.1297 -0.1187
  261MPD2    H3 4010   4.695   3.878  12.062  0.4656 -2.7666  2.5791
  261MPD2     N 4011   0.189   4.235  11.945 -0.8181  0.0171  0.2100
  261MPD2    H5 4012   0.264   4.296  11.973 -0.9887  0.0662  0.5578
  261MPD2    N1 4013   0.349   3.941  12.295  0.2300 -0.2811 -0.1296
  261MPD2    H7 4014   0.435   3.995  12.297 -0.0077  0.0841  0.2678
  262TMC3    C1 4015   0.119   4.407  11.804  0.4429  0.0698 -1.6357
  262TMC3    C2 4016   0.090   4.449  11.679  0.3632 -0.4975  0.5379
  262TMC3    C3 4017   0.142   4.572  11.644 -0.2969  0.8683 -0.5982
  262TMC3    C4 4018   0.166   4.489  11.902 -0.1763 -0.6808  0.2693
  262TMC3    C5 4019   0.208   4.610  11.871 -0.3035  0.5245 -0.4732
  262TMC3    C6 4020   0.206   4.653  11.736 -0.6201  0.2392  0.1147
  262TMC3     C 4021   0.106   4.263  11.837  0.3068  0.0133 -0.5845
  262TMC3     O 4022   0.050   4.183  11.760 -0.4981  0.3961  0.0166
  262TMC3     H 4023   0.047   4.384  11.603  0.7556 -2.0002  1.5951
  262TMC3    H1 4024   0.176   4.457  12.005 -1.8255  1.3041  1.0411
  262TMC3    H2 4025   0.234   0.017  11.708 -2.2269  0.6215 -0.1171
  262TMC3    C7 4026   0.257   4.689  11.977 -0.3840 -0.3894 -0.1781
  262TMC3    C8 4027   0.113   4.612  11.503 -0.3392  0.0728 -0.2464
  262TMC3    O1 4028   0.215   4.687  12.089 -0.2406 -0.0389 -0.2709
  262TMC3    O2 4029   0.013   4.563  11.456 -0.0409 -0.4951  0.1351
  263MPD2     C 4030   1.579   3.138  10.608 -0.1877 -0.3135  0.4890
  263MPD2    C1 4031   1.617   3.235  10.706 -0.3211  0.4915 -0.4879
  263MPD2    C2 4032   1.597   3.368  10.678 -0.4945  0.3157  0.0579
  263MPD2    C3 4033   1.539   3.410  10.558  0.1069 -0.0357  0.5164
  263MPD2    C4 4034   1.497   3.312  10.463  0.0400 -0.4502  0.1949
  263MPD2    C5 4035   1.526   3.177  10.481  0.3179  0.2294  0.4662
  263MPD2     H 4036   1.640   3.442  10.745  1.8054 -0.9053 -0.0426
  263MPD2    H1 4037   1.450   3.345  10.371  1.0194  0.4145 -0.0023
  263MPD2    H2 4038   1.591   3.032  10.625  1.5800 -0.5435 -2.3587
  263MPD2    H3 4039   1.483   3.103  10.414  1.5392 -0.5813  0.5739
  263MPD2     N 4040   1.523   3.548  10.522  0.1067 -0.7092 -0.1453
  263MPD2    H5 4041   1.491   3.563  10.427  0.6093 -1.1677 -0.3882
  263MPD2    N1 4042   1.685   3.184  10.820 -0.4100 -0.0960 -0.1222
  263MPD2    H7 4043   1.703   3.085  10.837  1.0830  0.0009 -1.1462
  264TMC3    C1 4044   1.550   3.783  10.522  0.5010  0.8605 -0.0552
  264TMC3    C2 4045   1.513   3.903  10.568 -0.1188  0.1229 -0.1076
  264TMC3    C3 4046   1.505   4.012  10.485 -0.0736 -0.1333 -0.1847
  264TMC3    C4 4047   1.578   3.770  10.384 -0.0663  0.4241  0.3409
  264TMC3    C5 4048   1.568   3.881  10.302 -0.1769 -0.7860  0.2011
  264TMC3    C6 4049   1.523   3.998  10.355 -0.4659  0.2860  0.4458
  264TMC3     C 4050   1.539   3.662  10.603 -0.2202 -0.4773 -0.5113
  264TMC3     O 4051   1.566   3.674  10.724 -0.5914 -0.2917  0.3282
  264TMC3     H 4052   1.515   3.920  10.675 -0.5021  0.5505 -0.1676
  264TMC3    H1 4053   1.622   3.682  10.339  0.0236  0.0215  1.2133
  264TMC3    H2 4054   1.526   4.082  10.287 -0.9171  0.2766  0.4202
  264TMC3    C7 4055   1.640   3.874  10.175  0.4741  0.5072  0.3375
  264TMC3    C8 4056   1.587   4.122  10.532  0.0667 -0.6935 -0.1494
  264TMC3    O1 4057   1.702   3.775  10.146  0.0355  0.0791  0.0008
  264TMC3    O2 4058   1.694   4.129  10.477  0.0881 -0.7245  0.2665
  265MPD2     C 4059   3.429   4.226  15.540  0.4097  0.6683  0.2780
  265MPD2    C1 4060   3.379   4.289  15.430  0.0230  0.4287 -0.0047
  265MPD2    C2 4061   3.405   4.236  15.301 -0.6404  0.8003  0.0949
  265MPD2    C3 4062   3.460   4.110  15.290 -0.3326  0.1675 -0.4809
  265MPD2    C4 4063   3.520   4.054  15.404 -0.4015  0.0108 -0.0144
  265MPD2    C5 4064   3.496   4.111  15.531  0.5289 -0.9326  0.4026
  265MPD2     H 4065   3.372   4.289  15.213 -0.1504 -0.3067 -0.7469
  265MPD2    H1 4066   3.575   3.960  15.407 -0.5237 -0.0129  1.3550
  265MPD2    H2 4067   3.415   4.274  15.636 -2.2492  0.5059 -0.0196
  265MPD2    H3 4068   3.519   4.064  15.626  0.7984 -0.2238  0.6877
  265MPD2     N 4069   3.482   4.055  15.165 -0.8868 -1.4954  0.2520
  265MPD2    H5 4070   3.446   4.114  15.091  0.0101 -2.2522 -0.7957
  265MPD2    N1 4071   3.324   4.415  15.450 -0.2494  0.0346 -0.7206
  265MPD2    H7 4072   3.309   4.429  15.549  2.2648 -1.0759 -0.1622
  266TMC3    C1 4073   3.246   4.638  15.416  0.4222  0.1306 -0.3151
  266TMC3    C2 4074   3.308   4.675  15.533  0.3136 -0.7612  0.1423
  266TMC3    C3 4075   3.275   0.066  15.578 -0.4658 -0.4806 -0.2480
  266TMC3    C4 4076   3.152   4.713  15.344  0.0639 -0.2285 -0.8633
  266TMC3    C5 4077   3.126   0.102  15.399 -0.8473  0.1029 -0.3699
  266TMC3    C6 4078   3.183   0.146  15.515  0.1339  0.2140  0.0916
  266TMC3     C 4079   3.289   4.509  15.355  0.1280  0.4321  0.0177
  266TMC3     O 4080   3.304   4.505  15.236  0.0928 -0.1483 -0.2843
  266TMC3     H 4081   3.396   4.624  15.572 -0.7238 -1.8619  1.0663
  266TMC3    H1 4082   3.112   4.683  15.248  0.1025 -0.0435 -0.9357
  266TMC3    H2 4083   3.144   0.232  15.568 -0.0222 -0.6075  1.3257
  266TMC3    C7 4084   3.040   0.188  15.326  0.2790  0.4275 -0.6372
  266TMC3    C8 4085   3.346   0.107  15.697  0.1948 -0.1258  1.1058
  266TMC3    O1 4086   2.958   0.140  15.249 -0.1472  0.0351 -0.1698
  266TMC3    O2 4087   3.417   0.021  15.751  1.0453 -1.0178  0.0656
  267MPD2     C 4088   0.617   1.716  17.715  0.0833 -0.0030 -0.1274
  267MPD2    C1 4089   0.729   1.769  17.660  0.4000  0.1921  0.2109
  267MPD2    C2 4090   0.720   1.833  17.540 -0.2622  0.7049  0.0630
  267MPD2    C3 4091   0.598   1.854  17.481 -0.1169  0.6377  0.3568
  267MPD2    C4 4092   0.488   1.794  17.531  0.2646 -0.2638  0.4901
  267MPD2    C5 4093   0.498   1.723  17.643  0.7644 -0.8688 -0.2894
  267MPD2     H 4094   0.812   1.866  17.492  1.2048 -3.2451  0.1379
  267MPD2    H1 4095   0.390   1.798  17.485  0.5685  1.6195  0.0088
  267MPD2    H2 4096   0.631   1.666   0.064 -0.0225 -1.1339 -0.7024
  267MPD2    H3 4097   0.411   1.671  17.682  0.3759  0.7362  0.9517
  267MPD2     N 4098   0.580   1.908  17.352  0.4370 -0.5926 -0.6168
  267MPD2    H5 4099   0.496   1.891  17.298 -0.3807 -0.3215  0.5947
  267MPD2    N1 4100   0.849   1.750  17.732 -0.1398 -0.0951 -0.1941
  267MPD2    H7 4101   0.849   1.706   0.078  0.3727 -0.0042 -0.1501
  268TMC3    C1 4102   1.080   1.777   0.040  0.2902  0.2179  0.0038
  268TMC3    C2 4103   1.191   1.857   0.015  0.1721 -0.3386 -0.0194
  268TMC3    C3 4104   1.315   1.802   0.039 -0.7136 -0.4852  0.4374
  268TMC3    C4 4105   1.103   1.653   0.092  0.6343  0.0744 -0.1885
  268TMC3    C5 4106   1.232   1.610   0.125  0.1023  0.0250  0.2372
  268TMC3    C6 4107   1.343   1.687   0.103  0.0313  0.1922  0.1386
  268TMC3     C 4108   0.975   1.787  17.687  0.0436 -0.0265 -0.1720
  268TMC3     O 4109   1.013   1.830  17.582 -0.1701  0.2691 -0.0395
  268TMC3     H 4110   1.179   1.950  17.707 -0.3711  0.3870  1.3491
  268TMC3    H1 4111   1.011   1.597   0.096  0.0952  1.1367  2.2662
  268TMC3    H2 4112   1.445   1.649   0.108 -0.3769 -0.8787  0.2525
  268TMC3    C7 4113   1.254   1.527   0.242 -0.2913 -0.2894 -0.5096
  268TMC3    C8 4114   1.406   1.830  17.675  0.2777  0.5764  0.2261
  268TMC3    O1 4115   1.367   1.483   0.269 -0.2136  0.1161  0.1325
  268TMC3    O2 4116   1.524   1.809  17.698  0.2403 -0.5461  0.5810
  269MPD2     C 4117   1.371   0.466  15.333  0.3570 -0.2385  0.4105
  269MPD2    C1 4118   1.264   0.491  15.421 -0.1372  0.3712 -0.4369
  269MPD2    C2 4119   1.229   0.622  15.457  0.0373 -0.3954 -0.4548
  269MPD2    C3 4120   1.320   0.719  15.429 -0.3006  0.2581 -0.4729
  269MPD2    C4 4121   1.428   0.689  15.346  0.4337  0.1848 -0.9841
  269MPD2    C5 4122   1.455   0.563  15.297  0.0691  0.4393 -0.0722
  269MPD2     H 4123   1.141   0.638  15.518 -0.1821 -1.2910 -0.5389
  269MPD2    H1 4124   1.504   0.761  15.320  2.8324 -1.8363  0.3271
  269MPD2    H2 4125   1.397   0.363  15.312 -1.9167 -0.9793  1.3023
  269MPD2    H3 4126   1.538   0.545  15.230 -0.2415 -2.0961  0.2364
  269MPD2     N 4127   1.307   0.849  15.494 -0.3977  0.1275 -0.2620
  269MPD2    H5 4128   1.219   0.872  15.540 -0.9951 -1.0660 -0.7904
  269MPD2    N1 4129   1.196   0.381  15.471 -0.0471  0.1197 -0.0160
  269MPD2    H7 4130   1.235   0.291  15.443  1.9452  0.7913  0.5912
  270TMC3    C1 4131   1.036   0.239  15.587  0.6632  0.2817 -0.3473
  270TMC3    C2 4132   0.907   0.206  15.563 -0.2402 -0.0846  0.1328
  270TMC3    C3 4133   0.893   0.070  15.536 -0.2363 -0.6456 -0.0087
  270TMC3    C4 4134   1.135   0.149  15.601 -0.2096 -0.3008  0.4663
  270TMC3    C5 4135   1.119   0.021  15.560 -0.4369  0.1288  1.1369
  270TMC3    C6 4136   0.997   4.712  15.528  0.4552  0.9233  0.2999
  270TMC3     C 4137   1.074   0.373  15.535  1.0895  0.0046 -0.2713
  270TMC3     O 4138   0.988   0.459  15.540  0.5462 -0.2468  0.0124
  270TMC3     H 4139   0.828   0.279  15.550 -0.5644 -0.1676  1.6895
  270TMC3    H1 4140   1.239   0.174  15.613 -0.4311  0.1909  1.3602
  270TMC3    H2 4141   0.974   4.610  15.501 -1.4924  0.6771  2.8701
  270TMC3    C7 4142   1.248   4.682  15.545 -0.7104  0.3548  0.2500
  270TMC3    C8 4143   0.774   0.052  15.448 -0.0608  0.2135 -0.6536
  270TMC3    O1 4144   1.340   4.712  15.620  0.7381 -0.4074  0.1693
  270TMC3    O2 4145   0.667   0.100  15.483 -0.3030 -0.4893  0.0750
  271MPD2     C 4146   0.196   4.556  13.813 -0.5957 -0.1697 -0.1244
  271MPD2    C1 4147   0.174   4.511  13.942  0.0829  0.0805  0.7054
  271MPD2    C2 4148   0.045   4.522  13.997  0.2892 -0.3379  0.2970
  271MPD2    C3 4149   4.676   4.562  13.917  0.3287 -0.3594  0.4515
  271MPD2    C4 4150   4.703   4.589  13.790 -0.2798  0.8950 -0.1069
  271MPD2    C5 4151   0.091   4.582  13.735 -0.0518 -0.3612  0.3655
  271MPD2     H 4152   0.017   4.483  14.094 -0.5110  2.7351  1.2834
  271MPD2    H1 4153   4.622   4.613  13.722  0.0607  0.9833 -0.4820
  271MPD2    H2 4154   0.294   4.557  13.767 -0.3116  2.2895  0.5167
  271MPD2    H3 4155   0.106   4.614  13.633 -1.4674 -0.9523 -0.0243
  271MPD2     N 4156   4.539   4.565  13.965  0.2168 -0.2549 -0.1684
  271MPD2    H5 4157   4.467   4.545  13.897  0.7983 -0.1578 -0.8131
  271MPD2    N1 4158   0.269   4.450  14.026  0.2071  0.3832  0.7402
  271MPD2    H7 4159   0.235   4.432  14.120 -1.3297 -0.9826 -0.0749
  272TMC3    C1 4160   0.488   4.421  14.104 -0.5994  0.2730 -0.1649
  272TMC3    C2 4161   0.597   4.339  14.090  0.3563 -0.5361 -0.0648
  272TMC3    C3 4162   0.678   4.331  14.200  0.0717 -0.2548  0.0437
  272TMC3    C4 4163   0.444   4.490  14.209  0.1694  0.0709 -1.2093
  272TMC3    C5 4164   0.514   4.476  14.320 -0.1567 -0.3106 -0.1325
  272TMC3    C6 4165   0.630   4.397  14.317 -0.0742  0.9928 -0.8133
  272TMC3     C 4166   0.398   4.425  13.987 -0.9336 -0.4446  0.1271
  272TMC3     O 4167   0.453   4.433  13.878  0.6613 -0.2875 -0.0160
  272TMC3     H 4168   0.621   4.285  13.999  2.4992  0.5601 -0.1566
  272TMC3    H1 4169   0.352   4.548  14.203 -1.1366 -2.0459 -1.7873
  272TMC3    H2 4170   0.679   4.384  14.413 -2.7703  2.5499  0.7617
  272TMC3    C7 4171   0.466   4.560  14.428  0.1547 -0.3079  0.7496
  272TMC3    C8 4172   0.800   4.255  14.197  0.3355  0.3305 -0.4457
  272TMC3    O1 4173   0.348   4.591  14.421  0.5860  0.4382  0.2920
  272TMC3    O2 4174   0.837   4.197  14.095 -0.2635  0.8292 -0.6450
  273MPD2     C 4175   2.014   2.103  11.234 -0.8485 -0.0100 -0.0601
  273MPD2    C1 4176   2.136   2.161  11.230  0.1506  0.4072  0.6601
  273MPD2    C2 4177   2.202   2.158  11.114  0.4453  0.1529 -0.5516
  273MPD2    C3 4178   2.142   2.115  10.996 -0.0012 -0.3226  0.6715
  273MPD2    C4 4179   2.012   2.074  11.006  0.3491  0.3934  0.5639
  273MPD2    C5 4180   1.945   2.067  11.125  0.1451  0.5414  0.5409
  273MPD2     H 4181   2.303   2.196  11.113  0.8065 -0.7786  0.7894
  273MPD2    H1 4182   1.963   2.039  10.916 -1.1017  0.8982  1.1451
  273MPD2    H2 4183   1.965   2.101  11.330 -0.2866 -2.3154  0.1784
  273MPD2    H3 4184   1.844   2.027  11.130 -0.1943  1.3906  0.4406
  273MPD2     N 4185   2.191   2.142  10.863 -0.2277  0.3432  0.5644
  273MPD2    H5 4186   2.138   2.093  10.791 -0.1225 -0.0664  0.7659
  273MPD2    N1 4187   2.176   2.215  11.347 -0.6075  0.2417 -0.2181
  273MPD2    H7 4188   2.099   2.246  11.406  0.0005  1.1803  0.0950
  274TMC3    C1 4189   2.332   2.234  10.693  0.0162 -0.5195 -0.7684
  274TMC3    C2 4190   2.216   2.207  10.624  0.0717  0.3110  1.1584
  274TMC3    C3 4191   2.158   2.316  10.568 -0.2211  0.5507  0.4761
  274TMC3    C4 4192   2.395   2.359  10.690  0.1636 -0.3710 -0.1658
  274TMC3    C5 4193   2.322   2.465  10.638 -0.3631 -0.0807  0.8367
  274TMC3    C6 4194   2.208   2.441  10.574  0.2282 -0.5538  0.8760
  274TMC3     C 4195   2.308   2.210  10.829 -0.1567  0.2299  0.2473
  274TMC3     O 4196   2.377   2.274  10.904  0.6301  0.2346  0.9130
  274TMC3     H 4197   2.173   2.107  10.625  0.5504  0.0860 -0.1127
  274TMC3    H1 4198   2.488   2.364  10.744  1.3441 -0.8249 -2.1635
  274TMC3    H2 4199   2.141   2.525  10.567  1.1431  0.0272 -0.7716
  274TMC3    C7 4200   2.302   2.580  10.732  0.5842 -0.9092  0.8251
  274TMC3    C8 4201   2.022   2.300  10.532 -0.3666 -0.4168 -0.1819
  274TMC3    O1 4202   2.224   2.670  10.694  0.3767  0.5981  0.3948
  274TMC3    O2 4203   1.959   2.199  10.573 -0.4641  0.3298 -0.4626
  275MPD2     C 4204   1.682   1.279  14.475  0.5139  0.1640 -0.1862
  275MPD2    C1 4205   1.696   1.146  14.519  0.5479  0.1552 -0.0601
  275MPD2    C2 4206   1.632   1.040  14.461  0.0644  0.3756  0.4278
  275MPD2    C3 4207   1.536   1.062  14.359 -0.7547  0.1083  0.0656
  275MPD2    C4 4208   1.511   1.194  14.328  0.7948  0.0455  0.4454
  275MPD2    C5 4209   1.581   1.299  14.385  0.4278  0.4747 -0.1201
  275MPD2     H 4210   1.641   0.942  14.507  0.3772  0.4521  0.5320
  275MPD2    H1 4211   1.439   1.222  14.252  0.8729 -0.1858  0.2865
  275MPD2    H2 4212   1.736   1.369  14.503  0.0392  0.0490  1.1271
  275MPD2    H3 4213   1.551   1.399  14.354  1.4333  0.1850 -2.0449
  275MPD2     N 4214   1.455   0.960  14.305  0.4165  0.6322 -0.5723
  275MPD2    H5 4215   1.383   0.993  14.242 -1.1077 -2.4034 -0.4295
  275MPD2    N1 4216   1.778   1.112  14.630  0.1559 -0.1955  0.1746
  275MPD2    H7 4217   1.781   1.013  14.653 -0.3074  1.1324  6.0287
  276TMC3    C1 4218   1.889   1.135  14.848 -0.1657  1.0644  0.0069
  276TMC3    C2 4219   1.882   1.003  14.870  0.3678  0.3621 -0.4331
  276TMC3    C3 4220   1.914   0.965  14.998 -0.2373 -0.5011  0.2958
  276TMC3    C4 4221   1.913   1.231  14.951 -0.1342  0.2090  0.1621
  276TMC3    C5 4222   1.922   1.190  15.078  0.4264  0.1776  0.5868
  276TMC3    C6 4223   1.925   1.054  15.104  0.2766  0.3853  0.0409
  276TMC3     C 4224   1.835   1.198  14.723  0.5571  0.1240  0.3515
  276TMC3     O 4225   1.817   1.319  14.732  0.0368  0.1009 -0.3936
  276TMC3     H 4226   1.902   0.940  14.784  0.1727  1.8765 -1.5678
  276TMC3    H1 4227   1.915   1.339  14.950 -0.3153  0.2191  0.8063
  276TMC3    H2 4228   1.941   1.014  15.204 -0.7637 -0.3289 -0.0781
  276TMC3    C7 4229   2.023   1.265  15.150  0.4516  0.2828  0.7495
  276TMC3    C8 4230   2.016   0.864  14.999  0.5376 -0.0780 -0.1150
  276TMC3    O1 4231   2.020   1.388  15.146 -0.6115  0.0092 -0.0816
  276TMC3    O2 4232   2.101   0.890  15.079 -0.0335  0.1334  0.0552
  277MPD2     C 4233   3.846   0.071  13.162  0.1729  0.0447  0.3130
  277MPD2    C1 4234   3.723   0.092  13.221  0.3414  0.2147 -0.1777
  277MPD2    C2 4235   3.676   4.728  13.302  0.0699 -0.6058 -0.3188
  277MPD2    C3 4236   3.742   4.609  13.329  0.2447 -0.2906  0.3875
  277MPD2    C4 4237   3.868   4.591  13.267 -0.8864  0.2986  0.1592
  277MPD2    C5 4238   3.911   4.691  13.189 -0.2968  0.1697 -0.1989
  277MPD2     H 4239   3.581   0.000  13.354 -0.2782  0.6990 -1.1899
  277MPD2    H1 4240   3.921   4.497  13.274 -0.9711  0.1974 -0.5519
  277MPD2    H2 4241   3.887   0.142  13.091 -0.2398 -0.9418 -0.9145
  277MPD2    H3 4242   4.009   4.680  13.142 -0.5059  0.7010 -0.7513
  277MPD2     N 4243   3.681   4.523  13.425 -0.5415  0.6740  0.1584
  277MPD2    H5 4244   3.593   4.547  13.469 -1.8521 -2.2842 -0.8674
  277MPD2    N1 4245   3.649   0.216  13.197  0.6278 -0.0399  0.0438
  277MPD2    H7 4246   3.704   0.287  13.150  2.5794 -2.1248 -0.8459
  278TMC3    C1 4247   3.660   4.349  13.579 -0.1250  0.4249  0.9066
  278TMC3    C2 4248   3.629   4.221  13.560 -0.0112  0.0889 -0.4774
  278TMC3    C3 4249   3.517   4.165  13.605  0.8981 -0.1357  0.2433
  278TMC3    C4 4250   3.571   4.431  13.642 -0.0801 -0.4811 -0.2388
  278TMC3    C5 4251   3.457   4.371  13.690  0.6063 -0.4176 -0.2653
  278TMC3    C6 4252   3.433   4.239  13.677 -0.1414  0.0552 -0.7359
  278TMC3     C 4253   3.739   4.410  13.467  0.0025  0.6014 -0.3118
  278TMC3     O 4254   3.822   4.338  13.415 -0.2415 -1.0067 -0.5384
  278TMC3     H 4255   3.693   4.158  13.498 -1.0856 -1.3218 -0.1559
  278TMC3    H1 4256   3.593   4.535  13.662 -1.6604 -0.1617 -0.1779
  278TMC3    H2 4257   3.347   4.204  13.733  0.5207  1.7902  1.3700
  278TMC3    C7 4258   3.362   4.457  13.754 -0.4460  0.1523  0.2431
  278TMC3    C8 4259   3.482   4.024  13.594 -0.3601  0.2301  0.2157
  278TMC3    O1 4260   3.406   4.542  13.827 -0.4192  0.1313  0.2925
  278TMC3    O2 4261   3.574   3.946  13.591  0.2167 -0.5558 -0.0726
  279MPD2     C 4262   3.106   0.159   0.121 -0.2066  0.2522  0.0746
  279MPD2    C1 4263   3.051   0.287   0.136 -0.4927 -0.0108  0.5968
  279MPD2    C2 4264   3.010   0.350   0.023 -0.6173 -0.4427  0.0466
  279MPD2    C3 4265   3.010   0.290  17.644  0.2124 -0.3144  0.0564
  279MPD2    C4 4266   3.064   0.162  17.626  0.0933 -0.4117 -0.0705
  279MPD2    C5 4267   3.116   0.104  17.743 -0.4202 -0.1738 -0.0004
  279MPD2     H 4268   2.978   0.453   0.024 -0.2397 -0.3107 -1.7942
  279MPD2    H1 4269   3.059   0.105  17.535 -3.5310 -0.4587  0.1532
  279MPD2    H2 4270   3.129   0.090   0.202 -0.7648  1.2823  1.1162
  279MPD2    H3 4271   3.146   0.001  17.737  0.7223  0.1738 -0.2218
  279MPD2     N 4272   2.935   0.357  17.540 -0.3059  0.0325 -0.5613
  279MPD2    H5 4273   2.884   0.442  17.563  2.1774  1.0345  1.2938
  279MPD2    N1 4274   3.030   0.341   0.270  0.4786  0.0037 -0.0783
  279MPD2    H7 4275   3.044   0.275   0.346 -0.1645  0.9725  0.8842
  280TMC3    C1 4276   2.900   0.472   0.423 -0.6858  0.0764 -0.0863
  280TMC3    C2 4277   2.809   0.374   0.459  0.4086 -0.1717  0.1303
  280TMC3    C3 4278   2.691   0.423   0.499 -0.7006 -0.2516  0.4668
  280TMC3    C4 4279   2.879   0.606   0.449  0.7463 -0.7015  0.2410
  280TMC3    C5 4280   2.762   0.645   0.484 -0.3435  0.0359 -0.2300
  280TMC3    C6 4281   2.665   0.554   0.500 -0.8894 -0.0905 -0.5186
  280TMC3     C 4282   2.966   0.457   0.292  0.1028 -0.2405 -0.3919
  280TMC3     O 4283   2.936   0.550   0.217  0.1544  0.3120  0.0242
  280TMC3     H 4284   2.838   0.270   0.458  0.3025 -0.2030  0.5772
  280TMC3    H1 4285   2.953   0.681   0.426  0.6939 -1.4873 -2.5615
  280TMC3    H2 4286   2.563   0.587   0.515 -1.0633 -0.9219  0.1457
  280TMC3    C7 4287   2.733   0.789   0.470 -0.0795 -0.6380  0.5229
  280TMC3    C8 4288   2.574   0.344   0.517  0.7562 -0.5044  0.2755
  280TMC3    O1 4289   2.818   0.867   0.514 -0.1678  0.5162 -0.2020
  280TMC3    O2 4290   2.484   0.395   0.582 -0.1900  0.3815  0.0460
  281TMC3    C1 4291   1.086   0.559  13.485 -0.0849 -0.2288  0.3713
  281TMC3    C2 4292   1.142   0.634  13.384  0.7613 -0.7696 -0.3199
  281TMC3    C3 4293   1.229   0.574  13.298  0.4579  0.9899  0.0533
  281TMC3    C4 4294   1.110   0.427  13.513 -0.5242  0.3322  0.4286
  281TMC3    C5 4295   1.205   0.370  13.434  0.2539 -0.1263  0.1262
  281TMC3    C6 4296   1.274   0.449  13.334 -0.5366 -0.9071  0.7226
  281TMC3     C 4297   0.945   0.577  13.489  0.1698  0.2176  0.5595
  281TMC3     O 4298   0.882   0.476  13.456  0.6245 -0.0214  0.1086
  281TMC3     H 4299   1.093   0.728  13.359  0.1529 -1.0254 -0.0836
  281TMC3    H1 4300   1.044   0.374  13.580  0.1185 -0.8079  0.1485
  281TMC3    H2 4301   1.344   0.409  13.262  1.8277  0.9709  1.9473
  281TMC3    C7 4302   1.203   0.225  13.416  0.2085 -0.1763  0.9104
  281TMC3    C8 4303   1.175   0.570  13.162  0.4970  0.3487  0.1339
  281TMC3    O1 4304   1.302   0.170  13.372 -0.4647 -0.0175  0.9185
  281TMC3    O2 4305   1.179   0.464  13.103  0.2915 -0.1917 -0.1590
  282MPD2     C 4306   3.566   1.566  14.965  0.2386  0.2085 -0.4162
  282MPD2    C1 4307   3.444   1.630  14.982  0.3756  0.1944  0.0976
  282MPD2    C2 4308   3.370   1.652  14.874  0.5633  0.2119  0.4517
  282MPD2    C3 4309   3.402   1.604  14.748  0.1060 -0.8839 -0.0322
  282MPD2    C4 4310   3.520   1.531  14.736  0.7075 -0.9228 -0.0648
  282MPD2    C5 4311   3.611   1.534  14.840 -0.0393  0.1263  0.0994
  282MPD2     H 4312   3.272   1.688  14.903  0.1242 -0.4803 -0.1685
  282MPD2    H1 4313   3.566   1.498  14.644  0.9981 -0.1411 -0.1990
  282MPD2    H2 4314   3.640   1.561  15.044  0.3147 -1.0437 -0.5620
  282MPD2    H3 4315   3.710   1.495  14.823  0.0170  0.6024 -0.6420
  282MPD2     N 4316   3.311   1.609  14.639  0.1095  0.2218 -0.1964
  282MPD2    H5 4317   3.226   1.663  14.646  0.3222  0.5901 -0.4347
  282MPD2    N1 4318   3.400   1.665  15.110 -0.0954  0.7835  0.3909
  282MPD2    H7 4319   3.316   1.720  15.124 -0.0420  0.5603  1.5915
  283TMC3    C1 4320   3.419   1.752  15.329  0.2672 -0.4479 -0.2769
  283TMC3    C2 4321   3.488   1.850  15.396  0.2278 -0.1546  0.0573
  283TMC3    C3 4322   3.443   1.875  15.521 -0.0976  0.4929 -0.1480
  283TMC3    C4 4323   3.304   1.690  15.369  0.2362 -0.4299 -0.1164
  283TMC3    C5 4324   3.273   1.718  15.506  1.1316 -0.5499  0.2773
  283TMC3    C6 4325   3.342   1.807  15.582  0.1371  0.3295  0.3783
  283TMC3     C 4326   3.486   1.688  15.216 -0.3415 -0.1740 -0.1495
  283TMC3     O 4327   3.610   1.691  15.216 -0.2961 -0.4352 -0.2815
  283TMC3     H 4328   3.581   1.893  15.359 -1.3386  0.7708 -2.7635
  283TMC3    H1 4329   3.261   1.606  15.315 -0.1530 -0.0974 -0.3297
  283TMC3    H2 4330   3.297   1.842  15.674  1.0988 -0.1227  1.0295
  283TMC3    C7 4331   3.141   1.678  15.552 -0.4812  0.2409  0.1141
  283TMC3    C8 4332   3.489   2.002  15.573  0.6448 -0.4150 -0.6632
  283TMC3    O1 4333   3.078   1.760  15.610 -0.0024  0.0757 -0.2611
  283TMC3    O2 4334   3.493   2.023  15.694  0.0347  0.2005 -1.3388
  284MPD2     C 4335   1.652   0.270  11.563  0.0927  0.5508 -0.8854
  284MPD2    C1 4336   1.756   0.213  11.492  0.8031  0.2679 -0.5513
  284MPD2    C2 4337   1.742   0.095  11.419  0.1278  0.9811 -0.3994
  284MPD2    C3 4338   1.624   0.023  11.428 -0.0035 -0.2844  0.1502
  284MPD2    C4 4339   1.519   0.077  11.499  0.3000  0.1424 -0.7686
  284MPD2    C5 4340   1.534   0.199  11.564  0.4901 -1.0953 -0.0399
  284MPD2     H 4341   1.827   0.053  11.366  0.2942  2.1449 -1.0462
  284MPD2    H1 4342   1.427   0.021  11.488 -0.6337  1.3310  1.0641
  284MPD2    H2 4343   1.662   0.358  11.626 -1.7461 -1.8219  2.7810
  284MPD2    H3 4344   1.446   0.242  11.610  1.5959 -1.4669  2.3923
  284MPD2     N 4345   1.607   4.634  11.371  0.2030  0.7318  0.3701
  284MPD2    H5 4346   1.525   4.577  11.393 -1.3025  2.0158 -1.8606
  284MPD2    N1 4347   1.888   0.276  11.479  0.0015 -0.1077  0.0220
  284MPD2    H7 4348   1.952   0.214  11.430  0.5392  0.1546  0.3934
  285TMC3    C1 4349   2.044   0.462  11.464 -0.1089  0.3292  0.0989
  285TMC3    C2 4350   2.128   0.392  11.387  0.2295 -0.0128  0.6478
  285TMC3    C3 4351   2.190   0.458  11.286 -0.8014  0.2328 -0.3114
  285TMC3    C4 4352   2.039   0.600  11.469  0.5680  0.7724 -0.5193
  285TMC3    C5 4353   2.115   0.662  11.378 -0.3517 -0.6443  0.6141
  285TMC3    C6 4354   2.190   0.593  11.283  0.0605 -0.4021  0.0474
  285TMC3     C 4355   1.925   0.398  11.527  0.4457  0.3919 -0.3206
  285TMC3     O 4356   1.855   0.470  11.591 -0.2340 -0.4857  0.2228
  285TMC3     H 4357   2.134   0.284  11.400  0.1786 -0.0542  0.3310
  285TMC3    H1 4358   1.974   0.653  11.538 -0.0357  0.4592 -0.8544
  285TMC3    H2 4359   2.229   0.650  11.199 -0.1761 -1.3011 -0.6660
  285TMC3    C7 4360   2.104   0.803  11.357 -0.3542 -0.0591 -0.2210
  285TMC3    C8 4361   2.258   0.386  11.184  0.0363 -0.3176  0.2744
  285TMC3    O1 4362   2.195   0.859  11.301  0.1775  0.2022  0.1582
  285TMC3    O2 4363   2.235   0.268  11.184 -0.4306  0.2882 -0.1392
  286MPD2     C 4364   1.375   4.720   0.794  0.4272 -0.8912  0.0581
  286MPD2    C1 4365   1.455   0.093   0.830  0.4158 -0.4881  0.0227
  286MPD2    C2 4366   1.571   0.076   0.912  0.0610  0.1823 -0.1405
  286MPD2    C3 4367   1.599   4.684   0.958  0.4857 -0.3150  0.1607
  286MPD2    C4 4368   1.513   4.576   0.932  0.2255 -0.9489  0.7560
  286MPD2    C5 4369   1.397   4.602   0.853 -0.7562  0.7078  0.4455
  286MPD2     H 4370   1.627   0.164   0.939 -0.0415 -0.5087  2.2813
  286MPD2    H1 4371   1.532   4.478   0.975 -2.2698 -1.6265  0.3034
  286MPD2    H2 4372   1.284   4.736   0.736  0.8653  3.0146  0.3914
  286MPD2    H3 4373   1.328   4.519   0.836 -0.5207  0.5504  0.2525
  286MPD2     N 4374   1.716   4.650   1.026  0.2966 -0.3911  0.2507
  286MPD2    H5 4375   1.722   4.551   1.044 -1.1314 -0.8555 -1.7428
  286MPD2    N1 4376   1.408   0.216   0.763  0.2830 -0.4598  0.0749
  286MPD2    H7 4377   1.311   0.208   0.734 -0.2149 -1.8232  2.0922
  287TMC3    C1 4378   1.936   4.673   1.097 -0.1078  0.7244  0.2745
  287TMC3    C2 4379   1.967   4.550   1.044 -0.1471  0.2159 -0.0693
  287TMC3    C3 4380   2.099   4.510   1.046 -0.6931  0.5338  0.5892
  287TMC3    C4 4381   2.031   0.011   1.166  0.5961  0.7652 -0.7065
  287TMC3    C5 4382   2.160   4.706   1.172  0.0940 -0.6018 -0.3629
  287TMC3    C6 4383   2.200   4.589   1.106 -0.0643  0.0919  0.8911
  287TMC3     C 4384   1.815   0.001   1.059 -0.3083 -0.0118  0.6060
  287TMC3     O 4385   1.805   0.120   1.085 -0.1688 -0.2502  0.2114
  287TMC3     H 4386   1.900   4.494   0.980 -0.6684 -0.8850  1.4376
  287TMC3    H1 4387   1.996   0.102   1.213 -1.3418 -0.2327 -0.1709
  287TMC3    H2 4388   2.303   4.555   1.113 -0.7623 -2.3530 -0.6380
  287TMC3    C7 4389   2.249   0.072   1.232 -0.1604  0.3944  0.1448
  287TMC3    C8 4390   2.128   4.381   0.973  0.1800  1.4672 -0.7171
  287TMC3    O1 4391   2.200   0.180   1.251 -0.3971  0.7984 -0.3894
  287TMC3    O2 4392   2.056   4.287   0.982  0.2058 -0.0359  0.2020
  288TMC3    C1 4393   3.299   3.526  14.193  0.2493 -0.0162  0.8015
  288TMC3    C2 4394   3.213   3.630  14.219  0.3015 -0.2537  0.3406
  288TMC3    C3 4395   3.259   3.759  14.200  0.1782 -0.4792 -0.4959
  288TMC3    C4 4396   3.424   3.551  14.155  0.3005  0.6535 -0.0590
  288TMC3    C5 4397   3.451   3.680  14.108  0.4084  0.3359  0.1158
  288TMC3    C6 4398   3.375   3.786  14.139  0.4366  0.1011 -1.5458
  288TMC3     C 4399   3.268   3.388  14.219 -0.5772  0.4263 -0.8506
  288TMC3     O 4400   3.145   3.366  14.216  0.2145  0.1958  0.0408
  288TMC3     H 4401   3.116   3.610  14.263  0.0706  0.8215  0.3278
  288TMC3    H1 4402   3.483   3.462  14.138 -2.3829 -1.1003 -0.1509
  288TMC3    H2 4403   3.403   3.888  14.115  1.3274  0.8127  2.4830
  288TMC3    C7 4404   3.590   3.720  14.097 -0.3539  0.5191 -0.0790
  288TMC3    C8 4405   3.228   3.857  14.304 -0.0915 -0.8264 -0.5059
  288TMC3    O1 4406   3.610   3.808  14.010  0.2578  0.3796  0.3248
  288TMC3    O2 4407   3.259   3.973  14.279 -0.4719 -0.4323  0.2193
  289MPD2     C 4408   3.707   3.160  14.092  0.3836 -0.4031  0.2198
  289MPD2    C1 4409   3.694   3.264  14.004  0.0690  0.1601  0.0259
  289MPD2    C2 4410   3.577   3.282  13.937  0.4585  0.2171 -0.7238
  289MPD2    C3 4411   3.472   3.194  13.956  0.5083  0.4197  0.5649
  289MPD2    C4 4412   3.494   3.080  14.034 -0.3089 -0.8005  0.1409
  289MPD2    C5 4413   3.609   3.069  14.099  0.3162  0.3598  0.0776
  289MPD2     H 4414   3.569   3.365  13.869 -1.8364 -1.3481 -2.3567
  289MPD2    H1 4415   3.414   3.009  14.047 -1.9269  1.1542  0.9772
  289MPD2    H2 4416   3.793   3.145  14.156  0.3530  0.2284  0.4087
  289MPD2    H3 4417   3.622   2.983  14.164  2.8603  1.8799  1.5973
  289MPD2     N 4418   3.351   3.210  13.877  0.2368  0.1019  0.3108
  289MPD2    H5 4419   3.286   3.133  13.889 -0.0178  0.0820 -1.2819
  289MPD2    N1 4420   3.810   3.347  13.993  0.3304 -0.4484  0.3359
  289MPD2    H7 4421   3.887   3.324  14.055 -0.0457 -0.6635  0.7215
  290TMC3    C1 4422   3.179   3.364  13.841 -0.1503 -0.3403  0.6412
  290TMC3    C2 4423   3.139   3.475  13.772  0.1677 -0.4261 -0.1225
  290TMC3    C3 4424   3.005   3.505  13.771  0.1701 -0.0997 -0.1408
  290TMC3    C4 4425   3.089   3.284  13.907 -0.2440  0.0032 -0.2742
  290TMC3    C5 4426   2.956   3.304  13.875 -0.6349  0.0889  0.1429
  290TMC3    C6 4427   2.913   3.415  13.817 -0.2304  0.4316  0.2503
  290TMC3     C 4428   3.313   3.318  13.796 -0.0658  0.0717 -0.2570
  290TMC3     O 4429   3.386   3.400  13.743 -0.6829 -0.6191  0.3829
  290TMC3     H 4430   3.203   3.532  13.705  0.6272  0.0540  0.7296
  290TMC3    H1 4431   3.113   3.196  13.965 -0.5546 -0.6517 -1.1320
  290TMC3    H2 4432   2.806   3.434  13.821 -0.0484  1.3024  0.8141
  290TMC3    C7 4433   2.866   3.232  13.964 -0.0654  0.6474 -0.3679
  290TMC3    C8 4434   2.958   3.640  13.763 -0.1534 -0.4883  0.0029
  290TMC3    O1 4435   2.765   3.281  14.006 -0.6387  0.5407 -0.6409
  290TMC3    O2 4436   2.849   3.657  13.714  0.3762  0.3612  0.5893
  291MPD2     C 4437   3.199   3.824   0.245  0.1857  0.2942  1.0953
  291MPD2    C1 4438   3.300   3.731   0.267 -0.6287  0.5589  0.0846
  291MPD2    C2 4439   3.421   3.781   0.315  0.1258  0.4521  0.6127
  291MPD2    C3 4440   3.434   3.916   0.337  0.6451  1.2545 -0.3919
  291MPD2    C4 4441   3.334   4.005   0.315 -0.3390 -0.2825  0.1808
  291MPD2    C5 4442   3.216   3.957   0.273 -0.2679  0.7147 -0.8482
  291MPD2     H 4443   3.498   3.706   0.331 -2.7181 -2.8226 -1.0204
  291MPD2    H1 4444   3.347   4.112   0.322 -1.7780 -0.0838 -0.0822
  291MPD2    H2 4445   3.102   3.788   0.213  0.2490  1.6119 -0.5592
  291MPD2    H3 4446   3.127   4.017   0.259 -0.6042  0.4094  0.0431
  291MPD2     N 4447   3.556   3.970   0.402  0.0929  0.4035 -0.9434
  291MPD2    H5 4448   3.556   4.065   0.440 -0.7429  0.1010 -0.1813
  291MPD2    N1 4449   3.278   3.592   0.267  0.1607  0.3932 -0.4954
  291MPD2    H7 4450   3.342   3.529   0.315  0.9868 -0.0662 -2.1813
  292TMC3    C1 4451   3.166   3.390   0.226  0.4864 -0.0476  0.5388
  292TMC3    C2 4452   3.199   3.342   0.353  0.2753 -0.3206 -0.5472
  292TMC3    C3 4453   3.199   3.209   0.366  0.2599 -0.1886  0.0799
  292TMC3    C4 4454   3.131   3.312   0.123  0.5003  0.7233  0.0618
  292TMC3    C5 4455   3.140   3.175   0.143 -0.0177 -0.1810  0.0526
  292TMC3    C6 4456   3.158   3.126   0.269 -0.5786 -0.1742 -0.1609
  292TMC3     C 4457   3.173   3.528   0.205 -0.5952  0.0796  0.9593
  292TMC3     O 4458   3.072   3.570   0.148  0.2099 -0.0816 -0.3912
  292TMC3     H 4459   3.221   3.411   0.433  3.1714 -0.7965 -0.9184
  292TMC3    H1 4460   3.104   3.358   0.028 -1.9621  1.1033  0.9589
  292TMC3    H2 4461   3.160   3.019   0.289 -0.5441  0.2787  2.1654
  292TMC3    C7 4462   3.101   3.065   0.053  1.2715 -0.5437  0.5416
  292TMC3    C8 4463   3.195   3.145   0.491 -0.5660 -0.8013  0.5421
  292TMC3    O1 4464   3.158   2.958   0.065  0.3772  0.0839  0.1664
  292TMC3    O2 4465   3.292   3.171   0.562  0.2776 -0.3377 -0.5982
  293MPD2     C 4466   0.080   3.968  12.662  0.1192  0.3449 -0.5561
  293MPD2    C1 4467   4.715   3.931  12.745 -0.2290 -0.7030  0.5227
  293MPD2    C2 4468   4.691   4.011  12.859  0.9588  0.1930  0.2487
  293MPD2    C3 4469   0.033   4.119  12.889 -0.4074  0.5186  0.2429
  293MPD2    C4 4470   0.140   4.151  12.806  0.7181  0.2586  0.2275
  293MPD2    C5 4471   0.160   4.072  12.700  0.0209 -0.5961  0.0554
  293MPD2     H 4472   4.602   3.998  12.918  0.8722  1.0613  0.3083
  293MPD2    H1 4473   0.207   4.234  12.824 -1.5126  2.2732 -0.6803
  293MPD2    H2 4474   0.091   3.923  12.564 -1.3319  1.6996 -1.3364
  293MPD2    H3 4475   0.249   4.094  12.640  0.1810 -3.8751 -0.9067
  293MPD2     N 4476   0.009   4.172  13.015 -0.3288 -0.5011 -0.9493
  293MPD2    H5 4477   4.663   4.134  13.062 -0.4988 -0.0499 -0.8903
  293MPD2    N1 4478   4.639   3.813  12.719 -0.3554  0.5226 -0.4132
  293MPD2    H7 4479   4.665   3.786  12.624 -0.4536 -0.6692 -0.0995
  294TMC3    C1 4480   4.453   3.679  12.714  0.5255  0.3848  0.2939
  294TMC3    C2 4481   4.352   3.617  12.785  0.5766  0.1139  0.0393
  294TMC3    C3 4482   4.244   3.571  12.713 -1.1491  0.0349  0.2345
  294TMC3    C4 4483   4.445   3.695  12.578 -0.2924  0.1690 -0.6981
  294TMC3    C5 4484   4.337   3.644  12.510  0.7304 -0.2160 -0.7860
  294TMC3    C6 4485   4.240   3.579  12.575 -0.2909  0.1717 -0.2004
  294TMC3     C 4486   4.533   3.762  12.791  0.7674  0.2399  0.1118
  294TMC3     O 4487   4.496   3.797  12.903  0.0242 -0.0112 -0.1972
  294TMC3     H 4488   4.377   3.592  12.887 -0.4395 -0.1510  0.2226
  294TMC3    H1 4489   4.502   3.765  12.517 -0.6279  0.9546 -0.0975
  294TMC3    H2 4490   4.162   3.533  12.515  1.4429 -1.2696 -1.3318
  294TMC3    C7 4491   4.336   3.629  12.361 -0.1034  0.8001 -0.1451
  294TMC3    C8 4492   4.152   3.481  12.785 -0.2912 -0.2099  0.0131
  294TMC3    O1 4493   4.227   3.610  12.303  0.4555 -0.1085  0.2955
  294TMC3    O2 4494   4.156   3.490  12.908  0.2556  0.0855 -0.5430
  295MPD2     C 4495   0.318   3.887   1.013  0.7536 -0.5516 -0.5700
  295MPD2    C1 4496   0.201   3.833   0.959  0.3440  0.0035 -0.4459
  295MPD2    C2 4497   0.145   3.722   1.015 -0.0172 -0.0557 -0.7834
  295MPD2    C3 4498   0.203   3.662   1.121 -0.6582  0.4374  0.1006
  295MPD2    C4 4499   0.323   3.710   1.170  0.3791  0.7076 -0.2693
  295MPD2    C5 4500   0.375   3.822   1.120  0.0179  0.4548 -0.3187
  295MPD2     H 4501   0.060   3.670   0.972  1.2118 -0.9051 -2.1827
  295MPD2    H1 4502   0.372   3.671   1.258  0.4872 -1.9648 -1.5291
  295MPD2    H2 4503   0.369   3.979   0.987 -1.2129  0.7744  0.2525
  295MPD2    H3 4504   0.463   3.856   1.174 -1.6655  0.9838  2.1170
  295MPD2     N 4505   0.137   3.553   1.184  0.4229  0.5338  0.1411
  295MPD2    H5 4506   0.182   3.518   1.268  2.8607  0.3140 -1.2288
  295MPD2    N1 4507   0.136   3.884   0.844 -0.2045  0.1188  0.4592
  295MPD2    H7 4508   0.057   3.837   0.800 -1.6081  2.9379 -0.0120
  296TMC3    C1 4509   4.724   3.423   1.277  0.3562  0.3026  0.9620
  296TMC3    C2 4510   4.616   3.453   1.352 -0.6565 -0.3771  1.1374
  296TMC3    C3 4511   4.629   3.423   1.482  0.1969  0.0610 -0.1499
  296TMC3    C4 4512   0.091   3.344   1.312 -0.5345 -0.3705  0.4668
  296TMC3    C5 4513   0.096   3.305   1.439 -0.8308 -0.2548  0.4235
  296TMC3    C6 4514   0.005   3.348   1.532 -0.0532 -0.1954  0.2867
  296TMC3     C 4515   0.011   3.510   1.165  0.4749  0.3190  0.0344
  296TMC3     O 4516   4.649   3.569   1.115 -0.1484  0.2673 -0.5738
  296TMC3     H 4517   4.531   3.501   1.304  1.0054  0.2677 -1.1429
  296TMC3    H1 4518   0.172   3.324   1.243 -0.4000  0.0390  0.5026
  296TMC3    H2 4519   0.014   3.319   1.636  1.7500  1.6508  0.6366
  296TMC3    C7 4520   0.211   3.233   1.476 -0.5769 -0.2796  0.4476
  296TMC3    C8 4521   4.552   3.484   1.583  0.2485 -0.4833  0.1965
  296TMC3    O1 4522   0.308   3.239   1.402 -0.8181  0.1988 -0.0120
  296TMC3    O2 4523   4.526   3.428   1.690 -0.0906 -0.1402 -0.0401
  297MPD2     C 4524   2.411   0.282  16.251  0.1656 -0.1847  0.0199
  297MPD2    C1 4525   2.377   0.377  16.158  0.1150 -0.4055  0.0803
  297MPD2    C2 4526   2.472   0.475  16.130 -0.8907  0.0641  0.2347
  297MPD2    C3 4527   2.596   0.480  16.191 -0.1284  0.2051  0.5183
  297MPD2    C4 4528   2.616   0.397  16.297  0.7950  0.3511 -0.8076
  297MPD2    C5 4529   2.528   0.296  16.325  0.3804  0.7209 -0.2102
  297MPD2     H 4530   2.443   0.548  16.056  0.8466 -0.5078 -1.0327
  297MPD2    H1 4531   2.702   0.415  16.360  0.9895 -1.0887 -0.6752
  297MPD2    H2 4532   2.357   0.189  16.268  0.8127 -0.6737 -0.5887
  297MPD2    H3 4533   2.548   0.220  16.400  0.7262  0.7140 -0.3095
  297MPD2     N 4534   2.684   0.580  16.145  0.1674 -0.2907  0.3570
  297MPD2    H5 4535   2.653   0.641  16.070 -0.4469  0.9582  1.6081
  297MPD2    N1 4536   2.254   0.374  16.089 -0.6214  0.1221  0.3417
  297MPD2    H7 4537   2.247   0.422  16.000  0.0042 -1.2181 -0.4345
  298TMC3    C1 4538   2.033   0.313  16.038 -0.7138 -0.1208 -0.1479
  298TMC3    C2 4539   2.061   0.349  15.915  0.1633  0.3412 -0.6427
  298TMC3    C3 4540   1.986   0.443  15.848 -0.1159 -0.4348 -0.4198
  298TMC3    C4 4541   1.942   0.384  16.104  0.4888  0.1101  0.4496
  298TMC3    C5 4542   1.877   0.491  16.048 -0.1529 -0.2209 -0.0864
  298TMC3    C6 4543   1.886   0.508  15.912  0.2406  0.2784  0.3512
  298TMC3     C 4544   2.149   0.292  16.123  0.2520 -0.5383  0.4514
  298TMC3     O 4545   2.127   0.259  16.241  0.1725  0.4334 -0.0706
  298TMC3     H 4546   2.143   0.290  15.875 -0.0924 -0.5099  0.1072
  298TMC3    H1 4547   1.931   0.368  16.211 -0.3583 -0.2524  0.3057
  298TMC3    H2 4548   1.834   0.587  15.858 -1.0259 -0.9916 -0.3072
  298TMC3    C7 4549   1.842   0.602  16.137 -0.7719 -0.2873 -0.2645
  298TMC3    C8 4550   2.002   0.444  15.705  0.1086 -0.1309 -0.3042
  298TMC3    O1 4551   1.814   0.565  16.254  0.0028 -0.3707  0.1722
  298TMC3    O2 4552   2.079   0.359  15.669 -0.0004  0.2349  0.9308
  299MPD2     C 4553   3.362   4.416  10.671  0.3878 -0.4804 -0.3383
  299MPD2    C1 4554   3.348   4.542  10.623 -0.0373  0.5396  0.2046
  299MPD2    C2 4555   3.286   4.552  10.500 -0.0270  1.1000 -0.1859
  299MPD2    C3 4556   3.254   4.439  10.433 -0.1810  0.2432  0.1533
  299MPD2    C4 4557   3.267   4.309  10.483  0.3119  0.1533  1.2271
  299MPD2    C5 4558   3.332   4.292  10.602  0.1108 -0.0411  0.8769
  299MPD2     H 4559   3.287   4.646  10.447 -2.0610  1.9379  1.2593
  299MPD2    H1 4560   3.242   4.219  10.427  0.1893  0.7612  0.3069
  299MPD2    H2 4561   3.408   4.408  10.769  1.6423  0.8315 -0.8247
  299MPD2    H3 4562   3.360   4.196  10.645  4.1093  0.1594 -1.2742
  299MPD2     N 4563   3.203   4.445  10.294  0.7542 -0.3747  0.1797
  299MPD2    H5 4564   3.183   4.356  10.250 -1.7010  0.9295 -1.2898
  299MPD2    N1 4565   3.369   4.652  10.710 -0.3919 -0.5069 -0.0627
  299MPD2    H7 4566   3.404   4.615  10.798  1.5406 -1.9955 -1.4593
  300TMC3    C1 4567   3.121   4.530  10.091 -1.0957  0.1240  0.0061
  300TMC3    C2 4568   3.144   4.626   9.999 -0.3036  0.5346 -0.0473
  300TMC3    C3 4569   3.089   4.596   9.875 -0.1858 -0.1527  0.1223
  300TMC3    C4 4570   3.058   4.410  10.080 -0.6988 -0.6308  0.0428
  300TMC3    C5 4571   3.011   4.382   9.957  0.3482 -0.7004  0.1362
  300TMC3    C6 4572   3.032   4.468   9.854  0.3965  0.9038  0.0713
  300TMC3     C 4573   3.179   4.563  10.220  0.4200 -0.2328  0.4355
  300TMC3     O 4574   3.205   4.681  10.244  0.3154 -0.2759 -0.7868
  300TMC3     H 4575   3.212   4.710  10.006  0.9145 -0.4519 -0.0436
  300TMC3    H1 4576   3.033   4.340  10.159  0.4673 -1.8627 -0.6855
  300TMC3    H2 4577   2.986   4.449   9.758 -0.8112  1.5904  0.5034
  300TMC3    C7 4578   2.878   4.308   9.962  0.4402  0.3144 -0.3649
  300TMC3    C8 4579   2.995   4.696   9.825 -0.2900  0.5364 -0.1766
  300TMC3    O1 4580   2.829   4.279   9.853 -0.2982  0.3545  0.2713
  300TMC3    O2 4581   2.971   4.692   9.701 -0.0787 -0.3950  0.0683
  301MPD2     C 4582   0.123   1.856   1.483  0.6389 -0.1978  0.0698
  301MPD2    C1 4583   0.076   1.837   1.358  0.3895 -0.4359 -0.4567
  301MPD2    C2 4584   0.050   1.704   1.309 -0.2805 -0.1550  0.6735
  301MPD2    C3 4585   0.056   1.597   1.395  0.3038 -0.1099  0.6415
  301MPD2    C4 4586   0.094   1.625   1.521 -0.4325 -0.1935 -0.4533
  301MPD2    C5 4587   0.130   1.751   1.561 -0.6854 -0.3908 -0.3074
  301MPD2     H 4588   0.024   1.701   1.204  0.2286 -2.8879  0.6266
  301MPD2    H1 4589   0.106   1.555   1.603  0.7041  0.7948  0.2217
  301MPD2    H2 4590   0.157   1.956   1.509  1.4864 -0.6389  0.6394
  301MPD2    H3 4591   0.157   1.760   1.666  2.4299 -0.1902 -1.1306
  301MPD2     N 4592   0.027   1.463   1.366 -0.1898  0.1836 -0.7015
  301MPD2    H5 4593   0.058   1.389   1.428 -0.7672 -0.3699 -1.0754
  301MPD2    N1 4594   0.050   1.937   1.265 -0.1680  0.0293 -0.8544
  301MPD2    H7 4595   0.006   1.908   1.178 -0.7255 -1.4008 -0.1001
  302TMC3    C1 4596   4.708   1.278   1.222  0.2588  1.1695 -0.2031
  302TMC3    C2 4597   0.064   1.200   1.286 -0.6977  0.8118 -0.0490
  302TMC3    C3 4598   0.084   1.074   1.247  0.1968  0.1854  0.3468
  302TMC3    C4 4599   4.650   1.229   1.108 -0.2005  0.4173  0.8205
  302TMC3    C5 4600   4.680   1.101   1.067  0.0731 -0.1674 -0.3346
  302TMC3    C6 4601   0.027   1.023   1.139  0.6564  0.2610 -0.1486
  302TMC3     C 4602   4.695   1.423   1.252  1.3099 -0.0190 -0.0097
  302TMC3     O 4603   4.633   1.490   1.176  0.5045  0.0007  0.7582
  302TMC3     H 4604   0.112   1.239   1.375 -0.6836  0.0837  0.2610
  302TMC3    H1 4605   4.578   1.296   1.061  1.4342  1.0048 -0.8310
  302TMC3    H2 4606   0.038   0.917   1.120 -2.0989  0.4623 -2.8081
  302TMC3    C7 4607   4.617   1.039   0.958 -0.5694 -0.0090 -0.7135
  302TMC3    C8 4608   0.201   0.999   1.283  0.8448 -0.1363  0.0711
  302TMC3    O1 4609   4.649   0.927   0.928  0.7310  0.1010 -0.1027
  302TMC3    O2 4610   0.198   0.875   1.274 -0.1665 -0.0128 -0.2143
  303MPD2     C 4611   4.736   4.615  10.450  0.7427  0.0506 -0.0764
  303MPD2    C1 4612   0.133   4.650  10.453  0.3763 -0.1750 -0.3765
  303MPD2    C2 4613   0.216   4.617  10.346  0.7825 -0.6942  0.1026
  303MPD2    C3 4614   0.165   4.559  10.233 -0.0483 -0.3985  0.2177
  303MPD2    C4 4615   0.030   4.517  10.233  0.3424  0.8342 -0.1587
  303MPD2    C5 4616   4.690   4.545  10.342  0.1245  0.7689  0.2840
  303MPD2     H 4617   0.325   4.621  10.351  0.7193  0.7688  0.2855
  303MPD2    H1 4618   4.727   4.467  10.145 -1.9864  1.3718  0.5936
  303MPD2    H2 4619   4.662   4.633  10.527  0.6837  1.0579 -0.3711
  303MPD2    H3 4620   4.587   4.512  10.345 -0.1027  1.3318 -1.2217
  303MPD2     N 4621   0.241   4.523  10.117  0.1927  0.3533  0.2275
  303MPD2    H5 4622   0.188   4.468  10.049  0.5005  0.4747 -0.1118
  303MPD2    N1 4623   0.180   4.692  10.581  0.3038 -0.0359 -0.0328
  303MPD2    H7 4624   0.118   4.686  10.662  0.4525 -1.5969 -0.0357
  304TMC3    C1 4625   0.334   4.724  10.756  0.2014 -0.0008 -0.2240
  304TMC3    C2 4626   0.240   4.678  10.847 -0.0405 -0.1049  0.0503
  304TMC3    C3 4627   0.277   4.635  10.968 -0.2255  0.6393 -0.1797
  304TMC3    C4 4628   0.467   4.728  10.791  0.1435  0.0829  0.2654
  304TMC3    C5 4629   0.508   4.674  10.913 -0.6934  0.3311  0.3997
  304TMC3    C6 4630   0.412   4.633  11.002 -0.1673  0.4388 -0.0797
  304TMC3     C 4631   0.305   4.727  10.614 -0.1872  0.4164 -0.4886
  304TMC3     O 4632   0.399   0.011  10.541 -0.0757  0.0985  0.1476
  304TMC3     H 4633   0.133   4.695  10.835  0.2705  0.9562 -1.3200
  304TMC3    H1 4634   0.535   0.017  10.711 -1.7430 -1.5843 -1.8850
  304TMC3    H2 4635   0.441   4.604  11.102  1.4027 -1.8040 -1.2130
  304TMC3    C7 4636   0.609   4.572  10.894  0.2072  0.4030  0.1349
  304TMC3    C8 4637   0.216   4.504  10.995  0.7350  0.2590 -0.5862
  304TMC3    O1 4638   0.586   4.460  10.937 -0.1391  0.0919  0.0493
  304TMC3    O2 4639   0.094   4.490  10.982 -0.3472 -0.0064 -0.5793
  305MPD2     C 4640   3.201   1.932  14.043  0.1367 -0.7485 -0.7964
  305MPD2    C1 4641   3.251   1.808  14.091 -0.3394  0.0739 -0.3843
  305MPD2    C2 4642   3.185   1.690  14.056  0.1452  0.5547 -0.2991
  305MPD2    C3 4643   3.078   1.694  13.962 -0.4657  0.2927  0.7681
  305MPD2    C4 4644   3.047   1.817  13.907 -0.6958  0.5333 -0.1444
  305MPD2    C5 4645   3.108   1.932  13.950 -0.3333  0.0097 -0.1664
  305MPD2     H 4646   3.208   1.596  14.106 -0.8696 -0.1093 -1.0830
  305MPD2    H1 4647   2.965   1.826  13.838 -1.3955 -2.7850  0.2626
  305MPD2    H2 4648   3.245   2.027  14.068 -0.8388  0.1117 -2.3680
  305MPD2    H3 4649   3.089   2.025  13.898  1.1114  0.8684  0.8531
  305MPD2     N 4650   3.023   1.578  13.908  0.7767  0.1134 -0.6447
  305MPD2    H5 4651   2.955   1.592  13.834  2.1989  1.5143 -1.6698
  305MPD2    N1 4652   3.359   1.818  14.181 -0.0722  0.0144  0.6192
  305MPD2    H7 4653   3.383   1.911  14.213 -0.9172  0.4704 -0.0740
  306TMC3    C1 4654   3.526   1.739  14.335  0.1965 -0.2320  0.5815
  306TMC3    C2 4655   3.631   1.650  14.344 -0.5424  0.4127  0.4581
  306TMC3    C3 4656   3.724   1.683  14.433 -0.1017  0.0386  0.5960
  306TMC3    C4 4657   3.516   1.844  14.420 -0.1507  0.4572  0.4071
  306TMC3    C5 4658   3.619   1.877  14.509 -0.0781 -0.3255 -0.1083
  306TMC3    C6 4659   3.719   1.790  14.523 -0.1939  0.1108 -0.5237
  306TMC3     C 4660   3.429   1.706  14.231  0.3714 -0.2826  0.0479
  306TMC3     O 4661   3.433   1.593  14.179 -0.0464  0.3049 -0.2907
  306TMC3     H 4662   3.639   1.575  14.266  0.8897 -2.3936  3.3294
  306TMC3    H1 4663   3.424   1.901  14.432  1.2546  2.5474  1.2456
  306TMC3    H2 4664   3.803   1.822  14.584 -0.7154 -2.5305  1.5713
  306TMC3    C7 4665   3.582   1.947  14.627 -0.2237 -0.0088 -0.0258
  306TMC3    C8 4666   3.824   1.576  14.456  1.0234 -0.2630 -0.1237
  306TMC3    O1 4667   3.465   1.926  14.662 -0.0674 -0.3017 -0.0157
  306TMC3    O2 4668   3.831   1.493  14.367 -0.1560 -0.4259  0.2988
  307MPD2     C 4669   1.428   4.531   0.231 -0.0024 -0.6198  0.1502
  307MPD2    C1 4670   1.407   4.669   0.226  0.0844 -0.1561  0.0502
  307MPD2    C2 4671   1.325   4.735   0.311 -0.1906  0.7813  0.3623
  307MPD2    C3 4672   1.253   4.662   0.408 -0.1509  0.5283 -0.4628
  307MPD2    C4 4673   1.272   4.526   0.416  0.4031  0.1205  0.1771
  307MPD2    C5 4674   1.357   4.463   0.332  0.3224  0.1196 -0.4375
  307MPD2     H 4675   1.318   0.106   0.311  1.3570  0.8936  1.0129
  307MPD2    H1 4676   1.233   4.473   0.502  0.7515 -2.1282 -1.0685
  307MPD2    H2 4677   1.494   4.471   0.169  1.0189  1.5626 -0.8589
  307MPD2    H3 4678   1.365   4.356   0.348 -0.8930  0.1052  0.0780
  307MPD2     N 4679   1.150   0.000   0.479  0.0916 -0.0507 -0.3468
  307MPD2    H5 4680   1.144   0.100   0.460  4.5330  0.6445  1.9626
  307MPD2    N1 4681   1.449   0.008   0.115 -0.4688  0.7377  0.2612
  307MPD2    H7 4682   1.412   0.102   0.106 -1.3851  0.4648  1.1879
  308TMC3    C1 4683   0.809   0.117   0.782  0.3687  0.1042 -0.0493
  308TMC3    C2 4684   0.808   0.243   0.724 -0.0878  0.3432 -0.0865
  308TMC3    C3 4685   0.890   0.267   0.611  0.9725 -0.8414 -0.4945
  308TMC3    C4 4686   0.910   0.024   0.739 -0.5493 -0.2776  0.6029
  308TMC3    C5 4687   0.983   0.059   0.629  0.0345  0.4692  0.7122
  308TMC3    C6 4688   0.968   0.172   0.560  0.1183 -0.4142  0.4794
  308TMC3     C 4689   0.683   0.052   0.824 -0.3039  0.0462  0.6113
  308TMC3     O 4690   0.689   4.674   0.860  0.1231  0.4085  0.0028
  308TMC3     H 4691   0.758   0.319   0.782 -1.5234 -0.1439 -0.6953
  308TMC3    H1 4692   0.905   4.655   0.764  2.3104 -0.5589 -0.0308
  308TMC3    H2 4693   1.018   0.193   0.466 -0.3845 -1.5404 -0.0315
  308TMC3    C7 4694   1.068   4.693   0.573  0.6116 -0.3651  0.9302
  308TMC3    C8 4695   0.893   0.399   0.545  0.3458 -0.0323  0.1345
  308TMC3    O1 4696   1.058   4.576   0.613 -0.1022 -0.2138 -0.0897
  308TMC3    O2 4697   0.992   0.424   0.474 -0.0190  0.3257  0.0028
  309MPD2     C 4698   0.526   0.366  17.232  0.3280  0.1404  0.0223
  309MPD2    C1 4699   0.445   0.448  17.158 -0.6116 -0.0984  1.0589
  309MPD2    C2 4700   0.344   0.506  17.229 -0.1223 -0.7630 -0.0667
  309MPD2    C3 4701   0.313   0.483  17.362 -0.1623 -0.4968  0.8848
  309MPD2    C4 4702   0.390   0.402  17.433 -0.0000 -0.0059  0.1827
  309MPD2    C5 4703   0.499   0.347  17.368  0.2857  0.0497  0.9159
  309MPD2     H 4704   0.267   0.564  17.179  0.1823  1.0536  1.5755
  309MPD2    H1 4705   0.380   0.372  17.537 -1.2077 -0.5286 -0.0842
  309MPD2    H2 4706   0.618   0.331  17.187 -0.2811 -1.2553 -0.1411
  309MPD2    H3 4707   0.565   0.282  17.423  3.3111  1.0262 -1.6030
  309MPD2     N 4708   0.204   0.550  17.436 -0.2098 -0.1037 -0.6478
  309MPD2    H5 4709   0.143   0.616  17.388  0.8599  0.9059 -0.6230
  309MPD2    N1 4710   0.465   0.467  17.022  0.6581  0.4601 -0.0963
  309MPD2    H7 4711   0.414   0.543  16.977 -1.0382  0.3902  1.7346
  310TMC3    C1 4712   0.597   0.462  16.814  0.5763 -0.6616 -0.0124
  310TMC3    C2 4713   0.496   0.479  16.720 -0.5189 -0.3398  0.2944
  310TMC3    C3 4714   0.529   0.514  16.594  0.5392  0.0965  0.3507
  310TMC3    C4 4715   0.723   0.452  16.772 -0.1608  0.8074 -0.0721
  310TMC3    C5 4716   0.747   0.471  16.633  0.2918 -0.4192  0.0884
  310TMC3    C6 4717   0.656   0.507  16.543  0.7877  0.0192  0.3650
  310TMC3     C 4718   0.559   0.399  16.946  0.0610 -0.3954  0.2056
  310TMC3     O 4719   0.619   0.295  16.963 -0.0669 -0.4768 -1.0857
  310TMC3     H 4720   0.394   0.494  16.754 -0.0137  1.2878  1.1130
  310TMC3    H1 4721   0.795   0.414  16.844  0.8452  0.4135 -1.2820
  310TMC3    H2 4722   0.688   0.499  16.440  0.9507  1.8335  0.2738
  310TMC3    C7 4723   0.877   0.437  16.578  1.0292  0.6596  0.2796
  310TMC3    C8 4724   0.417   0.518  16.502  0.2540 -0.2030 -0.1690
  310TMC3    O1 4725   0.873   0.377  16.471 -0.4991  0.1754 -0.1085
  310TMC3    O2 4726   0.302   0.493  16.541 -0.2773 -0.1212 -0.2810
  311MPD2     C 4727   2.180   1.124  12.586  0.5068  0.1533 -0.2549
  311MPD2    C1 4728   2.105   1.227  12.642 -0.0092  0.4434 -0.4964
  311MPD2    C2 4729   2.012   1.190  12.736  0.7332 -0.1693  0.0758
  311MPD2    C3 4730   2.012   1.067  12.793  0.2750  0.2796 -0.6484
  311MPD2    C4 4731   2.095   0.972  12.744 -0.5638 -0.7112 -0.4892
  311MPD2    C5 4732   2.173   0.997  12.634 -0.3527 -0.5937 -0.2667
  311MPD2     H 4733   1.947   1.264  12.781  0.7640 -0.2835  0.3056
  311MPD2    H1 4734   2.095   0.872  12.786 -0.2103 -0.1149  0.9511
  311MPD2    H2 4735   2.258   1.135  12.512  1.1647 -1.4695  0.1886
  311MPD2    H3 4736   2.246   0.927  12.594 -0.4425 -0.1278 -1.2332
  311MPD2     N 4737   1.925   1.025  12.907 -0.4258 -0.0973  0.7136
  311MPD2    H5 4738   1.859   1.099  12.929 -0.9404 -0.6652  1.0692
  311MPD2    N1 4739   2.123   1.362  12.611  0.1208  0.2550 -0.3772
  311MPD2    H7 4740   2.049   1.428  12.636  1.4919  0.9972  1.7610
  312TMC3    C1 4741   1.801   0.907  13.062  0.0718  0.0758  0.4557
  312TMC3    C2 4742   1.702   0.815  13.030  0.3039 -0.4735  0.9297
  312TMC3    C3 4743   1.581   0.825  13.084  0.4350 -0.5741  0.6060
  312TMC3    C4 4744   1.783   1.010  13.151 -0.2152  0.6489  0.3407
  312TMC3    C5 4745   1.667   1.005  13.217  1.0637 -0.0033  0.6241
  312TMC3    C6 4746   1.560   0.922  13.178  0.4751 -0.5924  1.1414
  312TMC3     C 4747   1.912   0.903  12.974 -0.0992 -0.5063  0.1327
  312TMC3     O 4748   1.952   0.792  12.942  0.2832 -0.3064 -0.0150
  312TMC3     H 4749   1.721   0.742  12.951  0.5268  0.1743  0.3821
  312TMC3    H1 4750   1.869   1.065  13.186  0.9014 -1.3599  0.7781
  312TMC3    H2 4751   1.480   0.919  13.252 -0.5399 -1.0894  0.0315
  312TMC3    C7 4752   1.619   1.126  13.272 -0.1633 -0.5684  0.1662
  312TMC3    C8 4753   1.473   0.783  12.998  0.0434  0.7669 -0.4299
  312TMC3    O1 4754   1.508   1.155  13.240 -0.0427  0.3779  0.1714
  312TMC3    O2 4755   1.481   0.667  12.960  0.1798  0.0275  0.5103
  313MPD2     C 4756   1.889   0.333  10.984  0.3783  0.0601 -0.7506
  313MPD2    C1 4757   1.942   0.437  10.908 -0.2109 -0.3247  0.2936
  313MPD2    C2 4758   1.990   0.396  10.790 -0.4254  0.5296 -0.2394
  313MPD2    C3 4759   1.975   0.271  10.736  0.4528  0.1076 -0.1313
  313MPD2    C4 4760   1.908   0.176  10.810  0.0826 -0.0723 -0.0034
  313MPD2    C5 4761   1.884   0.207  10.941 -0.6085  1.1389  0.5582
  313MPD2     H 4762   2.048   0.466  10.731 -1.8650  1.3843 -0.6094
  313MPD2    H1 4763   1.889   0.076  10.771  0.1945 -0.2678  0.4482
  313MPD2    H2 4764   1.857   0.350  11.086  0.9643  0.4318 -0.6276
  313MPD2    H3 4765   1.842   0.132  11.007 -1.0184  1.0271  0.1740
  313MPD2     N 4766   2.022   0.252  10.607 -0.2982  0.1860  0.1455
  313MPD2    H5 4767   2.072   0.329  10.564  1.0804  0.7770  2.7504
  313MPD2    N1 4768   1.954   0.568  10.953  0.1692 -0.0061 -0.1760
  313MPD2    H7 4769   2.022   0.622  10.900 -1.5152 -0.0661 -2.4123
  314TMC3    C1 4770   1.878   0.771  11.066  0.3356 -0.2041 -0.0750
  314TMC3    C2 4771   2.007   0.828  11.038 -0.5350  0.0567  0.2443
  314TMC3    C3 4772   2.013   0.949  10.970 -0.0784  0.5918  0.0922
  314TMC3    C4 4773   1.771   0.845  11.042 -0.4692 -0.3846  0.9095
  314TMC3    C5 4774   1.782   0.964  10.978 -0.0645 -0.6072 -0.1478
  314TMC3    C6 4775   1.902   1.020  10.936 -0.6506  0.3715 -0.0476
  314TMC3     C 4776   1.871   0.626  11.049 -0.8310 -0.1134  0.5661
  314TMC3     O 4777   1.786   0.566  11.106 -0.0680 -0.3279  0.4570
  314TMC3     H 4778   2.096   0.769  11.050 -0.1529  0.7700  0.9581
  314TMC3    H1 4779   1.675   0.794  11.047 -1.8763  2.0349 -1.0481
  314TMC3    H2 4780   1.909   1.111  10.878  0.5448 -0.3592 -1.0662
  314TMC3    C7 4781   1.667   1.000  10.907 -0.0392  0.2983 -0.5605
  314TMC3    C8 4782   2.143   1.008  10.952 -0.2932  0.9448  0.4896
  314TMC3    O1 4783   1.567   0.988  10.974  0.2791 -0.1393 -0.4991
  314TMC3    O2 4784   2.139   1.113  10.890 -0.2405  0.5542 -0.5710
  315MPD2     C 4785   1.554   0.512   0.372 -0.1142  0.0150  0.4823
  315MPD2    C1 4786   1.665   0.454   0.320 -0.1604  0.1102 -0.7623
  315MPD2    C2 4787   1.758   0.537   0.263 -0.0912  0.1483 -0.9139
  315MPD2    C3 4788   1.727   0.667   0.229 -0.1038 -0.0789  0.2393
  315MPD2    C4 4789   1.612   0.722   0.275  0.7689  0.2194  1.2835
  315MPD2    C5 4790   1.524   0.640   0.339 -0.4029 -0.0954 -0.7356
  315MPD2     H 4791   1.854   0.493   0.239  1.3587  0.7570  3.6244
  315MPD2    H1 4792   1.579   0.823   0.259  1.3418  0.1043 -0.5927
  315MPD2    H2 4793   1.473   0.458   0.420 -1.1430 -1.3874 -2.8350
  315MPD2    H3 4794   1.427   0.679   0.370 -1.8424 -2.2805 -2.5121
  315MPD2     N 4795   1.827   0.743   0.168  0.0468 -0.4240  0.3479
  315MPD2    H5 4796   1.916   0.696   0.155  0.1814  0.1173 -0.6223
  315MPD2    N1 4797   1.697   0.319   0.343  0.4965  0.2547 -1.0276
  315MPD2    H7 4798   1.789   0.288   0.314  1.7662  0.9584  2.2297
  316TMC3    C1 4799   1.921   0.906   0.031 -0.6246 -0.3161  0.2071
  316TMC3    C2 4800   2.034   0.954   0.092 -0.6643  0.3034 -0.0053
  316TMC3    C3 4801   2.100   1.058   0.036 -0.3859 -0.1450 -0.7575
  316TMC3    C4 4802   1.876   0.972  17.656  0.6601 -0.0075  0.4883
  316TMC3    C5 4803   1.958   1.071  17.603  0.2036 -0.1295  0.9143
  316TMC3    C6 4804   2.063   1.122  17.675 -0.3904  0.2172 -0.2029
  316TMC3     C 4805   1.808   0.868   0.116  0.6508  0.7697 -0.0695
  316TMC3     O 4806   1.710   0.944   0.113 -0.0764 -0.4114  0.6453
  316TMC3     H 4807   2.033   0.943   0.200  1.9237 -0.8548 -0.0825
  316TMC3    H1 4808   1.782   0.941  17.611  0.7976 -2.2239  1.6975
  316TMC3    H2 4809   2.109   1.210  17.633 -0.3247 -0.8719 -2.4260
  316TMC3    C7 4810   1.890   1.174  17.529 -0.4748  0.0410  0.5792
  316TMC3    C8 4811   2.201   1.116   0.114 -0.4861  0.6120  0.2462
  316TMC3    O1 4812   1.874   1.280  17.596  0.3033 -0.0008 -0.3477
  316TMC3    O2 4813   2.224   1.235   0.083 -0.1802 -0.0371 -0.7163
  317MPD2     C 4814   3.151   3.124  12.836  0.2503  1.3231  0.4018
  317MPD2    C1 4815   3.160   2.993  12.794 -0.0313  0.8650 -0.4888
  317MPD2    C2 4816   3.263   2.919  12.831 -0.1829  0.4171  0.0326
  317MPD2    C3 4817   3.373   2.977  12.898 -0.5300 -0.1511 -0.5465
  317MPD2    C4 4818   3.373   3.114  12.923 -0.0743  0.3383 -0.2645
  317MPD2    C5 4819   3.266   3.186  12.886 -0.7790  0.3678 -1.0514
  317MPD2     H 4820   3.257   2.816  12.798 -1.3469  0.0268  1.4801
  317MPD2    H1 4821   3.450   3.161  12.983 -0.2579 -0.0333  0.2717
  317MPD2    H2 4822   3.076   3.198  12.812 -1.0151 -0.0137  0.2214
  317MPD2    H3 4823   3.250   3.286  12.925 -1.6583 -0.6707  1.2709
  317MPD2     N 4824   3.474   2.895  12.951 -0.1065 -0.1716  0.2479
  317MPD2    H5 4825   3.468   2.794  12.939 -3.1122 -0.0095  0.2508
  317MPD2    N1 4826   3.058   2.936  12.718 -0.6265 -0.0978 -0.2377
  317MPD2    H7 4827   3.071   2.843  12.679  0.6590 -0.2448  0.5457
  318TMC3    C1 4828   3.601   2.814  13.121  0.1541  0.3404  0.1287
  318TMC3    C2 4829   3.518   2.713  13.124  0.6761  0.1688  0.0623
  318TMC3    C3 4830   3.561   2.586  13.138  0.7129  0.2023  0.4640
  318TMC3    C4 4831   3.736   2.796  13.129  0.6030  0.7745 -0.1563
  318TMC3    C5 4832   3.785   2.665  13.142 -0.2327 -0.4018  0.8376
  318TMC3    C6 4833   3.695   2.562  13.144 -0.1690  0.0332 -0.0779
  318TMC3     C 4834   3.572   2.926  13.038  0.0081 -0.3165 -0.2741
  318TMC3     O 4835   3.606   3.034  13.082 -0.0469 -0.2194 -0.0133
  318TMC3     H 4836   3.417   2.738  13.155 -0.2276 -2.3007 -0.8885
  318TMC3    H1 4837   3.797   2.885  13.116 -0.6362  1.6328 -0.0560
  318TMC3    H2 4838   3.725   2.458  13.151  2.4030  0.6166 -2.0575
  318TMC3    C7 4839   3.918   2.640  13.089 -0.1584 -0.1938 -0.0595
  318TMC3    C8 4840   3.463   2.477  13.123  0.5687  0.8834 -0.0424
  318TMC3    O1 4841   3.958   2.733  13.024 -0.4460  0.4866 -0.7697
  318TMC3    O2 4842   3.502   2.366  13.156 -0.8205 -0.5642  0.4264
  319MPD2     C 4843   0.142   4.548  15.988  0.3845 -0.0544  0.3677
  319MPD2    C1 4844   0.073   4.493  16.088 -0.2945 -0.2119 -0.3958
  319MPD2    C2 4845   4.721   4.398  16.056  0.7031  0.1153 -0.3249
  319MPD2    C3 4846   4.678   4.371  15.926 -0.0380 -0.3311  0.5423
  319MPD2    C4 4847   0.012   4.430  15.824  0.5193 -0.2360 -0.3630
  319MPD2    C5 4848   0.103   4.529  15.857  0.6614  0.0165  0.6062
  319MPD2     H 4849   4.680   4.349  16.144 -1.9987  1.3573 -0.8897
  319MPD2    H1 4850   4.727   4.423  15.718  1.5974 -0.1700 -0.5933
  319MPD2    H2 4851   0.221   4.620  16.007  1.7668 -0.9891 -1.8251
  319MPD2    H3 4852   0.147   4.581  15.773  0.2570  0.1264  0.4624
  319MPD2     N 4853   4.558   4.295  15.894 -0.5140  0.3165  0.3771
  319MPD2    H5 4854   4.528   4.294  15.798  1.4734  0.4202 -0.2459
  319MPD2    N1 4855   0.096   4.519  16.225 -0.5312 -0.5166 -0.5038
  319MPD2    H7 4856   0.045   4.462  16.293  2.3428  0.9097  2.8592
  320TMC3    C1 4857   4.359   4.190  15.924 -0.4849  0.4528  0.2042
  320TMC3    C2 4858   4.294   4.275  15.839 -0.3514  0.2574  0.4180
  320TMC3    C3 4859   4.175   4.234  15.791  0.2294  0.3404  0.2766
  320TMC3    C4 4860   4.292   4.080  15.978  0.2883 -0.0099  0.5355
  320TMC3    C5 4861   4.168   4.051  15.932  0.1329  0.2399  0.8308
  320TMC3    C6 4862   4.111   4.129  15.836  0.3194 -0.4397  0.1716
  320TMC3     C 4863   4.485   4.225  15.983 -0.2869 -0.2726 -0.4881
  320TMC3     O 4864   4.517   4.172  16.088  0.2161 -0.4328 -0.0004
  320TMC3     H 4865   4.341   4.349  15.776 -0.2376  0.4858  0.7754
  320TMC3    H1 4866   4.357   4.010  16.029  1.6581  0.6101 -0.3686
  320TMC3    H2 4867   4.015   4.102  15.794 -0.1068 -0.2209  1.0147
  320TMC3    C7 4868   4.149   3.912  15.907 -0.9295 -0.1306 -0.1812
  320TMC3    C8 4869   4.096   4.338  15.728  0.0333  0.4053 -0.9482
  320TMC3    O1 4870   4.095   3.883  15.800  0.5037 -0.1553  0.9515
  320TMC3    O2 4871   4.124   4.453  15.757  0.2990  0.5258  0.4163
  321TMC3    C1 4872   0.189   4.600  16.428  0.5630 -0.1627  0.4127
  321TMC3    C2 4873   0.208   4.464  16.464  0.1027  0.8377 -0.9845
  321TMC3    C3 4874   0.301   4.438  16.562  0.1622  0.6258 -0.5171
  321TMC3    C4 4875   0.257   4.700  16.485  0.2350  0.3603 -0.6893
  321TMC3    C5 4876   0.355   4.668  16.567  0.9255 -0.2759 -0.0280
  321TMC3    C6 4877   0.383   4.540  16.607  0.0638 -0.6493  0.0207
  321TMC3     C 4878   0.168   4.621  16.280 -0.8976  0.3271 -0.3282
  321TMC3     O 4879   0.219   4.718  16.223  0.1137 -0.1398  0.3519
  321TMC3     H 4880   0.141   4.386  16.429  0.3612  0.1787 -0.0032
  321TMC3    H1 4881   0.230   0.064  16.456 -1.3839  0.0537 -0.2549
  321TMC3    H2 4882   0.475   4.520  16.660 -0.6456  0.1307  1.5541
  321TMC3    C7 4883   0.356   0.005  16.687  0.3504 -0.2034  1.1987
  321TMC3    C8 4884   0.258   4.338  16.652 -0.0348  0.6669  0.4111
  321TMC3    O1 4885   0.382   4.664  16.779 -0.0966 -0.6839 -0.1017
  321TMC3    O2 4886   0.170   4.254  16.620 -0.1522 -0.6137  0.2951
  322MPD2     C 4887   2.927   0.769  13.940 -0.5720 -0.4629  0.0670
  322MPD2    C1 4888   3.070   0.758  13.940  0.8301  0.3607  0.0236
  322MPD2    C2 4889   3.125   0.653  13.871 -0.2080  0.9514 -0.7343
  322MPD2    C3 4890   3.047   0.564  13.802 -0.0073  0.1140  0.0603
  322MPD2    C4 4891   2.909   0.579  13.792 -0.6164  0.3950  0.5672
  322MPD2    C5 4892   2.857   0.675  13.871  0.2622  0.8557 -0.0809
  322MPD2     H 4893   3.231   0.632  13.876 -0.2051  0.7586 -1.6083
  322MPD2    H1 4894   2.847   0.506  13.742 -1.4396  1.4030  0.1153
  322MPD2    H2 4895   2.874   0.853  13.983 -0.7601 -0.3355 -0.4178
  322MPD2    H3 4896   2.750   0.673  13.892  0.1447  0.2230 -0.7583
  322MPD2     N 4897   3.117   0.444  13.764 -0.0213  0.1139  0.8371
  322MPD2    H5 4898   3.214   0.428  13.789  0.5768  1.2264 -0.7878
  322MPD2    N1 4899   3.157   0.846  14.008 -0.5328 -0.0027  0.0904
  322MPD2    H7 4900   3.253   0.815  14.015 -0.1236  1.4288  0.8820
  323TMC3    C1 4901   3.230   1.041  14.121 -0.0282 -0.2635 -0.3921
  323TMC3    C2 4902   3.342   1.063  14.043  0.1196 -0.5031 -0.6626
  323TMC3    C3 4903   3.439   1.145  14.096  0.2959 -0.0848  0.3254
  323TMC3    C4 4904   3.215   1.096  14.243 -0.0907  0.2804 -0.3786
  323TMC3    C5 4905   3.321   1.163  14.292 -0.3587  0.2036 -0.2901
  323TMC3    C6 4906   3.435   1.191  14.223  0.0532  0.4322 -0.4003
  323TMC3     C 4907   3.119   0.961  14.067 -0.0226 -0.0282 -0.5103
  323TMC3     O 4908   3.009   0.999  14.102 -0.1797  0.4067 -0.1842
  323TMC3     H 4909   3.356   1.020  13.944  2.2508 -0.4395 -0.3858
  323TMC3    H1 4910   3.132   1.077  14.310  0.6258 -0.6320  0.2533
  323TMC3    H2 4911   3.509   1.260  14.260 -0.7943  0.6153  0.9290
  323TMC3    C7 4912   3.355   1.107  14.426  0.6570  0.2480  0.5323
  323TMC3    C8 4913   3.574   1.148  14.043 -0.3972  0.2088 -0.8066
  323TMC3    O1 4914   3.311   0.994  14.453 -0.3976  0.4388 -0.3322
  323TMC3    O2 4915   3.658   1.128  14.132 -0.3467 -0.1373  0.1087
  324MPD2     C 4916   0.329   1.706  14.466 -0.1489 -0.0216 -0.4307
  324MPD2    C1 4917   0.306   1.839  14.444 -0.0234 -0.6227 -0.2340
  324MPD2    C2 4918   0.194   1.870  14.371  0.9395 -0.3368 -0.3110
  324MPD2    C3 4919   0.103   1.778  14.327  0.4103  0.1738  0.4939
  324MPD2    C4 4920   0.127   1.641  14.353  0.5122  0.0661 -0.6365
  324MPD2    C5 4921   0.239   1.612  14.425 -0.4866 -0.1169 -0.7657
  324MPD2     H 4922   0.174   1.976  14.361  2.6096  0.1488  1.3588
  324MPD2    H1 4923   0.059   1.566  14.315 -1.5830  1.4618  0.3791
  324MPD2    H2 4924   0.425   1.668  14.500  0.4834  0.1611 -1.9923
  324MPD2    H3 4925   0.258   1.510  14.457 -1.0668 -0.1462 -0.5161
  324MPD2     N 4926   4.728   1.815  14.253  0.1392 -0.0245  1.1676
  324MPD2    H5 4927   4.662   1.741  14.231 -1.0158  0.7031  2.2042
  324MPD2    N1 4928   0.399   1.943  14.482 -0.0228  0.6021  0.4334
  324MPD2    H7 4929   0.376   2.034  14.444 -1.7398 -1.0698 -2.5505
  325TMC3    C1 4930   4.575   1.944  14.132  0.1118 -0.0854 -0.1890
  325TMC3    C2 4931   4.468   1.888  14.192 -0.0618 -0.5395 -0.1213
  325TMC3    C3 4932   4.339   1.937  14.161  0.4181 -0.5078 -0.1371
  325TMC3    C4 4933   4.572   2.055  14.056 -0.0481  0.1237 -0.5026
  325TMC3    C5 4934   4.448   2.093  14.023 -1.2278  0.1852 -0.1230
  325TMC3    C6 4935   4.330   2.045  14.071  0.8774 -0.3856  0.1490
  325TMC3     C 4936   4.701   1.936  14.198 -0.6475 -1.2212  0.0309
  325TMC3     O 4937   0.040   2.032  14.190 -0.2701  0.3214 -0.7624
  325TMC3     H 4938   4.470   1.809  14.266 -0.7806  0.3309  0.8367
  325TMC3    H1 4939   4.661   2.078  13.998  0.1049  0.9810  0.0829
  325TMC3    H2 4940   4.242   2.070  14.013 -0.5540 -0.9761  2.0327
  325TMC3    C7 4941   4.449   2.226  13.959  0.2492  0.5347 -0.0328
  325TMC3    C8 4942   4.217   1.860  14.189 -0.0965  0.3748  0.2945
  325TMC3    O1 4943   4.541   2.250  13.887 -0.6821 -0.3045 -0.0189
  325TMC3    O2 4944   4.231   1.741  14.202  0.3963 -0.0957  0.1389
  326MPD2     C 4945   1.784   2.341  10.873 -0.7102 -0.3442 -0.1714
  326MPD2    C1 4946   1.705   2.405  10.778 -0.0546 -0.0828 -0.1164
  326MPD2    C2 4947   1.756   2.514  10.712  0.6448  0.2044  0.0782
  326MPD2    C3 4948   1.886   2.564  10.742  0.2001 -0.6402 -0.0288
  326MPD2    C4 4949   1.963   2.497  10.836 -0.1727 -0.2284 -0.2620
  326MPD2    C5 4950   1.910   2.389  10.905  0.2294 -0.7157 -1.0652
  326MPD2     H 4951   1.697   2.565  10.637  2.0645  3.4762  1.1947
  326MPD2    H1 4952   2.053   2.547  10.869 -1.3926  0.1945  2.4797
  326MPD2    H2 4953   1.748   2.259  10.933  0.7651 -0.9303 -0.0722
  326MPD2    H3 4954   1.970   2.336  10.978 -1.3467  0.1831  0.8614
  326MPD2     N 4955   1.939   2.683  10.691 -0.0874  0.0407 -0.2394
  326MPD2    H5 4956   2.034   2.706  10.716 -0.9769  1.5816  1.7646
  326MPD2    N1 4957   1.575   2.359  10.745  0.5911  0.0287 -0.4237
  326MPD2    H7 4958   1.528   2.407  10.669 -1.9041 -1.4446  0.1650
  327TMC3    C1 4959   1.368   2.240  10.719  0.9584 -0.2565 -0.3155
  327TMC3    C2 4960   1.278   2.345  10.712 -0.4567 -0.2883 -0.0020
  327TMC3    C3 4961   1.192   2.358  10.600  0.7497 -0.5895 -0.1302
  327TMC3    C4 4962   1.378   2.159  10.610 -0.8277  0.0655  0.3803
  327TMC3    C5 4963   1.302   2.181  10.496 -0.2869  0.6310 -0.2518
  327TMC3    C6 4964   1.203   2.271  10.500 -0.4873  0.4808  0.3251
  327TMC3     C 4965   1.492   2.266  10.799 -0.5680  0.9108  0.3074
  327TMC3     O 4966   1.515   2.180  10.885 -0.1307  0.6979  0.0478
  327TMC3     H 4967   1.294   2.420  10.790 -0.1905 -3.2225  2.7836
  327TMC3    H1 4968   1.452   2.080  10.609 -0.5555  0.3062  2.2300
  327TMC3    H2 4969   1.141   2.273  10.410  2.0965  1.5070 -1.4316
  327TMC3    C7 4970   1.388   2.224  10.378  0.4103 -0.2999 -0.0431
  327TMC3    C8 4971   1.113   2.476  10.574  0.1605 -0.1229 -0.1708
  327TMC3    O1 4972   1.327   2.262  10.277  0.2871 -0.5489 -0.1676
  327TMC3    O2 4973   1.079   2.490  10.457 -0.0412 -0.1121 -0.0387
  328MPD2     C 4974   4.306   4.100  16.794  0.1356 -0.3516  0.0136
  328MPD2    C1 4975   4.224   4.020  16.866 -0.6634  0.5786 -0.1477
  328MPD2    C2 4976   4.131   3.943  16.797 -0.3686  0.1216  0.6992
  328MPD2    C3 4977   4.121   3.933  16.661  0.8410 -0.8758  0.2936
  328MPD2    C4 4978   4.215   4.007  16.591  0.3141 -0.2890  0.0529
  328MPD2    C5 4979   4.303   4.087  16.660 -0.9135 -0.1284 -0.1456
  328MPD2     H 4980   4.064   3.892  16.866 -0.2449 -0.9403  0.0269
  328MPD2    H1 4981   4.203   4.019  16.484 -2.7070 -1.4867  0.2636
  328MPD2    H2 4982   4.387   4.161  16.833 -0.5185  0.3834  0.2226
  328MPD2    H3 4983   4.380   4.134  16.601 -1.5078  0.1563 -0.6881
  328MPD2     N 4984   4.012   3.871  16.596  1.2021 -0.6483  0.1171
  328MPD2    H5 4985   3.990   3.890  16.499  3.8628  1.7094 -0.0125
  328MPD2    N1 4986   4.215   4.040  17.011 -0.2199  0.1171 -0.7557
  328MPD2    H7 4987   4.260   4.123  17.050 -0.0160 -0.0391 -0.6570
  329TMC3    C1 4988   4.073   4.059  17.193 -0.0099 -0.6262  0.5468
  329TMC3    C2 4989   4.153   4.113  17.286  0.4043 -0.3326 -0.0781
  329TMC3    C3 4990   4.100   4.160  17.400  0.2731 -0.4569  0.4074
  329TMC3    C4 4991   3.940   4.046  17.218  0.8330 -0.5434  0.2162
  329TMC3    C5 4992   3.887   4.091  17.327  0.0754  0.1974 -0.4022
  329TMC3    C6 4993   3.968   4.145  17.423  0.1804 -0.3734  0.1969
  329TMC3     C 4994   4.117   3.982  17.089 -0.0728 -0.2248 -0.1924
  329TMC3     O 4995   4.041   3.888  17.072  0.4957 -0.1169  0.1693
  329TMC3     H 4996   4.261   4.103  17.284  0.5926  2.0685 -1.2589
  329TMC3    H1 4997   3.875   4.010  17.139  0.0711  1.7496 -0.1956
  329TMC3    H2 4998   3.924   4.176  17.518  0.2649 -1.7213  0.6749
  329TMC3    C7 4999   3.753   4.074  17.362  0.0735  0.3138  0.3643
  329TMC3    C8 5000   4.198   4.158  17.513  0.1509 -0.2840 -0.0933
  329TMC3    O1 5001   3.703   4.157  17.433 -0.1564 -0.1076  0.7471
  329TMC3    O2 5002   4.315   4.177  17.488 -0.1602 -0.1415  0.3474
  330TMC3    C1 5003   1.568   2.373   9.224 -0.0323  0.1608  0.5251
  330TMC3    C2 5004   1.504   2.288   9.140  0.4359  0.0588 -0.0886
  330TMC3    C3 5005   1.533   2.158   9.152  0.4886  0.2396 -0.1969
  330TMC3    C4 5006   1.652   2.330   9.321  0.4053 -0.0344  0.8941
  330TMC3    C5 5007   1.680   2.197   9.327  0.3293 -0.2281 -0.5929
  330TMC3    C6 5008   1.624   2.106   9.237 -0.4900 -0.0074 -0.6183
  330TMC3     C 5009   1.519   2.512   9.236  0.0637 -0.0926  0.4964
  330TMC3     O 5010   1.589   2.583   9.301  0.2959 -0.3361 -0.2902
  330TMC3     H 5011   1.442   2.330   9.062  0.9829 -0.5896 -0.8845
  330TMC3    H1 5012   1.698   2.398   9.391  2.9338 -1.0873  0.2267
  330TMC3    H2 5013   1.637   2.001   9.258  1.2790  0.1915 -0.7551
  330TMC3    C7 5014   1.768   2.138   9.428 -0.2125  0.3569 -0.2063
  330TMC3    C8 5015   1.419   2.078   9.106 -0.7001 -0.0930 -0.0583
  330TMC3    O1 5016   1.766   2.022   9.450  0.3657 -0.2915 -0.0986
  330TMC3    O2 5017   1.347   2.130   9.021 -0.5537  0.3459 -0.1279
  331MPD2     C 5018   3.970   1.310  12.614  0.4078  0.8306 -0.1775
  331MPD2    C1 5019   4.082   1.375  12.574  0.2089 -0.2481 -0.0837
  331MPD2    C2 5020   4.204   1.303  12.554 -0.2995 -0.3899  0.0250
  331MPD2    C3 5021   4.219   1.170  12.584  0.7729 -0.7497 -0.0825
  331MPD2    C4 5022   4.103   1.108  12.621  0.1510 -0.5726 -0.0266
  331MPD2    C5 5023   3.984   1.174  12.631  0.4582  0.2080 -0.1921
  331MPD2     H 5024   4.295   1.349  12.517  0.2532  0.7673  2.8473
  331MPD2    H1 5025   4.090   1.003  12.645  1.0311 -0.2577  1.8353
  331MPD2    H2 5026   3.877   1.363  12.633  1.0231  1.8622 -0.0147
  331MPD2    H3 5027   3.896   1.123  12.670  0.7933 -1.9187 -2.2648
  331MPD2     N 5028   4.344   1.106  12.565 -0.4855 -0.9263  0.5527
  331MPD2    H5 5029   4.418   1.168  12.534 -1.8453 -0.2180 -1.2869
  331MPD2    N1 5030   4.072   1.511  12.547 -0.6036 -0.0453 -0.2291
  331MPD2    H7 5031   3.978   1.542  12.521 -1.6347 -2.6113  0.4533
  332TMC3    C1 5032   4.513   0.945  12.545 -0.1596  0.9149 -0.1029
  332TMC3    C2 5033   4.590   1.039  12.491 -0.1648 -1.1123 -0.7982
  332TMC3    C3 5034   4.710   0.996  12.436  0.4417  0.0810 -0.0998
  332TMC3    C4 5035   4.554   0.815  12.550  0.3671 -0.6866  1.3715
  332TMC3    C5 5036   4.673   0.776  12.493  0.0077 -0.1125  0.3856
  332TMC3    C6 5037   0.015   0.868  12.435  0.1083 -0.2379  0.3702
  332TMC3     C 5038   4.378   0.976  12.586 -0.1435 -0.8423  0.0071
  332TMC3     O 5039   4.308   0.879  12.607 -0.3478 -0.2624 -0.1147
  332TMC3     H 5040   4.570   1.145  12.477  1.3781 -0.6370  0.6459
  332TMC3    H1 5041   4.486   0.738  12.582 -0.2910 -0.0772  1.4355
  332TMC3    H2 5042   0.096   0.824  12.377 -2.1712 -0.5978 -2.5331
  332TMC3    C7 5043   4.704   0.632  12.492  0.8198  0.4497 -0.3608
  332TMC3    C8 5044   0.049   1.085  12.359  0.1748 -0.0389  0.3281
  332TMC3    O1 5045   4.606   0.559  12.511 -0.0624 -0.2213  0.2287
  332TMC3    O2 5046   4.730   1.185  12.315  0.3513 -0.2871  0.6941
  333MPD2     C 5047   0.287   1.703  11.485 -0.5164 -0.6634  0.4282
  333MPD2    C1 5048   0.352   1.588  11.437 -0.4333  0.6054  0.2505
  333MPD2    C2 5049   0.334   1.467  11.495 -0.5647  0.2375  0.4452
  333MPD2    C3 5050   0.246   1.452  11.600  0.2376  0.1025  0.0265
  333MPD2    C4 5051   0.170   1.568  11.646  0.0745 -0.0306 -0.7106
  333MPD2    C5 5052   0.194   1.696  11.588 -0.1282  0.7710  0.3147
  333MPD2     H 5053   0.379   1.376  11.456  0.2773 -0.4701  3.0812
  333MPD2    H1 5054   0.095   1.561  11.724  2.7867  0.5794  1.9721
  333MPD2    H2 5055   0.301   1.799  11.435 -1.2319 -0.7072  0.1395
  333MPD2    H3 5056   0.156   1.787  11.633 -1.7988  0.0147  0.4380
  333MPD2     N 5057   0.228   1.319  11.651  0.4535 -0.3703 -0.4671
  333MPD2    H5 5058   0.271   1.244  11.598  1.9117 -0.2524  0.5460
  333MPD2    N1 5059   0.457   1.609  11.350  0.5877  0.5759  0.4660
  333MPD2    H7 5060   0.472   1.702  11.313  2.5411  1.5892  3.7808
  334TMC3    C1 5061   0.662   1.593  11.252  0.3592  1.1474  0.6253
  334TMC3    C2 5062   0.793   1.560  11.277  1.4803  0.9382  0.4820
  334TMC3    C3 5063   0.884   1.596  11.182  0.0504 -0.9260  0.0001
  334TMC3    C4 5064   0.628   1.667  11.141 -0.2719 -0.1878  0.1684
  334TMC3    C5 5065   0.719   1.704  11.045  0.1663 -0.6167  0.0419
  334TMC3    C6 5066   0.852   1.674  11.069  0.3405 -0.4559 -0.0127
  334TMC3     C 5067   0.560   1.528  11.321 -0.9134  0.3334 -1.2089
  334TMC3     O 5068   0.581   1.416  11.362 -0.0936  0.3480 -0.5391
  334TMC3     H 5069   0.823   1.500  11.362  0.8013  0.6061  0.4799
  334TMC3    H1 5070   0.527   1.706  11.135  0.1886  0.5514 -3.1831
  334TMC3    H2 5071   0.925   1.716  11.000  0.3754 -1.3984 -0.5517
  334TMC3    C7 5072   0.703   1.823  10.961  0.0636  0.8732 -0.0495
  334TMC3    C8 5073   1.022   1.554  11.210 -0.3742  0.6387 -0.3138
  334TMC3    O1 5074   0.800   1.891  10.936 -0.4757 -0.0847 -0.1869
  334TMC3    O2 5075   1.055   1.560  11.328 -0.8186  0.7820 -0.3040
  335TMC3    C1 5076   0.045   3.780  17.185  0.8754  0.2816 -0.1744
  335TMC3    C2 5077   0.006   3.702  17.081 -0.0822  0.9935  0.0090
  335TMC3    C3 5078   0.095   3.686  16.977 -0.3750  0.5755  0.5988
  335TMC3    C4 5079   0.165   3.843  17.185  0.4442  0.1067 -0.1497
  335TMC3    C5 5080   0.249   3.823  17.082 -0.7853  0.1188 -0.6707
  335TMC3    C6 5081   0.219   3.742  16.978  0.9232 -0.0886 -0.2240
  335TMC3     C 5082   4.692   3.808  17.301 -0.3234 -0.3797  0.4528
  335TMC3     O 5083   4.735   3.863  17.400 -0.0223  0.3896 -0.3806
  335TMC3     H 5084   4.668   3.625  17.099  2.0505 -2.1820 -4.4148
  335TMC3    H1 5085   0.198   3.897  17.273 -0.5433 -1.4940  1.2001
  335TMC3    H2 5086   0.285   3.740  16.892 -0.2824  2.3902 -1.2255
  335TMC3    C7 5087   0.390   3.863  17.091  0.3870  0.7880  0.0708
  335TMC3    C8 5088   0.090   3.588  16.870  0.6493  0.0299  0.4254
  335TMC3    O1 5089   0.467   3.803  17.016 -0.8656  0.0662 -0.0325
  335TMC3    O2 5090   0.182   3.572  16.791  0.5925  0.0069 -0.9210
  336MPD2     C 5091   4.528   1.026  15.978  0.0636  0.0370 -0.4751
  336MPD2    C1 5092   4.388   1.036  15.979 -0.1014  1.0791 -0.2049
  336MPD2    C2 5093   4.320   0.949  16.060  0.3404  0.8105 -0.5517
  336MPD2    C3 5094   4.380   0.836  16.118 -0.1379 -0.0282  0.5844
  336MPD2    C4 5095   4.506   0.808  16.076  0.2797 -0.4461  0.0701
  336MPD2    C5 5096   4.583   0.907  16.020  0.1508  0.2006 -0.2961
  336MPD2     H 5097   4.212   0.957  16.062  0.0943 -2.1678 -1.3637
  336MPD2    H1 5098   4.557   0.720  16.114  1.1714  0.2084  0.4089
  336MPD2    H2 5099   4.593   1.094  15.924  2.8423 -0.6904  1.9856
  336MPD2    H3 5100   4.685   0.881  15.997 -0.5911 -5.1434  2.3777
  336MPD2     N 5101   4.310   0.741  16.189 -0.0695 -0.3530 -0.2508
  336MPD2    H5 5102   4.357   0.658  16.221 -0.3407 -1.1848 -2.0125
  336MPD2    N1 5103   4.315   1.139  15.906 -0.0988  0.0352 -0.2370
  336MPD2    H7 5104   4.214   1.142  15.918 -0.1618 -1.5838 -0.3758
  337TMC3    C1 5105   4.268   1.325  15.789 -0.2243  0.3535  0.7851
  337TMC3    C2 5106   4.135   1.289  15.757  1.0772  0.3282  0.3424
  337TMC3    C3 5107   4.063   1.388  15.698 -0.1014 -0.0113  0.6968
  337TMC3    C4 5108   4.319   1.451  15.765 -0.8649  0.5268  0.4920
  337TMC3    C5 5109   4.239   1.539  15.704  0.0841  0.5570 -0.1166
  337TMC3    C6 5110   4.113   1.513  15.675 -0.6329  0.5124 -0.2188
  337TMC3     C 5111   4.369   1.240  15.832  0.2557 -0.4839  0.4612
  337TMC3     O 5112   4.483   1.265  15.789 -0.1598  0.4115  0.5041
  337TMC3     H 5113   4.081   1.197  15.780 -1.3229  2.1654  1.9741
  337TMC3    H1 5114   4.422   1.481  15.786 -1.8717  3.2315  1.4907
  337TMC3    H2 5115   4.038   1.588  15.652  0.1308  0.8224 -1.6834
  337TMC3    C7 5116   4.296   1.662  15.653  0.7800 -0.3775  0.3255
  337TMC3    C8 5117   3.918   1.387  15.710 -0.3042  0.2431 -0.7071
  337TMC3    O1 5118   4.381   1.720  15.721  0.3239 -0.0523 -0.3789
  337TMC3    O2 5119   3.867   1.341  15.813 -0.1509 -0.4171 -0.4099
  338MPD2     C 5120   4.446   0.892   1.273 -0.5207  0.0815 -0.0113
  338MPD2    C1 5121   4.384   0.841   1.156  0.0251 -0.3993 -0.3016
  338MPD2    C2 5122   4.288   0.916   1.093 -0.5007  0.3722 -0.6046
  338MPD2    C3 5123   4.259   1.045   1.140 -1.1439  0.3733  0.4943
  338MPD2    C4 5124   4.324   1.095   1.251  0.1428  0.2722 -0.1618
  338MPD2    C5 5125   4.421   1.017   1.312  0.7219 -0.4106  0.4375
  338MPD2     H 5126   4.245   0.881   1.000 -1.1976  1.2581 -0.6131
  338MPD2    H1 5127   4.320   1.199   1.283 -0.7354  0.3524 -0.5196
  338MPD2    H2 5128   4.516   0.835   1.333  0.1861  1.5935  0.5984
  338MPD2    H3 5129   4.465   1.050   1.406  0.7725 -0.5300  0.4563
  338MPD2     N 5130   4.181   1.129   1.060  0.2717  0.9582 -0.3723
  338MPD2    H5 5131   4.144   1.083   0.977  0.1789 -1.9797  1.2966
  338MPD2    N1 5132   4.416   0.725   1.088  0.1161  0.5841 -0.5773
  338MPD2    H7 5133   4.359   0.713   1.004 -1.4042  0.5712  0.4568
  339TMC3    C1 5134   4.099   1.330   0.964 -0.6501  1.3025 -0.3015
  339TMC3    C2 5135   4.038   1.447   0.993  0.7717 -0.1675 -0.1100
  339TMC3    C3 5136   3.962   1.505   0.898 -0.2010  0.8343  0.1641
  339TMC3    C4 5137   4.080   1.265   0.841 -0.2270  0.4153  1.1670
  339TMC3    C5 5138   4.014   1.340   0.739  0.0909 -0.0955  0.5700
  339TMC3    C6 5139   3.955   1.462   0.772 -0.5777  0.1260  0.0387
  339TMC3     C 5140   4.169   1.266   1.075 -0.1349  0.1265  0.2387
  339TMC3     O 5141   4.195   1.346   1.166 -0.1056  0.6528  0.0788
  339TMC3     H 5142   4.041   1.482   1.096  1.8776  0.5466 -0.3753
  339TMC3    H1 5143   4.117   1.171   0.803 -1.8805  1.1094 -2.1853
  339TMC3    H2 5144   3.895   1.516   0.699 -0.4945 -0.2540 -0.3079
  339TMC3    C7 5145   3.958   1.287   0.615  0.2011 -0.1055 -0.5403
  339TMC3    C8 5146   3.874   1.618   0.940 -0.2508 -0.1946 -0.0747
  339TMC3    O1 5147   3.965   1.346   0.503 -0.0246 -0.2591 -0.4462
  339TMC3    O2 5148   3.847   1.706   0.862 -0.6590 -0.0961 -0.3322
  340MPD2     C 5149   0.096   2.712  10.174 -0.0661  0.7581  0.3217
  340MPD2    C1 5150   0.014   2.607  10.212  0.1931 -0.1064 -0.8924
  340MPD2    C2 5151   0.006   2.574  10.342  0.7675  0.0442  0.5944
  340MPD2    C3 5152   0.091   2.633  10.437 -0.5288  0.4364 -0.4328
  340MPD2    C4 5153   0.160   2.749  10.406 -0.0489  0.1934  0.3600
  340MPD2    C5 5154   0.157   2.787  10.272 -0.4016 -0.2549  0.3521
  340MPD2     H 5155   4.692   2.483  10.373  2.8493 -0.9534  1.0942
  340MPD2    H1 5156   0.229   2.791  10.479  2.2383  0.9817 -2.2530
  340MPD2    H2 5157   0.096   2.744  10.071 -0.0203 -2.1550 -0.5966
  340MPD2    H3 5158   0.230   2.863  10.247  0.6391 -1.9582 -1.8059
  340MPD2     N 5159   0.107   2.575  10.567 -0.0404  0.1869  0.6741
  340MPD2    H5 5160   0.128   2.632  10.648  0.8330 -0.0844  0.6342
  340MPD2    N1 5161   4.702   2.529  10.103  0.8279  0.1090 -0.0504
  340MPD2    H7 5162   4.735   2.547  10.008 -0.9182  1.9873 -0.3031
  341TMC3    C1 5163   4.578   2.360   9.994 -0.3540 -0.2933 -0.0833
  341TMC3    C2 5164   4.468   2.279  10.002 -0.6282 -0.0447 -0.0843
  341TMC3    C3 5165   4.446   2.191   9.907 -0.4418 -0.5687  0.0028
  341TMC3    C4 5166   4.654   2.372   9.879  0.2405 -0.3664  0.2826
  341TMC3    C5 5167   4.619   2.291   9.777 -1.1464  0.8171 -1.1265
  341TMC3    C6 5168   4.510   2.193   9.785 -0.1735 -0.2241 -0.2575
  341TMC3     C 5169   4.611   2.431  10.114 -0.3392  0.4532  0.7584
  341TMC3     O 5170   4.551   2.404  10.213 -0.4189 -0.3800 -0.3179
  341TMC3     H 5171   4.422   2.290  10.099  0.1131 -2.5486  0.5430
  341TMC3    H1 5172   4.735   2.441   9.862  0.4419 -1.5286 -3.3511
  341TMC3    H2 5173   4.489   2.124   9.705  3.3144 -0.8363 -0.6545
  341TMC3    C7 5174   4.711   2.265   9.672  0.0252  0.8639  0.3004
  341TMC3    C8 5175   4.348   2.084   9.927  0.2428  0.1219 -0.1744
  341TMC3    O1 5176   0.094   2.259   9.693  0.3404  1.0504 -0.1944
  341TMC3    O2 5177   4.326   2.008   9.833 -0.6112 -0.4173 -0.0192
  342MPD2     C 5178   2.443   1.798  17.629  0.8159 -0.8329 -0.5592
  342MPD2    C1 5179   2.507   1.782  17.507 -0.3266 -0.2865  0.6033
  342MPD2    C2 5180   2.590   1.889  17.471 -0.7671  0.1371  0.4795
  342MPD2    C3 5181   2.612   1.995  17.554 -0.3673 -0.5498 -0.0282
  342MPD2    C4 5182   2.550   2.005  17.674  0.8004 -0.7552  0.1015
  342MPD2    C5 5183   2.461   1.909  17.710  0.0504  0.4640  0.0268
  342MPD2     H 5184   2.636   1.881  17.373 -1.1089  0.8841  0.2597
  342MPD2    H1 5185   2.562   2.093  17.737  0.1012 -0.3956 -0.2673
  342MPD2    H2 5186   2.375   1.724  17.671 -0.1207  1.6242  2.2270
  342MPD2    H3 5187   2.404   1.916   0.056  0.7892 -1.1141  0.6104
  342MPD2     N 5188   2.703   2.096  17.511 -0.5930  0.4311 -0.1250
  342MPD2    H5 5189   2.713   2.179  17.569 -2.3781  0.3415  0.2900
  342MPD2    N1 5190   2.477   1.668  17.419  0.5092 -0.3715 -0.0623
  342MPD2    H7 5191   2.538   1.660  17.339 -1.6839  0.4366 -1.8162
  343TMC3    C1 5192   2.395   1.474  17.330 -0.1928  0.7967 -0.2029
  343TMC3    C2 5193   2.463   1.496  17.216 -0.1914  0.3284 -0.4357
  343TMC3    C3 5194   2.475   1.400  17.125 -0.5452  0.5381  0.0544
  343TMC3    C4 5195   2.343   1.351  17.362  0.1760  0.1806  0.4271
  343TMC3    C5 5196   2.353   1.254  17.264  0.7829  0.1379 -0.3491
  343TMC3    C6 5197   2.425   1.276  17.146 -0.5359  0.4747  0.2389
  343TMC3     C 5198   2.390   1.568  17.441 -0.1248 -0.8160 -1.3498
  343TMC3     O 5199   2.343   1.537  17.552  0.2198  0.3069 -0.2891
  343TMC3     H 5200   2.492   1.598  17.193  0.6615  0.4133  1.0404
  343TMC3    H1 5201   2.299   1.335  17.460  1.2262 -1.7131  0.5866
  343TMC3    H2 5202   2.409   1.211  17.061  0.6806 -0.0213  0.3807
  343TMC3    C7 5203   2.345   1.109  17.293  0.5260  0.0868 -0.6838
  343TMC3    C8 5204   2.587   1.428  17.026 -0.0061  0.1477 -0.2053
  343TMC3    O1 5205   2.369   1.033  17.201  0.4231 -0.3788  0.0049
  343TMC3    O2 5206   2.634   1.541  17.027 -0.1319 -0.0364 -0.5190
  344MPD2     C 5207   3.563   0.737  10.885  0.7229  0.3704  0.0761
  344MPD2    C1 5208   3.533   0.659  10.779  0.2358 -0.4030 -0.3425
  344MPD2    C2 5209   3.541   0.706  10.651 -0.8388  0.0354  0.0700
  344MPD2    C3 5210   3.564   0.844  10.621 -0.0289 -0.2400 -0.5287
  344MPD2    C4 5211   3.590   0.928  10.727 -0.0149 -0.2820 -0.1231
  344MPD2    C5 5212   3.596   0.868  10.850 -0.3345 -1.0196 -0.0308
  344MPD2     H 5213   3.519   0.634  10.573 -0.7738  0.7146 -0.5814
  344MPD2    H1 5214   3.621   1.029  10.706 -1.9347  0.4372  0.4947
  344MPD2    H2 5215   3.560   0.709  10.989  1.8674  0.5249  0.1484
  344MPD2    H3 5216   3.643   0.923  10.931 -0.0466 -0.1057 -0.8289
  344MPD2     N 5217   3.594   0.895  10.493  0.0968  0.3529 -0.5132
  344MPD2    H5 5218   3.631   0.988  10.477 -2.7291  1.2913 -1.7308
  344MPD2    N1 5219   3.501   0.523  10.794 -0.8935 -0.3962 -0.0593
  344MPD2    H7 5220   3.449   0.475  10.721 -3.4136  1.4923  0.5028
  345TMC3    C1 5221   3.710   0.887  10.291 -0.8894 -0.3468 -0.1367
  345TMC3    C2 5222   3.812   0.937  10.363 -0.0776 -0.5697  0.6110
  345TMC3    C3 5223   3.873   1.046  10.326 -0.2593  0.1447 -0.4716
  345TMC3    C4 5224   3.661   0.943  10.181  0.2391  0.4224  0.1266
  345TMC3    C5 5225   3.729   1.056  10.137  0.2886  1.0662 -0.2876
  345TMC3    C6 5226   3.837   1.105  10.209 -0.0433  0.3205  0.2942
  345TMC3     C 5227   3.616   0.816  10.385  0.0667 -0.0051  0.4474
  345TMC3     O 5228   3.581   0.706  10.357  0.0613  0.0927 -0.5150
  345TMC3     H 5229   3.848   0.887  10.452  2.2668  1.5356  0.8303
  345TMC3    H1 5230   3.568   0.905  10.140 -0.5195  0.7901  1.5214
  345TMC3    H2 5231   3.898   1.187  10.171  2.6193 -1.1661  1.3315
  345TMC3    C7 5232   3.719   1.110  10.006  0.4457 -0.0777 -0.0939
  345TMC3    C8 5233   3.935   1.135  10.423  0.4794  0.7239  0.3093
  345TMC3    O1 5234   3.775   1.219   9.988 -0.8437  0.0962 -0.4095
  345TMC3    O2 5235   3.972   1.250  10.399 -0.5147 -0.2040 -0.0615
  346MPD2     C 5236   3.290   2.218  13.822 -0.0292 -0.3656  0.3755
  346MPD2    C1 5237   3.429   2.198  13.819  0.4245  0.2278  0.2622
  346MPD2    C2 5238   3.506   2.277  13.906 -1.1367  0.3157  0.5303
  346MPD2    C3 5239   3.450   2.358  14.002  0.0695  0.1670  0.1881
  346MPD2    C4 5240   3.316   2.354  14.013 -0.6385  0.4365  0.6649
  346MPD2    C5 5241   3.234   2.293  13.920 -0.0124  0.6747  0.4349
  346MPD2     H 5242   3.613   2.279  13.896 -0.7783 -1.1177  4.0107
  346MPD2    H1 5243   3.267   2.409  14.091 -1.8064 -2.6607  2.1264
  346MPD2    H2 5244   3.226   2.160  13.756  0.7184 -0.1579 -0.5403
  346MPD2    H3 5245   3.126   2.293  13.929 -0.1051 -0.4201 -0.6336
  346MPD2     N 5246   3.532   2.443  14.082 -0.1317 -0.0112  0.3488
  346MPD2    H5 5247   3.630   2.414  14.080 -0.1362  0.0915 -1.4717
  346MPD2    N1 5248   3.495   2.113  13.727  0.2195 -0.5910 -0.3930
  346MPD2    H7 5249   3.597   2.113  13.724  0.2953  1.6529  2.2457
  347TMC3    C1 5250   3.603   2.617  14.213  0.3146 -0.5672 -0.9477
  347TMC3    C2 5251   3.721   2.620  14.149 -0.0433  0.9021  0.4575
  347TMC3    C3 5252   3.835   2.667  14.219  1.0292  0.4270  1.1178
  347TMC3    C4 5253   3.589   2.674  14.337  0.0841  0.3335  0.1168
  347TMC3    C5 5254   3.701   2.721  14.403 -0.1992  0.6170 -0.7681
  347TMC3    C6 5255   3.828   2.715  14.345 -0.2556  0.3110  0.1382
  347TMC3     C 5256   3.492   2.541  14.167  0.5073 -0.1213  0.2768
  347TMC3     O 5257   3.385   2.568  14.216  0.5231  0.4921  0.0004
  347TMC3     H 5258   3.730   2.592  14.045  0.7714  0.4934  0.6365
  347TMC3    H1 5259   3.491   2.674  14.384  0.5129  0.6550  1.0152
  347TMC3    H2 5260   3.917   2.733  14.404  0.8583 -3.9335 -0.2512
  347TMC3    C7 5261   3.678   2.781  14.524 -0.2547  0.7501  0.4738
  347TMC3    C8 5262   3.960   2.613  14.187  0.0906 -0.4705  1.2404
  347TMC3    O1 5263   3.582   2.742  14.590 -0.7880  0.5639 -0.0979
  347TMC3    O2 5264   4.008   2.538  14.268  0.0787  0.6094  0.5127
  348MPD2     C 5265   2.241   1.889  11.715 -0.0048  0.3489 -0.0713
  348MPD2    C1 5266   2.377   1.887  11.688 -0.7428  0.5442  0.7072
  348MPD2    C2 5267   2.417   1.892  11.559  0.0565  0.2901  0.0934
  348MPD2    C3 5268   2.323   1.892  11.454 -0.8446  0.7777 -0.6530
  348MPD2    C4 5269   2.190   1.904  11.483  0.0694  0.4814 -0.4747
  348MPD2    C5 5270   2.153   1.899  11.611  0.6814 -0.0068  0.2470
  348MPD2     H 5271   2.524   1.884  11.545  0.0887  3.2753 -1.1601
  348MPD2    H1 5272   2.115   1.911  11.404  0.4741  2.2283 -0.7080
  348MPD2    H2 5273   2.208   1.875  11.817  1.0192  1.1629  0.3685
  348MPD2    H3 5274   2.050   1.910  11.641  0.4207 -0.8449 -0.3257
  348MPD2     N 5275   2.370   1.886  11.320 -0.0821  0.0725 -0.0903
  348MPD2    H5 5276   2.453   1.943  11.308  0.5059 -0.9666 -0.8811
  348MPD2    N1 5277   2.479   1.875  11.784  0.3770 -0.4587 -0.0111
  348MPD2    H7 5278   2.574   1.868  11.749  0.1015  1.7820 -1.2751
  349TMC3    C1 5279   2.579   1.766  11.965  0.1845 -0.2163 -0.4238
  349TMC3    C2 5280   2.546   1.663  12.048  0.2057  0.7424  0.2213
  349TMC3    C3 5281   2.602   1.540  12.042 -0.2685  0.0330  0.1498
  349TMC3    C4 5282   2.687   1.748  11.880  0.9831  0.4672 -0.0996
  349TMC3    C5 5283   2.727   1.620  11.862 -0.1554 -0.4817 -0.1696
  349TMC3    C6 5284   2.696   1.514  11.945  0.1635  0.8497  0.0574
  349TMC3     C 5285   2.474   1.846  11.915 -0.0877 -0.4578 -0.0306
  349TMC3     O 5286   2.374   1.846  11.984  0.3260 -0.5288 -0.5515
  349TMC3     H 5287   2.472   1.678  12.127 -2.4329 -0.4003 -2.0443
  349TMC3    H1 5288   2.729   1.829  11.822 -0.0073  1.1751  0.1801
  349TMC3    H2 5289   2.743   1.416  11.953 -1.1906  0.2815  1.0765
  349TMC3    C7 5290   2.742   1.577  11.726  0.4486  0.2861  0.4169
  349TMC3    C8 5291   2.573   1.446  12.153 -0.0208 -0.0272 -0.1024
  349TMC3    O1 5292   2.701   1.470  11.695  0.5640  0.1509 -0.0888
  349TMC3    O2 5293   2.507   1.485  12.247 -0.2366 -0.2055  0.2521
  350MPD2     C 5294   1.271   0.167  10.349  0.0991  0.4787 -0.0980
  350MPD2    C1 5295   1.318   0.064  10.277  0.2704 -0.4031  0.2702
  350MPD2    C2 5296   1.452   0.067  10.228 -0.0869  0.4718  0.3907
  350MPD2    C3 5297   1.527   0.180  10.268  0.1138 -0.3586 -0.0547
  350MPD2    C4 5298   1.470   0.281  10.343 -0.6753 -1.2795 -0.1042
  350MPD2    C5 5299   1.343   0.279  10.390 -0.2352 -0.4656 -0.2173
  350MPD2     H 5300   1.500   4.726  10.170 -0.9215  1.0187 -1.0523
  350MPD2    H1 5301   1.521   0.374  10.366 -1.2375 -1.3214  1.3303
  350MPD2    H2 5302   1.166   0.173  10.374 -0.2102 -0.9070 -1.0674
  350MPD2    H3 5303   1.299   0.360  10.446 -0.0955  0.4593 -1.4357
  350MPD2     N 5304   1.668   0.186  10.231  0.0294  0.4613 -0.4131
  350MPD2    H5 5305   1.700   0.121  10.161  0.4145 -0.8525  0.9738
  350MPD2    N1 5306   1.234   4.700  10.223 -0.2207  0.5631  0.7216
  350MPD2    H7 5307   1.272   4.637  10.153 -0.5402  0.2480  0.8296
  351TMC3    C1 5308   1.045   4.571  10.174 -0.4828 -0.6511  0.8919
  351TMC3    C2 5309   1.118   4.500  10.084 -0.0260  0.3564 -0.0585
  351TMC3    C3 5310   1.056   4.402  10.013 -0.2243  0.2550 -0.3913
  351TMC3    C4 5311   0.913   4.543  10.200  0.3245 -0.4175 -0.0294
  351TMC3    C5 5312   0.853   4.446  10.120  0.1093  0.2385 -0.0074
  351TMC3    C6 5313   0.923   4.382  10.021 -0.0884 -0.3259  0.3938
  351TMC3     C 5314   1.102   4.685  10.243  0.4517 -0.1679  0.4842
  351TMC3     O 5315   1.026   0.005  10.322  0.0147  0.5387 -0.1338
  351TMC3     H 5316   1.223   4.519  10.064 -0.1212  4.0046  2.7629
  351TMC3    H1 5317   0.853   4.599  10.270 -0.6674 -1.3011 -0.1746
  351TMC3    H2 5318   0.867   4.313   9.959 -3.5435  1.5823  1.3803
  351TMC3    C7 5319   0.724   4.382  10.156  0.6952 -0.0566 -0.2263
  351TMC3    C8 5320   1.144   4.327   9.930 -0.7360 -0.4574  0.3675
  351TMC3    O1 5321   0.684   4.277  10.101  0.2050 -0.0141  0.0235
  351TMC3    O2 5322   1.260   4.315   9.965  0.0354  0.0499  0.1802
  352MPD2     C 5323   4.679   2.946   1.396 -0.4518 -0.0608  0.1937
  352MPD2    C1 5324   4.606   2.909   1.285  0.1442 -0.5210 -0.5496
  352MPD2    C2 5325   4.634   2.788   1.230  0.7351 -0.1640 -0.2873
  352MPD2    C3 5326   4.714   2.694   1.291 -0.1443 -1.1217  1.0100
  352MPD2    C4 5327   0.060   2.740   1.392 -0.1877 -0.3092  0.0188
  352MPD2    C5 5328   0.048   2.869   1.430  0.4143  0.0892 -0.2033
  352MPD2     H 5329   4.565   2.772   1.149  1.0087 -1.0938 -0.3395
  352MPD2    H1 5330   0.138   2.676   1.431 -0.5914  0.5643  2.1970
  352MPD2    H2 5331   4.665   3.043   1.442 -0.6785  0.5936 -1.2563
  352MPD2    H3 5332   0.115   2.900   1.509 -0.6110  0.1749  0.6390
  352MPD2     N 5333   4.724   2.565   1.237  0.1426 -0.1658 -0.4378
  352MPD2    H5 5334   0.060   2.510   1.281  1.5364  1.1460 -1.1291
  352MPD2    N1 5335   4.514   3.005   1.244 -0.0353 -0.0714 -0.5168
  352MPD2    H7 5336   4.486   3.072   1.314  0.6686 -1.5975  1.2192
  353TMC3    C1 5337   4.693   2.371   1.102 -0.1700 -0.1532 -0.8629
  353TMC3    C2 5338   0.014   2.292   1.199 -0.8237  0.3524 -0.1150
  353TMC3    C3 5339   0.033   2.156   1.171 -0.1111  0.1487  0.0225
  353TMC3    C4 5340   4.632   2.316   0.989 -0.1302 -0.3584  0.1025
  353TMC3    C5 5341   4.671   2.187   0.963  0.1854  0.0891 -0.9840
  353TMC3    C6 5342   0.004   2.109   1.046  0.1741  0.3264  0.2437
  353TMC3     C 5343   4.655   2.506   1.133 -0.6575 -0.1630  0.2973
  353TMC3     O 5344   4.577   2.555   1.053 -0.1129  0.3433  0.2258
  353TMC3     H 5345   0.066   2.342   1.280  1.4556 -0.0552 -1.3315
  353TMC3    H1 5346   4.582   2.380   0.918  3.1806  2.1001 -0.0350
  353TMC3    H2 5347   0.019   2.003   1.030  0.5627  0.3608  0.3830
  353TMC3    C7 5348   4.600   2.110   0.862 -0.2985 -0.3654  0.1268
  353TMC3    C8 5349   0.073   2.077   1.282  0.4177 -0.5676  0.1782
  353TMC3    O1 5350   4.637   1.993   0.848  0.5334  0.2518 -0.2586
  353TMC3    O2 5351   0.122   2.138   1.372  0.2125 -0.1598 -0.1877
  354TMC3    C1 5352   1.379   2.941  13.199 -0.3311  0.0727 -0.5593
  354TMC3    C2 5353   1.330   3.048  13.132  0.0132 -0.1667 -0.6709
  354TMC3    C3 5354   1.316   3.045  13.000 -0.1831  0.3649 -0.4805
  354TMC3    C4 5355   1.386   2.825  13.131  0.4178 -0.3452 -0.5797
  354TMC3    C5 5356   1.396   2.827  12.993 -0.1190  0.5470 -0.1938
  354TMC3    C6 5357   1.367   2.940  12.919 -0.3430 -0.2074 -0.1314
  354TMC3     C 5358   1.376   2.939  13.343  0.0380  0.6021 -0.0233
  354TMC3     O 5359   1.377   2.834  13.396  0.0915  0.8067  0.4897
  354TMC3     H 5360   1.305   3.139  13.184  0.3556  1.0476 -2.6256
  354TMC3    H1 5361   1.435   2.741  13.178  1.3793 -0.4891 -1.8171
  354TMC3    H2 5362   1.373   2.934  12.811  0.8233 -1.3349  0.0045
  354TMC3    C7 5363   1.525   2.760  12.960  0.1011  0.1656 -0.4121
  354TMC3    C8 5364   1.279   3.175  12.934 -0.1349 -0.1707 -0.5166
  354TMC3    O1 5365   1.539   2.647  13.012  0.3276  0.7175  0.5912
  354TMC3    O2 5366   1.244   3.270  13.000  0.5304 -0.2295  0.3392
  355MPD2     C 5367   1.799   3.562  11.762 -0.4161  0.2683 -0.2936
  355MPD2    C1 5368   1.849   3.579  11.632  0.0310 -0.2194  0.4364
  355MPD2    C2 5369   1.983   3.610  11.627 -0.4079  0.5053  0.0460
  355MPD2    C3 5370   2.056   3.643  11.743  0.2585 -0.0983 -0.1907
  355MPD2    C4 5371   1.996   3.636  11.872 -0.7751  0.1707  0.3953
  355MPD2    C5 5372   1.869   3.582  11.878 -0.4394 -0.4388 -0.7895
  355MPD2     H 5373   2.027   3.620  11.528  0.0643 -0.1625  0.1903
  355MPD2    H1 5374   2.055   3.655  11.961  1.0192 -0.4024 -0.6684
  355MPD2    H2 5375   1.701   3.519  11.779 -0.0112 -0.1228  1.1013
  355MPD2    H3 5376   1.818   3.583  11.973  1.4013  2.2974  0.1406
  355MPD2     N 5377   2.187   3.701  11.728 -0.2783  0.5417 -0.2490
  355MPD2    H5 5378   2.228   3.737  11.813  0.5418  1.4799 -1.0456
  355MPD2    N1 5379   1.762   3.550  11.524  0.1777 -0.2299  0.0414
  355MPD2    H7 5380   1.676   3.506  11.555 -0.1979  0.6029  0.2038
  356TMC3    C1 5381   2.361   3.819  11.635  0.1106  0.0284  0.0139
  356TMC3    C2 5382   2.404   3.901  11.534 -0.3695  0.4335 -0.5471
  356TMC3    C3 5383   2.482   4.007  11.559 -0.1122  0.1215 -0.7104
  356TMC3    C4 5384   2.417   3.836  11.763 -0.0606  0.0600  0.2609
  356TMC3    C5 5385   2.493   3.951  11.779 -0.1177 -0.1924 -0.0664
  356TMC3    C6 5386   2.521   4.040  11.681 -0.4066  0.0724 -0.0551
  356TMC3     C 5387   2.257   3.721  11.617 -0.7057 -0.5668  0.1373
  356TMC3     O 5388   2.229   3.691  11.502 -0.4527  0.6504  0.0399
  356TMC3     H 5389   2.373   3.878  11.432 -1.2186  0.0990 -0.2115
  356TMC3    H1 5390   2.413   3.759  11.840 -0.0547  0.9673  1.1717
  356TMC3    H2 5391   2.578   4.131  11.697 -1.6434  0.2747  3.2512
  356TMC3    C7 5392   2.532   3.968  11.920 -0.2828  0.0900 -0.1779
  356TMC3    C8 5393   2.552   4.067  11.445  0.1349  0.1564 -0.2371
  356TMC3    O1 5394   2.515   3.883  12.006  0.2601  0.4335 -0.2156
  356TMC3    O2 5395   2.552   4.001  11.343  0.4774  0.3068  0.1081
  357MPD2     C 5396   1.370   4.105   0.603  0.1439 -0.3320  0.0923
  357MPD2    C1 5397   1.380   4.032   0.489 -0.8297  0.3732  0.5109
  357MPD2    C2 5398   1.278   4.042   0.394  1.4541 -0.3439 -0.4744
  357MPD2    C3 5399   1.175   4.132   0.410  0.1574 -0.3555 -0.3137
  357MPD2    C4 5400   1.177   4.218   0.518 -0.9928  0.5138  0.2668
  357MPD2    C5 5401   1.275   4.206   0.614  0.6083 -0.2909 -0.0028
  357MPD2     H 5402   1.280   3.991   0.298 -1.8625  0.1712 -0.8117
  357MPD2    H1 5403   1.092   4.284   0.531 -0.3865  1.3710 -0.1286
  357MPD2    H2 5404   1.451   4.097   0.675  1.1476  1.4051 -0.8261
  357MPD2    H3 5405   1.262   4.267   0.702 -2.1431 -1.4359  0.3834
  357MPD2     N 5406   1.059   4.149   0.324  0.2826 -0.0772 -0.4462
  357MPD2    H5 5407   0.982   4.206   0.357  0.6189  0.1676 -0.0868
  357MPD2    N1 5408   1.495   3.947   0.473 -0.6538 -0.2569  0.6367
  357MPD2    H7 5409   1.569   3.952   0.542  0.8301 -1.1620 -0.8619
  358TMC3    C1 5410   1.630   3.797   0.378  0.2074 -0.1839 -0.3497
  358TMC3    C2 5411   1.635   3.673   0.320  0.8655  1.2077  0.0403
  358TMC3    C3 5412   1.752   3.628   0.263 -0.5274  0.4517 -0.2759
  358TMC3    C4 5413   1.736   3.878   0.378 -0.0792 -0.0081 -0.6844
  358TMC3    C5 5414   1.854   3.825   0.326  0.8022  0.5457  0.9365
  358TMC3    C6 5415   1.869   3.695   0.275  0.8671  0.5525 -0.2032
  358TMC3     C 5416   1.500   3.854   0.378 -0.3790  0.0222 -0.4396
  358TMC3     O 5417   1.421   3.807   0.300  0.6934 -0.0332 -0.0164
  358TMC3     H 5418   1.545   3.614   0.304  0.7927  1.1852  0.5287
  358TMC3    H1 5419   1.730   3.986   0.388  1.8426 -0.1217  1.8186
  358TMC3    H2 5420   1.947   3.695   0.200 -2.0158 -2.5258 -3.1707
  358TMC3    C7 5421   1.984   3.894   0.350 -1.2097 -0.2889  0.1383
  358TMC3    C8 5422   1.730   3.540   0.151  0.3718 -0.4096 -0.1624
  358TMC3    O1 5423   2.087   3.843   0.303  0.2692 -0.1076  0.4220
  358TMC3    O2 5424   1.611   3.531   0.114 -0.6215 -0.4049 -0.1112
  359MPD2     C 5425   2.028   2.270  12.022 -0.0587  0.3763  0.5011
  359MPD2    C1 5426   1.983   2.262  11.891 -0.2676 -0.3860  0.3129
  359MPD2    C2 5427   1.857   2.217  11.858 -0.0102 -0.4568  0.5340
  359MPD2    C3 5428   1.770   2.184  11.968 -0.7437  0.2993  0.2068
  359MPD2    C4 5429   1.807   2.201  12.095  0.3832 -0.2374  0.4856
  359MPD2    C5 5430   1.937   2.242  12.121  0.2482  0.1425  0.0503
  359MPD2     H 5431   1.825   2.224  11.755  2.3013  0.9725 -0.0836
  359MPD2    H1 5432   1.742   2.166  12.175 -0.3083 -0.4549 -0.1704
  359MPD2    H2 5433   2.126   2.308  12.047  0.6355  1.0771 -3.1738
  359MPD2    H3 5434   1.970   2.248  12.224 -0.6684  0.5288  0.3212
  359MPD2     N 5435   1.631   2.156  11.950  0.2817 -0.5887  0.0719
  359MPD2    H5 5436   1.581   2.140  12.037 -0.9370  0.3324 -0.4566
  359MPD2    N1 5437   2.060   2.312  11.788  0.1444 -0.2259 -0.3213
  359MPD2    H7 5438   2.027   2.298  11.693  0.6893 -0.3246 -0.4988
  360TMC3    C1 5439   2.237   2.419  11.679 -0.2407  1.0382 -0.3207
  360TMC3    C2 5440   2.328   2.518  11.696 -0.4197 -0.0279 -0.0080
  360TMC3    C3 5441   2.422   2.526  11.593  0.0608 -0.0051 -0.5519
  360TMC3    C4 5442   2.237   2.315  11.587 -0.0459  0.2707  0.1259
  360TMC3    C5 5443   2.332   2.332  11.487  0.0008  0.3703 -0.4352
  360TMC3    C6 5444   2.426   2.436  11.488 -0.0599  0.0742  0.3755
  360TMC3     C 5445   2.157   2.406  11.798  0.1949 -0.7532 -0.1886
  360TMC3     O 5446   2.199   2.465  11.903 -0.3484  0.1528  0.2296
  360TMC3     H 5447   2.309   2.591  11.774  2.9536 -1.2137  1.9653
  360TMC3    H1 5448   2.159   2.239  11.587  0.2350 -0.0206  0.3799
  360TMC3    H2 5449   2.500   2.445  11.410  0.6944  0.0017  1.0854
  360TMC3    C7 5450   2.307   2.268  11.364 -0.1342 -0.2285 -0.3809
  360TMC3    C8 5451   2.474   2.663  11.581  0.1556  0.8214  0.5605
  360TMC3    O1 5452   2.406   2.248  11.295 -0.3678  0.2941  0.1990
  360TMC3    O2 5453   2.397   2.751  11.615 -0.1653  0.2572  0.3022
  361MPD2     C 5454   3.737   1.846  16.648  0.0300  0.4666 -0.0993
  361MPD2    C1 5455   3.726   1.903  16.779 -0.5002  0.2307 -0.1943
  361MPD2    C2 5456   3.819   1.886  16.872  0.5943  0.1965 -0.3901
  361MPD2    C3 5457   3.936   1.820  16.834 -0.2084 -0.1864  0.3282
  361MPD2    C4 5458   3.955   1.786  16.704 -0.3313 -0.5195  0.2971
  361MPD2    C5 5459   3.853   1.781  16.612 -0.3561 -0.6680 -0.2884
  361MPD2     H 5460   3.800   1.935  16.967 -0.5012 -1.2531  0.1360
  361MPD2    H1 5461   4.048   1.749  16.663  1.0668  2.7756  0.4544
  361MPD2    H2 5462   3.660   1.834  16.573 -0.2388  0.8318  0.1195
  361MPD2    H3 5463   3.862   1.739  16.512 -0.3356 -0.6743 -0.2838
  361MPD2     N 5464   4.050   1.814  16.917 -0.2069 -0.0529  0.0430
  361MPD2    H5 5465   4.132   1.771  16.874  0.3882  2.3968 -1.2719
  361MPD2    N1 5466   3.614   1.983  16.816  0.2112 -0.3087 -0.2850
  361MPD2    H7 5467   3.629   2.028  16.906 -0.1878 -1.2275  0.2425
  362TMC3    C1 5468   3.411   2.101  16.817 -0.5278  1.0251  0.2419
  362TMC3    C2 5469   3.470   2.195  16.900 -0.0045  0.5285  0.0476
  362TMC3    C3 5470   3.425   2.320  16.905  0.2195  0.4782 -0.1373
  362TMC3    C4 5471   3.319   2.149  16.726 -0.5660 -1.0421  0.9939
  362TMC3    C5 5472   3.280   2.283  16.725  0.7084 -0.0511  0.2806
  362TMC3    C6 5473   3.338   2.373  16.810  0.1342 -0.0005 -0.3291
  362TMC3     C 5474   3.496   2.002  16.751  0.1282 -1.1417 -0.1403
  362TMC3     O 5475   3.464   1.948  16.647 -0.1765 -0.0822 -0.8339
  362TMC3     H 5476   3.541   2.167  16.978 -0.5040 -0.9615 -0.0225
  362TMC3    H1 5477   3.279   2.081  16.652 -0.1369  2.5845 -2.5369
  362TMC3    H2 5478   3.315   2.479  16.806 -3.2519 -0.6586  1.4838
  362TMC3    C7 5479   3.225   2.340  16.601 -1.1338  0.0358 -0.4758
  362TMC3    C8 5480   3.475   2.405  17.009  0.0995 -0.1945 -0.5621
  362TMC3    O1 5481   3.219   2.462  16.596 -0.3995  0.5312 -0.0646
  362TMC3    O2 5482   3.583   2.377  17.062 -0.4688  0.7339  0.5641
  363TMC3    C1 5483   1.973   2.739   8.823 -0.9138 -0.0758  0.0119
  363TMC3    C2 5484   1.987   2.789   8.951  0.5707 -0.4722  0.2625
  363TMC3    C3 5485   1.893   2.883   8.978  0.2065  0.2180  0.4656
  363TMC3    C4 5486   1.872   2.774   8.737 -0.7198 -0.1765  1.0946
  363TMC3    C5 5487   1.793   2.877   8.760  0.1650  0.3987 -0.1477
  363TMC3    C6 5488   1.805   2.933   8.887  0.4756 -0.5271  0.3618
  363TMC3     C 5489   2.056   2.616   8.795 -0.7127 -0.3916  0.1489
  363TMC3     O 5490   2.120   2.574   8.891  0.4171  0.4318  0.1974
  363TMC3     H 5491   2.050   2.737   9.023  0.7968  1.0052  1.1236
  363TMC3    H1 5492   1.843   2.708   8.656  0.6567  0.2382  0.2601
  363TMC3    H2 5493   1.730   3.001   8.925  1.4804  1.3399 -1.0405
  363TMC3    C7 5494   1.669   2.898   8.687  0.4138 -0.3561  0.1119
  363TMC3    C8 5495   1.841   2.872   9.111 -0.0899 -0.2544  0.3296
  363TMC3    O1 5496   1.642   2.813   8.600 -0.1280  0.2795 -0.3833
  363TMC3    O2 5497   1.721   2.856   9.115  0.2015  0.0153 -0.1595
  364MPD2     C 5498   1.100   2.982  10.682 -0.4033 -0.8753 -0.3268
  364MPD2    C1 5499   1.110   2.916  10.559 -0.1587  0.1272  0.0750
  364MPD2    C2 5500   1.120   2.776  10.556 -0.6071  0.5294 -0.3000
  364MPD2    C3 5501   1.111   2.705  10.671  0.6052 -0.5724 -0.2060
  364MPD2    C4 5502   1.092   2.773  10.787  0.4877  0.5848 -0.2813
  364MPD2    C5 5503   1.087   2.908  10.797 -0.1006 -0.7470  0.7282
  364MPD2     H 5504   1.146   2.722  10.465 -1.3282 -0.3079 -0.0083
  364MPD2    H1 5505   1.087   2.708  10.874 -1.0524  2.1599  0.8101
  364MPD2    H2 5506   1.096   3.090  10.695  0.6847 -1.0082  1.0502
  364MPD2    H3 5507   1.068   2.964  10.888  5.1116  3.2048 -0.5993
  364MPD2     N 5508   1.117   2.561  10.683  0.8130  0.7648 -0.8044
  364MPD2    H5 5509   1.133   2.514  10.772  0.3468  0.3825 -0.9211
  364MPD2    N1 5510   1.126   3.000  10.444  0.2689  0.0073  0.3702
  364MPD2    H7 5511   1.130   3.101  10.455  0.3659 -0.1620  1.9259
  365TMC3    C1 5512   1.151   3.064  10.219 -0.0630 -0.2211  0.1323
  365TMC3    C2 5513   1.134   3.033  10.088 -0.1232 -0.4820 -0.6461
  365TMC3    C3 5514   1.142   3.132   9.994  0.0594  0.1929 -0.1725
  365TMC3    C4 5515   1.179   3.190  10.262 -0.5086  0.5236  0.5086
  365TMC3    C5 5516   1.172   3.288  10.170 -0.2780  0.4294  0.1354
  365TMC3    C6 5517   1.165   3.260  10.040 -0.9197  0.0889 -0.4482
  365TMC3     C 5518   1.143   2.955  10.316  0.4828 -0.3647  0.0597
  365TMC3     O 5519   1.132   2.839  10.277 -0.2064 -0.1583  0.1527
  365TMC3     H 5520   1.133   2.929  10.059  0.3898 -0.3718 -1.0594
  365TMC3    H1 5521   1.224   3.212  10.358  2.1687 -1.3937 -0.2991
  365TMC3    H2 5522   1.158   3.337   9.963  0.3525 -1.6413 -2.3102
  365TMC3    C7 5523   1.180   3.431  10.204  0.1691  0.3625  0.2075
  365TMC3    C8 5524   1.070   3.123   9.871  0.3495  0.0339 -0.0062
  365TMC3    O1 5525   1.196   3.505  10.110  0.3503 -0.4043  0.2029
  365TMC3    O2 5526   1.048   3.223   9.803 -0.1401  0.9849 -0.5528
  366MPD2     C 5527   3.845   4.423  15.053  0.6408 -0.7374  0.2792
  366MPD2    C1 5528   3.892   4.500  15.156  0.4280  0.0046  0.5042
  366MPD2    C2 5529   3.987   4.451  15.243 -0.0663 -0.0021  0.1172
  366MPD2    C3 5530   4.045   4.323  15.231  0.4387 -0.3353  0.4388
  366MPD2    C4 5531   3.985   4.242  15.137  0.0634 -0.0496  0.3037
  366MPD2    C5 5532   3.886   4.289  15.045 -0.5135 -0.0606 -0.0213
  366MPD2     H 5533   4.030   4.511  15.323  0.2432 -1.1340  0.7998
  366MPD2    H1 5534   4.006   4.136  15.129  0.8359  0.1417 -0.1597
  366MPD2    H2 5535   3.768   4.457  14.985 -0.1825  0.7794  1.9859
  366MPD2    H3 5536   3.856   4.235  14.956  1.1762 -1.8749  0.5039
  366MPD2     N 5537   4.141   4.263  15.322  0.6653 -0.2429  0.0331
  366MPD2    H5 5538   4.149   4.162  15.326  0.9629 -0.2194  0.0240
  366MPD2    N1 5539   3.850   4.637  15.180  0.3616 -0.2063 -0.8106
  366MPD2    H7 5540   3.890   4.682  15.262 -0.4285  1.0785 -1.1357
  367TMC3    C1 5541   3.792   0.116  15.135  0.3871  0.0778  0.4282
  367TMC3    C2 5542   3.892   0.150  15.224 -0.7442 -0.6426  0.1553
  367TMC3    C3 5543   3.905   0.283  15.253  0.5144  0.8873  0.0242
  367TMC3    C4 5544   3.697   0.200  15.093 -0.2022  0.4290  0.7018
  367TMC3    C5 5545   3.706   0.326  15.147  0.7290 -0.0094  0.5902
  367TMC3    C6 5546   3.809   0.379  15.222 -0.5003  0.4852  0.2593
  367TMC3     C 5547   3.765   4.714  15.108  0.7674 -0.3441 -0.3387
  367TMC3     O 5548   3.680   4.691  15.024 -0.2411  0.1754 -0.4644
  367TMC3     H 5549   3.983   0.100  15.257  0.9317  1.0779 -1.9163
  367TMC3    H1 5550   3.612   0.163  15.036  1.5294  1.3753 -2.5237
  367TMC3    H2 5551   3.807   0.479  15.264  0.6544  0.6053  0.0369
  367TMC3    C7 5552   3.604   0.419  15.107 -0.4109 -0.0257 -0.5493
  367TMC3    C8 5553   4.000   0.316  15.352  0.0063  0.0436 -0.3388
  367TMC3    O1 5554   3.635   0.540  15.117  0.3366 -0.1676  0.0879
  367TMC3    O2 5555   4.006   0.236  15.443  0.0539 -0.1268 -0.1267
  368MPD2     C 5556   0.108   1.522  12.924  0.3388 -0.3035  0.3770
  368MPD2    C1 5557   0.090   1.642  12.872 -0.8302  0.0837 -0.7228
  368MPD2    C2 5558   0.197   1.720  12.838 -0.3308 -0.1234  0.0796
  368MPD2    C3 5559   0.321   1.674  12.848  0.1630 -0.1154  1.1064
  368MPD2    C4 5560   0.341   1.557  12.915 -0.2106  0.1828  0.0694
  368MPD2    C5 5561   0.236   1.477  12.955 -0.3638  0.5100 -0.4185
  368MPD2     H 5562   0.178   1.820  12.802 -0.9721 -0.8512 -1.6099
  368MPD2    H1 5563   0.439   1.517  12.938  0.6946  0.9171 -2.4530
  368MPD2    H2 5564   0.017   1.466  12.943 -0.9944  2.2525  1.4286
  368MPD2    H3 5565   0.248   1.383  13.008  0.7577 -0.6736 -2.7358
  368MPD2     N 5566   0.438   1.739  12.801  0.3227 -0.6300 -0.2422
  368MPD2    H5 5567   0.526   1.703  12.838 -1.1096 -2.4012  1.4100
  368MPD2    N1 5568   4.697   1.696  12.853 -0.4036  0.2648 -0.5236
  368MPD2    H7 5569   4.627   1.660  12.918 -0.6243 -0.5338 -1.1951
  369TMC3    C1 5570   4.528   1.839  12.773  0.0940 -0.2656  0.0130
  369TMC3    C2 5571   4.509   1.967  12.753  0.2898 -0.1721  0.3874
  369TMC3    C3 5572   4.393   2.025  12.777 -0.2665  0.5692 -0.5589
  369TMC3    C4 5573   4.422   1.758  12.800 -0.4988  0.6490 -0.1426
  369TMC3    C5 5574   4.297   1.819  12.819 -0.1361 -0.1655 -0.2791
  369TMC3    C6 5575   4.284   1.953  12.807  0.3500  0.4920 -0.7670
  369TMC3     C 5576   4.660   1.786  12.763  0.1802  0.2788 -0.1554
  369TMC3     O 5577   4.725   1.824  12.665  0.2638 -0.6143  0.5054
  369TMC3     H 5578   4.586   2.028  12.706 -1.4996  1.1779 -0.8298
  369TMC3    H1 5579   4.437   1.653  12.821  1.4953  1.0891  0.6433
  369TMC3    H2 5580   4.191   2.007  12.824  0.2735 -0.3749  1.4801
  369TMC3    C7 5581   4.204   1.752  12.900 -0.1892 -0.2556  0.4094
  369TMC3    C8 5582   4.366   2.155  12.734 -0.0447 -0.2532  0.6765
  369TMC3    O1 5583   4.134   1.825  12.977  0.0237  0.2685 -0.0046
  369TMC3    O2 5584   4.261   2.191  12.687  0.0120 -0.6463 -0.8083
  370TMC3    C1 5585   0.076   2.777  16.178  0.0875  0.1975 -0.5117
  370TMC3    C2 5586   4.727   2.712  16.265  0.6990  1.0220 -0.4940
  370TMC3    C3 5587   4.670   2.597  16.220  0.5950 -0.0779  0.3217
  370TMC3    C4 5588   0.117   2.725  16.055  0.4392  0.4192  0.0706
  370TMC3    C5 5589   0.065   2.605  16.020 -1.1074  0.2016  0.3378
  370TMC3    C6 5590   4.712   2.536  16.106 -0.7227 -0.4300  0.3030
  370TMC3     C 5591   0.169   2.864  16.249 -0.3722  0.0959  0.3996
  370TMC3     O 5592   0.169   2.864  16.372 -0.4701  0.9083 -0.0063
  370TMC3     H 5593   4.682   2.776  16.340 -1.5768  0.2383 -1.1993
  370TMC3    H1 5594   0.199   2.766  15.997 -0.2148  3.8008  1.5210
  370TMC3    H2 5595   4.660   2.444  16.084 -2.2941  0.2409  1.1842
  370TMC3    C7 5596   0.130   2.539  15.914 -0.2114  0.0094 -0.0991
  370TMC3    C8 5597   4.605   2.518  16.321  0.2250 -0.7803  0.5542
  370TMC3    O1 5598   0.161   2.599  15.813 -0.1686  0.0511 -0.6805
  370TMC3    O2 5599   4.595   2.400  16.285 -0.2045 -0.1397 -0.5557
  371TMC3    C1 5600   1.361   1.074  15.553  0.8016 -0.2060  0.7630
  371TMC3    C2 5601   1.306   1.052  15.676 -0.0545  0.0809 -0.5445
  371TMC3    C3 5602   1.271   1.165  15.746 -0.7836  0.4637 -0.0942
  371TMC3    C4 5603   1.379   1.203  15.509 -0.5677  0.1163 -0.6873
  371TMC3    C5 5604   1.338   1.309  15.578 -0.6392  0.3034  0.1887
  371TMC3    C6 5605   1.279   1.296  15.698  0.2624 -0.2876  0.2851
  371TMC3     C 5606   1.391   0.961  15.473 -0.4891  0.3643 -0.1161
  371TMC3     O 5607   1.497   0.973  15.407 -0.1706  0.3216  0.5700
  371TMC3     H 5608   1.301   0.954  15.721 -1.2267 -0.2030 -1.2792
  371TMC3    H1 5609   1.445   1.219  15.425  0.4612  0.4351  0.1761
  371TMC3    H2 5610   1.262   1.379  15.765 -0.9253 -0.1124 -0.2431
  371TMC3    C7 5611   1.326   1.434  15.508  0.2319 -0.1398 -0.0768
  371TMC3    C8 5612   1.190   1.142  15.862 -0.5012  0.4089  0.2207
  371TMC3    O1 5613   1.341   1.529  15.585  0.4480  0.5156 -0.5291
  371TMC3    O2 5614   1.166   1.025  15.879 -0.2753  0.0651 -0.1146
  372MPD2     C 5615   4.534   2.026  13.090 -0.8961  0.1547 -0.4879
  372MPD2    C1 5616   4.659   1.975  13.117 -0.6915  0.0380  0.3301
  372MPD2    C2 5617   4.665   1.862  13.200  0.0088 -0.2479  0.1416
  372MPD2    C3 5618   4.556   1.800  13.253 -0.5281  0.1921  0.3334
  372MPD2    C4 5619   4.431   1.847  13.220 -0.1593 -0.8651  0.1874
  372MPD2    C5 5620   4.425   1.961  13.138 -0.4664 -0.5476 -0.1278
  372MPD2     H 5621   0.022   1.820  13.233  1.0649  1.4102 -0.7359
  372MPD2    H1 5622   4.332   1.814  13.250 -0.9972  1.3703 -0.1089
  372MPD2    H2 5623   4.518   2.116  13.031  0.6973  1.0064  0.3564
  372MPD2    H3 5624   4.332   2.012  13.119  0.6036  0.1670 -3.3160
  372MPD2     N 5625   4.574   1.689  13.342 -0.3059  0.2480  0.7638
  372MPD2    H5 5626   4.668   1.675  13.378  0.0479 -2.2683 -1.1121
  372MPD2    N1 5627   0.044   2.027  13.062 -0.0087  0.2874 -0.2564
  372MPD2    H7 5628   0.128   1.985  13.098  0.8360  1.2064 -1.1456
  373TMC3    C1 5629   4.499   1.492  13.449  0.1207  0.1105  0.5434
  373TMC3    C2 5630   4.575   1.507  13.563  0.1755 -0.1905  0.1229
  373TMC3    C3 5631   4.601   1.393  13.638  0.7111 -0.3717  0.4761
  373TMC3    C4 5632   4.445   1.370  13.421 -0.8877  0.6362 -0.2653
  373TMC3    C5 5633   4.471   1.256  13.496 -0.3975 -0.2733 -0.4875
  373TMC3    C6 5634   4.544   1.274  13.610 -0.5609  0.0605  0.6636
  373TMC3     C 5635   4.469   1.610  13.372 -0.0006 -0.1861 -0.1968
  373TMC3     O 5636   4.365   1.600  13.307  0.5380  0.3914 -0.5176
  373TMC3     H 5637   4.621   1.602  13.587  0.5975 -0.6645  1.1606
  373TMC3    H1 5638   4.397   1.373  13.324 -0.3900 -0.0536 -0.5324
  373TMC3    H2 5639   4.565   1.191  13.677  1.2696  0.2019  0.2698
  373TMC3    C7 5640   4.495   1.131  13.432  0.5542 -0.5755 -0.0794
  373TMC3    C8 5641   4.717   1.397  13.730  0.0491  0.0002 -0.2854
  373TMC3    O1 5642   4.578   1.057  13.480  0.0974  0.0445  0.0452
  373TMC3    O2 5643   0.064   1.477  13.685 -0.0244  0.1116  0.1276
  374TMC3    C1 5644   0.947   1.983   9.391  0.6297  0.0841 -0.4279
  374TMC3    C2 5645   1.068   2.043   9.427 -0.5597  1.0157 -0.1261
  374TMC3    C3 5646   1.133   2.127   9.341  0.4379  0.4748  0.0829
  374TMC3    C4 5647   0.890   2.002   9.265  1.0650 -0.4540  0.0345
  374TMC3    C5 5648   0.955   2.091   9.186  0.2235  0.4081 -0.1857
  374TMC3    C6 5649   1.075   2.154   9.219 -0.9796 -0.4694 -0.4600
  374TMC3     C 5650   0.866   1.915   9.484  0.8892 -0.5952  0.4629
  374TMC3     O 5651   0.792   1.827   9.438 -0.0841 -0.0116  0.1395
  374TMC3     H 5652   1.104   2.036   9.529 -0.7099  0.5927 -0.0989
  374TMC3    H1 5653   0.785   1.980   9.254  1.1017  0.2089 -1.5902
  374TMC3    H2 5654   1.130   2.218   9.151  0.3157 -0.7805  0.3042
  374TMC3    C7 5655   0.887   2.139   9.068  0.1395  0.4872 -0.0949
  374TMC3    C8 5656   1.229   2.221   9.387 -0.2639 -0.3476  0.4346
  374TMC3    O1 5657   0.906   2.258   9.038 -0.2098 -0.1577 -0.3367
  374TMC3    O2 5658   1.219   2.322   9.318 -0.3586  0.0797  0.2312
  375MPD2     C 5659   1.645   3.580  17.239  0.0361 -0.0977 -0.7033
  375MPD2    C1 5660   1.591   3.555  17.115  0.3095  0.1513 -0.9126
  375MPD2    C2 5661   1.641   3.462  17.030 -0.4423 -0.3180  0.4950
  375MPD2    C3 5662   1.756   3.392  17.070  0.2820 -0.7573 -0.5950
  375MPD2    C4 5663   1.808   3.415  17.196  0.5887 -0.5105  0.5774
  375MPD2    C5 5664   1.755   3.509  17.279 -0.4655  0.4189 -0.1883
  375MPD2     H 5665   1.595   3.453  16.933 -1.3962  0.2902  0.8977
  375MPD2    H1 5666   1.884   3.357  17.247  0.7686 -0.3656  0.4713
  375MPD2    H2 5667   1.593   3.644  17.309 -1.3045  0.2749 -2.0259
  375MPD2    H3 5668   1.778   3.502  17.385 -0.9583 -0.5582 -0.1402
  375MPD2     N 5669   1.810   3.283  16.995 -0.6814 -0.3436 -0.5293
  375MPD2    H5 5670   1.895   3.242  17.032 -0.9606 -2.1093 -1.8343
  375MPD2    N1 5671   1.467   3.614  17.074  0.0690 -0.7384 -0.1194
  375MPD2    H7 5672   1.437   3.594  16.979 -1.8507 -0.0553  0.3456
  376TMC3    C1 5673   1.836   3.128  16.829 -0.3426 -0.3198 -0.5514
  376TMC3    C2 5674   1.968   3.119  16.855  0.3213  0.2285  0.2490
  376TMC3    C3 5675   2.034   3.034  16.768  0.3190  0.1602 -0.1068
  376TMC3    C4 5676   1.767   3.049  16.741 -0.5588  1.1077  0.3387
  376TMC3    C5 5677   1.836   2.954  16.672  0.7152 -0.7373 -0.1552
  376TMC3    C6 5678   1.972   2.941  16.683 -0.4164  0.4079 -0.0784
  376TMC3     C 5679   1.754   3.234  16.877 -0.4611 -0.1116  0.3789
  376TMC3     O 5680   1.649   3.265  16.822  0.7867 -0.0943  0.2239
  376TMC3     H 5681   2.024   3.195  16.909  0.5975  0.2832 -0.1204
  376TMC3    H1 5682   1.659   3.057  16.735 -0.6565 -1.8516 -2.1136
  376TMC3    H2 5683   2.028   2.873  16.620  1.9714  0.4902  1.9653
  376TMC3    C7 5684   1.785   2.910  16.538 -0.2097  0.5842  0.6109
  376TMC3    C8 5685   2.181   3.053  16.755 -0.0116  0.7205  0.0459
  376TMC3    O1 5686   1.843   2.816  16.477 -0.4053  0.4980  0.1521
  376TMC3    O2 5687   2.224   3.166  16.768 -0.2736  0.0610  0.4870
  377MPD2     C 5688   3.712   1.684  12.476  0.0061  0.6383 -0.3320
  377MPD2    C1 5689   3.804   1.759  12.550 -1.2811 -0.1503 -0.5064
  377MPD2    C2 5690   3.836   1.714  12.678 -0.2407 -0.7352 -0.8398
  377MPD2    C3 5691   3.767   1.610  12.740 -0.1343  0.5218 -0.0041
  377MPD2    C4 5692   3.672   1.539  12.665 -0.0760 -0.2700 -0.3125
  377MPD2    C5 5693   3.646   1.576  12.534 -0.1431  0.0229  0.1703
  377MPD2     H 5694   3.915   1.759  12.737 -1.1830  0.3855 -0.4213
  377MPD2    H1 5695   3.612   1.460  12.710 -0.5659 -0.4443 -1.2844
  377MPD2    H2 5696   3.686   1.705  12.372  0.3276 -0.2120 -0.5827
  377MPD2    H3 5697   3.576   1.526  12.468  0.7344  0.1072 -0.8228
  377MPD2     N 5698   3.791   1.584  12.879 -0.4251 -0.3951 -0.1254
  377MPD2    H5 5699   3.846   1.653  12.929  1.2042 -1.3638 -0.5712
  377MPD2    N1 5700   3.858   1.868  12.488  0.3563  0.6912 -0.5585
  377MPD2    H7 5701   3.821   1.890  12.396 -2.7309 -0.1486  0.4862
  378TMC3    C1 5702   3.977   2.152  12.252 -0.4448  0.2813 -0.0118
  378TMC3    C2 5703   3.919   2.083  12.356 -0.0153 -0.1250 -0.1358
  378TMC3    C3 5704   4.008   2.039  12.454  0.2175 -0.6849 -0.3099
  378TMC3    C4 5705   4.109   2.186  12.252 -0.0693 -0.0148  0.1006
  378TMC3    C5 5706   4.192   2.141  12.355  0.2307  0.2498  0.1040
  378TMC3    C6 5707   4.142   2.064  12.455 -0.1927 -0.3503 -0.1126
  378TMC3     C 5708   3.887   2.205  12.152  0.5150 -0.1763 -0.7161
  378TMC3     O 5709   3.771   2.242  12.191  0.0970 -0.2744 -0.6781
  378TMC3     H 5710   3.814   2.062  12.365  0.5399 -2.4200  1.0072
  378TMC3    H1 5711   4.142   2.262  12.182  0.3778 -1.1307 -0.9108
  378TMC3    H2 5712   4.207   2.025  12.533 -0.9448  0.6317  1.0065
  378TMC3    C7 5713   4.339   2.141  12.341 -0.6222  0.2618 -0.5207
  378TMC3    C8 5714   3.967   1.937  12.540  0.9782 -0.8283 -0.0957
  378TMC3    O1 5715   4.404   2.093  12.433 -0.7879  0.0466 -0.0225
  378TMC3    O2 5716   4.049   1.906  12.627  0.2282  0.2763 -0.0583
  379MPD2     C 5717   0.288   0.560  16.003 -0.2315  0.4122 -0.2124
  379MPD2    C1 5718   0.214   0.514  16.111  0.7683 -0.1778  0.3528
  379MPD2    C2 5719   0.268   0.510  16.239 -0.0429  0.5308 -0.6617
  379MPD2    C3 5720   0.394   0.563  16.256  0.4201 -0.3066 -0.6230
  379MPD2    C4 5721   0.462   0.605  16.145 -0.6109 -0.1137  0.1452
  379MPD2    C5 5722   0.410   0.613  16.019 -0.0379 -0.1317  0.0589
  379MPD2     H 5723   0.217   0.469  16.325 -0.1328 -1.2897 -1.5963
  379MPD2    H1 5724   0.557   0.657  16.140 -0.0806 -1.0358  0.6871
  379MPD2    H2 5725   0.246   0.563  15.903  2.1112 -0.2269 -1.2219
  379MPD2    H3 5726   0.454   0.664  15.934 -2.0224  1.5151  0.0304
  379MPD2     N 5727   0.461   0.565  16.380 -0.4391 -0.0837  0.1214
  379MPD2    H5 5728   0.555   0.602  16.369 -0.1392 -0.4069  1.6537
  379MPD2    N1 5729   0.083   0.469  16.078  1.3942  0.5027 -0.4968
  379MPD2    H7 5730   0.058   0.485  15.981 -1.8719 -1.9193 -0.0512
  380TMC3    C1 5731   4.643   0.333  16.084  0.5480 -0.5828  0.7025
  380TMC3    C2 5732   4.701   0.223  16.039  0.0697 -0.1197  0.1607
  380TMC3    C3 5733   4.674   0.181  15.912  0.2960  0.7492 -0.2050
  380TMC3    C4 5734   4.562   0.418  16.015  0.0667  0.6582  0.5130
  380TMC3    C5 5735   4.538   0.379  15.888 -0.2340  0.6826 -0.1219
  380TMC3    C6 5736   4.594   0.261  15.834  0.1827  0.1575  0.2117
  380TMC3     C 5737   4.735   0.404  16.169 -0.2070 -0.4882 -0.4130
  380TMC3     O 5738   0.015   0.354  16.275  0.1874 -0.4309 -0.2728
  380TMC3     H 5739   0.016   0.159  16.109  0.6457 -1.1156 -1.1780
  380TMC3    H1 5740   4.513   0.505  16.057  1.9814  1.5660  0.8733
  380TMC3    H2 5741   4.586   0.242  15.728  0.3107  0.9820  0.0545
  380TMC3    C7 5742   4.466   0.478  15.793 -0.7263  0.4815 -0.0671
  380TMC3    C8 5743   0.056   0.143  15.847 -0.5440 -0.1990  0.6235
  380TMC3    O1 5744   4.455   0.601  15.819  0.1025 -0.7919  0.3526
  380TMC3    O2 5745   0.033   0.126  15.725 -0.1397  0.5634  0.2753
  381TMC3    C1 5746   4.522   2.190  16.089  0.3012 -0.6910 -0.1746
  381TMC3    C2 5747   4.654   2.156  16.094 -0.1820  0.5769  0.1317
  381TMC3    C3 5748   4.697   2.079  16.196 -0.2560  0.8297  0.3549
  381TMC3    C4 5749   4.433   2.163  16.189 -0.5497  0.4228  0.0944
  381TMC3    C5 5750   4.485   2.082  16.291  0.3627  0.4233 -0.0670
  381TMC3    C6 5751   4.617   2.040  16.297  0.4485  0.2820 -1.1938
  381TMC3     C 5752   4.467   2.284  15.999 -0.3375 -0.1276 -0.1283
  381TMC3     O 5753   4.361   2.334  16.039 -0.2890  0.9242  0.3146
  381TMC3     H 5754   4.728   2.208  16.033  0.2437 -0.1051  0.0700
  381TMC3    H1 5755   4.328   2.188  16.193 -0.1492  1.9496  0.9194
  381TMC3    H2 5756   4.655   1.977  16.376  1.7480  2.5861  0.0352
  381TMC3    C7 5757   4.414   2.083  16.405 -0.5052 -0.3425  0.2047
  381TMC3    C8 5758   0.092   2.099  16.240 -0.0998 -0.0393  0.2420
  381TMC3    O1 5759   4.426   1.978  16.471  0.0562 -0.2977 -0.5485
  381TMC3    O2 5760   0.177   2.018  16.215 -0.1476  0.0058 -0.3052
  382MPD2     C 5761   4.363   4.485  16.367 -0.0457 -1.3800  0.4170
  382MPD2    C1 5762   4.377   4.492  16.506 -0.1744  0.0742 -0.3458
  382MPD2    C2 5763   4.284   4.435  16.592  0.0530 -0.9378  0.6657
  382MPD2    C3 5764   4.165   4.388  16.540 -0.3174  0.3478  0.0604
  382MPD2    C4 5765   4.142   4.377  16.405 -0.3179 -0.0903 -0.2903
  382MPD2    C5 5766   4.238   4.438  16.323 -0.2152  0.3980  0.4142
  382MPD2     H 5767   4.307   4.428  16.697  0.7511 -0.0116  0.5695
  382MPD2    H1 5768   4.047   4.346  16.365 -0.2690  1.4510 -1.5956
  382MPD2    H2 5769   4.439   4.511  16.295 -0.6522  1.1221  0.6671
  382MPD2    H3 5770   4.220   4.426  16.216 -0.7496  2.1492  0.3196
  382MPD2     N 5771   4.058   4.344  16.623 -0.0247  0.4057 -0.0621
  382MPD2    H5 5772   3.967   4.328  16.581  1.2231 -1.5104 -2.0502
  382MPD2    N1 5773   4.487   4.562  16.562 -0.4165  0.1041  0.1511
  382MPD2    H7 5774   4.493   4.566  16.663  0.5605  1.3312  0.0489
  383TMC3    C1 5775   3.934   4.305  16.826 -0.7873 -0.3626 -0.8306
  383TMC3    C2 5776   3.861   4.195  16.800 -0.1046  0.2654  0.1342
  383TMC3    C3 5777   3.777   4.152  16.899 -0.3087 -0.2111  0.3748
  383TMC3    C4 5778   3.935   4.359  16.952 -0.1508 -0.2735  0.4091
  383TMC3    C5 5779   3.835   4.319  17.034 -0.0042 -0.4340  0.4092
  383TMC3    C6 5780   3.747   4.219  17.010  0.4159 -0.1614 -0.2819
  383TMC3     C 5781   4.063   4.330  16.759  0.6231  0.5761 -0.5286
  383TMC3     O 5782   4.150   4.362  16.835 -0.1383  0.5360 -0.2547
  383TMC3     H 5783   3.894   4.131  16.718  1.5810  2.2569 -0.7592
  383TMC3    H1 5784   3.996   4.447  16.967 -1.0158  0.1550  1.4564
  383TMC3    H2 5785   3.683   4.173  17.084  1.0390 -0.0121  0.3429
  383TMC3    C7 5786   3.812   4.389  17.159 -0.2368 -0.3428 -0.2599
  383TMC3    C8 5787   3.690   4.047  16.859 -0.0603 -0.6337  0.5877
  383TMC3    O1 5788   3.707   4.364  17.218  0.2100 -0.2290 -0.3929
  383TMC3    O2 5789   3.717   3.987  16.756 -0.4295  0.3979  0.5126
  384MPD2     C 5790   0.856   0.185  12.210  1.1102  0.0515 -0.4666
  384MPD2    C1 5791   0.838   0.060  12.153 -0.3277  0.3578  0.4643
  384MPD2    C2 5792   0.939   0.015  12.059  0.0839  0.9338 -0.2811
  384MPD2    C3 5793   1.044   0.099  12.029  0.0101 -0.0120 -0.6859
  384MPD2    C4 5794   1.057   0.218  12.093 -0.2124  0.6729 -0.8254
  384MPD2    C5 5795   0.964   0.265  12.183  1.0475  0.5703  1.6337
  384MPD2     H 5796   0.933   4.651  12.020  2.4455  1.0644 -0.9988
  384MPD2    H1 5797   1.138   0.287  12.072 -0.2403  0.3479 -2.0013
  384MPD2    H2 5798   0.779   0.234  12.268  1.7358  0.1911  0.2398
  384MPD2    H3 5799   0.965   0.369  12.214  1.0750  0.6013  1.5278
  384MPD2     N 5800   1.142   0.050  11.940  0.1910  0.6184 -0.0153
  384MPD2    H5 5801   1.232   0.095  11.954  0.3419 -0.0062  1.0234
  384MPD2    N1 5802   0.723   4.721  12.181  0.1211 -0.6735 -0.2308
  384MPD2    H7 5803   0.717   4.635  12.127  0.1379 -0.4750 -0.5503
  385TMC3    C1 5804   1.243   4.624  11.801  0.0280  0.2403  0.5738
  385TMC3    C2 5805   1.248   4.583  11.673 -0.2816 -0.4036  0.1832
  385TMC3    C3 5806   1.262   4.453  11.642  0.0183  0.5646 -0.1287
  385TMC3    C4 5807   1.270   4.535  11.904  0.7040 -0.3149 -0.0543
  385TMC3    C5 5808   1.280   4.400  11.873 -0.1900  0.0903  0.1762
  385TMC3    C6 5809   1.274   4.351  11.741  0.5614  0.5008  0.1472
  385TMC3     C 5810   1.124   4.691  11.836  0.3808 -0.2572  0.0873
  385TMC3     O 5811   1.022   4.638  11.793  0.3817 -0.0663 -0.0502
  385TMC3     H 5812   1.219   4.650  11.592 -0.8604  1.7526  2.1650
  385TMC3    H1 5813   1.268   4.571  12.006  0.9747  1.7471 -0.7629
  385TMC3    H2 5814   1.305   4.251  11.711  1.8497  0.5793  1.2348
  385TMC3    C7 5815   1.212   4.319  11.970  0.1341 -0.0227  0.8215
  385TMC3    C8 5816   1.302   4.421  11.512  0.0358  0.3427 -0.0055
  385TMC3    O1 5817   1.209   4.369  12.085 -0.4210  0.4545 -0.2617
  385TMC3    O2 5818   1.374   4.502  11.457  0.2927 -0.4097 -0.3239
  386TMC3    C1 5819   0.655   2.177  11.836  0.3731  0.1877 -0.0055
  386TMC3    C2 5820   0.734   2.253  11.759 -0.0204  0.5490  0.5808
  386TMC3    C3 5821   0.711   2.383  11.730  0.0438  0.1753  0.0432
  386TMC3    C4 5822   0.543   2.229  11.892  0.8411 -0.1224 -0.5071
  386TMC3    C5 5823   0.512   2.359  11.846  0.3455  0.6241 -0.1092
  386TMC3    C6 5824   0.594   2.432  11.771 -0.1647 -0.4129  0.8631
  386TMC3     C 5825   0.713   2.052  11.880  0.5129  0.1985  0.3925
  386TMC3     O 5826   0.785   2.011  11.795  0.4936 -0.2184 -0.4504
  386TMC3     H 5827   0.822   2.204  11.719  0.1069  0.6670  0.7178
  386TMC3    H1 5828   0.472   2.171  11.950  2.0456 -3.0028 -1.8818
  386TMC3    H2 5829   0.567   2.536  11.757  0.3674 -0.5585 -1.2402
  386TMC3    C7 5830   0.372   2.392  11.849 -0.4748 -0.2389 -0.5752
  386TMC3    C8 5831   0.763   2.446  11.612  0.5651  0.1135  0.5146
  386TMC3    O1 5832   0.296   2.328  11.922  0.6198  0.0029 -0.5288
  386TMC3    O2 5833   0.686   2.517  11.549  0.7375  0.5515 -0.3690
  387MPD2     C 5834   3.966   2.214   8.956 -0.2988 -0.6848 -0.5712
  387MPD2    C1 5835   3.984   2.218   9.093 -0.0825 -0.5609 -0.2159
  387MPD2    C2 5836   3.961   2.102   9.153  0.1479 -0.1414 -0.5629
  387MPD2    C3 5837   3.892   1.993   9.104 -0.1285  0.8910  0.8455
  387MPD2    C4 5838   3.871   1.987   8.966 -0.1400 -0.4843  0.4615
  387MPD2    C5 5839   3.913   2.096   8.893 -0.0093 -0.5089  0.1765
  387MPD2     H 5840   3.975   2.096   9.261  0.4765  0.1872 -0.5894
  387MPD2    H1 5841   3.829   1.902   8.913  0.0622 -0.4717  0.2822
  387MPD2    H2 5842   3.996   2.294   8.889 -2.3667  0.7393  0.1970
  387MPD2    H3 5843   3.909   2.096   8.785 -1.3144 -1.6600  0.2279
  387MPD2     N 5844   3.866   1.891   9.191  0.0873  0.4114 -0.2628
  387MPD2    H5 5845   3.898   1.903   9.287 -1.7526 -0.6596  0.5051
  387MPD2    N1 5846   4.013   2.333   9.164 -0.7422  0.2031 -0.3939
  387MPD2    H7 5847   4.010   2.324   9.265 -0.8618 -1.9688 -0.5994
  388TMC3    C1 5848   4.061   2.554   9.226 -0.3163 -0.3284  0.3031
  388TMC3    C2 5849   4.147   2.658   9.223 -0.8861 -0.1895 -0.0824
  388TMC3    C3 5850   4.151   2.734   9.336 -0.2849  0.2549  0.8044
  388TMC3    C4 5851   3.974   2.524   9.324  0.7662  0.3197  0.0504
  388TMC3    C5 5852   3.982   2.605   9.434  0.6518 -0.2890 -0.1345
  388TMC3    C6 5853   4.061   2.716   9.440  0.1980  0.8815 -0.6498
  388TMC3     C 5854   4.056   2.456   9.122  0.1746  0.5055 -0.2193
  388TMC3     O 5855   4.089   2.500   9.010  0.0044 -0.8761 -0.5212
  388TMC3     H 5856   4.195   2.690   9.131  0.4470 -1.9413  0.0143
  388TMC3    H1 5857   3.885   2.468   9.301  1.0077  0.9118 -2.3638
  388TMC3    H2 5858   4.062   2.776   9.531 -1.3858 -0.7290  0.4329
  388TMC3    C7 5859   3.903   2.566   9.549 -0.8727  0.1576 -0.1960
  388TMC3    C8 5860   4.274   2.815   9.359  0.4260  0.9895  0.1637
  388TMC3    O1 5861   3.860   2.649   9.630  0.1414  0.3712 -0.2683
  388TMC3    O2 5862   4.370   2.786   9.286 -0.3852 -0.0174  0.0397
  389MPD2     C 5863   2.815   0.559  10.816  0.2526  0.9706  0.2685
  389MPD2    C1 5864   2.793   0.468  10.712 -0.1668 -0.0330  0.5283
  389MPD2    C2 5865   2.751   0.341  10.740 -0.3600 -0.2772  0.4911
  389MPD2    C3 5866   2.728   0.300  10.870 -0.0420  0.3133  0.0254
  389MPD2    C4 5867   2.754   0.393  10.970  0.5937  0.6602  0.3117
  389MPD2    C5 5868   2.794   0.521  10.944  0.0455 -0.5665 -0.1768
  389MPD2     H 5869   2.744   0.260  10.668  2.7024 -1.1432  1.1698
  389MPD2    H1 5870   2.739   0.357  11.071 -1.8307 -2.6851 -1.2307
  389MPD2    H2 5871   2.842   0.663  10.804 -1.4728  1.7627  3.1064
  389MPD2    H3 5872   2.822   0.587  11.025 -2.6068 -0.3202  0.5386
  389MPD2     N 5873   2.692   0.172  10.920 -0.1326 -0.6014 -0.6520
  389MPD2    H5 5874   2.670   0.167  11.019 -1.2848  0.0382 -0.8743
  389MPD2    N1 5875   2.827   0.500  10.581 -0.1485 -0.0043 -0.2491
  389MPD2    H7 5876   2.800   0.427  10.515 -0.3547 -0.7040  0.6008
  390TMC3    C1 5877   2.640   4.681  10.903  0.6289 -0.0339 -0.2806
  390TMC3    C2 5878   2.599   4.677  11.034 -0.6645  0.4156 -0.3072
  390TMC3    C3 5879   2.566   4.548  11.088 -0.0505 -0.9003  0.2503
  390TMC3    C4 5880   2.641   4.569  10.823  0.4605 -0.2345 -0.0323
  390TMC3    C5 5881   2.602   4.448  10.876  0.6592  0.4560 -0.6669
  390TMC3    C6 5882   2.569   4.435  11.003 -0.1471 -0.6093 -0.3677
  390TMC3     C 5883   2.681   0.067  10.838  0.3821 -0.2295  0.5690
  390TMC3     O 5884   2.689   0.057  10.715 -0.4797  0.1420  0.4258
  390TMC3     H 5885   2.569   0.028  11.089 -1.2147  0.5444 -0.8129
  390TMC3    H1 5886   2.666   4.575  10.718  0.6058  1.5986  0.1023
  390TMC3    H2 5887   2.575   4.334  11.041  0.9786  0.2475  1.7285
  390TMC3    C7 5888   2.512   4.357  10.805 -0.3466  0.2810 -0.1315
  390TMC3    C8 5889   2.482   4.539  11.205  0.4267 -0.7922  0.9066
  390TMC3    O1 5890   2.551   4.275  10.722  0.3385  0.1647 -0.3076
  390TMC3    O2 5891   2.435   4.649  11.243 -0.3794  0.0461 -0.2754
  391MPD2     C 5892   1.923   1.724  10.704 -0.0344 -0.3226  0.2258
  391MPD2    C1 5893   2.035   1.794  10.668 -0.8934  0.3875 -0.0812
  391MPD2    C2 5894   2.042   1.864  10.551 -0.5540 -0.4446  0.4375
  391MPD2    C3 5895   1.933   1.878  10.466 -0.4170 -0.1768 -0.8252
  391MPD2    C4 5896   1.819   1.807  10.506 -0.4943  0.3612  0.4763
  391MPD2    C5 5897   1.820   1.734  10.622  0.4690 -0.4307  0.2674
  391MPD2     H 5898   2.132   1.916  10.521  0.3896 -2.5690 -0.4646
  391MPD2    H1 5899   1.728   1.806  10.446  0.4232 -0.1135 -0.9190
  391MPD2    H2 5900   1.905   1.667  10.794 -2.6764  0.0589 -0.0436
  391MPD2    H3 5901   1.723   1.702  10.658 -0.3538 -2.1047 -3.3677
  391MPD2     N 5902   1.935   1.967  10.359 -0.3150  0.5360 -0.2952
  391MPD2    H5 5903   2.022   2.011  10.332  0.6019 -0.3396  1.2285
  391MPD2    N1 5904   2.146   1.786  10.753 -0.4940 -0.4772  0.0860
  391MPD2    H7 5905   2.137   1.711  10.821 -2.2876  1.2287  1.7441
  392TMC3    C1 5906   1.858   2.095  10.173 -0.6469 -0.1855  0.1427
  392TMC3    C2 5907   1.783   2.080  10.060 -0.2446 -0.0767 -0.2213
  392TMC3    C3 5908   1.824   2.150   9.949  0.4358  0.2931  0.1128
  392TMC3    C4 5909   1.962   2.175  10.176  0.7576 -0.4925 -0.0680
  392TMC3    C5 5910   1.990   2.247  10.065 -1.3522  0.8885 -0.8497
  392TMC3    C6 5911   1.934   2.230   9.946  0.6097  0.2066  0.6306
  392TMC3     C 5912   1.822   2.006  10.285 -0.4543 -0.3312 -0.8281
  392TMC3     O 5913   1.712   1.956  10.277 -0.4309 -0.4509 -0.6699
  392TMC3     H 5914   1.700   2.011  10.049 -0.5331 -0.1558  2.5717
  392TMC3    H1 5915   2.015   2.200  10.267  0.4937  0.9557 -0.3084
  392TMC3    H2 5916   1.962   2.281   9.854  0.9056 -0.9542  0.0717
  392TMC3    C7 5917   2.119   2.315  10.069  1.2667  0.1825  0.0959
  392TMC3    C8 5918   1.718   2.150   9.840  0.0376 -0.4855 -0.1161
  392TMC3    O1 5919   2.188   2.293  10.166  0.0340  0.2892 -0.4893
  392TMC3    O2 5920   1.653   2.049   9.813 -0.2111 -0.4611  0.0953
  393TMC3    C1 5921   1.176   0.079  10.789 -0.2833  0.1598 -0.3220
  393TMC3    C2 5922   1.102   0.006  10.877 -0.3629 -0.0213  0.6781
  393TMC3    C3 5923   1.139   4.603  10.888 -0.7572 -0.0795  0.7263
  393TMC3    C4 5924   1.261   0.025  10.698  0.5173  0.3972 -0.0364
  393TMC3    C5 5925   1.278   4.627  10.705  0.2399  0.5176 -0.1674
  393TMC3    C6 5926   1.223   4.542  10.798  0.4048 -0.2271 -0.6542
  393TMC3     C 5927   1.122   0.206  10.757  0.6524  0.8648 -0.1245
  393TMC3     O 5928   0.997   0.215  10.747 -0.2064  0.3663  0.1146
  393TMC3     H 5929   1.026   0.058  10.933  0.1141  2.2997 -0.8453
  393TMC3    H1 5930   1.293   0.091  10.618 -0.2118  1.3566  0.4512
  393TMC3    H2 5931   1.235   4.435  10.803 -0.7261 -0.3593 -0.7873
  393TMC3    C7 5932   1.317   4.557  10.586 -0.3408 -0.6440 -0.9827
  393TMC3    C8 5933   1.067   4.526  10.990  0.6940  0.0958 -0.0592
  393TMC3    O1 5934   1.252   4.458  10.544  0.2367  0.4004  0.2601
  393TMC3    O2 5935   1.074   4.409  10.985 -0.0868 -0.0855  0.2168
  394TMC3    C1 5936   2.841   0.647  10.393  0.5653  0.1796  1.0396
  394TMC3    C2 5937   2.748   0.572  10.321 -0.6776  0.2628 -0.0363
  394TMC3    C3 5938   2.718   0.618  10.196 -0.0207 -0.4682 -0.1424
  394TMC3    C4 5939   2.919   0.746  10.333  0.4895  0.5478  0.1599
  394TMC3    C5 5940   2.899   0.774  10.196 -0.1962  0.4922 -0.3705
  394TMC3    C6 5941   2.794   0.717  10.129  0.2333  0.7718  0.0367
  394TMC3     C 5942   2.863   0.623  10.536 -0.3501 -0.4497  0.2302
  394TMC3     O 5943   2.931   0.698  10.605 -0.2359  0.3266  0.2330
  394TMC3     H 5944   2.670   0.518  10.375 -2.2819  1.4182 -1.1999
  394TMC3    H1 5945   3.004   0.786  10.387 -1.5906  2.0896  2.3006
  394TMC3    H2 5946   2.757   0.753  10.034  2.1780 -0.7124 -1.2778
  394TMC3    C7 5947   2.997   0.835  10.117  0.9896 -0.3310 -0.0268
  394TMC3    C8 5948   2.654   0.521  10.111 -0.5310  0.8280 -0.3165
  394TMC3    O1 5949   3.050   0.927  10.179  0.0734 -0.3985 -0.5163
  394TMC3    O2 5950   2.586   0.571  10.026  0.2783  0.1406  0.0128
  395TMC3    C1 5951   1.944   3.201  14.961 -0.6760 -0.0048  0.1613
  395TMC3    C2 5952   1.905   3.065  14.934  0.4772 -0.1194 -0.7701
  395TMC3    C3 5953   2.001   2.966  14.940 -0.7449 -0.1902 -0.5850
  395TMC3    C4 5954   2.068   3.229  14.987 -0.2557 -0.7047 -0.3339
  395TMC3    C5 5955   2.163   3.131  14.978  0.4082 -0.2669 -0.3683
  395TMC3    C6 5956   2.131   2.995  14.962 -0.4438 -0.0416  0.6795
  395TMC3     C 5957   1.849   3.259  15.052 -1.0874 -0.0839 -0.3052
  395TMC3     O 5958   1.890   3.316  15.156 -0.3359 -0.1350 -0.0323
  395TMC3     H 5959   1.799   3.048  14.916  0.7253 -1.5837 -0.8471
  395TMC3    H1 5960   2.089   3.332  15.014 -2.9741  0.0669 -1.2208
  395TMC3    H2 5961   2.203   2.915  14.974 -0.6649 -0.6312 -2.1137
  395TMC3    C7 5962   2.302   3.169  14.981 -0.5504  0.3729  0.2643
  395TMC3    C8 5963   1.956   2.830  14.923 -0.4982  0.2908 -0.3571
  395TMC3    O1 5964   2.326   3.279  15.028  0.1135 -0.2280 -0.1400
  395TMC3    O2 5965   1.841   2.813  14.891  0.6135 -0.4559  0.3041
  396MPD2     C 5966   2.035   4.136  17.164 -0.3947 -0.2631  0.0075
  396MPD2    C1 5967   2.124   4.236  17.188  0.3627 -0.5760  0.1074
  396MPD2    C2 5968   2.175   4.305  17.080  0.2712 -0.8525  0.0948
  396MPD2    C3 5969   2.125   4.285  16.957 -0.6629  0.2622  0.7854
  396MPD2    C4 5970   2.031   4.186  16.938 -1.3078  0.1729  0.2405
  396MPD2    C5 5971   1.982   4.116  17.044 -0.1315 -0.1170 -0.4075
  396MPD2     H 5972   2.255   4.377  17.093  0.5434 -0.9971 -0.8158
  396MPD2    H1 5973   1.991   4.164  16.840 -4.0604 -0.2768  1.4538
  396MPD2    H2 5974   2.010   4.068  17.245 -2.3254  2.1814  1.4580
  396MPD2    H3 5975   1.915   4.030  17.036 -0.2496 -0.2672  2.2487
  396MPD2     N 5976   2.170   4.372  16.856  0.0911 -0.3325  0.2616
  396MPD2    H5 5977   2.245   4.431  16.891 -1.3583  0.5395  1.9260
  396MPD2    N1 5978   2.167   4.253  17.316 -0.2121 -0.2343 -0.9016
  396MPD2    H7 5979   2.151   4.180  17.385 -3.5001  0.2416 -1.1231
  397TMC3    C1 5980   2.374   4.274  17.409  0.0124  0.4568 -0.1087
  397TMC3    C2 5981   2.475   4.269  17.312 -0.1532  0.2922 -0.0234
  397TMC3    C3 5982   2.505   4.152  17.248 -0.5704 -0.4008  0.0019
  397TMC3    C4 5983   2.332   4.151  17.450 -0.4075  0.0502  0.2417
  397TMC3    C5 5984   2.363   4.032  17.389  0.7419  0.4280 -0.0946
  397TMC3    C6 5985   2.439   4.042  17.275 -0.0854  0.2380  0.7091
  397TMC3     C 5986   2.262   4.340  17.355 -0.7271 -0.6831 -0.4053
  397TMC3     O 5987   2.286   4.453  17.306  0.1454 -0.9104 -0.1517
  397TMC3     H 5988   2.500   4.356  17.252 -1.7438  0.9436  0.2559
  397TMC3    H1 5989   2.267   4.153  17.536 -0.3928 -1.2324  0.2805
  397TMC3    H2 5990   2.464   3.954  17.218 -1.8129  1.0455 -1.2734
  397TMC3    C7 5991   2.313   3.905  17.421 -0.9778 -0.1106 -0.1354
  397TMC3    C8 5992   2.533   4.158  17.108 -0.8068  0.0492 -0.2548
  397TMC3    O1 5993   2.301   3.825  17.334 -0.1597 -0.3028  0.7233
  397TMC3    O2 5994   2.476   4.077  17.034  0.0354 -0.2790 -0.5494
  398MPD2     C 5995   0.527   1.039   0.044 -0.3001 -0.3861 -0.5200
  398MPD2    C1 5996   0.612   0.944   0.103 -0.3861  0.0838  0.3359
  398MPD2    C2 5997   0.733   0.981   0.145 -0.1583 -0.4843  0.0545
  398MPD2    C3 5998   0.788   1.109   0.126  0.5486  0.5380 -0.0009
  398MPD2    C4 5999   0.710   1.200   0.063 -0.2667  0.0936  0.3284
  398MPD2    C5 6000   0.579   1.165   0.028  0.0934  0.5222 -0.2530
  398MPD2     H 6001   0.786   0.907   0.204 -0.9961  1.7792  3.7229
  398MPD2    H1 6002   0.749   1.300   0.045 -0.5447  0.5210  2.0404
  398MPD2    H2 6003   0.422   1.028   0.024 -0.4383  2.6796 -1.3843
  398MPD2    H3 6004   0.516   1.245  17.735 -1.2050  1.1976  3.2319
  398MPD2     N 6005   0.921   1.121   0.184 -0.0290  0.7152  0.1965
  398MPD2    H5 6006   0.969   1.033   0.200  0.8063  1.0871 -0.2640
  398MPD2    N1 6007   0.573   0.816   0.140  0.5293  0.3905 -0.5018
  398MPD2    H7 6008   0.647   0.764   0.185 -1.5807 -0.5143  1.9161
  399TMC3    C1 6009   0.415   0.657   0.209  0.0920 -0.3743  0.1300
  399TMC3    C2 6010   0.409   0.717   0.326  0.9221 -0.0940 -0.1585
  399TMC3    C3 6011   0.343   0.648   0.422 -0.7294  0.2814 -0.1756
  399TMC3    C4 6012   0.360   0.534   0.184  0.6362  0.1173  0.8394
  399TMC3    C5 6013   0.295   0.471   0.281  0.2246 -0.0354  0.3078
  399TMC3    C6 6014   0.283   0.530   0.399  0.1603  0.0370  0.5225
  399TMC3     C 6015   0.461   0.745   0.100  1.1052 -0.3705  0.7652
  399TMC3     O 6016   0.383   0.768   0.009 -0.2962  0.4370  0.0731
  399TMC3     H 6017   0.443   0.818   0.343  0.3586 -0.2556  1.8723
  399TMC3    H1 6018   0.396   0.501   0.087  1.9363  1.5254  0.8284
  399TMC3    H2 6019   0.223   0.487   0.478 -2.9256  2.5358 -0.4507
  399TMC3    C7 6020   0.230   0.349   0.266  0.5042  0.2462  0.7366
  399TMC3    C8 6021   0.357   0.686   0.563 -0.1653  0.2290  0.1217
  399TMC3    O1 6022   0.202   0.296   0.370  0.3913 -0.2524  0.4792
  399TMC3    O2 6023   0.365   0.589   0.636 -0.0043  0.1497 -0.1761
  400TMC3    C1 6024   3.812   3.744  16.579  0.7429 -0.3935 -0.2512
  400TMC3    C2 6025   3.765   3.620  16.609  0.1545 -0.5109 -0.4965
  400TMC3    C3 6026   3.650   3.579  16.544  0.2486 -0.5974  0.5884
  400TMC3    C4 6027   3.743   3.836  16.514  0.2967 -0.1469  0.0273
  400TMC3    C5 6028   3.627   3.798  16.453  0.6313 -0.3730  0.0383
  400TMC3    C6 6029   3.572   3.670  16.473 -0.6053 -0.2130  0.3275
  400TMC3     C 6030   3.934   3.775  16.655 -1.1138 -0.0933  0.2764
  400TMC3     O 6031   3.957   3.711  16.753 -0.2919  0.0552  0.2122
  400TMC3     H 6032   3.832   3.553  16.661  0.8782  0.6033 -0.0099
  400TMC3    H1 6033   3.786   3.936  16.513  0.7352 -0.3429 -0.5671
  400TMC3    H2 6034   3.495   3.638  16.404  0.7676 -0.4791 -1.1027
  400TMC3    C7 6035   3.530   3.898  16.432 -0.1618 -0.6271 -0.3078
  400TMC3    C8 6036   3.596   3.448  16.586 -0.0272 -0.4527 -0.2331
  400TMC3    O1 6037   3.452   3.878  16.341 -0.2512  0.1986 -0.3181
  400TMC3    O2 6038   3.653   3.395  16.677  0.6203  0.0209 -0.0514
  401MPD2     C 6039   1.925   2.715   0.407  0.2919  0.5070 -0.5459
  401MPD2    C1 6040   1.973   2.633   0.508 -0.1431  0.4991 -0.0966
  401MPD2    C2 6041   1.900   2.533   0.561 -0.3714  0.1343  0.0782
  401MPD2    C3 6042   1.774   2.508   0.507  0.6014 -0.5051  0.9276
  401MPD2    C4 6043   1.728   2.582   0.403  0.4317 -0.8090 -0.8984
  401MPD2    C5 6044   1.798   2.687   0.358  0.4547  0.0360  0.0139
  401MPD2     H 6045   1.947   2.473   0.638  2.0939  0.8865 -0.8692
  401MPD2    H1 6046   1.631   2.566   0.358  1.1146 -1.9417 -1.9505
  401MPD2    H2 6047   1.992   2.791   0.368 -1.2070  1.0973 -1.9570
  401MPD2    H3 6048   1.755   2.748   0.279 -1.3431  1.0304  1.7767
  401MPD2     N 6049   1.715   2.386   0.552  0.3788 -1.2483  0.0086
  401MPD2    H5 6050   1.769   2.344   0.626 -0.1808 -0.6685  0.7373
  401MPD2    N1 6051   2.100   2.652   0.567 -0.2473 -0.2881 -0.0289
  401MPD2    H7 6052   2.126   2.595   0.647  2.1371  0.1969 -0.4415
  402TMC3    C1 6053   1.629   2.171   0.547  0.1108  0.6204  0.4334
  402TMC3    C2 6054   1.706   2.155   0.659  0.1566 -0.5891 -0.1323
  402TMC3    C3 6055   1.781   2.043   0.669  0.6146  0.5700  0.3090
  402TMC3    C4 6056   1.621   2.071   0.458 -0.1028 -0.1730  0.4233
  402TMC3    C5 6057   1.704   1.965   0.468  0.5107  0.4018  0.2327
  402TMC3    C6 6058   1.792   1.944   0.570  0.6989 -0.7516 -0.3956
  402TMC3     C 6059   1.626   2.308   0.491  0.3659  0.5268  0.4921
  402TMC3     O 6060   1.567   2.329   0.389  0.7350 -0.0849 -0.0110
  402TMC3     H 6061   1.706   2.234   0.733 -2.5345 -2.4259  1.7909
  402TMC3    H1 6062   1.553   2.072   0.374  1.1602 -1.5664 -0.6377
  402TMC3    H2 6063   1.843   1.848   0.571  0.5050 -0.8377  1.3339
  402TMC3    C7 6064   1.709   1.866   0.362  0.7188  0.8439 -0.1084
  402TMC3    C8 6065   1.888   2.038   0.769 -0.2042 -0.9227  0.4573
  402TMC3    O1 6066   1.598   1.834   0.320 -0.4008 -0.2514  0.0097
  402TMC3    O2 6067   1.974   1.950   0.758  0.1638 -0.3336  0.4174
  403MPD2     C 6068   4.638   0.129  13.522 -0.3616 -0.1984 -0.2438
  403MPD2    C1 6069   0.013   0.073  13.464  0.0726  0.0914  0.2920
  403MPD2    C2 6070   0.142   0.115  13.502  0.7324  0.2080  0.2977
  403MPD2    C3 6071   0.155   0.215  13.597 -0.5718 -0.6516  0.2356
  403MPD2    C4 6072   0.039   0.274  13.647  0.1785  0.3420 -0.5419
  403MPD2    C5 6073   4.651   0.230  13.615  0.0330 -0.8206  0.1877
  403MPD2     H 6074   0.228   0.054  13.476 -0.0929 -0.0519 -1.7841
  403MPD2    H1 6075   0.038   0.349  13.725 -1.6216 -0.1384 -0.0894
  403MPD2    H2 6076   4.536   0.093  13.511 -0.6891  0.7501 -0.3077
  403MPD2    H3 6077   4.567   0.263  13.674  0.7512  0.1995  0.6368
  403MPD2     N 6078   0.279   0.252  13.656  0.1603  0.8990 -0.0623
  403MPD2    H5 6079   0.279   0.299  13.746 -0.9346  1.0324 -0.1273
  403MPD2    N1 6080   0.007   4.699  13.375  0.2979 -0.1035 -0.3641
  403MPD2    H7 6081   0.089   4.645  13.350 -0.1368 -0.8613 -0.1748
  404TMC3    C1 6082   4.653   4.493  13.312  0.1167  0.3005  0.5655
  404TMC3    C2 6083   4.594   4.401  13.401  0.0874 -0.2199 -0.3250
  404TMC3    C3 6084   4.622   4.267  13.376  0.1253 -0.3461  0.2396
  404TMC3    C4 6085   4.729   4.452  13.208  0.9003  0.5880 -0.2973
  404TMC3    C5 6086   0.002   4.318  13.180  0.1197  0.4815 -0.3765
  404TMC3    C6 6087   4.693   4.221  13.268  0.0752  1.4866 -0.6160
  404TMC3     C 6088   4.630   4.634  13.342 -0.3109  0.5565  0.2369
  404TMC3     O 6089   4.512   4.660  13.364  0.4605 -0.4969  0.3074
  404TMC3     H 6090   4.545   4.447  13.487  2.5518  0.1844  0.8664
  404TMC3    H1 6091   0.043   4.527  13.148  2.0647  0.5466  0.6535
  404TMC3    H2 6092   4.711   4.114  13.263 -0.7082  1.3157  0.0033
  404TMC3    C7 6093   0.075   4.282  13.065  0.2459  0.5105  0.3044
  404TMC3    C8 6094   4.680   4.211  13.498 -0.3896  0.5140 -0.0613
  404TMC3    O1 6095   0.168   4.352  13.026  0.0160  0.0667  0.4590
  404TMC3    O2 6096   0.035   4.137  13.469 -0.8678 -0.3311 -0.0453
  405MPD2     C 6097   0.627   1.166  14.971  0.2221 -0.7718  0.5164
  405MPD2    C1 6098   0.594   1.076  14.874  0.3945 -0.0653 -0.2525
  405MPD2    C2 6099   0.457   1.052  14.861 -1.0524  0.4931  0.0774
  405MPD2    C3 6100   0.357   1.111  14.938 -0.0525 -0.0288  0.4140
  405MPD2    C4 6101   0.396   1.216  15.021  0.0413  0.4152 -0.8129
  405MPD2    C5 6102   0.533   1.246  15.028  0.6909  0.1356 -0.7263
  405MPD2     H 6103   0.428   0.972  14.793  0.4301  0.0149  0.0144
  405MPD2    H1 6104   0.327   1.277  15.078  0.4330 -0.4828  0.6003
  405MPD2    H2 6105   0.728   1.206  14.979 -0.4897  1.1683 -0.0939
  405MPD2    H3 6106   0.559   1.337  15.081  0.3364 -1.6990  2.5769
  405MPD2     N 6107   0.221   1.078  14.917  0.1910  0.2870 -0.1199
  405MPD2    H5 6108   0.193   0.998  14.861  0.5992 -0.9553  1.4264
  405MPD2    N1 6109   0.689   1.007  14.801 -0.3323  0.4880 -0.9933
  405MPD2    H7 6110   0.773   0.992  14.856 -0.4356 -2.7340 -1.6790
  406TMC3    C1 6111   4.507   1.142  14.844 -0.4820  0.0789 -0.0023
  406TMC3    C2 6112   4.503   1.019  14.784  0.5682 -0.8410 -0.1434
  406TMC3    C3 6113   4.601   0.930  14.792 -0.2493 -0.2682  0.1157
  406TMC3    C4 6114   4.619   1.169  14.915  0.5148 -0.2346 -0.3836
  406TMC3    C5 6115   4.715   1.084  14.931 -0.3853 -0.2390 -0.0918
  406TMC3    C6 6116   4.709   0.958  14.877 -0.0324  0.2339  0.6426
  406TMC3     C 6117   4.464   1.254  14.761 -0.4367 -0.3606  0.2341
  406TMC3     O 6118   4.464   1.369  14.806 -0.1180  0.2542 -0.1768
  406TMC3     H 6119   4.413   0.986  14.733 -0.5594 -0.3259  1.5250
  406TMC3    H1 6120   4.621   1.272  14.949  1.4616 -0.5681  0.5683
  406TMC3    H2 6121   0.051   0.884  14.883 -0.5337 -0.4140 -0.6925
  406TMC3    C7 6122   0.109   1.140  14.973  0.0590  0.1519  0.0746
  406TMC3    C8 6123   4.640   0.885  14.663 -0.2925  0.3340 -0.4107
  406TMC3    O1 6124   0.104   1.238  15.053 -0.2099 -0.5657  0.2975
  406TMC3    O2 6125   4.586   0.952  14.576 -0.2207 -0.0982  0.2501
  407MPD2     C 6126   3.659   2.318   9.168  0.1239  0.7508  0.5847
  407MPD2    C1 6127   3.646   2.457   9.152  0.0971  0.7102 -0.1569
  407MPD2    C2 6128   3.592   2.525   9.252  0.1302  0.0128 -0.4811
  407MPD2    C3 6129   3.530   2.466   9.362  0.2643  0.0842  0.1326
  407MPD2    C4 6130   3.550   2.330   9.380 -1.0006  0.6190 -0.8792
  407MPD2    C5 6131   3.617   2.260   9.286 -0.2971  0.1195  0.3656
  407MPD2     H 6132   3.591   2.633   9.247 -0.3831  0.1676  2.7590
  407MPD2    H1 6133   3.520   2.272   9.467  0.7036 -2.9699 -2.6967
  407MPD2    H2 6134   3.708   2.250   9.100 -0.0433 -1.0476  2.2712
  407MPD2    H3 6135   3.633   2.154   9.300  1.1118  0.4971  1.5720
  407MPD2     N 6136   3.466   2.535   9.468  0.2393  0.5599  0.4945
  407MPD2    H5 6137   3.433   2.475   9.543  2.2838 -1.3571 -0.1156
  407MPD2    N1 6138   3.699   2.528   9.042 -0.6038  0.7415  0.4271
  407MPD2    H7 6139   3.695   2.629   9.053 -1.6658  0.7248  0.1971
  408TMC3    C1 6140   3.818   2.562   8.835 -0.0266  0.8572  0.1241
  408TMC3    C2 6141   3.871   2.504   8.724 -0.7519  0.3762  0.1276
  408TMC3    C3 6142   3.984   2.561   8.674 -0.2534 -0.2277 -0.0869
  408TMC3    C4 6143   3.857   2.682   8.888 -0.7289 -0.2922  0.5490
  408TMC3    C5 6144   3.970   2.739   8.829 -0.4743 -0.2486 -0.4052
  408TMC3    C6 6145   4.035   2.679   8.726 -0.0800 -0.0402  0.0929
  408TMC3     C 6146   3.739   2.475   8.919  0.1422 -0.1683  0.2661
  408TMC3     O 6147   3.712   2.361   8.880  0.3373  0.5236 -0.1440
  408TMC3     H 6148   3.837   2.405   8.698 -0.9674  0.0774  1.5557
  408TMC3    H1 6149   3.816   2.721   8.980  0.2197  3.0596 -0.4676
  408TMC3    H2 6150   4.117   2.727   8.674  0.0538  2.0016  2.2150
  408TMC3    C7 6151   4.053   2.834   8.904  0.0535  0.1194 -0.1427
  408TMC3    C8 6152   4.092   2.462   8.644  0.8254 -0.0868 -0.4951
  408TMC3    O1 6153   4.172   2.804   8.887  0.2098 -0.0150  0.2339
  408TMC3    O2 6154   4.061   2.360   8.583 -0.4457 -0.6885 -0.0123
  409MPD2     C 6155   2.570   3.295  16.867 -0.0024  0.7256 -0.2311
  409MPD2    C1 6156   2.694   3.345  16.904 -0.0030  0.4455  0.8522
  409MPD2    C2 6157   2.742   3.465  16.848  0.3734 -0.2335 -0.8259
  409MPD2    C3 6158   2.667   3.535  16.759 -0.2607  0.1203  0.5026
  409MPD2    C4 6159   2.546   3.485  16.725  0.4963 -0.3167  0.1688
  409MPD2    C5 6160   2.495   3.369  16.786 -0.4435 -0.8588  0.4413
  409MPD2     H 6161   2.840   3.498  16.881 -0.5348 -0.4455  1.9958
  409MPD2    H1 6162   2.478   3.523  16.650 -0.6836 -1.2156  0.7786
  409MPD2    H2 6163   2.517   3.211  16.911  0.5578  0.2353 -0.4901
  409MPD2    H3 6164   2.392   3.347  16.758 -1.1292 -0.4724  2.5826
  409MPD2     N 6165   2.708   3.663  16.709 -0.2466 -0.8732 -0.1791
  409MPD2    H5 6166   2.644   3.705  16.642 -0.2319  1.0765  1.0355
  409MPD2    N1 6167   2.777   3.293  17.008 -0.6206 -0.1758  0.3177
  409MPD2    H7 6168   2.863   3.345  17.020 -0.9631  0.8452 -1.6648
  410TMC3    C1 6169   2.799   3.878  16.705 -0.5801  0.1823 -0.1762
  410TMC3    C2 6170   2.851   3.967  16.793  0.4393  0.4285  0.3592
  410TMC3    C3 6171   2.912   4.073  16.736 -0.0376  0.3040  0.5392
  410TMC3    C4 6172   2.790   3.899  16.578 -0.2256  0.1981 -0.3847
  410TMC3    C5 6173   2.835   4.016  16.527  0.1098  0.4811 -0.0575
  410TMC3    C6 6174   2.897   4.111  16.603  0.2042 -0.1225  0.3854
  410TMC3     C 6175   2.810   3.744  16.747 -0.3206 -0.3834 -0.4479
  410TMC3     O 6176   2.901   3.718  16.828  0.2459 -0.4108 -0.1255
  410TMC3     H 6177   2.868   3.944  16.898 -1.0736 -3.6997 -0.2905
  410TMC3    H1 6178   2.751   3.818  16.517 -0.0075  0.2170 -0.5504
  410TMC3    H2 6179   2.967   4.183  16.563 -1.4115  1.1074 -0.2223
  410TMC3    C7 6180   2.895   3.996  16.392  0.0622  0.4197 -0.0221
  410TMC3    C8 6181   3.055   4.082  16.776 -0.1994 -0.0538  0.0605
  410TMC3    O1 6182   2.914   3.883  16.352 -0.2521  0.1539  0.2601
  410TMC3    O2 6183   3.112   4.193  16.777 -0.2630  0.4202  0.4089
  411MPD2     C 6184   2.876   3.735  14.240 -0.5691  0.4389 -0.1127
  411MPD2    C1 6185   2.840   3.771  14.371  0.2828  0.5208 -0.2354
  411MPD2    C2 6186   2.767   3.675  14.443  0.3934  0.2752  0.5057
  411MPD2    C3 6187   2.741   3.548  14.396 -0.0365 -0.2734 -0.5725
  411MPD2    C4 6188   2.791   3.512  14.272  0.0473  0.2256 -0.1249
  411MPD2    C5 6189   2.847   3.609  14.191 -0.4668 -0.8925 -0.6987
  411MPD2     H 6190   2.723   3.702  14.538 -1.1756  0.7080 -0.3503
  411MPD2    H1 6191   2.778   3.414  14.229  3.0306 -1.8770  3.7443
  411MPD2    H2 6192   2.924   3.809  14.176 -2.4385  1.4654 -0.3274
  411MPD2    H3 6193   2.880   3.586  14.091  3.1566  2.3241 -0.2896
  411MPD2     N 6194   2.669   3.450  14.465  0.1200 -0.0880 -0.3918
  411MPD2    H5 6195   2.641   3.368  14.412 -1.9893 -0.3402  1.0659
  411MPD2    N1 6196   2.857   3.905  14.414 -1.0454 -0.1580  0.0167
  411MPD2    H7 6197   2.901   3.969  14.348 -1.4151  1.5954  1.4861
  412TMC3    C1 6198   2.538   3.337  14.626 -0.1851 -0.1453  0.0961
  412TMC3    C2 6199   2.405   3.367  14.660  0.3850 -0.4141  0.2222
  412TMC3    C3 6200   2.309   3.272  14.657  0.2437  0.0595  0.6971
  412TMC3    C4 6201   2.561   3.212  14.568 -0.1975 -0.0205 -0.5369
  412TMC3    C5 6202   2.463   3.114  14.583 -0.3764 -0.6196 -0.2944
  412TMC3    C6 6203   2.340   3.142  14.635 -0.4457 -0.2113  0.6794
  412TMC3     C 6204   2.623   3.455  14.591  0.6894 -0.2026  0.2679
  412TMC3     O 6205   2.664   3.517  14.687 -0.5243  0.0633 -0.5551
  412TMC3     H 6206   2.377   3.470  14.679  1.1989 -0.1142 -0.1790
  412TMC3    H1 6207   2.657   3.190  14.523  1.2185  0.7703  2.0569
  412TMC3    H2 6208   2.260   3.069  14.650 -2.1671  1.7750  1.1419
  412TMC3    C7 6209   2.449   3.037  14.456  0.6006  0.5699 -0.1563
  412TMC3    C8 6210   2.185   3.297  14.593  0.3882 -0.1792  0.5889
  412TMC3    O1 6211   2.551   2.973  14.432  0.2000 -0.3574 -0.3553
  412TMC3    O2 6212   2.148   3.209  14.512  0.2845 -0.2530 -0.0808
  413MPD2     C 6213   0.027   2.471  15.248  0.2703  0.7297  0.0917
  413MPD2    C1 6214   4.668   2.392  15.187 -0.5697  0.4885  0.5734
  413MPD2    C2 6215   4.690   2.258  15.191 -0.0286 -0.4660  0.1415
  413MPD2    C3 6216   0.070   2.201  15.245  0.3589  0.2275  0.7796
  413MPD2    C4 6217   0.165   2.280  15.302  0.1838  0.4636  0.3555
  413MPD2    C5 6218   0.137   2.413  15.311  0.2476  0.2361  0.2346
  413MPD2     H 6219   4.632   2.188  15.132 -1.6360  1.7862 -0.9641
  413MPD2    H1 6220   0.247   2.233  15.353  0.8655  0.6472 -0.5762
  413MPD2    H2 6221   4.734   2.573  15.268 -1.2967  0.1423  0.7394
  413MPD2    H3 6222   0.219   2.469  15.353  1.5715 -1.7770  0.3178
  413MPD2     N 6223   0.095   2.056  15.226 -0.2763  0.0507 -0.1913
  413MPD2    H5 6224   0.016   2.003  15.191 -1.2878  0.1888  1.9110
  413MPD2    N1 6225   4.557   2.445  15.127 -0.4414 -0.4637 -0.1128
  413MPD2    H7 6226   4.550   2.546  15.142 -3.1531 -0.7360  0.3780
  414TMC3    C1 6227   0.198   1.849  15.213  0.5172 -0.3676 -0.1692
  414TMC3    C2 6228   0.257   1.748  15.284  0.3537  0.2991  0.4042
  414TMC3    C3 6229   0.220   1.621  15.255  0.7432  0.0672  1.0607
  414TMC3    C4 6230   0.101   1.816  15.117 -0.2952  0.3347 -0.2625
  414TMC3    C5 6231   0.085   1.683  15.080 -0.3269 -0.2031 -0.2083
  414TMC3    C6 6232   0.139   1.585  15.152  0.4249  0.2371 -0.0010
  414TMC3     C 6233   0.210   1.985  15.258  0.0609  0.0608  0.2803
  414TMC3     O 6234   0.302   2.015  15.334 -0.5341 -0.4533 -0.0966
  414TMC3     H 6235   0.314   1.786  15.369 -0.2391 -1.4326  1.5933
  414TMC3    H1 6236   0.057   1.893  15.054 -0.2259  1.5891  1.2292
  414TMC3    H2 6237   0.134   1.479  15.129 -0.4591  0.4557 -0.8448
  414TMC3    C7 6238   4.720   1.662  14.976 -0.1769  0.0623 -0.3727
  414TMC3    C8 6239   0.257   1.501  15.328 -0.0009 -0.2927 -0.2087
  414TMC3    O1 6240   4.623   1.730  14.989  0.2310 -0.4188 -0.2577
  414TMC3    O2 6241   0.171   1.422  15.359 -0.1929 -0.0690 -0.1876
  415TMC3    C1 6242   0.417   4.505   9.966  0.4715  0.0326  0.2545
  415TMC3    C2 6243   0.546   4.539   9.918  0.2139 -0.6142 -0.5226
  415TMC3    C3 6244   0.594   4.466   9.806 -0.8615 -0.2063 -1.1061
  415TMC3    C4 6245   0.356   4.395   9.918 -0.1492 -0.6321  0.2414
  415TMC3    C5 6246   0.416   4.320   9.826 -0.3016  1.2424  0.1755
  415TMC3    C6 6247   0.536   4.352   9.769 -0.3270 -0.0482 -0.0318
  415TMC3     C 6248   0.371   4.559  10.086  0.2378  0.0723 -0.6761
  415TMC3     O 6249   0.429   4.649  10.138 -0.3410  0.0542 -0.0633
  415TMC3     H 6250   0.586   4.638   9.940  0.6014 -0.7584 -0.5888
  415TMC3    H1 6251   0.261   4.351   9.948  1.3305 -2.4164  2.3201
  415TMC3    H2 6252   0.584   4.274   9.711  0.8141 -1.3419  2.6445
  415TMC3    C7 6253   0.381   4.177   9.853  0.3680 -0.2105 -0.8051
  415TMC3    C8 6254   0.734   4.472   9.768  0.4512 -0.3517  0.3658
  415TMC3    O1 6255   0.290   4.125   9.793  0.0671  0.0117 -0.5140
  415TMC3    O2 6256   0.795   4.373   9.736 -0.4132 -0.1265 -0.3086
  416MPD2     C 6257   2.293   2.746  11.229  0.0260 -0.2062  0.5465
  416MPD2    C1 6258   2.229   2.796  11.118 -0.1721 -0.7896  0.8277
  416MPD2    C2 6259   2.252   2.734  10.994 -0.5041  0.0924 -0.7484
  416MPD2    C3 6260   2.337   2.631  10.978  0.4870 -0.4678  0.2803
  416MPD2    C4 6261   2.410   2.592  11.092  0.5433 -0.5754  0.4587
  416MPD2    C5 6262   2.389   2.652  11.213  0.9632  0.3477  0.1014
  416MPD2     H 6263   2.199   2.766  10.906  0.8951 -0.2467 -1.7128
  416MPD2    H1 6264   2.467   2.500  11.097  1.1593 -0.4339 -3.4840
  416MPD2    H2 6265   2.283   2.796  11.325  2.1990 -0.0013  0.6698
  416MPD2    H3 6266   2.445   2.622  11.301  1.5771  0.7279 -0.1593
  416MPD2     N 6267   2.355   2.552  10.858  0.7419 -0.1468  0.3164
  416MPD2    H5 6268   2.408   2.467  10.872 -0.7123 -0.9580  0.9173
  416MPD2    N1 6269   2.132   2.894  11.145  0.4364  0.1455 -0.1233
  416MPD2    H7 6270   2.129   2.929  11.240  1.7798 -2.3195  0.8107
  417TMC3    C1 6271   1.942   3.033  11.105  0.6051  0.8154 -0.6400
  417TMC3    C2 6272   1.935   3.081  11.240  0.0137 -1.1366 -0.1471
  417TMC3    C3 6273   1.845   3.187  11.259  0.4159  0.2422  0.6754
  417TMC3    C4 6274   1.860   3.082  11.005 -0.1936  0.1280 -0.1979
  417TMC3    C5 6275   1.773   3.187  11.031 -0.1931  0.1209  0.0814
  417TMC3    C6 6276   1.765   3.235  11.160  0.3047  0.0551 -0.4253
  417TMC3     C 6277   2.036   2.929  11.058  0.2077 -0.0327  0.1746
  417TMC3     O 6278   2.006   2.878  10.949 -0.6779 -0.6328  0.0320
  417TMC3     H 6279   1.996   3.030  11.315  1.0777  1.7273  0.9345
  417TMC3    H1 6280   1.871   3.050  10.902 -0.3887  1.7705 -0.7339
  417TMC3    H2 6281   1.688   3.307  11.184 -0.4737 -1.2901  1.1269
  417TMC3    C7 6282   1.698   3.264  10.932  1.0782  0.9724  0.0927
  417TMC3    C8 6283   1.794   3.193  11.395 -0.4157  0.8844  0.1449
  417TMC3    O1 6284   1.663   3.374  10.955  0.1242 -0.0993  0.3689
  417TMC3    O2 6285   1.684   3.247  11.410  0.1409  0.9966 -0.3312
  418TMC3    C1 6286   1.298   1.064   0.148 -0.4128  0.2331 -0.3088
  418TMC3    C2 6287   1.223   1.179   0.137 -0.0776  0.5172  0.3089
  418TMC3    C3 6288   1.128   1.207   0.229  0.5168 -0.2072  0.1005
  418TMC3    C4 6289   1.282   0.974   0.248 -0.3172  0.2641 -0.4336
  418TMC3    C5 6290   1.187   1.003   0.338 -0.7579  0.2333 -0.1508
  418TMC3    C6 6291   1.116   1.118   0.339  0.0552 -0.9464 -0.2570
  418TMC3     C 6292   1.385   1.041   0.032  0.2753  0.9909  0.2242
  418TMC3     O 6293   1.412   1.144  17.716 -0.5285  0.2043 -0.3182
  418TMC3     H 6294   1.230   1.249   0.055 -0.1735  0.0306 -0.1170
  418TMC3    H1 6295   1.348   0.889   0.263 -1.5156 -0.4337  0.8824
  418TMC3    H2 6296   1.035   1.140   0.407  1.3433  1.0381  0.6174
  418TMC3    C7 6297   1.126   0.891   0.409  0.0895  0.1597  0.8963
  418TMC3    C8 6298   0.998   1.231   0.178 -0.0721  0.4851 -0.5923
  418TMC3    O1 6299   1.183   0.781   0.400 -0.1480  0.4837 -0.1428
  418TMC3    O2 6300   0.967   1.340   0.133  0.1331  0.1926  0.6169
  419MPD2     C 6301   3.020   3.126  12.228  0.6184  0.2564 -0.2120
  419MPD2    C1 6302   3.111   3.163  12.328  0.4774  0.3738  0.1862
  419MPD2    C2 6303   3.060   3.221  12.438 -0.0408 -0.2680 -0.1684
  419MPD2    C3 6304   2.932   3.265  12.446 -1.2594 -0.1290 -0.7468
  419MPD2    C4 6305   2.847   3.236  12.345 -0.5750 -0.3030  0.1003
  419MPD2    C5 6306   2.885   3.159  12.239  0.5560  0.6668  0.3898
  419MPD2     H 6307   3.126   3.243  12.521 -0.4366  1.9511 -0.4274
  419MPD2    H1 6308   2.747   3.277  12.343 -0.1189  0.8737  1.5196
  419MPD2    H2 6309   3.057   3.079  12.138  0.8107 -0.7587  0.3899
  419MPD2    H3 6310   2.816   3.137  12.159  1.1820  0.1487 -0.0100
  419MPD2     N 6311   2.888   3.335  12.556 -0.3782  0.2795  0.1558
  419MPD2    H5 6312   2.959   3.366  12.621 -0.4128  0.3665  0.1529
  419MPD2    N1 6313   3.246   3.128  12.317 -0.5907  0.2612  0.2529
  419MPD2    H7 6314   3.304   3.143  12.399 -2.0258  0.9944  1.1388
  420TMC3    C1 6315   2.779   3.479  12.695  0.1706 -0.3521  0.1056
  420TMC3    C2 6316   2.741   3.613  12.692  0.2722 -0.3900 -0.4136
  420TMC3    C3 6317   2.795   3.693  12.785 -0.1963  0.2668 -0.2940
  420TMC3    C4 6318   2.859   3.428  12.795 -0.1368 -0.1799  0.6432
  420TMC3    C5 6319   2.927   3.514  12.873  0.2103  0.3055 -0.3448
  420TMC3    C6 6320   2.901   3.648  12.867  0.2126 -0.2331 -0.4937
  420TMC3     C 6321   2.768   3.397  12.575 -0.1359 -0.3903 -0.4322
  420TMC3     O 6322   2.672   3.421  12.500  0.4998  0.0647  0.0696
  420TMC3     H 6323   2.687   3.646  12.604 -0.6736 -1.6582 -0.3053
  420TMC3    H1 6324   2.874   3.321  12.806 -0.6853 -0.2670  0.5355
  420TMC3    H2 6325   2.940   3.710  12.947  1.6831  0.8456 -2.0534
  420TMC3    C7 6326   3.026   3.461  12.965  0.2295 -0.6031  0.2330
  420TMC3    C8 6327   2.771   3.834  12.783  0.6200 -0.3634  0.5493
  420TMC3    O1 6328   3.003   3.354  13.015  0.1769  0.4253  0.6742
  420TMC3    O2 6329   2.821   3.902  12.870  0.1071 -0.3155 -0.5924
  421TMC3    C1 6330   0.506   0.262  13.690 -0.2103  0.0959  0.2281
  421TMC3    C2 6331   0.487   0.388  13.736 -0.4526  0.1001  0.0054
  421TMC3    C3 6332   0.601   0.455  13.776  0.4572 -0.2473  0.1889
  421TMC3    C4 6333   0.624   0.202  13.671  0.6100 -0.1403  1.0122
  421TMC3    C5 6334   0.736   0.269  13.712 -0.0847 -0.4524  0.2636
  421TMC3    C6 6335   0.728   0.400  13.764  0.5017  0.6521  0.5829
  421TMC3     C 6336   0.401   0.209  13.614  0.5673 -0.2972  0.7574
  421TMC3     O 6337   0.435   0.142  13.519 -0.0910  0.4016  0.8850
  421TMC3     H 6338   0.388   0.429  13.749 -1.3372 -1.9010 -0.4448
  421TMC3    H1 6339   0.622   0.106  13.621  1.7365  0.4306 -0.1460
  421TMC3    H2 6340   0.817   0.449  13.801  1.9995 -1.5400 -0.1542
  421TMC3    C7 6341   0.849   0.194  13.757 -0.0068 -0.7486  0.4992
  421TMC3    C8 6342   0.584   0.576  13.856 -0.4218 -0.2288  0.3344
  421TMC3    O1 6343   0.955   0.255  13.756 -0.8312  0.0768  0.2194
  421TMC3    O2 6344   0.675   0.599  13.933 -0.2970 -0.6848 -0.0760
  422TMC3    C1 6345   2.391   1.737  12.482 -0.5449 -0.1615  0.2844
  422TMC3    C2 6346   2.291   1.823  12.495 -0.4558 -0.0883  0.3114
  422TMC3    C3 6347   2.166   1.776  12.531 -0.4186  0.1403  0.5147
  422TMC3    C4 6348   2.374   1.608  12.511 -0.2497 -0.0064  0.7049
  422TMC3    C5 6349   2.250   1.558  12.538  0.4040 -0.3527 -0.4858
  422TMC3    C6 6350   2.138   1.641  12.546  0.4929 -0.0086 -0.8541
  422TMC3     C 6351   2.527   1.781  12.450 -0.6974 -0.5866 -0.5077
  422TMC3     O 6352   2.617   1.729  12.516 -0.6803 -0.5444  0.4789
  422TMC3     H 6353   2.301   1.929  12.476 -1.8405 -0.6575 -3.5756
  422TMC3    H1 6354   2.462   1.544  12.514  0.8953  1.5577  0.1260
  422TMC3    H2 6355   2.041   1.593  12.559  1.2590 -1.4208 -0.3548
  422TMC3    C7 6356   2.251   1.415  12.568 -0.2242  0.6880  0.1546
  422TMC3    C8 6357   2.089   1.864  12.617 -0.1391 -0.3923 -0.1627
  422TMC3    O1 6358   2.363   1.366  12.564 -0.9538  0.2230  0.3024
  422TMC3    O2 6359   1.977   1.840  12.645  0.5838  0.0487  0.1892
  423MPD2     C 6360   3.889   3.036   0.631 -0.2640  0.1758 -0.6119
  423MPD2    C1 6361   4.017   2.992   0.654  0.1839  0.5381 -0.6792
  423MPD2    C2 6362   4.076   2.919   0.554 -0.0711 -0.3740 -0.3677
  423MPD2    C3 6363   4.021   2.896   0.428 -0.1848 -0.1527  0.2340
  423MPD2    C4 6364   3.891   2.939   0.403 -0.1469 -0.0252 -0.2431
  423MPD2    C5 6365   3.826   3.011   0.504  0.6513  0.1219 -0.3173
  423MPD2     H 6366   4.167   2.874   0.591 -0.4220  0.1890  1.2086
  423MPD2    H1 6367   3.842   2.931   0.307  1.0954 -1.6050 -0.7374
  423MPD2    H2 6368   3.830   3.086   0.708  0.9953  0.9391 -0.1462
  423MPD2    H3 6369   3.729   3.055   0.481  1.3818  2.2422  0.6943
  423MPD2     N 6370   4.103   2.831   0.330  0.3187 -0.0638  0.0672
  423MPD2    H5 6371   4.190   2.787   0.360  0.1859 -0.4045 -0.0447
  423MPD2    N1 6372   4.098   3.031   0.768  0.4172 -0.3427 -0.0283
  423MPD2    H7 6373   4.194   2.999   0.771 -0.1821 -2.0528  0.8332
  424TMC3    C1 6374   4.156   3.145   0.969  0.2156  1.3235  1.0853
  424TMC3    C2 6375   4.268   3.064   0.983  0.2457  0.0395 -0.2177
  424TMC3    C3 6376   4.342   3.091   1.094  0.8275  0.5697  0.4548
  424TMC3    C4 6377   4.124   3.249   1.056  0.6196  0.9869  0.3013
  424TMC3    C5 6378   4.210   3.275   1.163  0.1215  0.7130  0.4107
  424TMC3    C6 6379   4.321   3.192   1.184  0.7383  0.0869  0.1913
  424TMC3     C 6380   4.056   3.111   0.875  0.8905  0.8605 -0.6052
  424TMC3     O 6381   3.945   3.159   0.884  0.4954  0.2702  0.0258
  424TMC3     H 6382   4.292   2.970   0.935 -0.7042  0.7503 -2.0683
  424TMC3    H1 6383   4.033   3.306   1.044 -0.1401 -0.0858  0.9773
  424TMC3    H2 6384   4.373   3.200   1.279 -0.3340  1.1308  0.6841
  424TMC3    C7 6385   4.191   3.386   1.254  0.3438 -0.4461 -0.0056
  424TMC3    C8 6386   4.461   3.005   1.115 -0.3161 -0.5459 -0.6318
  424TMC3    O1 6387   4.287   3.412   1.321 -0.3395 -0.3600 -0.2624
  424TMC3    O2 6388   4.489   2.927   1.031  0.1973 -0.4137  0.2501
  425MPD2     C 6389   3.598   1.993  17.272 -0.5261  0.1847 -0.8944
  425MPD2    C1 6390   3.506   1.950  17.177  0.4968  0.0583  0.3437
  425MPD2    C2 6391   3.392   2.028  17.159 -0.3012  0.3492  0.3445
  425MPD2    C3 6392   3.373   2.136  17.245  0.3557 -1.1078 -0.3148
  425MPD2    C4 6393   3.467   2.173  17.336 -0.2773  0.2643 -0.5451
  425MPD2    C5 6394   3.575   2.094  17.358 -0.4846 -0.5676 -0.6082
  425MPD2     H 6395   3.314   1.985  17.098 -2.1034  0.3749  2.6039
  425MPD2    H1 6396   3.465   2.263  17.396 -0.6899 -0.1435  0.0479
  425MPD2    H2 6397   3.683   1.932  17.300 -0.4352  1.1352  0.9260
  425MPD2    H3 6398   3.648   2.117  17.434 -2.1561  0.2768  0.7425
  425MPD2     N 6399   3.253   2.205  17.221 -0.3740  0.2067  0.0755
  425MPD2    H5 6400   3.189   2.161  17.155  0.6261 -0.6864 -0.3075
  425MPD2    N1 6401   3.531   1.829  17.106  0.3191  0.3046  0.6346
  425MPD2    H7 6402   3.619   1.783  17.128 -0.2245 -0.8344  0.4594
  426TMC3    C1 6403   3.524   1.641  16.977 -0.2729 -0.0925 -0.4891
  426TMC3    C2 6404   3.520   1.604  16.844 -0.3608 -0.0982 -0.1612
  426TMC3    C3 6405   3.616   1.513  16.807 -0.3300  0.5283 -0.2017
  426TMC3    C4 6406   3.583   1.560  17.072  0.6074  0.3502 -0.5391
  426TMC3    C5 6407   3.669   1.466  17.024  0.0252 -0.0909 -0.2758
  426TMC3    C6 6408   3.694   1.438  16.892 -0.2345  0.0111  0.3383
  426TMC3     C 6409   3.456   1.765  17.012 -0.1344 -1.1426  0.0490
  426TMC3     O 6410   3.354   1.805  16.950 -0.3163 -0.6058 -0.2405
  426TMC3     H 6411   3.462   1.656  16.769 -0.4379  0.7875  0.5085
  426TMC3    H1 6412   3.574   1.578  17.178  2.7027 -1.5932 -0.0419
  426TMC3    H2 6413   3.771   1.366  16.866 -0.7826 -0.7240  0.7529
  426TMC3    C7 6414   3.697   1.348  17.092  0.5567  0.0584  0.0308
  426TMC3    C8 6415   3.611   1.461  16.674  0.3077 -0.6936  0.3686
  426TMC3    O1 6416   3.803   1.283  17.085 -0.0999 -0.2088  0.4425
  426TMC3    O2 6417   3.649   1.350  16.676 -0.5682  0.5900  0.6532
  427MPD2     C 6418   2.037   3.892  14.721  0.0185 -0.0482 -0.3598
  427MPD2    C1 6419   1.996   3.890  14.855 -0.5209 -0.3645 -0.3188
  427MPD2    C2 6420   1.861   3.912  14.878 -0.2770 -0.4645  0.1007
  427MPD2    C3 6421   1.777   3.951  14.782 -0.3187 -0.1581 -0.3050
  427MPD2    C4 6422   1.814   3.951  14.651  0.1052  0.7953  0.0132
  427MPD2    C5 6423   1.944   3.924  14.626  0.2135 -0.9476  0.4871
  427MPD2     H 6424   1.827   3.879  14.976 -1.1000 -0.1363 -0.0733
  427MPD2    H1 6425   1.747   3.992  14.576 -0.7266  1.3462  1.0411
  427MPD2    H2 6426   2.138   3.877  14.685  0.4935 -0.5144  1.1851
  427MPD2    H3 6427   1.977   3.931  14.523 -1.8173 -0.1591 -0.1062
  427MPD2     N 6428   1.638   3.984  14.810  0.1979 -0.0523  1.0811
  427MPD2    H5 6429   1.571   3.987  14.734  0.3860 -1.9141  0.8453
  427MPD2    N1 6430   2.077   3.853  14.965  0.5956  0.1707  0.3217
  427MPD2    H7 6431   2.045   3.841  15.060 -2.3669  1.4928 -0.5198
  428TMC3    C1 6432   2.277   3.816  15.084  0.2659  0.6709 -0.2343
  428TMC3    C2 6433   2.204   3.762  15.188  0.2099 -0.2001  0.3667
  428TMC3    C3 6434   2.271   3.720  15.300 -0.5271  0.0690 -0.3241
  428TMC3    C4 6435   2.412   3.828  15.096  0.2965 -0.7222  0.9207
  428TMC3    C5 6436   2.477   3.793  15.214 -0.1010 -0.6621  0.5984
  428TMC3    C6 6437   2.405   3.736  15.316 -0.0199 -0.6358  0.4889
  428TMC3     C 6438   2.219   3.842  14.955 -0.0908  0.7973 -0.0379
  428TMC3     O 6439   2.290   3.868  14.860  0.1443  0.3640 -0.4444
  428TMC3     H 6440   2.097   3.745  15.176 -0.3789  3.2701  0.5618
  428TMC3    H1 6441   2.471   3.876  15.019 -0.7542 -0.1767  0.4518
  428TMC3    H2 6442   2.459   3.700  15.403  0.2339 -1.0227  0.1737
  428TMC3    C7 6443   2.600   3.854  15.244 -0.0433  0.1452  0.4744
  428TMC3    C8 6444   2.192   3.649  15.400  0.2349  0.1774  0.5729
  428TMC3    O1 6445   2.604   3.896  15.364 -0.2995  0.5168  0.0311
  428TMC3    O2 6446   2.093   3.595  15.350  0.2491  0.4406  0.1578
  429MPD2     C 6447   3.413   4.445  17.690 -0.9684 -0.1881 -0.0709
  429MPD2    C1 6448   3.477   4.360  17.602  0.3218  0.4157  0.9439
  429MPD2    C2 6449   3.500   4.404  17.472  0.7050 -0.4394 -0.5488
  429MPD2    C3 6450   3.447   4.522  17.431  0.1651  0.1646  0.2019
  429MPD2    C4 6451   3.377   4.602  17.515  0.9480 -0.5853  0.0536
  429MPD2    C5 6452   3.369   4.570  17.644  0.4687 -0.8087  0.0162
  429MPD2     H 6453   3.545   4.341  17.396 -0.0654 -1.1485 -0.4109
  429MPD2    H1 6454   3.329   4.697  17.493 -0.2184 -0.8580  1.4618
  429MPD2    H2 6455   3.395   4.417   0.047 -2.3203 -0.9190 -0.5110
  429MPD2    H3 6456   3.323   4.641  17.712 -0.5197 -0.7206 -0.7356
  429MPD2     N 6457   3.474   4.562  17.299 -0.1244  0.0646 -0.3448
  429MPD2    H5 6458   3.540   4.504  17.248  1.4793  0.4813  1.2241
  429MPD2    N1 6459   3.532   4.234  17.641 -0.1637  0.8642 -0.0959
  429MPD2    H7 6460   3.598   4.190  17.578  0.7858  1.0492  0.7830
  430TMC3    C1 6461   3.470   4.672  17.101  0.3563 -0.3298  0.0004
  430TMC3    C2 6462   3.464   0.045  17.030  0.2371 -0.3485 -0.9501
  430TMC3    C3 6463   3.453   0.046  16.892 -0.0115  0.0926  0.7284
  430TMC3    C4 6464   3.478   4.550  17.038 -0.0587 -0.4700 -0.3435
  430TMC3    C5 6465   3.468   4.548  16.898  0.2389 -0.1644  0.1673
  430TMC3    C6 6466   3.453   4.663  16.827 -0.6774 -0.5807 -0.1672
  430TMC3     C 6467   3.436   4.681  17.238  0.0185  0.2508 -0.1628
  430TMC3     O 6468   3.346   0.023  17.269 -0.3056  0.3616  0.3926
  430TMC3     H 6469   3.440   0.139  17.080 -1.2405 -1.3616  0.2544
  430TMC3    H1 6470   3.482   4.454  17.088 -0.2238 -1.0409 -1.4248
  430TMC3    H2 6471   3.445   4.666  16.719  0.0121  0.7834 -0.1749
  430TMC3    C7 6472   3.473   4.419  16.834 -0.1568  0.0925  0.7443
  430TMC3    C8 6473   3.429   0.169  16.825 -1.0266 -0.2960  0.3185
  430TMC3    O1 6474   3.515   4.322  16.894  0.2043 -0.2235  0.3372
  430TMC3    O2 6475   3.392   0.262  16.895  0.5234 -0.2174  0.1736
  431MPD2     C 6476   3.943   3.276  12.869  0.6184 -0.5942  0.1917
  431MPD2    C1 6477   3.989   3.299  12.739 -0.0374  1.0222 -0.4222
  431MPD2    C2 6478   3.940   3.221  12.637  0.7155  0.4812  0.3698
  431MPD2    C3 6479   3.837   3.136  12.653  0.6180 -0.4132  0.1787
  431MPD2    C4 6480   3.785   3.113  12.777 -0.0686  0.3965  0.3375
  431MPD2    C5 6481   3.841   3.180  12.886 -0.0225  0.3939  0.0279
  431MPD2     H 6482   3.976   3.240  12.536 -3.5898 -1.0793 -1.4898
  431MPD2    H1 6483   3.701   3.045  12.783 -0.6231  1.0331 -0.1761
  431MPD2    H2 6484   3.974   3.330  12.957 -1.6985 -1.4220  1.5137
  431MPD2    H3 6485   3.819   3.149  12.987  0.9935 -0.5688 -0.0551
  431MPD2     N 6486   3.792   3.081  12.533  0.2527 -0.5407  0.4330
  431MPD2    H5 6487   3.852   3.087  12.452 -0.9995  0.3600 -0.4130
  431MPD2    N1 6488   4.082   3.397  12.701  0.3728  0.3462 -0.2702
  431MPD2    H7 6489   4.109   3.396  12.603  1.6922  3.0102  0.0805
  432TMC3    C1 6490   3.623   3.011  12.384 -0.1046  0.0651  0.3434
  432TMC3    C2 6491   3.713   2.998  12.284 -0.1102 -0.0597  0.1255
  432TMC3    C3 6492   3.665   2.995  12.158 -0.1532  0.0163  0.2841
  432TMC3    C4 6493   3.484   3.008  12.363 -0.3701 -0.7297 -0.4852
  432TMC3    C5 6494   3.442   3.029  12.238  0.2080  0.2106  0.1712
  432TMC3    C6 6495   3.529   3.017  12.129 -0.7026 -0.1665  0.3923
  432TMC3     C 6496   3.664   3.021  12.524  0.2466 -0.6808 -0.0733
  432TMC3     O 6497   3.576   3.000  12.610 -0.1394  0.1905 -0.4680
  432TMC3     H 6498   3.810   2.962  12.317 -0.4861 -0.4137  0.8592
  432TMC3    H1 6499   3.420   2.996  12.450 -0.5095 -0.3292 -0.5328
  432TMC3    H2 6500   3.502   3.031  12.025  1.5332 -0.2779 -0.2096
  432TMC3    C7 6501   3.307   3.076  12.205  0.6820 -0.0343 -0.4075
  432TMC3    C8 6502   3.759   2.994  12.046 -0.5993 -0.7816  0.0121
  432TMC3    O1 6503   3.268   3.071  12.086 -0.4667  0.2683 -0.0076
  432TMC3    O2 6504   3.707   2.998  11.934 -0.3187  0.4892  0.2803
  433MPD2     C 6505   3.017   2.578  10.244 -0.0382 -0.4514  0.0046
  433MPD2    C1 6506   3.003   2.472  10.336  0.0941 -0.2560  0.0388
  433MPD2    C2 6507   3.021   2.497  10.469 -0.4933 -0.6014 -0.7469
  433MPD2    C3 6508   3.051   2.624  10.513  0.8638 -0.0022  0.5134
  433MPD2    C4 6509   3.054   2.732  10.425 -0.4221 -0.1983  0.0972
  433MPD2    C5 6510   3.039   2.706  10.288  0.3230  0.0817 -0.5923
  433MPD2     H 6511   3.019   2.416  10.542 -0.7735  2.2680  2.4056
  433MPD2    H1 6512   3.076   2.835  10.451  0.8939 -0.0716 -1.5160
  433MPD2    H2 6513   3.001   2.561  10.138  0.7516 -0.1100 -0.1662
  433MPD2    H3 6514   3.036   2.788  10.217 -1.6977  0.6614  0.1548
  433MPD2     N 6515   3.063   2.640  10.654  0.6703 -0.2484 -1.3358
  433MPD2    H5 6516   3.066   2.556  10.711 -2.3588  0.2852 -0.3686
  433MPD2    N1 6517   2.990   2.346  10.284 -0.0767  0.0528  0.5353
  433MPD2    H7 6518   3.007   2.338  10.185  1.0037 -0.6487  0.7867
  434TMC3    C1 6519   3.048   2.122  10.319 -0.1478 -0.2906 -0.4127
  434TMC3    C2 6520   3.121   2.060  10.417 -0.3006 -0.3145  0.2427
  434TMC3    C3 6521   3.193   1.951  10.378  0.2409  0.7793  0.0835
  434TMC3    C4 6522   3.033   2.070  10.189  1.0587 -0.1815 -0.2551
  434TMC3    C5 6523   3.110   1.962  10.160 -0.8079  0.2556  0.8880
  434TMC3    C6 6524   3.185   1.899  10.251 -0.0258  0.7367  0.0070
  434TMC3     C 6525   2.963   2.229  10.359  0.1845  0.3118  0.2917
  434TMC3     O 6526   2.915   2.219  10.467 -0.3514 -0.1299 -0.8093
  434TMC3     H 6527   3.117   2.097  10.518 -1.9414  0.3011 -0.0549
  434TMC3    H1 6528   2.959   2.111  10.122  1.1258 -1.6227 -1.2242
  434TMC3    H2 6529   3.246   1.816  10.218  0.8295  1.5881 -0.5373
  434TMC3    C7 6530   3.099   1.907  10.025  0.3131 -0.1436  0.1151
  434TMC3    C8 6531   3.292   1.905  10.481 -0.1190  0.2078  0.2496
  434TMC3    O1 6532   3.072   1.994   9.945 -0.6251  0.1555 -0.1743
  434TMC3    O2 6533   3.327   1.992  10.557  0.6355  0.1353  0.2419
  435MPD2     C 6534   0.398   2.635  15.394  0.6122  0.1952 -0.1627
  435MPD2    C1 6535   0.364   2.651  15.529 -0.2522  0.1208 -0.3247
  435MPD2    C2 6536   0.442   2.585  15.625  0.3257  0.1070 -0.7051
  435MPD2    C3 6537   0.537   2.504  15.575  0.2112  0.3747  0.4068
  435MPD2    C4 6538   0.574   2.496  15.446  0.1448 -0.6042 -0.5282
  435MPD2    C5 6539   0.515   2.573  15.353 -0.2289  0.0887 -0.3828
  435MPD2     H 6540   0.415   2.579  15.730  0.1347 -0.7609 -0.8019
  435MPD2    H1 6541   0.659   2.433  15.421 -0.5069 -1.3809 -0.8070
  435MPD2    H2 6542   0.343   2.676  15.310  0.0207 -0.7467 -0.2363
  435MPD2    H3 6543   0.541   2.570  15.247  1.4156  1.5570 -0.0186
  435MPD2     N 6544   0.593   2.419  15.674  0.1165 -0.3366 -0.5430
  435MPD2    H5 6545   0.565   2.444  15.768 -1.9787  1.1497 -1.5671
  435MPD2    N1 6546   0.255   2.724  15.568 -0.2418  0.3288  0.1169
  435MPD2    H7 6547   0.226   2.720  15.665 -2.7225  3.0876 -0.5380
  436TMC3    C1 6548   4.716   2.950  15.758  0.4585 -0.4215  0.3826
  436TMC3    C2 6549   0.075   2.879  15.693 -0.7640 -0.2716 -0.4545
  436TMC3    C3 6550   0.062   2.854  15.560 -0.2857 -0.2131 -0.7056
  436TMC3    C4 6551   4.604   2.997  15.694 -0.1025 -0.5968  0.3015
  436TMC3    C5 6552   4.590   2.965  15.563 -0.0737  0.2918 -0.8084
  436TMC3    C6 6553   4.692   2.905  15.494 -0.6685 -0.0076 -0.4482
  436TMC3     C 6554   0.014   3.004  15.879 -0.4178  0.4071 -0.1944
  436TMC3     O 6555   0.129   2.999  15.918  0.1233  0.3682 -0.2799
  436TMC3     H 6556   0.170   2.863  15.744 -1.3786  0.9189  1.0742
  436TMC3    H1 6557   4.539   3.071  15.741  1.4992  0.6339  0.6080
  436TMC3    H2 6558   4.698   2.886  15.387  0.7462 -0.7195 -0.2472
  436TMC3    C7 6559   4.466   2.996  15.485  0.2059 -0.4661 -0.0014
  436TMC3    C8 6560   0.170   2.791  15.488 -0.2221 -1.1408 -0.1108
  436TMC3    O1 6561   4.458   2.982  15.362 -0.3708  0.3648  0.2608
  436TMC3    O2 6562   0.162   2.796  15.365  0.0059 -0.5286  0.5964
  437TMC3    C1 6563   3.284   0.033  13.011 -0.5410  0.1460  0.4248
  437TMC3    C2 6564   3.185   0.124  12.995 -0.1404 -0.2467  0.1556
  437TMC3    C3 6565   3.206   0.248  12.940 -0.1335 -0.5199 -0.2406
  437TMC3    C4 6566   3.409   0.058  12.965 -0.4909 -0.3459  0.8507
  437TMC3    C5 6567   3.430   0.173  12.895 -0.4572  0.1020  0.1874
  437TMC3    C6 6568   3.327   0.269  12.883  0.2842 -0.6328 -0.1139
  437TMC3     C 6569   3.254   4.649  13.071 -0.0026 -0.0153  0.2319
  437TMC3     O 6570   3.135   4.620  13.073 -0.4580  0.5553 -0.2901
  437TMC3     H 6571   3.090   0.118  13.047 -0.6937 -0.3219 -0.8590
  437TMC3    H1 6572   3.485   4.718  12.976 -0.7848 -0.7293  0.1881
  437TMC3    H2 6573   3.327   0.350  12.812  0.3865  0.9510  1.6962
  437TMC3    C7 6574   3.555   0.211  12.835 -0.0310  0.2544 -0.2878
  437TMC3    C8 6575   3.086   0.335  12.911 -0.1800 -0.2595 -0.1526
  437TMC3    O1 6576   3.561   0.328  12.794  0.0844 -0.2778 -0.1037
  437TMC3    O2 6577   2.979   0.272  12.898  0.3815  0.2623 -0.2291
  438MPD2     C 6578   1.243   0.878  16.684 -1.2999  0.1552 -0.0706
  438MPD2    C1 6579   1.295   0.761  16.723 -0.2792  0.7221  0.2501
  438MPD2    C2 6580   1.277   0.721  16.855  0.4432  0.2998  0.2011
  438MPD2    C3 6581   1.216   0.802  16.951 -1.0494 -0.7018  0.4419
  438MPD2    C4 6582   1.183   0.927  16.912  0.4077 -0.1207 -0.6986
  438MPD2    C5 6583   1.188   0.958  16.778  0.2611  0.2701  0.1197
  438MPD2     H 6584   1.328   0.630  16.885  0.3539  0.2147  0.0961
  438MPD2    H1 6585   1.145   0.999  16.983  1.3422  0.0442 -0.3645
  438MPD2    H2 6586   1.247   0.918  16.584 -3.1833 -1.9645 -0.9883
  438MPD2    H3 6587   1.145   1.055  16.757 -1.3971 -0.2799  0.9816
  438MPD2     N 6588   1.218   0.774  17.089 -0.4837  0.4376 -0.6032
  438MPD2    H5 6589   1.217   0.849  17.157 -0.6568 -1.2830  1.3007
  438MPD2    N1 6590   1.368   0.683  16.638 -0.9046  0.1092  0.4118
  438MPD2    H7 6591   1.409   0.599  16.678  0.8450  0.4619 -0.6180
  439TMC3    C1 6592   1.477   0.597  16.453  0.0521  0.0166  0.3558
  439TMC3    C2 6593   1.469   0.555  16.325 -0.1301 -0.1126  0.0821
  439TMC3    C3 6594   1.533   0.433  16.297  0.0633 -0.1569  0.2846
  439TMC3    C4 6595   1.564   0.548  16.541 -0.1320  0.0467 -0.4469
  439TMC3    C5 6596   1.629   0.435  16.500 -0.1991  0.1997 -0.4502
  439TMC3    C6 6597   1.610   0.366  16.384 -0.2326 -0.1982 -0.2059
  439TMC3     C 6598   1.391   0.704  16.502  0.0692 -0.4784 -0.4858
  439TMC3     O 6599   1.337   0.776  16.418  0.5864  0.4830 -0.0025
  439TMC3     H 6600   1.399   0.603  16.258 -0.2571  0.9283  0.9588
  439TMC3    H1 6601   1.582   0.595  16.638  1.2812 -1.1060 -0.1432
  439TMC3    H2 6602   1.658   0.272  16.356  0.1698 -0.1045  0.1639
  439TMC3    C7 6603   1.722   0.373  16.597 -0.6257 -0.2417  0.2374
  439TMC3    C8 6604   1.542   0.389  16.163 -0.4365  0.0275 -0.3302
  439TMC3    O1 6605   1.755   0.452  16.685  0.1663  0.0528  0.2456
  439TMC3    O2 6606   1.564   0.268  16.142  0.4814  0.5646 -0.0651
  440MPD2     C 6607   4.335   0.934  15.138  0.0184 -0.2732 -0.1061
  440MPD2    C1 6608   4.439   1.010  15.175 -0.0659 -0.1148 -0.2136
  440MPD2    C2 6609   4.565   0.956  15.197  0.0233 -0.4728 -0.2998
  440MPD2    C3 6610   4.585   0.823  15.171  0.6107  0.4687  0.0252
  440MPD2    C4 6611   4.492   0.748  15.107  0.3649  0.0183  0.1795
  440MPD2    C5 6612   4.369   0.807  15.095  0.4976  0.5265  0.2584
  440MPD2     H 6613   4.644   1.014  15.244 -2.4149  0.4602  2.6374
  440MPD2    H1 6614   4.504   0.641  15.097  0.5140  0.0150  0.3913
  440MPD2    H2 6615   4.232   0.963  15.122 -0.4464 -1.3098  1.0025
  440MPD2    H3 6616   4.288   0.745  15.060  1.0442 -2.3966  4.1740
  440MPD2     N 6617   4.713   0.761  15.188  0.1887 -0.6057  0.2266
  440MPD2    H5 6618   4.717   0.665  15.155  1.4289 -0.9741  1.4370
  440MPD2    N1 6619   4.421   1.149  15.195 -0.0064  0.4660 -0.5538
  440MPD2    H7 6620   4.492   1.200  15.246  1.2900  0.9953 -2.8932
  441TMC3    C1 6621   0.206   0.749  15.255 -0.3239 -0.5799  0.5937
  441TMC3    C2 6622   0.319   0.823  15.250 -0.2774 -0.0266  0.3204
  441TMC3    C3 6623   0.417   0.790  15.341  0.3533 -0.2582  0.1869
  441TMC3    C4 6624   0.199   0.634  15.332  0.5648 -0.1770 -0.1897
  441TMC3    C5 6625   0.293   0.612  15.427  0.3228  0.0432 -0.3862
  441TMC3    C6 6626   0.413   0.681  15.425  0.5670  0.2551  0.0711
  441TMC3     C 6627   0.091   0.824  15.228 -0.2533 -0.3508 -0.1714
  441TMC3     O 6628   0.112   0.947  15.233 -0.0244  0.3233 -0.0736
  441TMC3     H 6629   0.332   0.901  15.176  0.5306 -1.4093 -0.9989
  441TMC3    H1 6630   0.101   0.587  15.336  1.5512 -2.1678  0.3184
  441TMC3    H2 6631   0.494   0.663  15.495 -0.9039  0.5861  1.8551
  441TMC3    C7 6632   0.267   0.505  15.523  0.1984 -0.5329  0.3027
  441TMC3    C8 6633   0.506   0.902  15.384  0.1724 -0.7508  0.1264
  441TMC3    O1 6634   0.156   0.453  15.528 -0.4131  0.7123  0.0612
  441TMC3    O2 6635   0.593   0.872  15.470 -0.0707 -0.5813 -0.0289
  442MPD2     C 6636   2.939   1.550  16.119 -0.1523 -1.1805  0.2509
  442MPD2    C1 6637   2.902   1.465  16.222 -0.2643 -0.2492 -0.0898
  442MPD2    C2 6638   2.871   1.338  16.187  0.4852 -0.2600 -0.4734
  442MPD2    C3 6639   2.901   1.293  16.057 -0.0391  0.2319 -0.7242
  442MPD2    C4 6640   2.949   1.375  15.952 -0.1532 -0.8973  0.2283
  442MPD2    C5 6641   2.968   1.508  15.985  0.5954 -0.3747 -0.7160
  442MPD2     H 6642   2.835   1.270  16.263 -0.8006  1.1109  0.1411
  442MPD2    H1 6643   2.970   1.341  15.852 -0.0761  0.3266 -0.1784
  442MPD2    H2 6644   2.959   1.656  16.126 -2.9761 -0.7212  1.3664
  442MPD2    H3 6645   3.006   1.582  15.915 -0.0775  1.6968  1.1185
  442MPD2     N 6646   2.888   1.155  16.025  0.3171 -0.3277 -0.0301
  442MPD2    H5 6647   2.917   1.123  15.933  1.0771  2.7683 -0.8813
  442MPD2    N1 6648   2.893   1.514  16.356  0.4282 -0.2965  0.6931
  442MPD2    H7 6649   2.864   1.437  16.416 -2.2198 -0.9331 -1.4288
  443TMC3    C1 6650   2.878   1.667  16.539  0.0714  0.1053  0.2588
  443TMC3    C2 6651   2.933   1.778  16.596 -0.5277  0.2113 -0.1032
  443TMC3    C3 6652   2.849   1.829  16.691  0.1567  0.4359 -0.7567
  443TMC3    C4 6653   2.763   1.601  16.590  0.9489  0.1906 -1.0629
  443TMC3    C5 6654   2.685   1.671  16.682 -0.5159  0.0210  0.7053
  443TMC3    C6 6655   2.733   1.788  16.744  0.2111  0.9039  0.0518
  443TMC3     C 6656   2.930   1.640  16.406 -0.7136 -0.2452  0.6218
  443TMC3     O 6657   2.975   1.732  16.340 -0.0571  0.0244  0.3359
  443TMC3     H 6658   3.019   1.835  16.564 -0.5227  0.5358  0.4949
  443TMC3    H1 6659   2.721   1.520  16.530  0.9265 -0.3689 -0.2855
  443TMC3    H2 6660   2.684   1.836  16.828  1.9043 -2.0072  2.7241
  443TMC3    C7 6661   2.550   1.628  16.707  0.6729 -0.2270 -0.0930
  443TMC3    C8 6662   2.873   1.963  16.739 -0.1361  0.8537  0.5113
  443TMC3    O1 6663   2.504   1.526  16.663 -0.8125 -0.1976  0.1817
  443TMC3    O2 6664   2.906   1.973  16.855 -0.4891  0.1019 -0.3100
  444MPD2     C 6665   2.832   1.400  16.870  0.2158 -0.2723 -0.9150
  444MPD2    C1 6666   2.747   1.296  16.897  0.6053  0.3999  0.1031
  444MPD2    C2 6667   2.777   1.165  16.867 -1.0268 -0.1240  0.5364
  444MPD2    C3 6668   2.903   1.136  16.814  0.6657 -0.0662  0.3892
  444MPD2    C4 6669   2.994   1.238  16.800  0.0953 -0.8706 -0.2527
  444MPD2    C5 6670   2.952   1.370  16.807  0.8261  0.2851 -0.3386
  444MPD2     H 6671   2.697   1.094  16.885  0.1349 -1.5963 -0.0558
  444MPD2    H1 6672   3.088   1.225  16.749 -0.1798 -0.8517 -0.7602
  444MPD2    H2 6673   2.814   1.505  16.888  1.4376 -0.4253  1.2533
  444MPD2    H3 6674   3.021   1.450  16.781 -0.2716  1.8930  1.6728
  444MPD2     N 6675   2.930   0.995  16.795  0.5544 -0.2446  0.2511
  444MPD2    H5 6676   2.865   0.925  16.830 -0.5955  0.3466 -0.6804
  444MPD2    N1 6677   2.629   1.314  16.970  0.3115  0.0030  0.5076
  444MPD2    H7 6678   2.587   1.229  17.006  0.2435 -0.2911 -0.2529
  445TMC3    C1 6679   3.089   0.826  16.755 -0.2065 -1.0235  0.6413
  445TMC3    C2 6680   3.002   0.737  16.806 -0.0743 -0.3089  0.5751
  445TMC3    C3 6681   3.060   0.619  16.853 -0.3048 -0.4824  0.0780
  445TMC3    C4 6682   3.224   0.817  16.759  0.4730 -0.4085  0.2736
  445TMC3    C5 6683   3.280   0.708  16.813 -0.0593  0.1733  0.5089
  445TMC3    C6 6684   3.199   0.599  16.856 -0.0903  0.5460  0.0119
  445TMC3     C 6685   3.044   0.960  16.731  0.8280  0.3106  0.2477
  445TMC3     O 6686   3.112   1.031  16.658 -0.3656 -0.0218 -0.3167
  445TMC3     H 6687   2.895   0.744  16.788 -0.1532  2.0363  1.9913
  445TMC3    H1 6688   3.291   0.891  16.716  1.3132 -0.9222  0.6999
  445TMC3    H2 6689   3.251   0.511  16.892  0.3145  0.4665 -0.7690
  445TMC3    C7 6690   3.432   0.698  16.794  0.5526 -0.2053 -0.2965
  445TMC3    C8 6691   2.975   0.506  16.898 -0.0721  0.1944 -0.1136
  445TMC3    O1 6692   3.488   0.782  16.723  0.3111  0.0963 -0.2645
  445TMC3    O2 6693   2.854   0.517  16.881  0.1654  0.8158 -0.4401
  446MPD2     C 6694   2.969   1.715  10.941  0.0624  0.3647 -0.1975
  446MPD2    C1 6695   2.970   1.747  10.811  0.2049 -0.2175  0.2035
  446MPD2    C2 6696   3.045   1.856  10.768 -0.0957  0.0968  0.6071
  446MPD2    C3 6697   3.118   1.934  10.858  0.0379 -0.4751  0.3977
  446MPD2    C4 6698   3.122   1.897  10.992 -0.0154  0.2202 -0.5388
  446MPD2    C5 6699   3.047   1.792  11.030 -0.2604 -0.3644  0.3314
  446MPD2     H 6700   3.033   1.885  10.664  1.1016 -0.6841  0.2498
  446MPD2    H1 6701   3.173   1.959  11.065 -0.0928  1.1818 -1.2956
  446MPD2    H2 6702   2.913   1.637  10.991  1.8105 -0.8628 -0.1477
  446MPD2    H3 6703   3.053   1.751  11.130  0.4587 -0.6381  0.1730
  446MPD2     N 6704   3.200   2.043  10.805 -0.4342  0.3297  0.2863
  446MPD2    H5 6705   3.177   2.088  10.717 -1.2153 -0.2791  0.1740
  446MPD2    N1 6706   2.895   1.677  10.718  0.3949 -0.0332 -0.1187
  446MPD2    H7 6707   2.875   1.720  10.629  1.1096 -0.6703 -0.5825
  447TMC3    C1 6708   3.397   2.183  10.805 -0.7283  0.0834 -0.6696
  447TMC3    C2 6709   3.350   2.249  10.694 -0.1216 -0.2795  0.0098
  447TMC3    C3 6710   3.419   2.358  10.654  0.8418 -0.1417  0.0484
  447TMC3    C4 6711   3.512   2.223  10.872  0.2133 -0.7626  0.1677
  447TMC3    C5 6712   3.579   2.336  10.826  0.4072  0.6663 -0.2770
  447TMC3    C6 6713   3.533   2.406  10.719 -0.8498 -0.7531 -0.1391
  447TMC3     C 6714   3.315   2.078  10.868  0.6750 -1.1451 -0.6307
  447TMC3     O 6715   3.380   2.024  10.954  0.1624 -0.3575  0.2644
  447TMC3     H 6716   3.254   2.231  10.647  0.1814 -0.0156 -0.7095
  447TMC3    H1 6717   3.556   2.154  10.943 -0.9355 -1.3270  0.3369
  447TMC3    H2 6718   3.578   2.490  10.668  2.9339 -0.8164  3.1007
  447TMC3    C7 6719   3.720   2.334  10.852  0.2665  0.4790 -0.9213
  447TMC3    C8 6720   3.399   2.386  10.512 -0.4683 -0.0978 -0.0901
  447TMC3    O1 6721   3.768   2.231  10.905  0.1233  0.2621  0.7901
  447TMC3    O2 6722   3.427   2.500  10.476 -0.3415  0.0726  0.2113
  448TMC3    C1 6723   1.157   2.139  16.678  0.1183 -0.5994  0.0540
  448TMC3    C2 6724   1.061   2.039  16.675 -0.8576  0.7174 -0.4281
  448TMC3    C3 6725   1.044   1.958  16.780  0.7758  0.3073 -0.1223
  448TMC3    C4 6726   1.230   2.166  16.789  0.4837  0.0009  0.2526
  448TMC3    C5 6727   1.206   2.087  16.900 -0.3272 -0.6009 -0.3431
  448TMC3    C6 6728   1.105   1.990  16.900 -0.4748  0.0592 -0.1955
  448TMC3     C 6729   1.178   2.216  16.558  0.0899 -0.2226  0.0436
  448TMC3     O 6730   1.128   2.183  16.451 -0.2806  0.3581  0.1951
  448TMC3     H 6731   1.016   2.013  16.579  1.7848 -1.0479 -1.1785
  448TMC3    H1 6732   1.324   2.218  16.781 -0.0560  0.6440 -1.8850
  448TMC3    H2 6733   1.061   1.948  16.989  1.8458  0.5153  1.1829
  448TMC3    C7 6734   1.297   2.092  17.007  0.1145  0.0517 -0.2355
  448TMC3    C8 6735   1.029   1.820  16.765 -0.0986 -0.0797 -0.1610
  448TMC3    O1 6736   1.385   2.175  16.994  0.4443  0.5119 -0.4274
  448TMC3    O2 6737   1.068   1.745  16.854  0.2621 -0.2501 -0.2113
  449MPD2     C 6738   2.607   0.605  14.155  0.7710  0.1817 -0.1079
  449MPD2    C1 6739   2.503   0.527  14.121 -0.4982 -0.4440 -0.0940
  449MPD2    C2 6740   2.377   0.570  14.126  0.3956  0.1067 -0.0873
  449MPD2    C3 6741   2.346   0.696  14.170  0.0729  0.2220  0.0585
  449MPD2    C4 6742   2.445   0.765  14.227  0.5706  0.2176  0.5364
  449MPD2    C5 6743   2.571   0.720  14.224 -0.1159 -0.6632 -0.2407
  449MPD2     H 6744   2.303   0.501  14.087  0.1764 -0.2376  0.9254
  449MPD2    H1 6745   2.432   0.860  14.278  0.1309  0.2392  0.3846
  449MPD2    H2 6746   2.711   0.574  14.163  0.5449 -0.6330 -0.3094
  449MPD2    H3 6747   2.646   0.786  14.266 -0.9497  0.5742 -0.6697
  449MPD2     N 6748   2.220   0.746  14.147  0.1606  0.1737  0.0536
  449MPD2    H5 6749   2.156   0.685  14.098 -3.3554  4.5052 -0.7933
  449MPD2    N1 6750   2.518   0.395  14.068 -0.2101 -0.5232 -0.9647
  449MPD2    H7 6751   2.432   0.351  14.040 -0.3915 -0.1523 -0.9928
  450TMC3    C1 6752   2.607   0.217  13.955  0.0104 -0.0745 -0.4627
  450TMC3    C2 6753   2.642   0.252  13.826  0.2897  1.1134  0.4395
  450TMC3    C3 6754   2.562   0.218  13.721  0.0572  0.1433  0.2988
  450TMC3    C4 6755   2.482   0.163  13.977  0.7087  0.2397  0.4007
  450TMC3    C5 6756   2.401   0.126  13.879 -0.9717 -0.2714  0.0130
  450TMC3    C6 6757   2.444   0.152  13.746  0.4353  0.1787 -0.0605
  450TMC3     C 6758   2.635   0.328  14.045  0.3896  0.2252 -0.4254
  450TMC3     O 6759   2.754   0.361  14.055 -0.1469 -0.5798  0.8886
  450TMC3     H 6760   2.720   0.325  13.806 -0.4099  0.9173 -2.9162
  450TMC3    H1 6761   2.436   0.156  14.074  0.5556 -1.9948  0.1752
  450TMC3    H2 6762   2.383   0.120  13.663  2.4544  0.1248 -1.5084
  450TMC3    C7 6763   2.279   0.186  13.917  0.3852 -0.3576 -0.0535
  450TMC3    C8 6764   2.567   0.295  13.601 -0.2113 -0.5398 -0.0792
  450TMC3    O1 6765   2.288   0.279  13.996 -0.0450 -0.2806  0.5267
  450TMC3    O2 6766   2.460   0.306  13.544 -0.1993 -0.3168  0.8031
  451MPD2     C 6767   3.746   4.223   1.164 -1.0088  0.0015  0.3429
  451MPD2    C1 6768   3.877   4.256   1.140  0.0599  0.2747 -0.3201
  451MPD2    C2 6769   3.976   4.169   1.178 -0.0616 -0.2446 -0.2904
  451MPD2    C3 6770   3.952   4.045   1.226 -0.2812  0.0568 -0.0453
  451MPD2    C4 6771   3.819   4.008   1.248 -0.3980  0.6362 -0.3123
  451MPD2    C5 6772   3.720   4.098   1.222  0.9586 -0.5293 -0.4377
  451MPD2     H 6773   4.079   4.199   1.161  0.8260 -3.7197 -1.0306
  451MPD2    H1 6774   3.794   3.912   1.291 -1.3016  1.1270  0.2527
  451MPD2    H2 6775   3.661   4.287   1.141 -1.3732 -1.7061 -3.0931
  451MPD2    H3 6776   3.617   4.071   1.243  0.8306  1.3802  1.4733
  451MPD2     N 6777   4.053   3.956   1.256  0.2873 -0.0134  0.1302
  451MPD2    H5 6778   4.031   3.858   1.265 -1.1216  0.4868  2.3484
  451MPD2    N1 6779   3.907   4.377   1.077 -0.3608  0.3293  0.3240
  451MPD2    H7 6780   3.827   4.437   1.059 -0.1744  0.6013  0.3994
  452TMC3    C1 6781   4.278   3.887   1.262 -0.4799  0.3439  0.0394
  452TMC3    C2 6782   4.243   3.773   1.203  0.4442 -0.5986  0.4687
  452TMC3    C3 6783   4.330   3.724   1.105  0.7528 -0.0067  0.6318
  452TMC3    C4 6784   4.404   3.941   1.242  0.3364  0.5520  0.4443
  452TMC3    C5 6785   4.483   3.893   1.140  0.3940 -0.1026  0.3187
  452TMC3    C6 6786   4.451   3.783   1.071 -0.3333  0.2626  0.7375
  452TMC3     C 6787   4.179   3.992   1.286  0.6040 -0.1139  0.4514
  452TMC3     O 6788   4.225   4.102   1.324  0.0621  0.9154  0.1414
  452TMC3     H 6789   4.144   3.729   1.204 -0.2219  0.8356 -0.9078
  452TMC3    H1 6790   4.426   4.027   1.304 -2.2828  1.3522  0.2690
  452TMC3    H2 6791   4.514   3.760   0.986 -2.6825  0.6834 -1.1118
  452TMC3    C7 6792   4.563   3.992   1.068 -0.0750 -0.3874 -0.3338
  452TMC3    C8 6793   4.284   3.620   1.016  0.1890 -0.4260 -0.6887
  452TMC3    O1 6794   4.593   3.962   0.950 -0.1975  0.1682  0.3968
  452TMC3    O2 6795   4.164   3.609   0.991 -0.7266 -0.8377 -0.6138
  453TMC3    C1 6796   0.525   0.736  11.249 -0.2428  0.4134 -0.1442
  453TMC3    C2 6797   0.455   0.619  11.238 -0.1677  0.7105 -0.6209
  453TMC3    C3 6798   0.417   0.575  11.110 -0.5734 -0.4563  0.2860
  453TMC3    C4 6799   0.554   0.807  11.141  1.0857 -0.9433  0.3275
  453TMC3    C5 6800   0.518   0.769  11.018 -0.1569  0.3713  0.4015
  453TMC3    C6 6801   0.440   0.656  11.001  0.6184 -0.3335  0.5697
  453TMC3     C 6802   0.593   0.771  11.373  0.2946 -0.3492 -0.0471
  453TMC3     O 6803   0.687   0.848  11.366  0.5063 -1.0522  0.2322
  453TMC3     H 6804   0.438   0.552  11.321 -1.4111  2.1392  0.2988
  453TMC3    H1 6805   0.622   0.891  11.154 -0.3430  0.5481 -1.7958
  453TMC3    H2 6806   0.415   0.625  10.900 -1.3630  0.9547  0.6581
  453TMC3    C7 6807   0.569   0.835  10.903 -0.3176  0.1151 -0.2427
  453TMC3    C8 6808   0.329   0.462  11.095  0.0095 -0.0065 -0.7733
  453TMC3    O1 6809   0.497   0.868  10.813  0.0626 -0.5348 -0.4635
  453TMC3    O2 6810   0.280   0.445  10.983 -0.2640 -0.1422 -0.1392
  454MPD2     C 6811   4.067   0.667  15.748 -0.0825 -0.0850  0.3946
  454MPD2    C1 6812   3.948   0.686  15.678 -0.5219 -0.0494  0.4444
  454MPD2    C2 6813   3.887   0.810  15.675 -0.2782 -0.4838  0.2279
  454MPD2    C3 6814   3.930   0.914  15.756  0.0951  0.0002  0.9507
  454MPD2    C4 6815   4.055   0.897  15.814  0.3327 -0.3293 -0.3541
  454MPD2    C5 6816   4.124   0.778  15.808 -0.6332 -0.3947 -0.5232
  454MPD2     H 6817   3.782   0.808  15.647 -0.1712  0.4786 -0.2077
  454MPD2    H1 6818   4.093   0.980  15.872 -1.4139 -0.1687  0.5872
  454MPD2    H2 6819   4.129   0.579  15.732 -0.6916 -0.2095 -1.3295
  454MPD2    H3 6820   4.218   0.768  15.861 -2.1473 -0.0037  2.2423
  454MPD2     N 6821   3.855   1.029  15.796  0.5514 -0.1796 -0.2298
  454MPD2    H5 6822   3.889   1.079  15.878  2.2239  0.5265 -1.3406
  454MPD2    N1 6823   3.880   0.578  15.613 -0.6540  0.1564 -0.0021
  454MPD2    H7 6824   3.798   0.608  15.560  0.6265 -0.2840 -2.2282
  455TMC3    C1 6825   3.632   1.048  15.845  0.2805 -0.0375 -0.4231
  455TMC3    C2 6826   3.664   1.129  15.960  0.2522 -0.2552 -0.1561
  455TMC3    C3 6827   3.645   1.074  16.086 -0.5970 -0.0456  0.6081
  455TMC3    C4 6828   3.581   0.924  15.866 -0.6865 -0.4035  0.5289
  455TMC3    C5 6829   3.569   0.872  15.992  0.4094  0.1537  0.4270
  455TMC3    C6 6830   3.604   0.949  16.098 -0.1201 -0.4649 -0.8229
  455TMC3     C 6831   3.732   1.053  15.742  0.1303 -0.4299 -0.3340
  455TMC3     O 6832   3.692   1.012  15.632  0.2701 -0.5770  0.1257
  455TMC3     H 6833   3.733   1.210  15.938  1.1797 -1.8799 -3.2351
  455TMC3    H1 6834   3.576   0.859  15.779 -1.3176 -0.7413  0.8147
  455TMC3    H2 6835   3.591   0.902  16.195 -1.7340 -0.6920 -1.1308
  455TMC3    C7 6836   3.585   0.729  16.015  0.0124  0.1856  0.1854
  455TMC3    C8 6837   3.620   1.165  16.195  0.3621  0.3616  0.7303
  455TMC3    O1 6838   3.675   0.697  16.093  0.2690 -0.5546  0.5125
  455TMC3    O2 6839   3.621   1.117  16.307 -0.3904 -0.0346  0.1491
  456MPD2     C 6840   1.854   0.962  16.062  0.7274  0.5436 -0.2386
  456MPD2    C1 6841   1.824   0.849  16.134  0.2419  0.3636 -0.6570
  456MPD2    C2 6842   1.756   0.855  16.261 -0.1909  0.1771 -0.0650
  456MPD2    C3 6843   1.719   0.979  16.303  0.4535  0.2310 -0.0636
  456MPD2    C4 6844   1.754   1.089  16.228  0.0756 -0.8197 -0.2666
  456MPD2    C5 6845   1.821   1.083  16.112  0.4944 -0.0581 -0.6302
  456MPD2     H 6846   1.729   0.763  16.312  0.8391 -1.2239 -2.0489
  456MPD2    H1 6847   1.743   1.190  16.266  0.2358 -0.5259 -0.9941
  456MPD2    H2 6848   1.902   0.961  15.965  2.7193  0.5476  0.7374
  456MPD2    H3 6849   1.854   1.169  16.055 -0.0126  2.1037  2.3170
  456MPD2     N 6850   1.653   0.989  16.434 -0.1140  0.9758  0.2406
  456MPD2    H5 6851   1.646   0.905  16.491 -0.3851  1.8929  1.5393
  456MPD2    N1 6852   1.859   0.725  16.078  0.3159 -0.8579  0.4813
  456MPD2    H7 6853   1.922   0.732  15.999  0.1015  2.1420  0.5863
  457TMC3    C1 6854   1.502   1.085  16.587 -0.0803  0.0653  0.5192
  457TMC3    C2 6855   1.385   1.161  16.591 -0.4828 -0.1391 -0.1962
  457TMC3    C3 6856   1.361   1.237  16.703 -0.5238 -0.1550 -0.9951
  457TMC3    C4 6857   1.582   1.082  16.696 -0.5776  0.0777 -0.1703
  457TMC3    C5 6858   1.543   1.149  16.809  0.9764 -0.5347  0.0223
  457TMC3    C6 6859   1.428   1.228  16.815  0.1493 -0.0176 -0.3174
  457TMC3     C 6860   1.568   1.089  16.457  0.6620  0.0580 -0.0515
  457TMC3     O 6861   1.536   1.180  16.383  0.1498  0.3970  0.1503
  457TMC3     H 6862   1.331   1.171  16.498 -1.0762 -0.8584  0.0675
  457TMC3    H1 6863   1.677   1.030  16.692 -0.5445  0.2303 -1.3826
  457TMC3    H2 6864   1.400   1.283  16.903  1.5546  2.5136 -1.4629
  457TMC3    C7 6865   1.611   1.119  16.931  0.2236  0.8009 -0.1496
  457TMC3    C8 6866   1.242   1.330  16.710 -0.4828  0.2039  0.6303
  457TMC3    O1 6867   1.665   1.011  16.960  0.1298 -0.0916 -0.6840
  457TMC3    O2 6868   1.234   1.397  16.815 -0.7686 -0.4687  0.3192
  458MPD2     C 6869   4.064   0.155  12.728  0.5510  0.0489  0.1085
  458MPD2    C1 6870   4.020   0.045  12.794  0.2266 -0.8505 -0.3591
  458MPD2    C2 6871   3.888   0.036  12.836  0.1517  0.0862  0.0663
  458MPD2    C3 6872   3.796   0.132  12.810  0.2179 -0.3750  0.1538
  458MPD2    C4 6873   3.841   0.249  12.739 -0.5380 -0.1349 -1.2268
  458MPD2    C5 6874   3.975   0.261  12.704 -0.7995  0.1779  0.0685
  458MPD2     H 6875   3.853   4.686  12.891 -1.4082  1.8170  1.7966
  458MPD2    H1 6876   3.776   0.328  12.704 -1.6388 -1.8043 -2.9294
  458MPD2    H2 6877   4.162   0.169  12.684  0.4861 -1.1494 -0.4222
  458MPD2    H3 6878   4.002   0.350  12.648 -2.0653  0.5858  0.1095
  458MPD2     N 6879   3.659   0.121  12.864 -0.0306  1.2020 -0.4889
  458MPD2    H5 6880   3.630   0.036  12.910  3.3134 -0.4143 -1.4037
  458MPD2    N1 6881   4.113   4.673  12.813 -0.6495 -0.0591  0.1283
  458MPD2    H7 6882   4.209   4.688  12.784 -1.0233 -0.1606 -1.1600
  459TMC3    C1 6883   4.190   4.459  12.848 -0.1358  0.4042  0.1847
  459TMC3    C2 6884   4.289   4.474  12.756  0.1405  0.3191 -0.0609
  459TMC3    C3 6885   4.403   4.404  12.766  0.2128  0.2620  0.0402
  459TMC3    C4 6886   4.203   4.362  12.946  0.2591  0.3170 -0.3636
  459TMC3    C5 6887   4.330   4.298  12.955 -0.4998  1.0332  0.1391
  459TMC3    C6 6888   4.434   4.313  12.871  0.9437  0.4311 -0.0164
  459TMC3     C 6889   4.081   4.547  12.851  0.4403 -0.2453 -0.6880
  459TMC3     O 6890   3.970   4.510  12.875  0.2105  0.1094  0.0914
  459TMC3     H 6891   4.266   4.542  12.675  1.5261  0.6340 -0.1836
  459TMC3    H1 6892   4.127   4.366  13.024  1.2996 -0.4132  0.6850
  459TMC3    H2 6893   4.528   4.260  12.870 -0.1031 -1.3792 -1.1942
  459TMC3    C7 6894   4.353   4.216  13.065 -0.1196  0.1507 -0.6404
  459TMC3    C8 6895   4.516   4.421  12.675  0.1183 -0.4137 -0.0369
  459TMC3    O1 6896   4.463   4.160  13.066  0.6364  0.7556 -0.3685
  459TMC3    O2 6897   4.629   4.392  12.709  0.0357  0.7555 -0.1103
  460MPD2     C 6898   3.405   2.148  10.243  0.2179  0.3324  0.1633
  460MPD2    C1 6899   3.387   2.268  10.299 -0.0978 -0.1499  0.1225
  460MPD2    C2 6900   3.351   2.376  10.216  0.5349  0.2805  0.4857
  460MPD2    C3 6901   3.337   2.356  10.078 -0.0145 -0.8318  0.6291
  460MPD2    C4 6902   3.351   2.224  10.027 -0.0294  0.3654 -0.0660
  460MPD2    C5 6903   3.393   2.126  10.110  0.2340  0.4007  0.0690
  460MPD2     H 6904   3.351   2.476  10.258  0.1528 -0.3351  1.9687
  460MPD2    H1 6905   3.336   2.195   9.924 -2.4171  0.9805  0.1098
  460MPD2    H2 6906   3.441   2.065  10.302  1.3052 -0.6707 -1.8981
  460MPD2    H3 6907   3.411   2.024  10.081  0.6451  0.5231 -0.1078
  460MPD2     N 6908   3.309   2.468   9.998  0.8012  0.0490 -0.3365
  460MPD2    H5 6909   3.319   2.560  10.038 -0.7114  0.1487 -0.1984
  460MPD2    N1 6910   3.402   2.271  10.441  0.0945  0.3298 -0.2212
  460MPD2    H7 6911   3.409   2.183  10.490  1.7645  0.0361 -0.9779
  461TMC3    C1 6912   3.323   2.606   9.808  0.3785  0.0235  0.2972
  461TMC3    C2 6913   3.401   2.601   9.696 -0.5043 -0.1586  0.4938
  461TMC3    C3 6914   3.372   2.691   9.598 -0.6013  0.4238 -0.2073
  461TMC3    C4 6915   3.218   2.693   9.818  0.5045 -0.6751 -0.9096
  461TMC3    C5 6916   3.191   2.776   9.713  0.5223 -0.2135  0.0585
  461TMC3    C6 6917   3.268   2.776   9.598  0.0168 -0.3029  0.4933
  461TMC3     C 6918   3.310   2.473   9.864  0.6728 -0.6042 -0.6262
  461TMC3     O 6919   3.337   2.384   9.788  0.1310  0.3397 -0.2867
  461TMC3     H 6920   3.499   2.554   9.703 -0.5477 -0.2894  0.2165
  461TMC3    H1 6921   3.145   2.674   9.896 -0.7694  2.3015 -1.3960
  461TMC3    H2 6922   3.248   2.826   9.504 -0.2529 -0.6586  0.3617
  461TMC3    C7 6923   3.056   2.829   9.713 -0.1876  0.0929 -0.6550
  461TMC3    C8 6924   3.435   2.670   9.471 -0.0372  0.3332  0.7114
  461TMC3    O1 6925   2.977   2.801   9.801 -0.6243 -0.3065  0.3855
  461TMC3    O2 6926   3.434   2.753   9.380 -0.4153  0.2515  0.1449
  462TMC3    C1 6927   3.796   4.124   0.662  0.0344  0.0325  0.3583
  462TMC3    C2 6928   3.933   4.120   0.637  0.2756  0.2828  0.0945
  462TMC3    C3 6929   3.974   4.017   0.553 -0.2113  0.3021  0.4420
  462TMC3    C4 6930   3.698   4.052   0.601  0.5656  0.4550 -0.3292
  462TMC3    C5 6931   3.751   3.951   0.521 -0.1060 -0.4848  0.3551
  462TMC3    C6 6932   3.880   3.928   0.502  0.5513  0.5672  0.5210
  462TMC3     C 6933   3.743   4.254   0.696  0.3769 -0.6371  0.0219
  462TMC3     O 6934   3.638   4.269   0.757  0.2114 -0.1091  0.3571
  462TMC3     H 6935   4.008   4.185   0.681 -0.9276  1.7398 -0.0088
  462TMC3    H1 6936   3.593   4.060   0.626  0.9544 -1.1761  1.7649
  462TMC3    H2 6937   3.923   3.860   0.429 -0.6862  0.4749 -0.1179
  462TMC3    C7 6938   3.675   3.895   0.421  0.3988 -0.5211 -0.1162
  462TMC3    C8 6939   4.097   4.046   0.486  0.2977  0.1343 -0.6298
  462TMC3    O1 6940   3.723   3.802   0.358 -0.2296  0.6387 -0.0739
  462TMC3    O2 6941   4.187   4.097   0.552  0.2616  0.2645  0.3583
  463MPD2     C 6942   4.559   1.919   1.757 -0.0128  0.3318 -0.7141
  463MPD2    C1 6943   4.571   2.041   1.693 -0.5091  0.4814  0.3558
  463MPD2    C2 6944   4.648   2.141   1.756  0.7760  0.6306 -0.2384
  463MPD2    C3 6945   4.703   2.121   1.880 -0.1208 -0.1948  0.0396
  463MPD2    C4 6946   4.683   2.001   1.945  0.5561  0.0012  0.1639
  463MPD2    C5 6947   4.608   1.906   1.884 -0.0825  0.0456 -0.4212
  463MPD2     H 6948   4.665   2.229   1.696  0.5071  0.7613 -0.1244
  463MPD2    H1 6949   0.001   1.981   2.036  0.4266 -1.5147 -0.0759
  463MPD2    H2 6950   4.507   1.837   1.709 -0.3302 -0.7745  1.5415
  463MPD2    H3 6951   4.598   1.813   1.939 -1.8267  0.2148 -0.4457
  463MPD2     N 6952   0.065   2.209   1.937  0.0004  0.5925 -0.1706
  463MPD2    H5 6953   0.094   2.176   2.028  1.3868 -1.7425 -1.4457
  463MPD2    N1 6954   4.521   2.075   1.565 -0.0406 -0.5043  0.2407
  463MPD2    H7 6955   4.528   2.165   1.519  0.7108 -1.1281 -0.8799
  464TMC3    C1 6956   4.427   2.045   1.353  0.4119 -0.5014  0.5552
  464TMC3    C2 6957   4.388   2.175   1.334 -0.5383 -0.0124 -0.1626
  464TMC3    C3 6958   4.345   2.212   1.214  0.6793  0.7697 -0.2621
  464TMC3    C4 6959   4.418   1.953   1.251 -0.1650  0.2584 -0.2039
  464TMC3    C5 6960   4.363   1.994   1.133  0.2590 -0.5189  0.1674
  464TMC3    C6 6961   4.325   2.123   1.112 -0.3787  0.8194 -0.5267
  464TMC3     C 6962   4.447   1.991   1.484 -0.7308  0.2772  0.5208
  464TMC3     O 6963   4.415   1.877   1.496  0.5570  0.0281 -0.6377
  464TMC3     H 6964   4.371   2.233   1.424  3.9174  1.9432 -0.5622
  464TMC3    H1 6965   4.442   1.848   1.263  0.5234  0.5662  1.1875
  464TMC3    H2 6966   4.283   2.153   1.017 -0.5074  0.3950 -0.6066
  464TMC3    C7 6967   4.344   1.889   1.030  0.4985  0.1009 -0.2496
  464TMC3    C8 6968   4.296   2.344   1.200  0.7004  0.2963  0.2387
  464TMC3    O1 6969   4.391   1.776   1.035 -0.3848  0.0566 -0.3401
  464TMC3    O2 6970   4.211   2.360   1.118 -0.4898 -0.4057  0.0039
  465MPD2     C 6971   0.886   0.766  16.607  0.3728  0.1177 -0.2766
  465MPD2    C1 6972   0.775   0.795  16.683 -0.0908 -0.0215 -0.6678
  465MPD2    C2 6973   0.653   0.843  16.626  0.4436  0.1521 -0.1840
  465MPD2    C3 6974   0.629   0.847  16.492 -0.5678  0.5431  0.0180
  465MPD2    C4 6975   0.742   0.815  16.421  0.3859 -0.2915  0.4298
  465MPD2    C5 6976   0.860   0.767  16.474  0.0548  0.6531 -0.2699
  465MPD2     H 6977   0.575   0.873  16.695  1.7926  1.7705  0.6502
  465MPD2    H1 6978   0.748   0.824  16.313  0.6656  2.0393  0.6277
  465MPD2    H2 6979   0.984   0.738  16.642  0.0952 -2.0360 -1.2257
  465MPD2    H3 6980   0.940   0.738  16.407  1.4433  0.2977  1.5412
  465MPD2     N 6981   0.508   0.894  16.437 -0.0694 -0.5898  0.4555
  465MPD2    H5 6982   0.434   0.922  16.499  0.0055  1.6904 -0.4851
  465MPD2    N1 6983   0.785   0.800  16.823 -0.2645  0.1210  0.3080
  465MPD2    H7 6984   0.727   0.870  16.868 -2.7354 -2.8548  1.6920
  466TMC3    C1 6985   0.124   0.870  16.359  0.2242 -0.5494 -0.2318
  466TMC3    C2 6986   0.073   0.976  16.290 -0.0436 -0.4923 -0.0284
  466TMC3    C3 6987   0.154   1.052  16.213 -0.6277 -0.2990  0.2371
  466TMC3    C4 6988   0.258   0.846  16.363  0.5871  0.4576 -0.1958
  466TMC3    C5 6989   0.341   0.923  16.284  0.7687 -0.1115  0.9078
  466TMC3    C6 6990   0.290   1.024  16.208  0.6283 -0.0020 -0.6068
  466TMC3     C 6991   0.036   0.823  16.466  0.2863  0.0113 -0.0041
  466TMC3     O 6992   4.653   0.815  16.454  0.8263 -0.3539 -0.1906
  466TMC3     H 6993   4.709   1.007  16.313 -0.1191 -2.4829  2.3182
  466TMC3    H1 6994   0.298   0.759  16.414 -2.1459  0.0462  1.2869
  466TMC3    H2 6995   0.361   1.091  16.160  0.8412 -0.0363 -0.3427
  466TMC3    C7 6996   0.484   0.912  16.310 -0.6333  0.1792  0.0230
  466TMC3    C8 6997   0.120   1.190  16.220 -0.6658  0.0482  0.3165
  466TMC3    O1 6998   0.553   0.906  16.210 -0.2291  0.2219 -0.1935
  466TMC3    O2 6999   0.056   1.225  16.320  0.1612 -0.3043  0.1598
  467TMC3    C1 7000   1.549   4.184  13.302 -0.4052 -0.4123  0.4260
  467TMC3    C2 7001   1.492   4.305  13.307 -0.2742 -0.3749 -0.5143
  467TMC3    C3 7002   1.373   4.315  13.369 -0.7694  0.2389  0.2682
  467TMC3    C4 7003   1.492   4.073  13.351  0.1183 -0.1623  0.0098
  467TMC3    C5 7004   1.384   4.085  13.431 -0.0320  0.3489 -0.9275
  467TMC3    C6 7005   1.322   4.208  13.433 -0.3687 -0.0200 -0.3776
  467TMC3     C 7006   1.694   4.188  13.303 -0.2390 -0.5956 -0.2196
  467TMC3     O 7007   1.739   4.301  13.325 -0.3656 -0.9127 -0.1065
  467TMC3     H 7008   1.546   4.393  13.273 -1.6154  0.6695  0.0457
  467TMC3    H1 7009   1.548   3.981  13.347  0.7124  0.0657  2.6507
  467TMC3    H2 7010   1.253   4.228  13.514 -0.1418  2.0081 -0.6834
  467TMC3    C7 7011   1.295   3.974  13.441  0.1483 -0.8475  0.0154
  467TMC3    C8 7012   1.309   4.442  13.383  0.1737 -0.0140 -0.4437
  467TMC3    O1 7013   1.300   3.894  13.349 -0.9958 -0.4262  0.2256
  467TMC3    O2 7014   1.382   4.543  13.384 -0.1653 -0.4501  0.0982
  468MPD2     C 7015   0.420   2.136  10.665 -0.4004 -0.6830 -0.6062
  468MPD2    C1 7016   0.546   2.148  10.715  0.3408 -0.0044 -0.4405
  468MPD2    C2 7017   0.602   2.049  10.797 -0.2383 -0.1173 -0.0479
  468MPD2    C3 7018   0.527   1.939  10.835 -0.7258  0.5324  0.0633
  468MPD2    C4 7019   0.400   1.927  10.789 -0.2452 -0.0398  0.0693
  468MPD2    C5 7020   0.350   2.021  10.701  0.0953 -0.3746 -0.2085
  468MPD2     H 7021   0.697   2.075  10.843 -0.8958 -0.2548  1.4000
  468MPD2    H1 7022   0.335   1.846  10.820  0.9951 -2.5652 -4.0220
  468MPD2    H2 7023   0.379   2.213  10.600 -0.9676 -0.0585  0.5008
  468MPD2    H3 7024   0.251   2.013  10.657  0.5475  0.1419 -1.3344
  468MPD2     N 7025   0.574   1.834  10.920  0.3649 -0.7755  0.4932
  468MPD2    H5 7026   0.509   1.758  10.937 -0.3801 -0.7217 -2.0969
  468MPD2    N1 7027   0.623   2.266  10.715  0.1315  0.0917  0.2436
  468MPD2    H7 7028   0.714   2.252  10.759  0.5028 -3.8797 -1.7560
  469TMC3    C1 7029   0.675   2.489  10.713 -0.1929  0.5350 -0.3784
  469TMC3    C2 7030   0.795   2.456  10.773 -0.5106 -0.3754 -1.0296
  469TMC3    C3 7031   0.842   2.539  10.867  0.4409  0.0981 -0.4438
  469TMC3    C4 7032   0.612   2.607  10.744  0.3677  0.2010  0.0200
  469TMC3    C5 7033   0.666   2.691  10.832 -0.3349 -0.4503 -0.2811
  469TMC3    C6 7034   0.779   2.656  10.902  0.3371 -0.0362 -0.1753
  469TMC3     C 7035   0.599   2.388  10.654  0.5219 -0.0941  0.3309
  469TMC3     O 7036   0.496   2.419  10.595 -0.0822  0.3230  0.5334
  469TMC3     H 7037   0.849   2.363  10.766  1.5945  0.9323 -2.1539
  469TMC3    H1 7038   0.522   2.632  10.687  0.1661  0.7678  0.5877
  469TMC3    H2 7039   0.824   2.726  10.971  1.8181  0.6340 -1.8113
  469TMC3    C7 7040   0.599   2.814  10.876  0.0987 -0.3927  0.1730
  469TMC3    C8 7041   0.933   2.487  10.961 -0.1209 -0.2146 -1.0139
  469TMC3    O1 7042   0.518   2.861  10.797 -0.1318 -0.0849 -0.3366
  469TMC3    O2 7043   1.027   2.433  10.910 -0.7043 -0.2295  1.0725
  470TMC3    C1 7044   2.589   3.892   1.019 -0.5114  0.6771 -0.8537
  470TMC3    C2 7045   2.674   3.996   1.037  0.6112  0.2244  0.4759
  470TMC3    C3 7046   2.623   4.114   1.086 -0.3316 -0.0543  0.2113
  470TMC3    C4 7047   2.465   3.899   1.071  0.5893 -0.5757 -0.0074
  470TMC3    C5 7048   2.427   4.012   1.144 -0.7008 -0.3207  0.0020
  470TMC3    C6 7049   2.504   4.122   1.159  0.2841 -0.3047 -0.8160
  470TMC3     C 7050   2.626   3.761   0.983 -0.5366 -0.1061  0.0166
  470TMC3     O 7051   2.576   3.672   1.052 -0.5975 -0.1154  0.3745
  470TMC3     H 7052   2.777   3.977   1.011  1.4586  2.0710  2.4762
  470TMC3    H1 7053   2.395   3.817   1.067  0.3048 -0.3960  1.5417
  470TMC3    H2 7054   2.471   4.212   1.209  1.4882  0.3235 -1.1568
  470TMC3    C7 7055   2.280   4.024   1.174 -0.1018 -1.0909 -0.3540
  470TMC3    C8 7056   2.683   4.239   1.059 -0.5289  0.0832  0.0918
  470TMC3    O1 7057   2.213   3.936   1.128 -0.3455  0.5023 -0.1924
  470TMC3    O2 7058   2.627   4.335   1.109 -0.2159  0.2053  0.2664
  471MPD2     C 7059   3.248   0.380  16.398 -0.1352  0.7603 -0.2012
  471MPD2    C1 7060   3.303   0.252  16.371 -0.1748  0.0852 -0.3936
  471MPD2    C2 7061   3.379   0.191  16.472 -0.1162 -0.0368 -0.3226
  471MPD2    C3 7062   3.390   0.243  16.597 -0.0623 -0.5705  0.1507
  471MPD2    C4 7063   3.336   0.362  16.624  0.9724  0.0300 -0.4559
  471MPD2    C5 7064   3.276   0.432  16.527 -0.3785 -0.9430  0.3112
  471MPD2     H 7065   3.409   0.087  16.462  0.3764 -0.1623  2.5057
  471MPD2    H1 7066   3.345   0.404  16.724  1.6757 -0.3824 -0.3432
  471MPD2    H2 7067   3.201   0.446  16.325 -0.5635  0.1065 -0.5263
  471MPD2    H3 7068   3.231   0.526  16.555  1.0658 -0.5178  1.1939
  471MPD2     N 7069   3.445   0.155  16.690 -0.2285  0.2418 -0.0331
  471MPD2    H5 7070   3.469   0.063  16.654 -1.8879  0.4377 -1.6719
  471MPD2    N1 7071   3.278   0.178  16.258 -0.3150 -0.6396  0.1055
  471MPD2    H7 7072   3.336   0.095  16.250  1.1159  0.4064 -0.4165
  472TMC3    C1 7073   3.183   0.094  16.065  0.6095 -0.0599  0.1054
  472TMC3    C2 7074   3.114   0.118  15.948 -0.1255 -0.0380  0.2390
  472TMC3    C3 7075   3.086   0.005  15.868 -0.4188 -0.0556  0.6963
  472TMC3    C4 7076   3.241   4.708  16.091  0.4364 -0.0296  0.5299
  472TMC3    C5 7077   3.224   4.606  16.008  0.7552 -0.0795 -0.0656
  472TMC3    C6 7078   3.152   4.623  15.893 -0.0209 -0.4333 -0.0951
  472TMC3     C 7079   3.187   0.205  16.159  0.8032 -0.1917  0.5891
  472TMC3     O 7080   3.141   0.315  16.131  0.2027  0.3202 -0.2417
  472TMC3     H 7081   3.065   0.213  15.929 -2.5213 -0.8974  2.1408
  472TMC3    H1 7082   3.277   4.684  16.190 -1.4268 -1.8604  0.7358
  472TMC3    H2 7083   3.126   4.536  15.834 -0.4563  1.1733 -2.2966
  472TMC3    C7 7084   3.182   4.482  16.076  0.0602  0.4318  0.0222
  472TMC3    C8 7085   2.949   4.727  15.828 -0.2867  0.1340 -0.5455
  472TMC3    O1 7086   3.150   4.498  16.194  0.2555 -0.7451 -0.0313
  472TMC3    O2 7087   2.911   0.042  15.723  0.4245 -0.1770  0.7551
  473MPD2     C 7088   2.611   1.761  13.871  0.2137 -0.4780 -0.2323
  473MPD2    C1 7089   2.639   1.888  13.821 -0.1377 -0.0309  0.2502
  473MPD2    C2 7090   2.715   1.973  13.901 -0.3470 -0.5996  0.3210
  473MPD2    C3 7091   2.753   1.938  14.030  0.2609  0.2319 -0.2658
  473MPD2    C4 7092   2.729   1.809  14.073 -0.3789  0.4121  0.5651
  473MPD2    C5 7093   2.650   1.724  13.997 -0.7092  0.8222  0.0965
  473MPD2     H 7094   2.717   2.075  13.865  2.6150 -1.0149 -0.6957
  473MPD2    H1 7095   2.761   1.781  14.173  1.3392  0.6312  0.0702
  473MPD2    H2 7096   2.552   1.689  13.815  1.2665 -0.1082 -1.8169
  473MPD2    H3 7097   2.626   1.624  14.032  1.4377 -0.6210 -2.4989
  473MPD2     N 7098   2.819   2.031  14.116 -0.4185 -0.4447  0.2564
  473MPD2    H5 7099   2.862   1.995  14.202 -0.9968 -3.3397 -0.6516
  473MPD2    N1 7100   2.601   1.939  13.695  0.5698 -0.1534 -0.3119
  473MPD2    H7 7101   2.635   2.033  13.675 -1.0459  0.5364  0.1464
  474TMC3    C1 7102   2.936   2.237  14.162 -0.3071  0.0374  0.7936
  474TMC3    C2 7103   2.907   2.370  14.182  0.6167  0.5027  0.0370
  474TMC3    C3 7104   2.991   2.440  14.266 -0.2458 -0.2544  0.0040
  474TMC3    C4 7105   3.035   2.167  14.228  0.7368 -0.1722 -0.5911
  474TMC3    C5 7106   3.114   2.236  14.317 -0.6234  0.5583 -0.6172
  474TMC3    C6 7107   3.097   2.377  14.331 -0.0672 -0.3135 -1.0519
  474TMC3     C 7108   2.841   2.162  14.082 -0.1312  0.2514 -0.8008
  474TMC3     O 7109   2.786   2.218  13.993 -0.4528  0.4154  0.1783
  474TMC3     H 7110   2.823   2.415  14.130  0.5066 -1.7041 -1.7015
  474TMC3    H1 7111   3.043   2.059  14.217 -1.4678 -0.5084  1.1898
  474TMC3    H2 7112   3.161   2.437  14.395 -1.7459  1.4783 -1.0627
  474TMC3    C7 7113   3.243   2.181  14.354  0.2870  0.0959  0.4510
  474TMC3    C8 7114   2.966   2.581  14.293  0.1857 -0.4361  0.3572
  474TMC3    O1 7115   3.278   2.073  14.303 -0.2565 -0.1053  0.0257
  474TMC3    O2 7116   2.978   2.619  14.411 -0.4107  0.2543  0.0658
  475MPD2     C 7117   1.680   4.449  10.241  0.0369  0.3627  0.0723
  475MPD2    C1 7118   1.732   4.539  10.329  0.5067 -1.3213  0.0776
  475MPD2    C2 7119   1.648   4.581  10.429 -0.6014 -0.4584  0.6545
  475MPD2    C3 7120   1.516   4.537  10.442 -0.5496 -0.0330  0.2523
  475MPD2    C4 7121   1.470   4.432  10.361 -0.1823 -0.6067 -0.5926
  475MPD2    C5 7122   1.552   4.391  10.260  0.3056 -0.0001 -0.2959
  475MPD2     H 7123   1.683   4.661  10.493  0.9453 -0.4413 -0.2123
  475MPD2    H1 7124   1.366   4.403  10.370 -0.2610  0.6532  2.4353
  475MPD2    H2 7125   1.735   4.422  10.152 -1.2982  2.7057 -1.4802
  475MPD2    H3 7126   1.526   4.321  10.181  2.4017 -1.0621 -0.0664
  475MPD2     N 7127   1.440   4.597  10.545 -0.4859  0.1213 -0.2706
  475MPD2    H5 7128   1.483   4.677  10.591 -0.4162 -0.5265  0.7970
  475MPD2    N1 7129   1.854   4.609  10.319  0.0155 -0.4025 -0.7483
  475MPD2    H7 7130   1.877   4.665  10.401  0.1049 -1.2934 -0.1696
  476TMC3    C1 7131   1.969   0.017  10.220 -0.2244  0.5286 -0.3286
  476TMC3    C2 7132   1.893   0.118  10.176  0.1949 -0.2096 -0.0819
  476TMC3    C3 7133   1.887   0.241  10.237  0.7543  0.2838 -0.0317
  476TMC3    C4 7134   2.027   0.033  10.342 -0.3404  0.3378  0.2239
  476TMC3    C5 7135   2.034   0.156  10.398  0.8912  0.5850 -0.0409
  476TMC3    C6 7136   1.967   0.263  10.340  0.2026 -0.6157  0.5559
  476TMC3     C 7137   1.912   4.626  10.197 -0.0297  0.3252 -0.1353
  476TMC3     O 7138   1.880   4.604  10.079  0.6986  0.6498 -0.4488
  476TMC3     H 7139   1.828   0.107  10.090  0.9321 -0.3890 -0.6074
  476TMC3    H1 7140   2.081   4.688  10.389  1.8900  2.4782  1.3884
  476TMC3    H2 7141   1.972   0.365  10.378 -1.8147  0.0763 -1.0504
  476TMC3    C7 7142   2.007   0.140  10.534 -0.0292  0.2261 -0.3373
  476TMC3    C8 7143   1.757   0.274  10.286 -0.4498  0.2316 -0.2241
  476TMC3    O1 7144   1.965   0.029  10.561 -0.2050  0.1381 -0.5346
  476TMC3    O2 7145   1.745   0.333  10.391  0.0901 -0.4523  0.4845
  477MPD2     C 7146   4.086   1.646  11.497 -0.4352 -0.6506 -0.0150
  477MPD2    C1 7147   3.951   1.646  11.547 -0.3579 -0.4174 -0.3969
  477MPD2    C2 7148   3.928   1.605  11.680 -0.0708  0.2671  0.4085
  477MPD2    C3 7149   4.032   1.564  11.764 -0.0288 -0.0849  0.2912
  477MPD2    C4 7150   4.161   1.567  11.712 -0.4372 -0.3284  0.0756
  477MPD2    C5 7151   4.188   1.606  11.583  0.1738 -0.3296  0.3605
  477MPD2     H 7152   3.828   1.615  11.720  0.0862 -0.1039  0.8981
  477MPD2    H1 7153   4.243   1.531  11.773  0.0536 -1.9579 -1.5397
  477MPD2    H2 7154   4.118   1.672  11.397 -0.7742  0.3403  0.1356
  477MPD2    H3 7155   4.293   1.601  11.557 -0.4325 -2.5099 -1.6246
  477MPD2     N 7156   3.998   1.528  11.903  0.6503  0.9104  0.1465
  477MPD2    H5 7157   3.900   1.518  11.926  0.7466 -0.8707 -0.2313
  477MPD2    N1 7158   3.842   1.673  11.453  0.1160  0.1053  0.0750
  477MPD2    H7 7159   3.871   1.691  11.357 -1.7016 -1.1799 -0.6955
  478TMC3    C1 7160   3.622   1.723  11.380  0.1183 -0.4329 -0.5867
  478TMC3    C2 7161   3.499   1.766  11.412 -0.3033 -0.5939  0.2285
  478TMC3    C3 7162   3.421   1.815  11.316  0.2022 -0.0715 -0.1941
  478TMC3    C4 7163   3.657   1.727  11.247 -0.0410 -0.3947 -0.6955
  478TMC3    C5 7164   3.573   1.774  11.153 -0.1859  0.1034  0.3084
  478TMC3    C6 7165   3.448   1.820  11.189 -0.4302  0.2657 -0.0804
  478TMC3     C 7166   3.711   1.666  11.479 -0.3331  0.6109 -0.0466
  478TMC3     O 7167   3.654   1.645  11.581  0.1140  0.3938  0.5776
  478TMC3     H 7168   3.469   1.779  11.516 -0.6025 -2.2971  0.3626
  478TMC3    H1 7169   3.758   1.702  11.217  0.0655  0.2518 -0.8868
  478TMC3    H2 7170   3.372   1.840  11.114 -0.9777  0.5379  0.5549
  478TMC3    C7 7171   3.592   1.705  11.030  0.8158  0.5534  0.6495
  478TMC3    C8 7172   3.303   1.895  11.353 -0.1729  0.1631  0.2170
  478TMC3    O1 7173   3.672   1.612  11.027 -0.5946  0.2648 -0.0374
  478TMC3    O2 7174   3.230   1.861  11.443  0.8181 -0.5571 -0.6201
  479MPD2     C 7175   2.866   3.971  15.009 -0.5791 -0.2313  0.1592
  479MPD2    C1 7176   2.805   3.943  15.133  0.4727 -0.2546  0.8163
  479MPD2    C2 7177   2.858   4.001  15.244  0.1879 -0.1563  0.1133
  479MPD2    C3 7178   2.985   4.058  15.239  0.3736 -0.1961  0.1753
  479MPD2    C4 7179   3.042   4.071  15.121  0.9052 -0.9776 -0.0472
  479MPD2    C5 7180   2.987   4.034  15.001 -0.8749 -0.0192 -0.0425
  479MPD2     H 7181   2.809   3.992  15.341  1.6792 -0.4148  0.8468
  479MPD2    H1 7182   3.141   4.114  15.115 -0.9795  3.1345 -1.9343
  479MPD2    H2 7183   2.833   3.930  14.914  1.2146 -1.7126  0.1645
  479MPD2    H3 7184   3.032   4.032  14.903  3.1874  0.0941  1.8156
  479MPD2     N 7185   3.062   4.096  15.354  0.3284 -0.0252 -0.1284
  479MPD2    H5 7186   3.163   4.102  15.340 -0.1205 -0.8973 -3.8464
  479MPD2    N1 7187   2.682   3.873  15.135 -0.0454  0.0190 -0.7275
  479MPD2    H7 7188   2.645   3.842  15.046  0.3968 -4.5213  0.6744
  480TMC3    C1 7189   2.756   4.022  15.709  1.3403  0.1233 -0.7064
  480TMC3    C2 7190   2.663   4.110  15.668  0.0131 -0.4898  0.5430
  480TMC3    C3 7191   2.694   4.191  15.564 -0.2987  0.2133  0.0698
  480TMC3    C4 7192   2.878   4.020  15.647  0.7469 -0.4408 -0.9277
  480TMC3    C5 7193   2.898   4.099  15.536 -0.1922 -0.6342 -0.5789
  480TMC3    C6 7194   2.806   4.184  15.488 -0.7747 -0.3800 -0.1523
  480TMC3     C 7195   2.746   3.954  15.838  0.7945  0.7009  0.5001
  480TMC3     O 7196   2.828   3.867  15.851 -0.4325 -0.1668  0.0982
  480TMC3     H 7197   2.561   4.103  15.702  0.2230  0.2124  1.2992
  480TMC3    H1 7198   2.959   3.956  15.682 -0.2332 -1.5354 -0.6486
  480TMC3    H2 7199   2.829   4.255  15.410  1.0925 -1.8212 -0.9236
  480TMC3    C7 7200   3.034   4.090  15.486  0.0471 -0.4319 -0.3319
  480TMC3    C8 7201   2.570   4.213  15.482  0.2155  0.8866  0.5440
  480TMC3    O1 7202   3.119   4.097  15.579 -0.1247  0.3349 -0.0900
  480TMC3    O2 7203   2.460   4.221  15.542  0.5977 -0.1680  0.0558
  481MPD2     C 7204   3.989   3.303  13.478  0.0394 -0.3239 -0.4743
  481MPD2    C1 7205   3.924   3.212  13.560 -0.1317 -0.7195  0.3349
  481MPD2    C2 7206   3.992   3.164  13.675  0.3901 -0.5272  1.1454
  481MPD2    C3 7207   4.129   3.198  13.692 -0.6637  0.2377  0.9922
  481MPD2    C4 7208   4.195   3.283  13.603  0.5534  0.0708  0.0581
  481MPD2    C5 7209   4.119   3.341  13.500  0.0383  0.2198 -0.2722
  481MPD2     H 7210   3.947   3.083  13.730 -2.4942  0.0797 -0.3175
  481MPD2    H1 7211   4.300   3.309  13.610  0.6087 -0.3705  0.9944
  481MPD2    H2 7212   3.937   3.358  13.401 -0.9023  0.9491  1.0856
  481MPD2    H3 7213   4.166   3.404  13.426 -1.3867  1.1647 -0.3691
  481MPD2     N 7214   4.202   3.145  13.795  0.5617  0.5488  0.4654
  481MPD2    H5 7215   4.302   3.148  13.776  0.6002  0.8100  0.7126
  481MPD2    N1 7216   3.792   3.169  13.532  0.0318  0.0173 -0.6402
  481MPD2    H7 7217   3.745   3.221  13.458 -0.3455  1.0370  0.3155
  482TMC3    C1 7218   3.602   3.035  13.530 -0.5824  0.0665 -0.6820
  482TMC3    C2 7219   3.562   2.902  13.538  0.0409  0.7914  0.2148
  482TMC3    C3 7220   3.439   2.876  13.482 -0.0914  0.2246 -0.2177
  482TMC3    C4 7221   3.533   3.139  13.475  0.2227  0.4843  0.0342
  482TMC3    C5 7222   3.411   3.105  13.419 -0.3251 -0.4025  0.3662
  482TMC3    C6 7223   3.362   2.976  13.427 -0.1665  0.4569  0.6274
  482TMC3     C 7224   3.730   3.059  13.595  1.0186 -0.1380 -0.1182
  482TMC3     O 7225   3.769   2.973  13.669 -0.0725 -0.5653  0.6804
  482TMC3     H 7226   3.618   2.829  13.595 -0.0465  0.4351 -0.1646
  482TMC3    H1 7227   3.572   3.241  13.478  2.4099 -0.3815  1.3305
  482TMC3    H2 7228   3.281   2.952  13.358  1.2833 -3.7090  0.3681
  482TMC3    C7 7229   3.345   3.195  13.336  0.4434 -0.0730 -0.0601
  482TMC3    C8 7230   3.406   2.734  13.480  0.4651  0.0496 -0.3139
  482TMC3    O1 7231   3.228   3.172  13.317  0.0520 -0.1245 -0.1739
  482TMC3    O2 7232   3.499   2.654  13.486  0.2031 -0.6597 -0.3449
  483TMC3    C1 7233   2.323   2.728   0.591  0.2339 -0.5894 -0.5152
  483TMC3    C2 7234   2.400   2.831   0.634 -0.8408  0.2535  0.2033
  483TMC3    C3 7235   2.508   2.788   0.698  0.3867 -0.1284 -0.6383
  483TMC3    C4 7236   2.358   2.593   0.594  0.1133  0.4707 -0.6473
  483TMC3    C5 7237   2.463   2.564   0.668  0.3120 -0.4894  0.8175
  483TMC3    C6 7238   2.541   2.660   0.722 -0.2068  0.8084  0.6901
  483TMC3     C 7239   2.185   2.757   0.542  0.0921  0.1904  0.1504
  483TMC3     O 7240   2.173   2.871   0.496  0.1831  0.1650 -0.3880
  483TMC3     H 7241   2.380   2.937   0.631  1.7476  0.7456  0.2350
  483TMC3    H1 7242   2.304   2.510   0.550  0.2793  0.8054 -1.4824
  483TMC3    H2 7243   2.637   2.630   0.762 -0.9118 -2.2377  0.0613
  483TMC3    C7 7244   2.534   2.431   0.644  0.0321 -0.5235 -0.2478
  483TMC3    C8 7245   2.617   2.879   0.676 -0.5978 -0.3218  0.2900
  483TMC3    O1 7246   2.655   2.445   0.644  0.1122 -0.0745  0.1811
  483TMC3    O2 7247   2.607   2.963   0.589 -0.1591  0.1650 -0.0123
  484MPD2     C 7248   4.491   4.631  12.373  0.3444  0.4334  0.4797
  484MPD2    C1 7249   4.555   4.552  12.472 -0.0958  0.1135 -0.1049
  484MPD2    C2 7250   4.694   4.555  12.478  0.1686  0.6545  0.0274
  484MPD2    C3 7251   0.022   4.605  12.371  0.8954 -0.4363 -0.0750
  484MPD2    C4 7252   4.692   4.672  12.264  0.4160 -0.2348 -0.2620
  484MPD2    C5 7253   4.562   4.694  12.274 -0.0785  0.4193 -0.7054
  484MPD2     H 7254   0.015   4.502  12.553  0.7986 -0.1818 -1.0497
  484MPD2    H1 7255   0.003   4.711  12.175 -0.5065 -1.3420 -1.2539
  484MPD2    H2 7256   4.383   4.638  12.376  0.0488 -3.1422 -2.3435
  484MPD2    H3 7257   4.507   0.011  12.197 -2.6734  1.9673  2.2258
  484MPD2     N 7258   0.161   4.578  12.352 -0.1360 -1.3635 -0.0339
  484MPD2    H5 7259   0.214   4.625  12.278 -2.0640  0.3145 -0.3533
  484MPD2    N1 7260   4.472   4.489  12.569 -0.6727  0.0038 -0.0718
  484MPD2    H7 7261   4.373   4.490  12.547 -0.7917  1.0219  0.5027
  485TMC3    C1 7262   0.382   4.487  12.374 -0.4653  0.2577 -0.1925
  485TMC3    C2 7263   0.459   4.372  12.374  0.1448 -0.2651  0.8074
  485TMC3    C3 7264   0.596   4.376  12.343 -0.1996  1.1326  0.6293
  485TMC3    C4 7265   0.434   4.606  12.343  1.0103 -0.5429 -0.6528
  485TMC3    C5 7266   0.572   4.607  12.322 -0.3478  0.5167 -0.7125
  485TMC3    C6 7267   0.651   4.495  12.313 -0.5444  0.1011 -0.2443
  485TMC3     C 7268   0.236   4.476  12.406 -0.0411  0.2177  0.6102
  485TMC3     O 7269   0.198   4.374  12.468 -0.3962  0.8581 -0.2175
  485TMC3     H 7270   0.420   4.284  12.423  0.3463 -0.9230 -0.2078
  485TMC3    H1 7271   0.378   4.697  12.325 -0.9341 -1.7498 -0.7925
  485TMC3    H2 7272   0.751   4.501  12.270 -0.2117 -0.2614  0.4886
  485TMC3    C7 7273   0.629   4.735  12.282 -0.0824 -0.1293 -0.1839
  485TMC3    C8 7274   0.637   4.252  12.286  0.3290 -0.0157  0.3426
  485TMC3    O1 7275   0.607   0.096  12.357  0.1850 -0.8354 -0.1855
  485TMC3    O2 7276   0.558   4.156  12.281  0.7073  0.1477  0.1350
  486MPD2     C 7277   2.212   3.862  12.811  0.3328 -0.5525 -0.4946
  486MPD2    C1 7278   2.118   3.764  12.796  0.2715  0.2416  0.3631
  486MPD2    C2 7279   2.006   3.785  12.718 -0.3839  0.0739 -0.0541
  486MPD2    C3 7280   1.994   3.896  12.635  0.3127 -0.0670  0.0888
  486MPD2    C4 7281   2.085   3.996  12.648 -0.3204  0.1093 -0.2001
  486MPD2    C5 7282   2.191   3.978  12.735  0.0368 -0.7037 -0.1619
  486MPD2     H 7283   1.924   3.715  12.717  0.6418 -1.1419  0.8803
  486MPD2    H1 7284   2.074   4.088  12.592  1.9874 -0.0804 -0.9477
  486MPD2    H2 7285   2.296   3.849  12.879  1.0069  2.5623 -0.7005
  486MPD2    H3 7286   2.272   4.048  12.754  0.3693 -0.2731 -3.0813
  486MPD2     N 7287   1.891   3.918  12.543  0.6770  0.0809 -0.1580
  486MPD2    H5 7288   1.869   4.014  12.517  2.1952  0.2944 -0.6198
  486MPD2    N1 7289   2.137   3.660  12.885 -0.0355 -0.6123 -0.5217
  486MPD2    H7 7290   2.210   3.666  12.955 -0.1184 -1.2824 -0.3770
  487TMC3    C1 7291   2.123   3.444  12.971  0.4419 -0.0511  0.0684
  487TMC3    C2 7292   2.136   3.316  12.924  0.5965 -0.3491 -0.8924
  487TMC3    C3 7293   2.168   3.227  13.018 -0.0496  0.1601  0.2859
  487TMC3    C4 7294   2.126   3.473  13.103 -0.1387 -0.6600 -0.1409
  487TMC3    C5 7295   2.163   3.373  13.194 -0.4210 -0.1045 -0.7787
  487TMC3    C6 7296   2.175   3.244  13.154 -0.0889 -0.0802 -0.0887
  487TMC3     C 7297   2.087   3.537  12.868 -0.1696  0.5470 -0.2466
  487TMC3     O 7298   2.050   3.489  12.759  0.3414 -0.0279 -0.1992
  487TMC3     H 7299   2.125   3.280  12.822 -0.0304 -1.0585 -0.5661
  487TMC3    H1 7300   2.105   3.575  13.134 -0.0919 -0.7880  0.3127
  487TMC3    H2 7301   2.173   3.159  13.220 -1.7982  0.6701  0.8266
  487TMC3    C7 7302   2.087   3.375  13.318  1.0296 -0.2782 -0.7066
  487TMC3    C8 7303   2.143   3.090  12.988 -0.7130 -0.3078  0.5575
  487TMC3    O1 7304   2.015   3.282  13.353  0.6715 -0.7961 -0.3156
  487TMC3    O2 7305   2.215   3.010  13.043 -0.2006  0.3182 -1.1967
  488MPD2     C 7306   2.208   1.174  16.204 -1.0192  0.0026 -0.3165
  488MPD2    C1 7307   2.261   1.254  16.298 -0.2222  0.8839  0.2627
  488MPD2    C2 7308   2.212   1.247  16.426 -0.1610 -0.2834  0.2186
  488MPD2    C3 7309   2.132   1.146  16.465 -0.4755  0.1196 -0.2694
  488MPD2    C4 7310   2.076   1.067  16.363 -0.0639  0.0948 -0.3179
  488MPD2    C5 7311   2.119   1.084  16.240 -0.5357 -0.5124 -0.0094
  488MPD2     H 7312   2.247   1.325  16.494  0.9659  0.8554 -1.6483
  488MPD2    H1 7313   2.007   0.987  16.388  0.1284 -0.3552 -1.2251
  488MPD2    H2 7314   2.222   1.190  16.097 -2.8056  0.0424 -0.5393
  488MPD2    H3 7315   2.086   1.017  16.161  2.4363  0.7694 -2.3520
  488MPD2     N 7316   2.086   1.142  16.594  0.0758 -0.9956  0.2957
  488MPD2    H5 7317   2.124   1.209  16.660 -1.7347 -0.5864  0.9062
  488MPD2    N1 7318   2.356   1.352  16.264  0.2759  0.0781  0.0250
  488MPD2    H7 7319   2.368   1.429  16.328  0.2821  1.1922 -1.3146
  489TMC3    C1 7320   1.973   1.076  16.786  0.5062  0.1521 -0.3148
  489TMC3    C2 7321   1.984   1.213  16.811 -0.7968  0.0025 -0.2514
  489TMC3    C3 7322   2.016   1.263  16.934  0.7974  0.2034  0.2847
  489TMC3    C4 7323   1.985   0.984  16.894 -0.3084 -0.7162  0.5905
  489TMC3    C5 7324   2.007   1.035  17.019  0.4319  0.1053 -0.4316
  489TMC3    C6 7325   2.039   1.168  17.032 -0.0900 -0.7225  0.6958
  489TMC3     C 7326   2.020   1.035  16.653  0.0657 -0.1877  0.4848
  489TMC3     O 7327   2.006   0.920  16.616  0.1129  0.2178 -0.3443
  489TMC3     H 7328   1.977   1.298  16.744  2.1246  0.4101 -0.0491
  489TMC3    H1 7329   1.988   0.876  16.881  2.8881 -0.2906 -2.0517
  489TMC3    H2 7330   2.052   1.208  17.132  0.3393  2.1150 -0.4871
  489TMC3    C7 7331   1.984   0.955  17.138  0.7650 -0.9963  0.3564
  489TMC3    C8 7332   2.125   1.354  16.919 -0.5773  0.1773 -0.7200
  489TMC3    O1 7333   2.023   0.999  17.243 -0.5584  0.3063 -0.7062
  489TMC3    O2 7334   2.214   1.313  16.846  0.2427  0.3323  0.9346
  490MPD2     C 7335   3.144   0.897  17.094  0.0533  0.0224 -0.3204
  490MPD2    C1 7336   3.149   0.782  17.166  0.1546  0.6044 -0.1625
  490MPD2    C2 7337   3.269   0.716  17.169  0.1129  0.3066 -0.1919
  490MPD2    C3 7338   3.386   0.770  17.128  0.8049 -0.1297  0.0674
  490MPD2    C4 7339   3.387   0.891  17.066  0.7211  0.4368  0.0952
  490MPD2    C5 7340   3.260   0.957  17.054  0.1404  0.3172  0.6769
  490MPD2     H 7341   3.274   0.623  17.224  0.7917  0.1973 -0.4334
  490MPD2    H1 7342   3.477   0.940  17.033  1.1780  0.0880  0.8327
  490MPD2    H2 7343   3.051   0.953  17.090 -0.8335 -1.3184  1.5639
  490MPD2    H3 7344   3.259   1.057  17.011  1.1764 -0.4114 -1.0408
  490MPD2     N 7345   3.506   0.707  17.166  0.1610 -0.8308 -0.7985
  490MPD2    H5 7346   3.508   0.622  17.221  0.6346 -0.9879 -1.0531
  490MPD2    N1 7347   3.035   0.711  17.219  0.2470 -0.2557  0.2852
  490MPD2    H7 7348   3.054   0.628  17.275 -0.7050 -1.1002 -0.6656
  491TMC3    C1 7349   2.816   0.636  17.257  0.3105 -0.2710  0.3856
  491TMC3    C2 7350   2.866   0.547  17.347 -1.0454 -0.0292 -0.4084
  491TMC3    C3 7351   2.822   0.419  17.349  0.2484 -0.2251 -0.4917
  491TMC3    C4 7352   2.713   0.602  17.171 -0.6998 -0.5053  0.0425
  491TMC3    C5 7353   2.674   0.469  17.185  0.6677 -0.1635 -0.7431
  491TMC3    C6 7354   2.736   0.375  17.258 -0.4866  0.5303  0.4041
  491TMC3     C 7355   2.899   0.740  17.200  0.2766 -0.5153 -0.1939
  491TMC3     O 7356   2.846   0.821  17.125  0.4876 -0.2549  0.0150
  491TMC3     H 7357   2.938   0.571  17.424 -1.9178  2.2042 -0.2876
  491TMC3    H1 7358   2.681   0.667  17.090 -0.5365 -0.4216  0.0451
  491TMC3    H2 7359   2.692   0.277  17.272  0.9482 -0.0724  0.6607
  491TMC3    C7 7360   2.586   0.412  17.089 -0.7999  0.0189 -0.0669
  491TMC3    C8 7361   2.906   0.318  17.414 -0.1262  0.0095 -0.1636
  491TMC3    O1 7362   2.546   0.299  17.113  0.0906  0.3611 -0.1328
  491TMC3    O2 7363   2.962   0.233  17.347  0.8762  0.2007  0.4120
  492MPD2     C 7364   3.377   0.269  11.474  0.2076 -0.3363  0.3380
  492MPD2    C1 7365   3.336   0.165  11.397  0.0684  0.3075  0.1735
  492MPD2    C2 7366   3.268   0.058  11.457 -0.2160  0.3352  0.0249
  492MPD2    C3 7367   3.246   0.060  11.596 -0.4873  0.7533 -0.1520
  492MPD2    C4 7368   3.288   0.162  11.677  0.4118 -0.1073 -0.4473
  492MPD2    C5 7369   3.358   0.264  11.611 -0.5784 -0.3077  0.0443
  492MPD2     H 7370   3.236   4.718  11.387  1.6322 -0.4823  0.0788
  492MPD2    H1 7371   3.278   0.159  11.785 -3.8493  0.5868 -0.8196
  492MPD2    H2 7372   3.429   0.353  11.431 -3.5157  1.9071  0.1907
  492MPD2    H3 7373   3.385   0.347  11.675  1.1879 -0.5048 -0.4509
  492MPD2     N 7374   3.164   4.694  11.654  0.1216 -0.2869 -0.1217
  492MPD2    H5 7375   3.146   4.714  11.752  3.0181 -0.9370  0.5500
  492MPD2    N1 7376   3.377   0.171  11.264 -0.7075  0.3211  0.0144
  492MPD2    H7 7377   3.415   0.258  11.229 -0.5929 -0.0329 -0.7458
  493TMC3    C1 7378   3.417   0.132  11.040  0.5298 -0.0102 -0.2460
  493TMC3    C2 7379   3.476   0.253  11.029 -0.2048 -0.3953 -0.1899
  493TMC3    C3 7380   3.483   0.312  10.907  0.1275  0.2753  0.4025
  493TMC3    C4 7381   3.360   0.071  10.935 -0.2878  0.5709  0.1054
  493TMC3    C5 7382   3.364   0.134  10.810 -0.9031 -0.4541 -0.6524
  493TMC3    C6 7383   3.428   0.252  10.794 -0.1485 -0.3812 -1.2073
  493TMC3     C 7384   3.378   0.069  11.169  0.3383  0.3643 -0.7190
  493TMC3     O 7385   3.352   4.685  11.169  0.2730 -0.0596  0.2365
  493TMC3     H 7386   3.529   0.294  11.114 -0.9067  1.5434 -0.6947
  493TMC3    H1 7387   3.309   4.713  10.944  0.6712  0.0275 -0.2311
  493TMC3    H2 7388   3.433   0.288  10.692  0.3846 -2.7615 -2.0105
  493TMC3    C7 7389   3.339   0.050  10.691  0.1558  0.0602 -0.3950
  493TMC3    C8 7390   3.541   0.449  10.908  0.3054  0.1999 -0.5171
  493TMC3    O1 7391   3.294   0.101  10.590  0.1431  0.8035  0.6104
  493TMC3    O2 7392   3.619   0.483  10.996 -0.8549  0.1554  0.3833
  494TMC3    C1 7393   3.856   2.513   0.229 -0.3183 -0.3801  0.2898
  494TMC3    C2 7394   3.905   2.379   0.222  0.4623 -0.0260  0.0201
  494TMC3    C3 7395   3.932   2.324   0.099  0.2442  0.3700  0.4550
  494TMC3    C4 7396   3.839   2.588   0.120 -0.4900  0.1972 -0.1744
  494TMC3    C5 7397   3.884   2.528   0.001  0.6523  0.2187 -0.0743
  494TMC3    C6 7398   3.922   2.400  17.729 -0.9971  0.4024  0.3163
  494TMC3     C 7399   3.769   2.534   0.346 -0.3117 -0.4307 -0.7610
  494TMC3     O 7400   3.797   2.483   0.453 -0.1949  0.1353  0.4378
  494TMC3     H 7401   3.934   2.331   0.315 -0.2719 -0.5502 -0.0237
  494TMC3    H1 7402   3.811   2.692   0.128  0.2986  0.3777  0.1915
  494TMC3    H2 7403   3.954   2.367  17.631  1.1717 -1.0511  1.5052
  494TMC3    C7 7404   3.903   2.615  17.632  0.5766 -0.3767 -0.0395
  494TMC3    C8 7405   3.981   2.188   0.090 -0.5405  0.2026 -0.0689
  494TMC3    O1 7406   3.990   2.572  17.555  0.1549 -0.0109  0.5855
  494TMC3    O2 7407   4.021   2.135   0.193 -0.0948 -0.0876  0.2899
  495TMC3    C1 7408   2.822   4.099  14.542  0.3497 -0.0980 -0.0898
  495TMC3    C2 7409   2.750   4.151  14.437  0.6077 -0.3015 -0.7866
  495TMC3    C3 7410   2.656   4.242  14.475  0.3186 -0.7980 -0.1090
  495TMC3    C4 7411   2.808   4.145  14.672  0.8748  0.3948  0.3543
  495TMC3    C5 7412   2.701   4.221  14.697  0.3654 -0.2871  0.1872
  495TMC3    C6 7413   2.623   4.281  14.606  0.0476 -0.2015  0.0846
  495TMC3     C 7414   2.826   3.954  14.541  0.0985  0.4511 -0.2039
  495TMC3     O 7415   2.791   3.901  14.642 -0.5282  0.7315  1.1169
  495TMC3     H 7416   2.745   4.094  14.345 -0.6906 -0.2766 -0.7431
  495TMC3    H1 7417   2.870   4.109  14.754  0.8348 -1.5121 -0.4632
  495TMC3    H2 7418   2.545   4.354  14.627 -0.4045 -0.5100 -0.4860
  495TMC3    C7 7419   2.675   4.237  14.841  0.7645  0.0139 -0.1215
  495TMC3    C8 7420   2.559   4.272  14.372  0.3387  0.5489 -0.0428
  495TMC3    O1 7421   2.771   4.267  14.916  0.0564  0.1461  0.0893
  495TMC3    O2 7422   2.452   4.319  14.401  0.1099  0.0580 -0.0981
  496MPD2     C 7423   0.464   4.222  15.050  0.6158 -0.1818  0.4766
  496MPD2    C1 7424   0.421   4.122  15.131  0.1797 -0.4080 -0.3805
  496MPD2    C2 7425   0.287   4.103  15.157  0.3060 -0.0621  0.2894
  496MPD2    C3 7426   0.192   4.179  15.086  0.7979 -0.6102  0.0555
  496MPD2    C4 7427   0.234   4.286  15.010  0.9229  0.3723 -0.7324
  496MPD2    C5 7428   0.371   4.308  14.992  0.0728  0.5088 -0.0155
  496MPD2     H 7429   0.257   4.025  15.225  0.3487  0.3095  0.7357
  496MPD2    H1 7430   0.170   4.362  14.967  0.9139  0.0399 -1.3014
  496MPD2    H2 7431   0.570   4.244  15.042  0.4309 -0.1171 -1.9614
  496MPD2    H3 7432   0.403   4.386  14.923 -2.3630  1.1966 -0.3890
  496MPD2     N 7433   0.057   4.158  15.118 -0.4267 -0.4102 -0.2499
  496MPD2    H5 7434   0.029   4.080  15.176  2.6693  0.2222  2.0774
  496MPD2    N1 7435   0.521   4.031  15.166  0.2135  0.6023 -0.1654
  496MPD2    H7 7436   0.614   4.051  15.132  0.8811  0.4350  1.5631
  497TMC3    C1 7437   4.568   4.190  15.136 -0.1532 -0.1842 -0.4230
  497TMC3    C2 7438   4.479   4.142  15.043  0.2553  0.2943 -0.3251
  497TMC3    C3 7439   4.404   4.036  15.091  0.4276  0.9579  0.2832
  497TMC3    C4 7440   4.576   4.152  15.273  0.1677 -1.0190  0.0189
  497TMC3    C5 7441   4.489   4.054  15.313 -0.1209 -0.4606 -0.3143
  497TMC3    C6 7442   4.402   3.988  15.218 -0.5415 -0.0465 -0.0579
  497TMC3     C 7443   4.692   4.240  15.079 -0.3817  0.1912 -0.7402
  497TMC3     O 7444   4.688   4.316  14.986 -0.0628  0.4331  0.1506
  497TMC3     H 7445   4.487   4.172  14.939  1.0146  0.5473 -0.1949
  497TMC3    H1 7446   4.650   4.209  15.328 -0.2241  1.6065 -2.1756
  497TMC3    H2 7447   4.350   3.896  15.241 -0.2094 -0.7393 -2.0805
  497TMC3    C7 7448   4.488   3.995  15.447 -0.2051 -0.1215  0.7443
  497TMC3    C8 7449   4.295   3.999  15.010 -0.7295  0.0450  0.4455
  497TMC3    O1 7450   4.414   3.898  15.475 -0.5496  0.2790  0.1528
  497TMC3    O2 7451   4.192   3.970  15.071 -0.3152  0.0778 -0.3401
  498MPD2     C 7452   1.190   4.721   9.789  0.5615  0.0382  0.2617
  498MPD2    C1 7453   1.103   0.053   9.861 -0.2551 -0.1209 -0.9265
  498MPD2    C2 7454   0.969   0.013   9.858  0.2470  0.1905  0.0096
  498MPD2    C3 7455   0.928   4.630   9.794  0.1536 -0.1621  0.0761
  498MPD2    C4 7456   1.023   4.563   9.717  0.5371  1.1198 -0.5557
  498MPD2    C5 7457   1.149   4.612   9.719  0.2598  0.6104  0.8021
  498MPD2     H 7458   0.901   0.079   9.912  0.1803 -1.2119  1.6326
  498MPD2    H1 7459   0.997   4.472   9.664  0.8049 -0.3230  1.8121
  498MPD2    H2 7460   1.293   0.016   9.781  0.8061 -1.0030 -0.8408
  498MPD2    H3 7461   1.220   4.574   9.646 -1.0798 -1.4017  0.5368
  498MPD2     N 7462   0.790   4.596   9.804 -0.0932  0.4311  0.4291
  498MPD2    H5 7463   0.728   4.665   9.846 -0.9739  0.5649 -1.0928
  498MPD2    N1 7464   1.133   0.173   9.933 -0.4481 -0.0346  0.1823
  498MPD2    H7 7465   1.058   0.232   9.969 -0.5950  0.6762 -1.2923
  499TMC3    C1 7466   1.259   0.348  10.037  0.6138 -0.3077  0.1134
  499TMC3    C2 7467   1.384   0.409  10.043 -0.1431 -0.0603 -0.3397
  499TMC3    C3 7468   1.387   0.529  10.108  0.0269 -0.0392  0.4615
  499TMC3    C4 7469   1.145   0.387  10.100  0.2751  0.0697 -1.0093
  499TMC3    C5 7470   1.164   0.503  10.176  0.2757 -0.2612 -0.1865
  499TMC3    C6 7471   1.286   0.574  10.180 -0.2184 -0.0941  0.5553
  499TMC3     C 7472   1.254   0.225   9.960  0.1128 -0.2128  0.1456
  499TMC3     O 7473   1.362   0.170   9.943  0.4792 -0.3405  0.0931
  499TMC3     H 7474   1.471   0.364   9.996  0.3054  0.4913 -0.0511
  499TMC3    H1 7475   1.050   0.336  10.099 -0.3743  1.2725 -1.2218
  499TMC3    H2 7476   1.280   0.674  10.222 -1.8226  0.3994 -0.8391
  499TMC3    C7 7477   1.052   0.586  10.168  0.3268  0.1738 -0.3164
  499TMC3    C8 7478   1.516   0.573  10.158  0.3891 -0.4272 -0.3426
  499TMC3    O1 7479   1.078   0.689  10.106 -0.1164  0.1497  0.0450
  499TMC3    O2 7480   1.516   0.606  10.279 -0.0293 -0.1483  0.3791
  500MPD2     C 7481   2.326   0.768   9.702 -0.7130 -0.2820 -0.2732
  500MPD2    C1 7482   2.314   0.844   9.818 -0.3009 -0.7270 -0.8759
  500MPD2    C2 7483   2.188   0.881   9.878  0.0787  0.3015  0.7289
  500MPD2    C3 7484   2.071   0.824   9.818 -0.4488 -0.2825  0.3804
  500MPD2    C4 7485   2.087   0.729   9.716  0.0310  0.7159  0.2726
  500MPD2    C5 7486   2.211   0.708   9.662 -0.1117  0.2221 -0.7924
  500MPD2     H 7487   2.183   0.946   9.964 -0.5900  0.7187  0.3795
  500MPD2    H1 7488   2.009   0.663   9.680 -0.6292  0.5352  2.0057
  500MPD2    H2 7489   2.418   0.733   9.656 -2.1435 -2.3047 -1.6208
  500MPD2    H3 7490   2.216   0.626   9.591 -1.2394 -0.4621 -0.0857
  500MPD2     N 7491   1.936   0.849   9.859  0.0974  0.0877  0.2747
  500MPD2    H5 7492   1.868   0.801   9.801  1.0456  0.2972 -1.0083
  500MPD2    N1 7493   2.430   0.903   9.882 -0.1971 -0.1902 -0.5521
  500MPD2    H7 7494   2.425   0.941   9.977  0.9751 -2.3444  0.3710
  501TMC3    C1 7495   2.650   0.986   9.898 -0.5711  0.0268  0.1236
  501TMC3    C2 7496   2.721   1.073   9.826 -0.9949  0.6891  0.2725
  501TMC3    C3 7497   2.801   1.162   9.889  0.1294  0.5103  0.3563
  501TMC3    C4 7498   2.627   0.996  10.032  0.8007 -0.5622 -0.1375
  501TMC3    C5 7499   2.720   1.080  10.095  0.5108  0.0255 -0.5605
  501TMC3    C6 7500   2.800   1.169  10.025  0.2171  0.3793 -0.5024
  501TMC3     C 7501   2.561   0.906   9.829 -0.1745  0.6235  0.3265
  501TMC3     O 7502   2.589   0.884   9.709  0.6670 -0.8327  0.4917
  501TMC3     H 7503   2.710   1.082   9.718 -1.1247 -0.8680  0.1502
  501TMC3    H1 7504   2.577   0.916  10.087  0.7582 -1.1453 -1.0344
  501TMC3    H2 7505   2.859   1.240  10.082 -1.1741  3.1797 -2.5717
  501TMC3    C7 7506   2.739   1.079  10.243 -0.8560  0.5309 -0.3326
  501TMC3    C8 7507   2.873   1.258   9.803 -0.0885  0.2915  0.5622
  501TMC3    O1 7508   2.829   1.149  10.276 -0.2851 -0.3568 -0.4089
  501TMC3    O2 7509   2.856   1.256   9.684 -0.7869 -0.0781  0.0933
  502TMC3    C1 7510   2.141   4.718  14.690 -0.3848 -0.1990  0.4917
  502TMC3    C2 7511   2.094   0.090  14.626 -0.1733 -0.2811 -0.0619
  502TMC3    C3 7512   1.968   0.133  14.646 -0.1500  0.5196 -0.3805
  502TMC3    C4 7513   2.050   4.641  14.763 -0.3660  0.4356  0.0522
  502TMC3    C5 7514   1.915   4.672  14.759 -0.2974 -0.3060  0.3989
  502TMC3    C6 7515   1.873   0.052  14.706 -0.3138  0.0990  0.1965
  502TMC3     C 7516   2.247   0.023  14.781 -0.4239  0.0988 -0.0980
  502TMC3     O 7517   2.323   0.110  14.739  0.9113 -0.4416  0.4370
  502TMC3     H 7518   2.163   0.156  14.575 -1.3874  1.1868  0.2099
  502TMC3    H1 7519   2.081   4.543  14.797 -2.1919 -0.2892 -0.4033
  502TMC3    H2 7520   1.775   0.091  14.734 -0.5636  1.0843 -2.0993
  502TMC3    C7 7521   1.861   4.639  14.888  0.3257 -0.8387  0.7714
  502TMC3    C8 7522   1.963   0.275  14.697 -0.2400 -0.2233  0.0248
  502TMC3    O1 7523   1.947   4.614  14.970  0.6294 -0.0067 -0.5076
  502TMC3    O2 7524   1.854   0.326  14.708  0.0469  0.3721  0.3490
  503MPD2     C 7525   4.568   1.269  17.042 -0.4961 -1.1565  0.0832
  503MPD2    C1 7526   4.513   1.298  17.168  0.6991 -0.3114  0.3568
  503MPD2    C2 7527   4.548   1.214  17.272  0.6099  0.1699 -0.1125
  503MPD2    C3 7528   4.616   1.095  17.259  0.3288  0.0879 -0.4876
  503MPD2    C4 7529   4.675   1.071  17.135 -0.4349 -0.5835 -0.0045
  503MPD2    C5 7530   4.646   1.152  17.029  0.0563 -0.9702  0.0615
  503MPD2     H 7531   4.503   1.229  17.369  0.9737 -0.4747  0.1544
  503MPD2    H1 7532   4.725   0.976  17.117 -0.0965 -0.4390  0.1640
  503MPD2    H2 7533   4.550   1.333  16.956  1.9089  1.1464  1.2808
  503MPD2    H3 7534   4.691   1.118  16.936  1.3929 -1.0930  0.7507
  503MPD2     N 7535   4.623   1.009  17.374  0.1252  0.4628 -0.1002
  503MPD2    H5 7536   4.574   1.046  17.455  1.6443  1.8804  0.1708
  503MPD2    N1 7537   4.432   1.413  17.184  0.2884 -0.2053 -0.3472
  503MPD2    H7 7538   4.416   1.443  17.279 -1.6276  0.4044 -0.8707
  504TMC3    C1 7539   4.697   0.830  17.508  0.1875 -1.1699  0.0337
  504TMC3    C2 7540   4.729   0.911  17.616  0.3157 -0.1711 -0.3472
  504TMC3    C3 7541   0.055   0.843  17.719  0.4969 -0.7744  0.8088
  504TMC3    C4 7542   0.005   0.703  17.495 -0.3179 -0.7385  1.1350
  504TMC3    C5 7543   0.069   0.652  17.603 -0.0444 -0.4738  0.4000
  504TMC3    C6 7544   0.098   0.715  17.714  0.2703  0.1868 -0.1788
  504TMC3     C 7545   4.679   0.887  17.379  1.3407 -0.4644 -0.5557
  504TMC3     O 7546   4.728   0.820  17.289  0.5616 -0.4759  0.0028
  504TMC3     H 7547   4.710   1.016  17.631  0.0209 -0.2923  0.1414
  504TMC3    H1 7548   4.720   0.639  17.410  0.5653 -2.2261  2.0352
  504TMC3    H2 7549   0.148   0.659   0.046  0.0064  0.6302  0.3076
  504TMC3    C7 7550   0.171   0.544  17.570 -0.3087  0.9753  0.3414
  504TMC3    C8 7551   0.078   0.913   0.101  0.2514  0.3315  0.0295
  504TMC3    O1 7552   0.242   0.498  17.659 -0.4228  0.4996  0.2963
  504TMC3    O2 7553   0.106   1.027   0.097  0.2093  0.7642 -0.4152
  505MPD2     C 7554   0.254   3.991  10.993  0.0719 -0.1486 -0.0369
  505MPD2    C1 7555   0.369   4.043  10.933 -0.7452  0.3108 -0.0931
  505MPD2    C2 7556   0.385   4.178  10.929  0.4347  0.1635 -0.5973
  505MPD2    C3 7557   0.287   4.266  10.971  0.6360 -0.1628 -0.0965
  505MPD2    C4 7558   0.168   4.211  11.016 -0.4513 -0.7900  0.1502
  505MPD2    C5 7559   0.153   4.074  11.015 -0.2679  0.5355  0.3174
  505MPD2     H 7560   0.473   4.220  10.882 -0.6962  1.9213 -1.1557
  505MPD2    H1 7561   0.091   4.282  11.044  0.8230  0.2367  1.0488
  505MPD2    H2 7562   0.237   3.885  11.004 -0.3565  0.1157  1.8354
  505MPD2    H3 7563   0.058   4.032  11.044  0.4548 -0.8270  0.7421
  505MPD2     N 7564   0.309   4.399  10.975 -0.0837 -0.0990 -0.2488
  505MPD2    H5 7565   0.401   4.434  10.950 -0.1803 -0.9007 -1.6984
  505MPD2    N1 7566   0.467   3.958  10.885  0.4487  0.0595  0.1895
  505MPD2    H7 7567   0.439   3.860  10.890  2.9669 -0.6518  0.6560
  506TMC3    C1 7568   0.671   3.884  10.791  0.3950 -0.3322  0.5659
  506TMC3    C2 7569   0.597   3.818  10.694 -0.1848  0.2666  0.1920
  506TMC3    C3 7570   0.642   3.822  10.562 -0.8941 -0.2375  1.0839
  506TMC3    C4 7571   0.790   3.932  10.763  0.5202 -0.1109 -0.1696
  506TMC3    C5 7572   0.834   3.933  10.633 -0.6550 -0.4534 -0.2452
  506TMC3    C6 7573   0.763   3.880  10.526 -0.8245  0.4883 -0.1956
  506TMC3     C 7574   0.597   3.992  10.853  0.3955  0.3388  0.1201
  506TMC3     O 7575   0.667   4.089  10.887 -0.7969  0.4533 -0.8113
  506TMC3     H 7576   0.500   3.778  10.721 -0.6532  0.1302 -1.6342
  506TMC3    H1 7577   0.860   3.978  10.831  2.2645 -1.6393 -0.9527
  506TMC3    H2 7578   0.799   3.890  10.424  1.3892 -2.8014  0.2517
  506TMC3    C7 7579   0.892   4.063  10.594  0.3051 -0.3353  0.2221
  506TMC3    C8 7580   0.539   3.808  10.459 -0.4436  0.8498 -0.8275
  506TMC3    O1 7581   0.960   4.072  10.495 -0.3433 -0.0051  1.0079
  506TMC3    O2 7582   0.436   3.758  10.497 -0.1218 -0.4825  0.1056
  507TMC3    C1 7583   0.703   0.603  14.835 -0.0594 -0.0095  0.3923
  507TMC3    C2 7584   0.661   0.534  14.725  0.3287 -0.4737 -0.0899
  507TMC3    C3 7585   0.629   0.598  14.612  0.3325 -0.3002  0.0759
  507TMC3    C4 7586   0.723   0.735  14.830 -0.0038 -0.5825  0.4410
  507TMC3    C5 7587   0.704   0.793  14.707  1.4719  0.0139 -0.3280
  507TMC3    C6 7588   0.662   0.725  14.594  0.5176  0.4176  0.0138
  507TMC3     C 7589   0.647   0.562  14.959 -0.1579  0.4767  1.1865
  507TMC3     O 7590   0.697   0.618  15.053  0.1775  0.4989 -0.4443
  507TMC3     H 7591   0.640   0.430  14.747 -0.2135 -0.8005 -2.2303
  507TMC3    H1 7592   0.758   0.791  14.915  1.2706  0.6077 -0.8845
  507TMC3    H2 7593   0.678   0.780  14.502 -0.3765  0.1753 -0.2800
  507TMC3    C7 7594   0.660   0.930  14.696 -0.0686 -0.0396 -1.0842
  507TMC3    C8 7595   0.488   0.571  14.592  0.0567  0.2016 -0.1700
  507TMC3    O1 7596   0.576   0.955  14.610  0.4180  0.0230  0.1369
  507TMC3    O2 7597   0.432   0.519  14.690  0.6544  0.0836 -0.2301
  508MPD2     C 7598   1.608   2.878  16.298 -0.2239 -0.3769 -0.2152
  508MPD2    C1 7599   1.636   2.999  16.362  0.5821 -0.0581  0.3143
  508MPD2    C2 7600   1.591   3.111  16.294  0.3494 -0.2933  0.5288
  508MPD2    C3 7601   1.528   3.110  16.170 -0.8125 -0.0912 -0.3088
  508MPD2    C4 7602   1.501   2.994  16.114  0.3252 -0.2696 -0.1371
  508MPD2    C5 7603   1.533   2.875  16.182 -0.2380 -0.6489  0.0759
  508MPD2     H 7604   1.605   3.207  16.341  0.6005  0.4913 -1.1609
  508MPD2    H1 7605   1.471   2.987  16.010  0.2370 -1.3927 -0.0287
  508MPD2    H2 7606   1.632   2.781  16.339  1.8652  0.4816  0.5514
  508MPD2    H3 7607   1.518   2.781  16.131 -1.5977  0.8237 -2.2529
  508MPD2     N 7608   1.484   3.233  16.127 -0.8035 -0.0353 -0.3453
  508MPD2    H5 7609   1.527   3.314  16.171  2.6101 -1.8980 -0.2909
  508MPD2    N1 7610   1.705   3.006  16.487  0.1606  0.1690 -0.0973
  508MPD2    H7 7611   1.700   3.099  16.528  2.6795  0.9273 -1.5361
  509TMC3    C1 7612   1.356   3.580  15.844 -1.1224 -0.2840 -0.1264
  509TMC3    C2 7613   1.472   3.646  15.864  0.0054 -0.5011  0.1357
  509TMC3    C3 7614   1.565   3.576  15.936 -0.1814 -0.5296  0.5167
  509TMC3    C4 7615   1.316   3.458  15.899  0.0430 -0.4279 -0.0294
  509TMC3    C5 7616   1.418   3.392  15.962 -0.0244 -0.5363  0.1415
  509TMC3    C6 7617   1.540   3.455  15.983 -0.1443 -0.2256 -0.2439
  509TMC3     C 7618   1.249   3.654  15.788 -0.2273 -0.1288 -0.2642
  509TMC3     O 7619   1.144   3.643  15.846 -0.3359  0.3064 -0.1064
  509TMC3     H 7620   1.481   3.753  15.849  0.1134 -0.6679 -0.9512
  509TMC3    H1 7621   1.221   3.409  15.884 -1.4148  2.6106 -0.7595
  509TMC3    H2 7622   1.622   3.409  16.036 -0.4750  1.0429  1.3568
  509TMC3    C7 7623   1.401   3.260  16.016 -0.0968 -0.0206  0.2293
  509TMC3    C8 7624   1.686   3.646  15.986 -0.4042 -0.1025 -0.1585
  509TMC3    O1 7625   1.345   3.182  15.937  0.4728 -0.3206 -0.2143
  509TMC3    O2 7626   1.732   3.602  16.090  0.3656 -0.3023  0.1305
  510MPD2     C 7627   3.675   3.993  14.337 -0.2944 -0.6622 -0.5245
  510MPD2    C1 7628   3.725   4.034  14.461  0.1011  0.5435  0.3908
  510MPD2    C2 7629   3.829   4.126  14.462  0.3007 -0.5670 -0.1811
  510MPD2    C3 7630   3.891   4.168  14.352  0.2305  0.8788  0.4053
  510MPD2    C4 7631   3.835   4.137  14.231  0.0712  0.2123 -0.2059
  510MPD2    C5 7632   3.723   4.058  14.226 -0.1445  0.0273 -0.5482
  510MPD2     H 7633   3.881   4.154  14.553 -0.5515  0.8262 -0.1350
  510MPD2    H1 7634   3.870   4.180  14.137  0.3505 -1.4267 -0.8529
  510MPD2    H2 7635   3.585   3.934  14.332  1.3577 -3.4890  2.6477
  510MPD2    H3 7636   3.678   4.028  14.132  2.0417 -1.3006 -1.1514
  510MPD2     N 7637   4.009   4.239  14.361 -0.2838 -0.9013 -0.4735
  510MPD2    H5 7638   4.030   4.260  14.458  0.9659  1.1117 -1.1820
  510MPD2    N1 7639   3.666   3.974  14.574 -0.0906  0.0627  0.2008
  510MPD2    H7 7640   3.598   3.903  14.552  1.8704 -1.1407 -2.0348
  511TMC3    C1 7641   3.604   3.927  14.787  0.3452 -0.2320 -0.0091
  511TMC3    C2 7642   3.562   3.982  14.904 -0.5832 -0.8956  0.4627
  511TMC3    C3 7643   3.521   3.891  15.000  0.7156 -0.0659  0.6794
  511TMC3    C4 7644   3.595   3.793  14.758 -0.4649 -0.0614  1.3048
  511TMC3    C5 7645   3.534   3.714  14.847  0.3794 -0.2609  0.4141
  511TMC3    C6 7646   3.515   3.759  14.976 -0.5421  0.3680 -0.9188
  511TMC3     C 7647   3.672   4.020  14.701 -1.0252  0.2472  0.3998
  511TMC3     O 7648   3.730   4.115  14.750 -0.9054  0.1128 -0.6552
  511TMC3     H 7649   3.570   4.088  14.927  0.9551 -0.9539  0.2119
  511TMC3    H1 7650   3.638   3.766  14.662  2.5355  0.3156  2.5570
  511TMC3    H2 7651   3.468   3.693  15.049  0.6238 -0.1315 -0.6131
  511TMC3    C7 7652   3.503   3.578  14.804 -1.0189 -0.0187 -0.4705
  511TMC3    C8 7653   3.533   3.928  15.141  0.0820  0.7493 -0.2251
  511TMC3    O1 7654   3.489   3.556  14.686  0.1444  0.7089  0.5890
  511TMC3    O2 7655   3.576   3.840  15.220 -0.0977  0.2927  0.3286
  512TMC3    C1 7656   2.630   3.912  13.127  0.7646  0.3445 -0.2091
  512TMC3    C2 7657   2.749   3.887  13.187  0.1007 -0.0402  0.3926
  512TMC3    C3 7658   2.780   3.760  13.222  0.0226 -0.3179  0.4093
  512TMC3    C4 7659   2.536   3.816  13.110 -0.2074  0.4546 -0.5585
  512TMC3    C5 7660   2.571   3.689  13.133  0.5257  0.2111 -0.4098
  512TMC3    C6 7661   2.691   3.658  13.194  0.1031  0.4975  0.2445
  512TMC3     C 7662   2.582   4.048  13.103 -0.2893  0.9876  0.4030
  512TMC3     O 7663   2.463   4.065  13.080 -0.2027  0.9192  0.1704
  512TMC3     H 7664   2.831   3.956  13.201  0.1119  0.0601 -0.1797
  512TMC3    H1 7665   2.444   3.837  13.057 -1.1929  0.4527  1.1611
  512TMC3    H2 7666   2.718   3.558  13.225 -3.0775 -0.5036 -0.1711
  512TMC3    C7 7667   2.500   3.586  13.063  0.0790 -0.3192 -0.4094
  512TMC3    C8 7668   2.914   3.721  13.259  0.7240  0.6398  0.2789
  512TMC3    O1 7669   2.394   3.619  13.007 -0.4874  0.3085  0.1408
  512TMC3    O2 7670   2.934   3.603  13.233 -0.0691  0.4668  0.6110
  513MPD2     C 7671   0.028   3.407  13.548  0.7766  0.2714 -0.0546
  513MPD2    C1 7672   0.025   3.361  13.418 -0.4454  0.5625 -0.8095
  513MPD2    C2 7673   0.128   3.394  13.333 -0.7360  1.3146 -0.2574
  513MPD2    C3 7674   0.230   3.477  13.364 -0.0367 -0.9680 -0.1155
  513MPD2    C4 7675   0.236   3.515  13.499 -0.4608  1.0014  0.3292
  513MPD2    C5 7676   0.139   3.483  13.585 -0.4442 -0.0186 -0.3319
  513MPD2     H 7677   0.115   3.350  13.235  2.4061 -0.0959 -0.0672
  513MPD2    H1 7678   0.326   3.562  13.538  0.3105 -2.1206  2.3136
  513MPD2    H2 7679   4.684   3.382  13.616  1.8279 -1.9837  0.3721
  513MPD2    H3 7680   0.142   3.524  13.686 -2.4350  0.2337 -0.3843
  513MPD2     N 7681   0.325   3.502  13.259 -0.0734  0.1157  0.0277
  513MPD2    H5 7682   0.308   3.453  13.172  0.7525 -1.5983  0.8485
  513MPD2    N1 7683   4.661   3.291  13.355 -0.1304 -0.1947 -0.7422
  513MPD2    H7 7684   4.678   3.271  13.257  3.0237  1.7255 -0.5736
  514TMC3    C1 7685   4.465   3.171  13.310  0.0855  0.4094 -0.9473
  514TMC3    C2 7686   4.439   3.259  13.211  0.1658  0.1205  0.1540
  514TMC3    C3 7687   4.445   3.232  13.077 -0.0080 -0.7278 -0.2444
  514TMC3    C4 7688   4.534   3.063  13.269 -0.4964 -0.8780 -0.3723
  514TMC3    C5 7689   4.543   3.029  13.135 -0.2756  0.7621 -0.2182
  514TMC3    C6 7690   4.472   3.102  13.038 -0.2946 -0.7341 -0.5944
  514TMC3     C 7691   4.550   3.236  13.407 -0.3951  0.0210 -0.8225
  514TMC3     O 7692   4.535   3.204  13.527  0.2197 -0.2343 -0.1730
  514TMC3     H 7693   4.427   3.361  13.246  1.8053 -0.4353  2.3046
  514TMC3    H1 7694   4.583   3.009  13.349 -0.5515 -1.2406 -0.5823
  514TMC3    H2 7695   4.465   3.071  12.935  2.3449  0.9932 -1.3010
  514TMC3    C7 7696   4.680   3.007  13.106  0.2926  0.4573  0.3613
  514TMC3    C8 7697   4.529   3.319  13.001 -0.0731  0.2724 -0.0316
  514TMC3    O1 7698   0.024   3.047  13.191  0.1676 -0.3303  0.1433
  514TMC3    O2 7699   4.599   3.393  13.069 -0.2566 -0.2250  0.6604
  515MPD2     C 7700   2.537   1.345  14.832  0.2415 -0.3631  0.4274
  515MPD2    C1 7701   2.561   1.208  14.839 -0.2538  0.0505  0.1147
  515MPD2    C2 7702   2.679   1.167  14.901  0.1188  0.0610 -0.5852
  515MPD2    C3 7703   2.769   1.265  14.948 -0.1577 -0.3140  0.6223
  515MPD2    C4 7704   2.737   1.400  14.945 -0.7588  0.0217  0.8458
  515MPD2    C5 7705   2.627   1.447  14.877 -0.1556  0.1548  0.3550
  515MPD2     H 7706   2.706   1.063  14.888 -1.0316 -0.4963  1.4550
  515MPD2    H1 7707   2.812   1.470  14.978  0.5849  0.0917 -2.3394
  515MPD2    H2 7708   2.445   1.381  14.789  1.2673  1.6791 -0.0463
  515MPD2    H3 7709   2.593   1.550  14.880 -2.2851 -0.5759  1.8919
  515MPD2     N 7710   2.900   1.240  14.999  0.0248 -0.6537 -0.6580
  515MPD2    H5 7711   2.959   1.323  14.998 -0.8715 -0.0371 -2.1718
  515MPD2    N1 7712   2.461   1.120  14.789  0.0313 -0.2181  0.0260
  515MPD2    H7 7713   2.387   1.172  14.743 -1.0590 -0.7387  1.2100
  516TMC3    C1 7714   2.358   0.917  14.723 -0.1436  0.7014 -0.5353
  516TMC3    C2 7715   2.247   0.973  14.665  0.4282 -1.1779 -0.9372
  516TMC3    C3 7716   2.183   0.901  14.569  0.1193  0.5375 -0.3282
  516TMC3    C4 7717   2.385   0.789  14.699 -0.5870 -0.6478 -0.8696
  516TMC3    C5 7718   2.316   0.722  14.597 -0.7598 -0.7546  0.1228
  516TMC3    C6 7719   2.214   0.777  14.531  0.2246  0.8452  0.5554
  516TMC3     C 7720   2.452   0.987  14.818 -0.8243  0.2606  0.3416
  516TMC3     O 7721   2.530   0.916  14.885 -0.0353  0.3864  0.4221
  516TMC3     H 7722   2.216   1.076  14.684  0.3313 -0.9701 -2.2279
  516TMC3    H1 7723   2.463   0.739  14.755 -1.4267  0.1974  1.0901
  516TMC3    H2 7724   2.156   0.723  14.457  0.5056  2.8627 -1.1415
  516TMC3    C7 7725   2.369   0.596  14.557  0.7492  0.1998  0.4459
  516TMC3    C8 7726   2.093   0.973  14.480  0.4488  0.0852 -1.0329
  516TMC3    O1 7727   2.480   0.567  14.596 -0.2079  0.0069 -0.1645
  516TMC3    O2 7728   2.011   0.903  14.421  0.2716 -0.0688  0.9463
  517MPD2     C 7729   2.751   2.862  17.480  0.7495  0.5087  0.0083
  517MPD2    C1 7730   2.875   2.811  17.517  0.2612  0.1253  0.0966
  517MPD2    C2 7731   2.959   2.886  17.593 -0.6122  0.5133  0.6094
  517MPD2    C3 7732   2.924   3.014  17.627 -0.4760 -0.3186  0.0817
  517MPD2    C4 7733   2.812   3.071  17.575 -0.2090 -0.6149 -0.7040
  517MPD2    C5 7734   2.724   2.990  17.511  0.3996 -0.6879 -0.4796
  517MPD2     H 7735   3.043   2.845  17.648 -0.5729  2.4032  1.9441
  517MPD2    H1 7736   2.787   3.176  17.590  0.8372 -0.4426 -0.1702
  517MPD2    H2 7737   2.690   2.814  17.404  0.2309  2.7352 -0.9801
  517MPD2    H3 7738   2.628   3.027  17.476  1.8155  1.0403 -2.4692
  517MPD2     N 7739   3.002   3.104  17.711 -0.7411 -0.0340  0.9219
  517MPD2    H5 7740   2.971   3.200  17.723  1.7677  1.0408 -1.2522
  517MPD2    N1 7741   2.911   2.679  17.481  0.2938  0.2604 -0.2234
  517MPD2    H7 7742   3.004   2.643  17.497  0.4937  0.2893 -1.3323
  518TMC3    C1 7743   2.900   2.455  17.411  0.6589 -0.6241 -0.2583
  518TMC3    C2 7744   2.828   2.341  17.436 -0.1692  0.4982  0.5378
  518TMC3    C3 7745   2.872   2.213  17.394  0.3145  0.3577 -0.4066
  518TMC3    C4 7746   3.028   2.452  17.345  0.8325 -0.0627  0.5660
  518TMC3    C5 7747   3.069   2.327  17.309  0.1808 -0.0725  0.1471
  518TMC3    C6 7748   2.991   2.205  17.324  0.6452  0.5347 -0.6197
  518TMC3     C 7749   2.828   2.579  17.435 -0.8426  0.0218  0.2474
  518TMC3     O 7750   2.708   2.583  17.418 -0.1804  0.0598  0.3623
  518TMC3     H 7751   2.727   2.355  17.473 -0.1697 -3.3354  1.9872
  518TMC3    H1 7752   3.088   2.540  17.324  0.0946  0.0332 -1.1586
  518TMC3    H2 7753   3.041   2.111  17.302  1.0530  0.2521  1.5005
  518TMC3    C7 7754   3.213   2.316  17.299  0.1868 -0.0319  0.0163
  518TMC3    C8 7755   2.794   2.094  17.407 -0.4386  0.3677  0.1277
  518TMC3    O1 7756   3.272   2.395  17.367 -0.3572  0.1163  0.0263
  518TMC3    O2 7757   2.829   1.995  17.344 -0.9030  0.4623 -0.2090
  519MPD2     C 7758   4.114   0.423  14.570  0.0910 -0.3387 -0.5751
  519MPD2    C1 7759   4.037   0.411  14.450  0.2916  0.2704 -0.4366
  519MPD2    C2 7760   4.046   0.283  14.387  0.2845 -0.7653 -0.6907
  519MPD2    C3 7761   4.134   0.187  14.427 -0.1702 -0.4926  0.1808
  519MPD2    C4 7762   4.223   0.215  14.528  0.0155  0.2059 -0.4161
  519MPD2    C5 7763   4.205   0.327  14.605 -0.6222 -0.8522  1.1611
  519MPD2     H 7764   3.970   0.261  14.312  0.6490 -0.8758 -1.0316
  519MPD2    H1 7765   4.286   0.142  14.578 -1.2789  0.2627  1.3002
  519MPD2    H2 7766   4.100   0.514  14.627 -1.3925 -0.6963 -0.3818
  519MPD2    H3 7767   4.276   0.340  14.686  0.7797  1.1984 -0.3878
  519MPD2     N 7768   4.153   0.055  14.364  0.1390 -0.1194 -0.0287
  519MPD2    H5 7769   4.216   4.726  14.408  1.3964  2.2152  1.7101
  519MPD2    N1 7770   3.950   0.518  14.413 -0.3199 -0.1569  0.1132
  519MPD2    H7 7771   3.932   0.585  14.487  0.6987  0.8067 -0.5161
  520TMC3    C1 7772   4.155   4.623  14.202 -0.7892  0.3206 -0.2817
  520TMC3    C2 7773   4.081   4.562  14.105  0.5792  0.3866  0.0156
  520TMC3    C3 7774   4.143   4.484  14.014 -0.9734  0.6288  0.0306
  520TMC3    C4 7775   4.294   4.623  14.205  0.2928  0.0037 -0.0383
  520TMC3    C5 7776   4.353   4.559  14.105  0.1353 -0.1251  0.4068
  520TMC3    C6 7777   4.283   4.491  14.008 -0.0950  0.4297  0.5903
  520TMC3     C 7778   4.092   0.012  14.249  0.6184  0.1052  1.0534
  520TMC3     O 7779   4.011   0.065  14.174 -0.1079 -0.5556 -0.1026
  520TMC3     H 7780   3.974   4.557  14.118  0.4468 -0.9830 -1.5612
  520TMC3    H1 7781   4.352   4.688  14.269  3.5222 -2.2987 -0.6400
  520TMC3    H2 7782   4.339   4.427  13.941 -1.5748 -1.4141  1.0970
  520TMC3    C7 7783   4.495   4.575  14.093 -0.4967 -0.1301  0.1571
  520TMC3    C8 7784   4.083   4.503  13.883 -0.3014  0.6695  0.4824
  520TMC3    O1 7785   4.558   4.592  14.194  0.2168  0.7138 -0.3299
  520TMC3    O2 7786   4.153   4.484  13.786  0.0999 -0.5787  0.2935
  521MPD2     C 7787   0.547   4.162  17.232 -0.5741  0.3758  0.5918
  521MPD2    C1 7788   0.537   4.039  17.170  0.8097 -0.0724 -0.1777
  521MPD2    C2 7789   0.655   3.980  17.131  0.2081  0.2757  0.0619
  521MPD2    C3 7790   0.778   4.043  17.135 -0.0282 -0.0187  0.5137
  521MPD2    C4 7791   0.787   4.171  17.180  0.4246 -0.7744  0.8906
  521MPD2    C5 7792   0.670   4.229  17.229 -0.1807  0.1338  0.2487
  521MPD2     H 7793   0.661   3.891  17.070 -0.8111  0.7463 -0.7084
  521MPD2    H1 7794   0.884   4.220  17.182  0.4627 -0.9188  2.1363
  521MPD2    H2 7795   0.464   4.226  17.259  0.5070  2.6817 -1.4961
  521MPD2    H3 7796   0.659   4.334  17.253  1.9443  0.9741 -2.4014
  521MPD2     N 7797   0.887   3.968  17.084  0.1746 -1.1686  0.3279
  521MPD2    H5 7798   0.867   3.873  17.054  0.2968 -1.0787 -0.0294
  521MPD2    N1 7799   0.418   3.974  17.170  0.3491  0.0357 -0.1557
  521MPD2    H7 7800   0.339   4.022  17.211  0.4163 -1.1354  1.3259
  522TMC3    C1 7801   1.108   3.892  17.028 -0.6802 -0.7957  0.4982
  522TMC3    C2 7802   1.219   3.862  17.100  0.2946  0.0545 -0.2736
  522TMC3    C3 7803   1.271   3.738  17.080  0.0555 -0.3988  0.0490
  522TMC3    C4 7804   1.060   3.806  16.935  0.0771  0.2952 -0.6484
  522TMC3    C5 7805   1.117   3.688  16.921  0.0988 -0.3869 -0.1218
  522TMC3    C6 7806   1.219   3.648  16.993 -0.5987  0.6232  0.3546
  522TMC3     C 7807   1.021   4.005  17.067  0.0567  0.3783  0.2229
  522TMC3     O 7808   1.083   4.102  17.112 -0.0276 -0.1869  0.1451
  522TMC3     H 7809   1.268   3.945  17.150  0.0758 -0.3273  0.5686
  522TMC3    H1 7810   0.970   3.832  16.881 -1.1927 -2.5420  0.1361
  522TMC3    H2 7811   1.249   3.544  17.000 -1.2245  0.2838 -2.1953
  522TMC3    C7 7812   1.081   3.591  16.813  0.1391  0.6278  0.7202
  522TMC3    C8 7813   1.397   3.708  17.142  0.6238 -0.7641 -0.2468
  522TMC3    O1 7814   1.138   3.480  16.812  0.0971  0.1967 -0.3574
  522TMC3    O2 7815   1.429   3.777  17.236 -0.0957 -0.4817 -0.0607
  523MPD2     C 7816   2.895   3.012   9.438  0.0762  0.5998 -0.4743
  523MPD2    C1 7817   2.906   2.967   9.562 -0.0096 -0.0114 -0.5805
  523MPD2    C2 7818   2.798   2.976   9.646 -0.8899 -0.0949 -0.2004
  523MPD2    C3 7819   2.670   3.020   9.603 -0.4784 -0.9090  0.0045
  523MPD2    C4 7820   2.658   3.057   9.470 -0.0766 -0.4546 -0.0307
  523MPD2    C5 7821   2.769   3.052   9.389 -0.0369  0.2783 -0.1297
  523MPD2     H 7822   2.802   2.935   9.746  0.6686  0.2200 -0.1295
  523MPD2    H1 7823   2.570   3.100   9.422 -0.8855  0.6071  2.4073
  523MPD2    H2 7824   2.973   3.003   9.363 -0.0286 -2.7731 -0.1839
  523MPD2    H3 7825   2.758   3.094   9.290 -0.2836  1.5060  0.4190
  523MPD2     N 7826   2.558   3.034   9.686  0.0767 -0.1191  0.1602
  523MPD2    H5 7827   2.474   3.079   9.650 -0.0843 -1.6755 -1.4313
  523MPD2    N1 7828   3.036   2.905   9.602 -0.3034  0.2351 -0.2529
  523MPD2    H7 7829   3.112   2.909   9.535  1.5500 -0.6316  1.8108
  524TMC3    C1 7830   2.417   3.015   9.875 -0.5170  0.4888  0.0250
  524TMC3    C2 7831   2.414   3.017  10.013 -0.2305 -0.0769 -0.5473
  524TMC3    C3 7832   2.311   2.963  10.079 -0.7812  0.0077  0.4944
  524TMC3    C4 7833   2.315   2.969   9.800  0.2055  0.2337  0.2824
  524TMC3    C5 7834   2.205   2.921   9.868 -0.0352 -0.6737  0.2613
  524TMC3    C6 7835   2.205   2.918  10.003  0.0396  0.4809  0.1144
  524TMC3     C 7836   2.554   3.015   9.824  0.5570 -1.2881 -1.0170
  524TMC3     O 7837   2.647   2.988   9.896 -0.1994  0.8902  0.1482
  524TMC3     H 7838   2.505   3.044  10.066 -0.9607 -2.6676  2.0540
  524TMC3    H1 7839   2.327   2.950   9.694  0.7848  3.7836 -0.2939
  524TMC3    H2 7840   2.111   2.882  10.045  0.9287 -0.3446  1.3956
  524TMC3    C7 7841   2.088   2.870   9.801 -0.3426 -0.3839  0.0167
  524TMC3    C8 7842   2.305   2.965  10.221 -0.0018  0.2942  0.3431
  524TMC3    O1 7843   2.020   2.788   9.865 -0.2810 -0.3912  0.4115
  524TMC3    O2 7844   2.242   2.875  10.274 -0.4830  0.7048 -0.5542
  525MPD2     C 7845   0.861   0.048  14.267  0.3404 -0.7538 -0.4582
  525MPD2    C1 7846   0.980   0.065  14.337 -0.0941 -0.0740 -0.6950
  525MPD2    C2 7847   1.069   0.168  14.303  0.0408  0.0490  0.2549
  525MPD2    C3 7848   1.031   0.255  14.206 -0.2209 -0.2201 -0.3681
  525MPD2    C4 7849   0.919   0.239  14.137 -0.0739 -0.0782 -0.1783
  525MPD2    C5 7850   0.829   0.135  14.169  0.4057 -0.6617  0.3985
  525MPD2     H 7851   1.158   0.184  14.364  0.0182  1.0820  0.0106
  525MPD2    H1 7852   0.896   0.309  14.057 -1.2050 -1.6745 -1.2621
  525MPD2    H2 7853   0.786   4.712  14.296  1.2135 -2.3583 -2.3157
  525MPD2    H3 7854   0.731   0.131  14.123  0.5865 -2.4696  0.1554
  525MPD2     N 7855   1.091   0.382  14.193  0.5654 -0.4572  0.2882
  525MPD2    H5 7856   1.035   0.453  14.148  1.7538  1.4758  1.8376
  525MPD2    N1 7857   1.021   4.704  14.433 -0.5257 -1.0004  0.0086
  525MPD2    H7 7858   1.110   4.715  14.481  0.1754 -1.5045 -1.1773
  526TMC3    C1 7859   1.004   4.538  14.598 -0.5649 -0.3666 -0.7084
  526TMC3    C2 7860   0.916   4.477  14.681 -0.4818  0.6754 -0.0257
  526TMC3    C3 7861   0.957   4.425  14.802 -0.3181  0.9891  0.0725
  526TMC3    C4 7862   1.136   4.533  14.610 -0.5562  0.2451  0.3267
  526TMC3    C5 7863   1.180   4.474  14.726  0.2650 -0.1842  0.6753
  526TMC3    C6 7864   1.091   4.434  14.823 -0.0414  0.4100  0.1419
  526TMC3     C 7865   0.943   4.605  14.486  1.0628 -1.0162 -0.6607
  526TMC3     O 7866   0.828   4.573  14.455  0.5548 -0.3595  0.2842
  526TMC3     H 7867   0.808   4.476  14.665 -0.2078  1.6832 -2.0137
  526TMC3    H1 7868   1.205   4.572  14.536 -0.7689  0.4340  0.2277
  526TMC3    H2 7869   1.135   4.414  14.921  0.1549  1.8013  0.3405
  526TMC3    C7 7870   1.312   4.418  14.747  0.0417 -0.6556  0.3668
  526TMC3    C8 7871   0.880   4.452  14.921 -0.1168 -0.0493  0.3332
  526TMC3    O1 7872   1.351   4.391  14.858  0.4564  0.1490  0.0975
  526TMC3    O2 7873   0.930   4.410  15.021 -0.0745  0.1488 -0.4442
  527MPD2     C 7874   3.920   3.740   1.500  0.3236 -0.0598  0.1832
  527MPD2    C1 7875   3.826   3.664   1.424 -0.0745 -0.0200  0.2312
  527MPD2    C2 7876   3.883   3.574   1.338  0.1224 -0.1913  0.3199
  527MPD2    C3 7877   4.020   3.542   1.342  0.0349  0.6081 -0.5976
  527MPD2    C4 7878   4.101   3.598   1.438  0.0252  0.5947  0.2892
  527MPD2    C5 7879   4.054   3.709   1.501  0.0702  0.1844 -0.2334
  527MPD2     H 7880   3.822   3.529   1.262 -0.2821  2.4046 -0.8873
  527MPD2    H1 7881   4.210   3.596   1.443 -0.0973  1.3125  2.8815
  527MPD2    H2 7882   3.895   3.812   1.577 -1.0432  0.8378 -1.1126
  527MPD2    H3 7883   4.122   3.766   1.564  2.5645  0.1821 -2.9448
  527MPD2     N 7884   4.066   3.443   1.247 -0.5529  0.6543  0.3698
  527MPD2    H5 7885   3.997   3.404   1.184 -0.5590 -1.0037  1.3730
  527MPD2    N1 7886   3.683   3.682   1.433  0.4136 -0.1821 -0.1139
  527MPD2    H7 7887   3.628   3.637   1.360 -3.1680 -0.0338  2.4790
  528TMC3    C1 7888   3.470   3.770   1.470  0.8634  0.4234  0.4889
  528TMC3    C2 7889   3.442   3.712   1.353 -0.1698 -0.3652 -0.3347
  528TMC3    C3 7890   3.378   3.785   1.258 -0.0742  0.3445 -0.4051
  528TMC3    C4 7891   3.431   3.894   1.497  0.0482  0.0591 -0.2330
  528TMC3    C5 7892   3.365   3.969   1.403  0.2567  0.1846 -0.4566
  528TMC3    C6 7893   3.346   3.920   1.275  0.1137  0.2605  0.0197
  528TMC3     C 7894   3.607   3.750   1.521  0.2904  0.0918  0.0841
  528TMC3     O 7895   3.644   3.798   1.628 -0.3020  0.4179  0.0730
  528TMC3     H 7896   3.466   3.609   1.331  0.6110  0.2785 -2.4638
  528TMC3    H1 7897   3.473   3.954   1.577  2.0035 -2.0414  0.2901
  528TMC3    H2 7898   3.319   3.986   1.194  1.5525  0.4456 -0.3071
  528TMC3    C7 7899   3.365   4.114   1.422 -0.0087 -0.3075  0.1478
  528TMC3    C8 7900   3.390   3.738   1.116  0.4218 -0.5675  0.5163
  528TMC3    O1 7901   3.394   4.181   1.326  0.3745  0.4482 -0.2702
  528TMC3    O2 7902   3.462   3.808   1.042  0.2674 -0.1730  0.2651
  529MPD2     C 7903   1.053   1.311   0.663 -0.5499 -0.1004  0.2522
  529MPD2    C1 7904   1.178   1.301   0.611 -0.2073 -0.3478  0.5474
  529MPD2    C2 7905   1.217   1.377   0.501  0.6580 -0.1608 -0.5370
  529MPD2    C3 7906   1.119   1.455   0.439 -0.4161 -0.0222 -0.1568
  529MPD2    C4 7907   0.995   1.470   0.492 -0.1022 -0.1495  0.4165
  529MPD2    C5 7908   0.962   1.388   0.600 -0.9719  0.2018 -0.5733
  529MPD2     H 7909   1.321   1.378   0.472  0.3629  1.2686 -1.5311
  529MPD2    H1 7910   0.922   1.534   0.443 -1.5546 -1.6410  0.6480
  529MPD2    H2 7911   1.017   1.250   0.746 -0.8361  0.8052  0.7957
  529MPD2    H3 7912   0.866   1.384   0.650 -0.1495  0.6674  1.0170
  529MPD2     N 7913   1.137   1.523   0.314 -0.2418  0.2341  1.0185
  529MPD2    H5 7914   1.056   1.569   0.274 -1.4441 -2.3605  0.4718
  529MPD2    N1 7915   1.277   1.216   0.663 -0.2474  0.5130  0.7010
  529MPD2    H7 7916   1.360   1.206   0.607 -0.5129 -0.8638  0.5496
  530TMC3    C1 7917   1.402   1.095   0.833  1.0062  0.0830 -0.0438
  530TMC3    C2 7918   1.519   1.154   0.794  0.1486  0.6692 -0.3551
  530TMC3    C3 7919   1.635   1.098   0.841 -0.3927  1.0294 -0.1645
  530TMC3    C4 7920   1.404   0.986   0.918  0.0487 -0.3044  0.2573
  530TMC3    C5 7921   1.524   0.940   0.970  0.0931  0.6602 -0.3284
  530TMC3    C6 7922   1.644   0.992   0.927 -0.1293 -0.5130 -0.6183
  530TMC3     C 7923   1.273   1.148   0.780 -0.8675  0.0769  0.3309
  530TMC3     O 7924   1.177   1.116   0.852  0.1410 -0.5663 -0.0033
  530TMC3     H 7925   1.510   1.243   0.734  1.3220  1.3766  0.5348
  530TMC3    H1 7926   1.310   0.934   0.932  0.4267 -1.3466 -1.0846
  530TMC3    H2 7927   1.738   0.939   0.936 -0.6133 -0.8399  2.5510
  530TMC3    C7 7928   1.524   0.801   1.008  0.3295  0.7989 -0.0731
  530TMC3    C8 7929   1.750   1.182   0.817  0.2042  0.3683  0.4564
  530TMC3    O1 7930   1.617   0.731   0.962 -0.6000  0.2320 -0.2968
  530TMC3    O2 7931   1.722   1.292   0.773  0.3052 -0.0925  0.1307
  531MPD2     C 7932   0.315   3.026  12.748  0.3736  0.6048  0.6023
  531MPD2    C1 7933   0.287   3.098  12.856 -0.3903  0.0010 -0.1316
  531MPD2    C2 7934   0.175   3.076  12.937  0.4445  0.4237 -0.3055
  531MPD2    C3 7935   0.073   2.986  12.896 -0.2807  0.0091  0.2696
  531MPD2    C4 7936   0.101   2.920  12.775  0.1351  0.6405  0.1720
  531MPD2    C5 7937   0.222   2.941  12.704 -0.8780 -0.2392  0.0156
  531MPD2     H 7938   0.170   3.130  13.031  1.0613 -0.4211  0.2119
  531MPD2    H1 7939   0.031   2.849  12.733 -0.0209  1.3908 -0.8417
  531MPD2    H2 7940   0.398   3.040  12.680 -0.1159 -0.2114 -0.1687
  531MPD2    H3 7941   0.240   2.893  12.608 -1.8785 -1.7250  0.5603
  531MPD2     N 7942   4.696   2.967  12.973  0.4054 -0.1953 -0.2282
  531MPD2    H5 7943   4.630   2.902  12.932 -0.8508  0.0003  1.4829
  531MPD2    N1 7944   0.394   3.182  12.893  0.1216  0.3647 -0.3659
  531MPD2    H7 7945   0.469   3.199  12.828  1.1972  1.0135  1.0407
  532TMC3    C1 7946   0.495   3.362  13.018 -0.3807  0.9562  0.5135
  532TMC3    C2 7947   0.458   3.490  13.054 -0.1542 -0.5885  0.1943
  532TMC3    C3 7948   0.524   3.557  13.154  0.2064  0.1532  0.0974
  532TMC3    C4 7949   0.594   3.301  13.074 -0.1196  0.3266  0.0913
  532TMC3    C5 7950   0.668   3.372  13.167  0.0386 -0.4207 -0.5534
  532TMC3    C6 7951   0.643   3.504  13.197 -0.2297  0.6985  0.3079
  532TMC3     C 7952   0.378   3.283  12.991 -0.1828  0.6077  0.3169
  532TMC3     O 7953   0.276   3.327  13.044 -0.5515  0.2985 -0.8268
  532TMC3     H 7954   0.364   3.524  13.014 -0.1936 -1.0079 -0.0632
  532TMC3    H1 7955   0.607   3.194  13.059 -0.4463  0.5244 -1.5679
  532TMC3    H2 7956   0.701   3.564  13.266 -0.9007  2.7411 -0.9225
  532TMC3    C7 7957   0.775   3.310  13.240 -0.5321 -0.0366  0.3682
  532TMC3    C8 7958   0.437   3.584  13.268  0.2730 -0.4448  0.2166
  532TMC3    O1 7959   0.846   3.386  13.304  0.3511 -0.1532  0.3856
  532TMC3    O2 7960   0.483   3.629  13.371 -0.4799  0.0704 -0.1082
  533TMC3    C1 7961   1.216   0.573  14.253 -0.0475 -0.4639 -0.5910
  533TMC3    C2 7962   1.340   0.627  14.275  0.0218 -0.0327 -0.5861
  533TMC3    C3 7963   1.336   0.754  14.321 -0.1365  0.4712 -0.4026
  533TMC3    C4 7964   1.098   0.645  14.270 -0.5524  0.1235 -0.7862
  533TMC3    C5 7965   1.101   0.769  14.325 -0.3816  0.4945 -0.0216
  533TMC3    C6 7966   1.220   0.824  14.353  0.9038  0.1517 -0.1248
  533TMC3     C 7967   1.208   0.427  14.262  0.1767  0.5223 -0.1876
  533TMC3     O 7968   1.295   0.362  14.316  0.0698  0.0241  0.3242
  533TMC3     H 7969   1.429   0.569  14.254 -1.1064 -2.1748  0.6147
  533TMC3    H1 7970   1.001   0.598  14.256 -0.4968 -0.5297  1.1067
  533TMC3    H2 7971   1.233   0.919  14.405 -0.8102  0.1438  0.3095
  533TMC3    C7 7972   1.016   0.766  14.446 -1.2462  0.0197  0.2683
  533TMC3    C8 7973   1.461   0.828  14.336 -0.2326 -0.8495  1.0875
  533TMC3    O1 7974   0.950   0.665  14.464 -0.1244 -0.0967 -0.1279
  533TMC3    O2 7975   1.565   0.769  14.372  0.0211 -0.1734  0.1324
  534MPD2     C 7976   4.237   1.728   0.806  0.0182  0.8138 -0.4575
  534MPD2    C1 7977   4.199   1.858   0.830  0.4945 -0.7493 -0.1508
  534MPD2    C2 7978   4.119   1.923   0.739 -0.3394 -0.0303 -1.4149
  534MPD2    C3 7979   4.068   1.853   0.627 -0.6997  0.0348  0.6822
  534MPD2    C4 7980   4.103   1.722   0.604  0.1899 -0.2387 -0.5863
  534MPD2    C5 7981   4.195   1.666   0.695 -0.1084 -0.0677  0.6503
  534MPD2     H 7982   4.115   2.031   0.747 -1.6513 -0.1294 -0.7209
  534MPD2    H1 7983   4.068   1.671   0.515  1.6700  0.7501 -1.7390
  534MPD2    H2 7984   4.304   1.670   0.868 -2.6917 -1.8667 -0.0307
  534MPD2    H3 7985   4.226   1.565   0.672  2.2258  1.2022 -1.7184
  534MPD2     N 7986   3.990   1.920   0.529  0.2959 -0.4136 -0.5692
  534MPD2    H5 7987   3.955   1.859   0.456 -2.3951 -1.8975  1.9813
  534MPD2    N1 7988   4.245   1.938   0.937 -0.7364 -0.5117 -0.7965
  534MPD2    H7 7989   4.214   2.034   0.944  2.3805  0.3961  0.7702
  535TMC3    C1 7990   3.831   2.069   0.453  0.4559  0.0240 -0.3396
  535TMC3    C2 7991   3.726   2.150   0.501  0.2842 -0.1387  0.2337
  535TMC3    C3 7992   3.603   2.140   0.444 -0.2654  0.0664  0.4128
  535TMC3    C4 7993   3.821   1.996   0.338  0.3330  0.2404 -0.6216
  535TMC3    C5 7994   3.697   1.990   0.283  0.2199 -0.1414 -0.5996
  535TMC3    C6 7995   3.586   2.055   0.336 -0.7497 -0.4595 -0.4844
  535TMC3     C 7996   3.941   2.051   0.543  0.2341 -0.2183  0.0778
  535TMC3     O 7997   3.963   2.139   0.626  0.7705  0.7398 -0.0808
  535TMC3     H 7998   3.744   2.206   0.592 -0.4374 -0.0439  0.3202
  535TMC3    H1 7999   3.900   1.946   0.283  1.6036  0.0916  1.3499
  535TMC3    H2 8000   3.491   2.030   0.291 -2.2100 -0.2142  2.4706
  535TMC3    C7 8001   3.673   1.878   0.203 -0.3666 -0.5407 -0.2298
  535TMC3    C8 8002   3.483   2.165   0.518  0.2779  0.0798  0.8504
  535TMC3    O1 8003   3.749   1.785   0.220 -0.5117  0.5481  0.9601
  535TMC3    O2 8004   3.384   2.093   0.491  0.3805 -0.1747  0.3940
  536MPD2     C 8005   2.548   0.010  16.098 -1.2471 -1.2815 -0.7521
  536MPD2    C1 8006   2.430   4.682  16.139 -0.3878  0.3020  0.4803
  536MPD2    C2 8007   2.320   4.664  16.050 -0.2832 -0.1419 -1.1324
  536MPD2    C3 8008   2.338   4.710  15.919 -0.2486  0.0476  0.1055
  536MPD2    C4 8009   2.461   0.021  15.873 -0.4978 -0.1015 -0.0211
  536MPD2    C5 8010   2.565   0.039  15.963  0.6722  0.5823 -0.0935
  536MPD2     H 8011   2.218   4.636  16.072 -0.1597  0.4979  0.2282
  536MPD2    H1 8012   2.488   0.033  15.769  1.5368 -2.3692  0.2414
  536MPD2    H2 8013   2.632   0.018  16.165 -1.4558  0.2158 -0.6869
  536MPD2    H3 8014   2.667   0.059  15.931  0.7623  2.6535  1.4975
  536MPD2     N 8015   2.234   4.705  15.826 -0.0582 -0.2611 -0.0357
  536MPD2    H5 8016   2.264   4.712  15.729 -0.1027  0.9257  0.0467
  536MPD2    N1 8017   2.428   4.641  16.272 -0.4681  0.3830 -0.6891
  536MPD2    H7 8018   2.509   4.658  16.331 -0.3147  1.6271 -1.2680
  537TMC3    C1 8019   2.335   4.556  16.476  0.0038  0.1823  0.2941
  537TMC3    C2 8020   2.374   4.665  16.551 -0.1696 -0.0289  0.0942
  537TMC3    C3 8021   2.334   4.678  16.681 -0.2270  0.7573 -0.3285
  537TMC3    C4 8022   2.243   4.468  16.524 -0.2854  0.2749  0.1296
  537TMC3    C5 8023   2.208   4.483  16.659 -0.0073 -0.7841 -0.0600
  537TMC3    C6 8024   2.255   4.585  16.742  0.2665 -0.4978  0.0391
  537TMC3     C 8025   2.331   4.564  16.326 -0.0522  0.8875 -0.0626
  537TMC3     O 8026   2.254   4.488  16.265  0.6478  0.3540 -0.2419
  537TMC3     H 8027   2.443   0.006  16.519 -1.7822  2.7818  3.4380
  537TMC3    H1 8028   2.202   4.392  16.458 -2.2284  0.4376  1.1631
  537TMC3    H2 8029   2.212   4.604  16.840 -2.3494 -0.6468 -1.0802
  537TMC3    C7 8030   2.152   4.369  16.721 -0.7702  0.4042 -0.8850
  537TMC3    C8 8031   2.359   0.063  16.764  0.4222 -0.1943  0.3151
  537TMC3    O1 8032   2.077   4.300  16.649  0.5304 -0.2183  0.3677
  537TMC3    O2 8033   2.365   0.044  16.886  0.3340  0.1318 -1.3183
  538TMC3    C1 8034   3.450   3.176  11.011 -0.0913  0.6010 -0.2942
  538TMC3    C2 8035   3.569   3.110  11.018  0.1864  0.1147 -0.1082
  538TMC3    C3 8036   3.639   3.084  10.906 -0.2342  0.2181 -0.0647
  538TMC3    C4 8037   3.408   3.218  10.889  0.0124  0.6266 -0.6949
  538TMC3    C5 8038   3.484   3.203  10.775  0.3957  0.4885  0.1745
  538TMC3    C6 8039   3.594   3.117  10.783  0.1278 -0.0685  0.7962
  538TMC3     C 8040   3.356   3.203  11.115 -0.2193  0.6427 -0.2366
  538TMC3     O 8041   3.281   3.300  11.116 -0.1719  0.3782 -0.0035
  538TMC3     H 8042   3.606   3.073  11.112  1.6896  0.1346 -0.6928
  538TMC3    H1 8043   3.309   3.258  10.869 -0.2053  0.7684  0.6753
  538TMC3    H2 8044   3.650   3.110  10.690 -2.2782 -1.9676 -0.5137
  538TMC3    C7 8045   3.400   3.166  10.659  1.0965  0.0009 -0.4352
  538TMC3    C8 8046   3.785   3.057  10.930  0.0201 -0.3939 -0.0610
  538TMC3    O1 8047   3.409   3.054  10.613 -0.6978  0.1569 -0.3823
  538TMC3    O2 8048   3.825   3.063  11.044  0.2281  0.1759  0.3617
  539MPD2     C 8049   3.111   2.124  11.378 -0.4896  0.2324 -0.1181
  539MPD2    C1 8050   3.216   2.123  11.281 -0.0062  0.5647 -0.2503
  539MPD2    C2 8051   3.239   2.242  11.207  0.0037 -0.4824 -0.0638
  539MPD2    C3 8052   3.158   2.356  11.230 -0.0838  0.0529  0.6168
  539MPD2    C4 8053   3.063   2.352  11.323  0.6771  0.4546  0.1324
  539MPD2    C5 8054   3.032   2.237  11.390  0.1683 -0.1003 -0.2080
  539MPD2     H 8055   3.314   2.236  11.129  0.0164  1.7327 -0.2103
  539MPD2    H1 8056   2.994   2.433  11.336 -0.6826 -0.4863 -1.1368
  539MPD2    H2 8057   3.086   2.034  11.432 -2.1632  1.3688  1.0169
  539MPD2    H3 8058   2.949   2.230  11.459  0.2074 -2.5401 -0.4268
  539MPD2     N 8059   3.170   2.481  11.166  0.9003 -0.1193 -0.2280
  539MPD2    H5 8060   3.124   2.562  11.207 -1.5128 -2.1399  1.0315
  539MPD2    N1 8061   3.310   2.010  11.277  0.2063  0.0745 -0.2148
  539MPD2    H7 8062   3.383   2.019  11.207  0.9170  1.8152  0.7350
  540TMC3    C1 8063   3.230   2.638  11.011  0.4486 -0.2357 -0.0357
  540TMC3    C2 8064   3.189   2.650  10.887  0.7297 -0.9331  0.1694
  540TMC3    C3 8065   3.093   2.742  10.861  0.4341 -0.4230 -0.1378
  540TMC3    C4 8066   3.189   2.722  11.118  0.2947  0.1809 -0.7255
  540TMC3    C5 8067   3.085   2.812  11.088  0.1904  0.1390  0.0814
  540TMC3    C6 8068   3.035   2.814  10.959 -0.1764 -0.9831  0.3590
  540TMC3     C 8069   3.240   2.502  11.049 -0.2052  0.1955 -0.9392
  540TMC3     O 8070   3.288   2.426  10.967 -0.7059 -0.2785  0.6181
  540TMC3     H 8071   3.230   2.586  10.809 -1.4535 -1.4721 -0.5494
  540TMC3    H1 8072   3.225   2.711  11.220 -0.8169  0.0585 -0.3435
  540TMC3    H2 8073   2.940   2.866  10.948  0.6184  0.1128 -1.2096
  540TMC3    C7 8074   2.994   2.805  11.199 -0.1225 -0.5497  0.2590
  540TMC3    C8 8075   3.063   2.760  10.720 -0.8642 -0.2416  0.5813
  540TMC3    O1 8076   3.007   2.701  11.273 -0.2219  0.3652 -0.3306
  540TMC3    O2 8077   3.039   2.875  10.686  0.0335 -0.3600  0.3745
  541MPD2     C 8078   1.212   3.396  12.747 -0.5176  0.0895  0.1963
  541MPD2    C1 8079   1.263   3.276  12.702  0.0219 -0.6720 -1.1306
  541MPD2    C2 8080   1.253   3.248  12.568  0.3913 -0.0058 -1.3150
  541MPD2    C3 8081   1.212   3.349  12.477  0.7738  0.4884 -0.0066
  541MPD2    C4 8082   1.156   3.470  12.520  0.2686 -0.3572 -0.4248
  541MPD2    C5 8083   1.154   3.493  12.660 -0.1584  0.1021 -0.1510
  541MPD2     H 8084   1.288   3.153  12.529  0.0073 -1.3978  1.7306
  541MPD2    H1 8085   1.112   3.540  12.451 -0.6066  0.5628  1.0543
  541MPD2    H2 8086   1.208   3.427  12.851 -0.2728  0.0765  0.2092
  541MPD2    H3 8087   1.115   3.588  12.695  2.1343  0.9691  0.0663
  541MPD2     N 8088   1.216   3.325  12.338  0.3927  0.2562  0.9477
  541MPD2    H5 8089   1.160   3.389  12.283 -2.4465 -2.6470  0.4603
  541MPD2    N1 8090   1.288   3.172  12.794 -0.3429  0.0664 -0.3386
  541MPD2    H7 8091   1.299   3.081  12.751 -1.6547  0.5686 -1.7461
  542TMC3    C1 8092   1.272   3.222  12.132  0.1081 -0.0513  0.4195
  542TMC3    C2 8093   1.380   3.198  12.057  0.2998 -0.0704 -0.3716
  542TMC3    C3 8094   1.366   3.203  11.918  0.5027 -0.5149 -0.2730
  542TMC3    C4 8095   1.150   3.249  12.081  0.5877 -0.0717 -0.0429
  542TMC3    C5 8096   1.134   3.251  11.942 -0.7898  0.2959  0.3966
  542TMC3    C6 8097   1.247   3.226  11.855 -0.2610  0.0738 -0.0797
  542TMC3     C 8098   1.300   3.241  12.275 -0.4975  0.7447 -0.0221
  542TMC3     O 8099   1.402   3.185  12.320 -0.4287 -0.6777 -0.1149
  542TMC3     H 8100   1.476   3.187  12.105  0.1006 -0.1664  0.0034
  542TMC3    H1 8101   1.064   3.258  12.146  0.7499  2.6071 -0.2063
  542TMC3    H2 8102   1.221   3.237  11.750  2.1022  0.9423 -0.5653
  542TMC3    C7 8103   0.998   3.281  11.890 -0.8893 -0.0493 -0.7232
  542TMC3    C8 8104   1.478   3.208  11.827  0.5961 -0.2080  0.7554
  542TMC3    O1 8105   0.909   3.312  11.968  0.2304 -0.0236 -0.0393
  542TMC3    O2 8106   1.450   3.169  11.716 -0.3411  0.0369  0.0463
  543TMC3    C1 8107   1.252   0.647  17.288  0.2388 -0.0434 -0.4173
  543TMC3    C2 8108   1.222   0.528  17.346  0.7990 -0.6818 -0.2635
  543TMC3    C3 8109   1.159   0.518  17.467  0.2800 -0.1413  0.0566
  543TMC3    C4 8110   1.230   0.759  17.359 -0.1809  0.1693 -0.2141
  543TMC3    C5 8111   1.166   0.748  17.480 -0.5710 -0.5005  0.0340
  543TMC3    C6 8112   1.133   0.630  17.547  0.8689  0.1694  0.5621
  543TMC3     C 8113   1.238   0.651  17.141 -0.6617 -0.2145  0.0871
  543TMC3     O 8114   1.244   0.543  17.081  0.3249 -0.0140 -0.2105
  543TMC3     H 8115   1.237   0.435  17.293 -0.6346 -0.1888 -1.5104
  543TMC3    H1 8116   1.256   0.853  17.312 -1.0685  0.9541  0.8786
  543TMC3    H2 8117   1.073   0.641  17.637  2.1434  3.1238  1.0750
  543TMC3    C7 8118   1.100   0.871  17.530  0.3482  0.1910 -0.3201
  543TMC3    C8 8119   1.165   0.384  17.525  0.6441  0.0370  0.3521
  543TMC3    O1 8120   0.996   0.845  17.589  0.2268  0.0461 -0.1336
  543TMC3    O2 8121   1.224   0.294  17.467 -0.4488 -0.5200 -0.0749
  544MPD2     C 8122   1.041   0.037   0.132  0.1067  0.3560 -0.4457
  544MPD2    C1 8123   1.104   0.017   0.013 -0.2183 -0.5566  0.3681
  544MPD2    C2 8124   1.127   0.129  17.684  0.7900  0.0023  0.5459
  544MPD2    C3 8125   1.089   0.258  17.725  0.2257  0.0432  0.5167
  544MPD2    C4 8126   1.025   0.267   0.100  0.1007 -0.2405 -0.1460
  544MPD2    C5 8127   1.008   0.161   0.179 -0.0989 -0.1603  0.2271
  544MPD2     H 8128   1.175   0.121  17.587 -2.3181 -3.6380 -0.7101
  544MPD2    H1 8129   0.996   0.363   0.141  0.4233 -0.2070  0.0011
  544MPD2    H2 8130   1.012   4.695   0.200  1.6738  0.0132 -0.1825
  544MPD2    H3 8131   0.961   0.160   0.277  0.9635 -2.3756  0.7158
  544MPD2     N 8132   1.098   0.372  17.645 -0.5819 -0.4710  0.1762
  544MPD2    H5 8133   1.045   0.453  17.675  1.0449 -0.1532  2.2300
  544MPD2    N1 8134   1.133   4.618  17.723 -0.0406 -0.1320  0.2930
  544MPD2    H7 8135   1.090   4.546   0.035  1.3267 -0.0645  1.3999
  545TMC3    C1 8136   1.228   4.428  17.627 -0.1822 -0.3807 -0.1782
  545TMC3    C2 8137   1.349   4.380  17.668 -0.0049  0.2594  0.0465
  545TMC3    C3 8138   1.362   4.242  17.673 -0.0710  0.0605  0.0507
  545TMC3    C4 8139   1.127   4.345  17.583  0.0383  0.4151 -0.4245
  545TMC3    C5 8140   1.150   4.209  17.569 -0.5892 -1.2380 -0.2630
  545TMC3    C6 8141   1.261   4.158  17.634  0.0376 -0.6002  0.0306
  545TMC3     C 8142   1.209   4.572  17.620 -0.1383 -0.4749 -0.1495
  545TMC3     O 8143   1.277   4.625  17.536 -0.3429 -0.2300 -0.2307
  545TMC3     H 8144   1.437   4.439  17.691 -0.6252  1.0809  0.2938
  545TMC3    H1 8145   1.031   4.380  17.545  0.3004  2.0496  0.4310
  545TMC3    H2 8146   1.263   4.055  17.667  1.2314  0.2229  2.4779
  545TMC3    C7 8147   1.054   4.120  17.505  0.0807  0.3222 -0.0935
  545TMC3    C8 8148   1.483   4.177  17.719  0.4247 -0.3559  0.2910
  545TMC3    O1 8149   0.943   4.168  17.482  0.5871  0.6673  0.6959
  545TMC3    O2 8150   1.549   4.241   0.051  0.6819 -0.2825 -0.4693
  546MPD2     C 8151   2.391   0.703  17.607  0.1820  0.0256  0.3288
  546MPD2    C1 8152   2.345   0.714  17.478  0.1120 -0.4623  0.3542
  546MPD2    C2 8153   2.335   0.840  17.421 -0.2934  0.4363  0.5143
  546MPD2    C3 8154   2.372   0.953  17.483  0.2099 -0.2247  0.2397
  546MPD2    C4 8155   2.404   0.939  17.619 -0.2219  0.0426 -0.4652
  546MPD2    C5 8156   2.409   0.814  17.676  0.1493  0.6912  0.8615
  546MPD2     H 8157   2.300   0.853  17.319  0.5273  0.7965  0.2797
  546MPD2    H1 8158   2.434   1.024  17.679 -0.3661 -1.8614  2.3219
  546MPD2    H2 8159   2.406   0.613  17.665  2.2637 -0.0509 -0.3169
  546MPD2    H3 8160   2.444   0.802   0.032  1.8194  0.9174  0.3246
  546MPD2     N 8161   2.363   1.081  17.427 -0.3212 -0.3621  0.1335
  546MPD2    H5 8162   2.381   1.160  17.489 -2.4494 -0.3594  0.7508
  546MPD2    N1 8163   2.319   0.594  17.407  0.1496  0.1148  0.6069
  546MPD2    H7 8164   2.304   0.522  17.477  2.8009 -0.9159  0.1042
  547TMC3    C1 8165   2.239   0.446  17.255 -0.2630  0.0130 -0.3166
  547TMC3    C2 8166   2.213   0.416  17.127  0.5210  0.0234 -0.2891
  547TMC3    C3 8167   2.138   0.306  17.103 -0.3997  0.1054  0.6634
  547TMC3    C4 8168   2.185   0.375  17.357 -0.5504  0.4802  0.2451
  547TMC3    C5 8169   2.126   0.255  17.331  0.6119 -1.0410  0.2058
  547TMC3    C6 8170   2.096   0.220  17.202 -0.0237 -0.4122 -0.2880
  547TMC3     C 8171   2.291   0.578  17.278 -0.1301 -0.4977  0.2758
  547TMC3     O 8172   2.293   0.654  17.180 -0.0768  0.2136  0.3063
  547TMC3     H 8173   2.258   0.475  17.048  1.1303 -0.4954 -0.3296
  547TMC3    H1 8174   2.219   0.390  17.459  1.4753 -3.1569  0.1036
  547TMC3    H2 8175   2.045   0.128  17.176  0.3714 -0.8823  0.5686
  547TMC3    C7 8176   2.104   0.167  17.443  0.2655 -0.1111 -0.4258
  547TMC3    C8 8177   2.089   0.292  16.972  0.3549  0.4399 -0.5535
  547TMC3    O1 8178   2.119   0.216  17.555 -0.4189 -0.1518  0.0931
  547TMC3    O2 8179   2.089   0.396  16.906 -0.2114 -0.0021 -0.0320
  548MPD2     C 8180   2.193   0.529  11.776 -0.8317 -0.1363  0.5624
  548MPD2    C1 8181   2.151   0.419  11.841 -0.4283  0.6814 -0.7717
  548MPD2    C2 8182   2.237   0.333  11.905 -0.0523 -0.2806  0.0031
  548MPD2    C3 8183   2.370   0.371  11.908  0.1174 -0.2809  0.1877
  548MPD2    C4 8184   2.409   0.482  11.845 -0.2712 -0.3536  0.1729
  548MPD2    C5 8185   2.322   0.564  11.782 -0.4009  0.0968 -0.6865
  548MPD2     H 8186   2.212   0.237  11.948 -0.9750  0.3907  0.9493
  548MPD2    H1 8187   2.516   0.499  11.837 -0.3820  0.1062 -0.3730
  548MPD2    H2 8188   2.128   0.591  11.714  1.2048  1.2101 -0.2223
  548MPD2    H3 8189   2.366   0.656  11.745 -0.6156 -0.2064 -1.7099
  548MPD2     N 8190   2.463   0.282  11.967  0.9672  0.0839  0.0917
  548MPD2    H5 8191   2.429   0.191  11.996  1.6508 -0.0673  0.4086
  548MPD2    N1 8192   2.013   0.399  11.842  0.0831 -0.2784  0.3540
  548MPD2    H7 8193   1.969   0.459  11.773  0.8561  2.1788  2.0064
  549TMC3    C1 8194   1.795   0.313  11.905  0.2426 -0.5207  0.6238
  549TMC3    C2 8195   1.731   0.434  11.888  0.3143 -0.1803 -0.3990
  549TMC3    C3 8196   1.598   0.438  11.916 -0.1691  0.1621  0.5477
  549TMC3    C4 8197   1.719   0.202  11.932  0.0619  0.0733 -0.0083
  549TMC3    C5 8198   1.578   0.210  11.934  0.1996  0.4519 -0.3268
  549TMC3    C6 8199   1.518   0.329  11.915 -0.4859  0.0638 -0.5372
  549TMC3     C 8200   1.939   0.305  11.914  0.2405 -0.4239 -0.3064
  549TMC3     O 8201   1.977   0.210  11.978 -0.0536  0.6455  0.4000
  549TMC3     H 8202   1.793   0.523  11.881 -0.2510  0.0780 -2.0113
  549TMC3    H1 8203   1.771   0.107  11.940 -1.7402 -0.7346  2.1251
  549TMC3    H2 8204   1.410   0.334  11.918 -0.5052 -1.0906  1.1228
  549TMC3    C7 8205   1.501   0.113  12.011 -0.1563  0.3867  0.8237
  549TMC3    C8 8206   1.537   0.551  11.975 -0.5871 -0.4580  0.0013
  549TMC3    O1 8207   1.390   0.147  12.040 -0.0818  0.0952 -0.4637
  549TMC3    O2 8208   1.415   0.557  11.975 -0.1334 -0.4381 -0.2440
  550TMC3    C1 8209   0.968   2.987  12.552  0.2381 -0.4449  0.3976
  550TMC3    C2 8210   0.930   3.051  12.663 -0.0263  0.1717  0.4060
  550TMC3    C3 8211   0.796   3.067  12.684  0.2766  0.1323  0.0499
  550TMC3    C4 8212   0.881   2.950  12.449  0.0240  0.2336 -0.6691
  550TMC3    C5 8213   0.751   2.970  12.478  0.1717  0.0695  0.2821
  550TMC3    C6 8214   0.706   3.025  12.589  0.8912 -0.3698 -0.3964
  550TMC3     C 8215   1.111   2.936  12.548 -0.6247 -0.3524  0.1598
  550TMC3     O 8216   1.177   2.937  12.649 -0.0344 -0.7400 -0.4092
  550TMC3     H 8217   1.003   3.079  12.737  2.3042  1.8898 -2.5735
  550TMC3    H1 8218   0.902   2.887  12.363 -0.1277 -4.0588  2.4408
  550TMC3    H2 8219   0.601   3.038  12.612  1.4273 -0.4266  2.0496
  550TMC3    C7 8220   0.657   2.982  12.374  0.2726  0.6624 -0.0148
  550TMC3    C8 8221   0.743   3.167  12.767 -0.4783  0.3396  0.4883
  550TMC3    O1 8222   0.541   2.955  12.400 -0.2403 -0.3183 -0.1042
  550TMC3    O2 8223   0.631   3.215  12.749 -0.3902  0.0061 -0.1868
  551TMC3    C1 8224   2.803   1.289  13.732 -0.2113  0.2079 -0.4270
  551TMC3    C2 8225   2.861   1.177  13.695 -0.6446  0.0214 -0.1979
  551TMC3    C3 8226   2.986   1.148  13.737  0.1891 -0.2692 -0.1396
  551TMC3    C4 8227   2.860   1.388  13.805 -0.8098 -0.0598 -0.4802
  551TMC3    C5 8228   2.978   1.355  13.860  0.0985  0.2199 -0.0524
  551TMC3    C6 8229   3.047   1.239  13.826  0.5525  0.6451  0.2908
  551TMC3     C 8230   2.698   1.335  13.642  0.1066 -0.2586 -0.2289
  551TMC3     O 8231   2.613   1.251  13.606 -0.2688 -0.3639 -0.1608
  551TMC3     H 8232   2.804   1.115  13.627 -2.1093  0.1180  0.9447
  551TMC3    H1 8233   2.802   1.476  13.831  0.5692  1.4252 -2.4127
  551TMC3    H2 8234   3.144   1.213  13.868  0.6915  0.3960 -0.1909
  551TMC3    C7 8235   3.059   1.447  13.939  0.0357 -0.0431  0.1468
  551TMC3    C8 8236   3.060   1.056  13.652 -0.6678  0.5703  0.7143
  551TMC3    O1 8237   3.136   1.399  14.020  0.1592 -0.6905 -0.4661
  551TMC3    O2 8238   2.993   0.969  13.595  0.6790  0.3040  0.0569
  552MPD2     C 8239   0.550   3.229  13.552  0.5285  1.3501  0.4666
  552MPD2    C1 8240   0.619   3.113  13.586  0.5313 -0.5457  0.0899
  552MPD2    C2 8241   0.753   3.120  13.623  0.0391 -0.6236 -0.1335
  552MPD2    C3 8242   0.822   3.240  13.624  0.0725  0.2639  0.6494
  552MPD2    C4 8243   0.758   3.351  13.578  0.2377 -0.4792  0.0710
  552MPD2    C5 8244   0.623   3.348  13.546 -0.3713  0.0654 -0.1593
  552MPD2     H 8245   0.797   3.027  13.655 -0.5983 -0.9080 -0.0852
  552MPD2    H1 8246   0.812   3.444  13.562  0.3262 -0.3553  1.1021
  552MPD2    H2 8247   0.445   3.235  13.525 -0.0235 -1.4013  2.1112
  552MPD2    H3 8248   0.571   3.440  13.521  1.8203  1.5716  0.8996
  552MPD2     N 8249   0.955   3.265  13.675  0.0367 -0.4256 -0.0505
  552MPD2    H5 8250   0.989   3.361  13.673  1.5457 -0.9738 -0.2779
  552MPD2    N1 8251   0.559   2.982  13.594  0.1753 -0.3495  0.1759
  552MPD2    H7 8252   0.619   2.910  13.634  0.9648  2.4639  4.0885
  553TMC3    C1 8253   0.398   2.821  13.569 -0.1824  0.5318  0.4257
  553TMC3    C2 8254   0.317   2.757  13.484 -0.3932 -0.0049  0.3757
  553TMC3    C3 8255   0.268   2.631  13.513  0.0654  0.1128 -0.0801
  553TMC3    C4 8256   0.439   2.772  13.693  0.2673  0.2992 -0.2289
  553TMC3    C5 8257   0.398   2.640  13.712 -0.2337 -0.2132 -0.1156
  553TMC3    C6 8258   0.314   2.569  13.627  0.8632 -0.5868  0.1010
  553TMC3     C 8259   0.435   2.953  13.544 -0.6165  0.1953 -0.3080
  553TMC3     O 8260   0.370   3.016  13.461 -0.2723  0.3088  0.3020
  553TMC3     H 8261   0.295   2.808  13.391 -0.1211 -1.1672 -0.3338
  553TMC3    H1 8262   0.513   2.820  13.755 -0.1262  0.5808  0.0209
  553TMC3    H2 8263   0.295   2.463  13.636 -1.5826 -0.3095 -1.6706
  553TMC3    C7 8264   0.468   2.564  13.820  0.0058 -0.2538 -0.1062
  553TMC3    C8 8265   0.267   2.537  13.402 -0.5406 -0.8010 -0.3668
  553TMC3    O1 8266   0.397   2.489  13.888  0.6884  0.4171 -0.5009
  553TMC3    O2 8267   0.321   2.428  13.413 -0.0788  0.1322  0.0031
  554TMC3    C1 8268   2.371   1.852  11.085  0.3854  0.4464 -0.4340
  554TMC3    C2 8269   2.292   1.812  10.977  0.4438  0.1106 -0.1083
  554TMC3    C3 8270   2.355   1.825  10.854  0.2950  0.2592  0.9633
  554TMC3    C4 8271   2.485   1.921  11.077  0.7776  0.2942  0.0604
  554TMC3    C5 8272   2.526   1.952  10.953  0.1528 -0.1331  0.5582
  554TMC3    C6 8273   2.464   1.897  10.841  0.4297 -0.0345 -0.2157
  554TMC3     C 8274   2.309   1.819  11.216  0.3049 -0.0617  0.2019
  554TMC3     O 8275   2.213   1.745  11.226 -0.2361  0.4851  0.0155
  554TMC3     H 8276   2.210   1.744  10.994 -0.2261  1.1924  0.9114
  554TMC3    H1 8277   2.556   1.934  11.158 -0.2380 -1.0392  1.1509
  554TMC3    H2 8278   2.506   1.919  10.743  2.5679 -2.2500  0.1842
  554TMC3    C7 8279   2.626   2.056  10.919 -0.1228  0.4970 -0.4449
  554TMC3    C8 8280   2.274   1.837  10.739  0.3722 -0.7026 -0.4992
  554TMC3    O1 8281   2.676   2.054  10.807  0.2880  0.4085 -0.2651
  554TMC3    O2 8282   2.317   1.899  10.643 -0.3934  0.1754  0.0333
  555TMC3    C1 8283   1.352   2.289  15.212 -0.5401 -0.3602 -0.6762
  555TMC3    C2 8284   1.344   2.370  15.326 -0.2205  0.1172  0.7786
  555TMC3    C3 8285   1.358   2.314  15.447  0.1178 -0.4282  0.0687
  555TMC3    C4 8286   1.370   2.154  15.221  0.7068  0.4721  0.5202
  555TMC3    C5 8287   1.384   2.108  15.346 -0.5713  0.4256 -0.0278
  555TMC3    C6 8288   1.383   2.184  15.458  0.6669 -0.1601 -0.4989
  555TMC3     C 8289   1.335   2.358  15.089 -0.2106  0.3492  0.0311
  555TMC3     O 8290   1.391   2.467  15.082  0.1951  0.9416 -0.6246
  555TMC3     H 8291   1.329   2.477  15.317 -0.8195 -0.0974 -0.8490
  555TMC3    H1 8292   1.384   2.099  15.128 -1.4238 -0.5663  0.8235
  555TMC3    H2 8293   1.384   2.136  15.555  0.7582  0.9597  0.0551
  555TMC3    C7 8294   1.361   1.963  15.366  0.5122  0.0818 -0.2482
  555TMC3    C8 8295   1.363   2.403  15.563  0.1784 -0.0474  0.4578
  555TMC3    O1 8296   1.430   1.905  15.451  0.0665  0.0529  0.2124
  555TMC3    O2 8297   1.345   2.521  15.542  0.1177 -0.2971  0.2395
  556MPD2     C 8298   0.184   3.266  10.543 -0.2549 -0.1194  0.6912
  556MPD2    C1 8299   0.079   3.217  10.614  0.3241  0.2177  0.0426
  556MPD2    C2 8300   4.725   3.137  10.549  0.5508 -1.2450  0.0251
  556MPD2    C3 8301   4.724   3.109  10.413  0.5512  0.9575  0.5285
  556MPD2    C4 8302   0.087   3.166  10.338  0.4403  0.3196  0.1369
  556MPD2    C5 8303   0.189   3.231  10.408  0.4579  0.2665  0.5519
  556MPD2     H 8304   4.640   3.103  10.607  0.0638  2.1594  1.2969
  556MPD2    H1 8305   0.098   3.143  10.232 -1.6624  1.2804 -0.2831
  556MPD2    H2 8306   0.269   3.324  10.578  0.9006  0.0448 -2.3902
  556MPD2    H3 8307   0.274   3.268  10.353 -0.8451 -1.6109 -2.7027
  556MPD2     N 8308   4.624   3.026  10.364 -0.6352  0.2926 -0.0659
  556MPD2    H5 8309   4.572   2.975  10.434 -3.2948  0.3192 -1.9999
  556MPD2    N1 8310   0.065   3.232  10.753  0.4090 -0.2614 -1.0844
  556MPD2    H7 8311   4.723   3.187  10.799  0.3868  0.6995 -0.1902
  557TMC3    C1 8312   4.482   2.920  10.217  0.0108  0.8092  0.4712
  557TMC3    C2 8313   4.463   2.846  10.107 -0.1482 -0.3398 -0.3926
  557TMC3    C3 8314   4.348   2.772  10.114  0.1884 -0.5795  0.4158
  557TMC3    C4 8315   4.396   2.942  10.319 -0.1768 -0.2565 -0.0730
  557TMC3    C5 8316   4.277   2.875  10.315 -0.2824  0.5148  0.0230
  557TMC3    C6 8317   4.250   2.796  10.206  0.6839 -0.5012  0.6200
  557TMC3     C 8318   4.602   3.003  10.231 -0.1670  0.1135 -0.4690
  557TMC3     O 8319   4.668   3.026  10.129  0.0594 -0.5013  0.4792
  557TMC3     H 8320   4.536   2.852  10.027  0.0742 -0.0614 -0.1666
  557TMC3    H1 8321   4.403   3.031  10.380  3.1488 -0.6950  0.1799
  557TMC3    H2 8322   4.159   2.737  10.206  1.6630 -2.0127  1.8948
  557TMC3    C7 8323   4.189   2.874  10.426 -0.9670 -0.4573 -0.5418
  557TMC3    C8 8324   4.302   2.685  10.010  0.8593  0.1464 -0.3245
  557TMC3    O1 8325   4.069   2.860  10.402 -0.0724 -0.1114 -0.4682
  557TMC3    O2 8326   4.191   2.633  10.019  0.1845  0.0142 -0.1750
  558TMC3    C1 8327   1.748   0.909   9.973  0.0863  0.5532 -0.3188
  558TMC3    C2 8328   1.693   0.922  10.101  0.5364 -0.2608  0.5505
  558TMC3    C3 8329   1.558   0.950  10.101 -0.5587 -0.5464  0.1498
  558TMC3    C4 8330   1.685   0.955   9.864  1.0791  0.0706  0.4528
  558TMC3    C5 8331   1.546   0.977   9.868  0.7147  0.0137  0.6724
  558TMC3    C6 8332   1.486   0.973   9.989 -0.3203 -0.2744  0.1584
  558TMC3     C 8333   1.891   0.917   9.969  0.2533 -0.6612 -0.1660
  558TMC3     O 8334   1.944   0.978  10.061 -0.3360 -0.0592 -0.0578
  558TMC3     H 8335   1.757   0.888  10.182  1.2206  1.7947  0.8624
  558TMC3    H1 8336   1.736   0.958   9.769  1.1565 -3.0434  0.4049
  558TMC3    H2 8337   1.384   1.010   9.992  0.0555  1.0221 -3.1962
  558TMC3    C7 8338   1.478   1.043   9.756  0.4064 -0.4589  0.3092
  558TMC3    C8 8339   1.487   0.959  10.227 -0.2211 -0.3612  0.1607
  558TMC3    O1 8340   1.546   1.098   9.668 -0.1124 -0.2963  0.3159
  558TMC3    O2 8341   1.374   0.921  10.236 -0.5260  0.0329  0.1627
  559MPD2     C 8342   2.043   1.697  10.196 -0.5270 -0.8046  0.0004
  559MPD2    C1 8343   2.030   1.604  10.294 -0.3859 -0.2090  0.3184
  559MPD2    C2 8344   2.145   1.568  10.360 -0.5045  1.0299 -0.3604
  559MPD2    C3 8345   2.268   1.613  10.331 -0.8968 -0.0881 -0.1939
  559MPD2    C4 8346   2.284   1.689  10.222  0.0529 -0.0816 -0.2092
  559MPD2    C5 8347   2.169   1.736  10.157 -0.0170  0.2562 -0.2577
  559MPD2     H 8348   2.141   1.516  10.454 -0.1973  1.6126 -0.0259
  559MPD2    H1 8349   2.376   1.730  10.183  0.1731  0.2865  0.4554
  559MPD2    H2 8350   1.956   1.717  10.136  0.2197 -1.4209 -1.2751
  559MPD2    H3 8351   2.176   1.794  10.065 -1.2138  1.0040  0.1263
  559MPD2     N 8352   2.377   1.568  10.411  0.1168 -0.3237  0.2426
  559MPD2    H5 8353   2.355   1.495  10.478 -1.8739 -2.9385 -3.2724
  559MPD2    N1 8354   1.906   1.542  10.326 -0.7821  0.0676  0.5387
  559MPD2    H7 8355   1.825   1.569  10.272 -0.0669  0.8103 -0.1824
  560TMC3    C1 8356   2.598   1.521  10.484  0.2971  0.3819  0.0662
  560TMC3    C2 8357   2.561   1.391  10.498 -0.6226 -0.4317 -0.5646
  560TMC3    C3 8358   2.632   1.308  10.586 -0.1322 -0.1537  0.3641
  560TMC3    C4 8359   2.700   1.579  10.553  0.7014 -0.1086  0.3817
  560TMC3    C5 8360   2.768   1.496  10.639  0.1695 -0.3883 -0.1457
  560TMC3    C6 8361   2.742   1.363  10.652  0.2564 -0.1530  0.8019
  560TMC3     C 8362   2.506   1.614  10.416  0.3476  0.1111  1.2327
  560TMC3     O 8363   2.545   1.723  10.382 -0.3750  0.1387  1.0488
  560TMC3     H 8364   2.488   1.342  10.435 -0.4681 -2.3668  0.7440
  560TMC3    H1 8365   2.717   1.686  10.555 -2.4197  0.4107  0.1519
  560TMC3    H2 8366   2.805   1.300  10.714 -0.6531 -1.4670  0.3896
  560TMC3    C7 8367   2.850   1.548  10.738  0.0977  0.3552 -0.5749
  560TMC3    C8 8368   2.538   1.235  10.680  0.3633  0.1642  0.2639
  560TMC3    O1 8369   2.864   1.476  10.835  0.3448 -0.8577  0.1796
  560TMC3    O2 8370   2.422   1.221  10.637 -0.2604  0.5372 -0.0471
  561TMC3    C1 8371   0.194   0.918  11.678 -0.4003  0.1523 -0.3418
  561TMC3    C2 8372   0.179   0.861  11.804  0.8032  0.0306 -0.3857
  561TMC3    C3 8373   0.146   0.942  11.902 -0.1775  0.5613  0.0135
  561TMC3    C4 8374   0.172   1.054  11.662 -0.5674  1.1013 -0.0004
  561TMC3    C5 8375   0.152   1.135  11.770  0.0924  0.6532 -0.6009
  561TMC3    C6 8376   0.150   1.077  11.896  0.4112  0.0647  0.5198
  561TMC3     C 8377   0.207   0.835  11.558 -0.0563  0.2075 -0.6575
  561TMC3     O 8378   0.173   0.714  11.567 -0.2428  0.3856 -0.3327
  561TMC3     H 8379   0.190   0.754  11.822 -1.9181 -0.1016  0.4268
  561TMC3    H1 8380   0.183   1.104  11.567 -3.8594  1.3816 -0.2438
  561TMC3    H2 8381   0.146   1.134  11.988  0.0838 -1.1903  1.2731
  561TMC3    C7 8382   0.151   1.281  11.754  0.7844 -0.0939 -0.0075
  561TMC3    C8 8383   0.074   0.883  12.013  0.1138  0.6429 -0.7573
  561TMC3    O1 8384   0.096   1.345  11.842  0.1181 -0.1380 -0.1993
  561TMC3    O2 8385   0.099   0.769  12.045 -0.2324  0.3973  0.4672
  562TMC3    C1 8386   0.969   2.504  15.993  0.3090  0.1654  0.6107
  562TMC3    C2 8387   0.929   2.609  15.924  0.8039 -0.0505  0.0392
  562TMC3    C3 8388   0.937   2.587  15.787 -0.0389  0.0001 -0.2764
  562TMC3    C4 8389   1.024   2.384  15.942 -0.5945 -0.4940 -0.4808
  562TMC3    C5 8390   1.026   2.371  15.805  0.0831 -0.0020 -0.1863
  562TMC3    C6 8391   0.992   2.474  15.728 -0.4118  0.1848  0.6715
  562TMC3     C 8392   0.921   2.513  16.127 -0.2080 -0.0410 -0.3246
  562TMC3     O 8393   0.825   2.440  16.146 -1.0474 -0.2868  0.0237
  562TMC3     H 8394   0.890   2.700  15.967  0.0088 -1.5030  2.3790
  562TMC3    H1 8395   1.032   2.303  16.014 -0.2509 -1.2895 -1.4166
  562TMC3    H2 8396   0.986   2.463  15.620  1.3957 -0.6711  0.6727
  562TMC3    C7 8397   1.078   2.248  15.743  0.0030 -0.0871 -0.3066
  562TMC3    C8 8398   0.840   2.673  15.717 -0.3481  0.1631  0.7671
  562TMC3    O1 8399   1.056   2.235  15.624 -0.1646 -0.1311 -0.5466
  562TMC3    O2 8400   0.750   2.710  15.791 -0.0727  0.0526 -0.1144
  563MPD2     C 8401   3.875   3.719  15.120 -0.0216  0.3428 -0.4697
  563MPD2    C1 8402   3.903   3.709  15.252 -0.3323 -0.0416 -0.1751
  563MPD2    C2 8403   4.016   3.640  15.279 -0.2305 -0.3352 -0.9478
  563MPD2    C3 8404   4.114   3.605  15.191  0.0373 -0.6272 -1.1143
  563MPD2    C4 8405   4.090   3.626  15.055 -0.0298  0.3005  0.5874
  563MPD2    C5 8406   3.963   3.673  15.018 -0.2838 -0.1745  0.0312
  563MPD2     H 8407   4.032   3.613  15.383 -0.7654  0.2096 -0.7238
  563MPD2    H1 8408   4.155   3.591  14.975  1.1049 -0.7825  1.9817
  563MPD2    H2 8409   3.781   3.758  15.083 -0.7832  0.0771  1.2347
  563MPD2    H3 8410   3.937   3.691  14.914  0.1012 -0.0438 -0.0453
  563MPD2     N 8411   4.229   3.557  15.253  0.1200 -0.3443 -0.0011
  563MPD2    H5 8412   4.223   3.549  15.354  0.8727 -0.3635  0.0393
  563MPD2    N1 8413   3.808   3.749  15.348 -0.1258  0.5444 -0.1792
  563MPD2    H7 8414   3.722   3.778  15.302 -0.6737  0.9255  1.0967
  564TMC3    C1 8415   3.716   3.775  15.563 -0.0627  1.0964  1.0145
  564TMC3    C2 8416   3.605   3.706  15.533 -0.5350 -0.0217 -0.0131
  564TMC3    C3 8417   3.500   3.715  15.628 -0.4567 -0.5439 -0.6729
  564TMC3    C4 8418   3.738   3.836  15.687  0.5259  1.6166 -0.3020
  564TMC3    C5 8419   3.646   3.820  15.787  0.5600  0.1831 -0.6076
  564TMC3    C6 8420   3.517   3.776  15.749 -0.2991 -0.1977 -0.4030
  564TMC3     C 8421   3.837   3.753  15.485  0.4622 -0.4635  0.2562
  564TMC3     O 8422   3.941   3.766  15.552  0.0823 -0.3546  0.1256
  564TMC3     H 8423   3.611   3.633  15.454  0.0983  0.7342 -0.6590
  564TMC3    H1 8424   3.833   3.880  15.716  0.3521  1.2177  0.8913
  564TMC3    H2 8425   3.432   3.780  15.817 -0.7983 -1.0786 -0.9745
  564TMC3    C7 8426   3.692   3.765  15.909 -0.3961 -0.1332 -0.6180
  564TMC3    C8 8427   3.420   3.597  15.638 -0.5838 -0.1950 -0.0850
  564TMC3    O1 8428   3.803   3.788  15.952  0.1232  0.6749  0.1233
  564TMC3    O2 8429   3.419   3.568  15.756  0.2343 -0.5180 -0.2799
  565TMC3    C1 8430   3.968   4.589  10.440  0.1791 -0.2311  0.2296
  565TMC3    C2 8431   4.014   4.522  10.552 -0.0047 -0.1883  0.7151
  565TMC3    C3 8432   4.001   4.384  10.554  0.3612 -0.1002  0.3221
  565TMC3    C4 8433   3.937   4.509  10.331  0.6749  0.6881 -0.4356
  565TMC3    C5 8434   3.932   4.378  10.333  0.4348  0.6468 -0.2216
  565TMC3    C6 8435   3.947   4.308  10.448 -0.0647  0.3860  0.1672
  565TMC3     C 8436   3.990   4.732  10.423 -0.5460  0.2713  0.3617
  565TMC3     O 8437   3.970   0.049  10.314 -0.4166  0.0597  0.0981
  565TMC3     H 8438   4.064   4.569  10.636 -0.6540  1.8460 -0.0397
  565TMC3    H1 8439   3.908   4.559  10.239 -0.3177 -4.3985 -2.9072
  565TMC3    H2 8440   3.941   4.200  10.452 -0.9039  0.4276  0.0103
  565TMC3    C7 8441   3.895   4.312  10.207  0.3099  0.8501  0.0821
  565TMC3    C8 8442   4.044   4.311  10.665 -0.0545 -0.1148 -0.0516
  565TMC3    O1 8443   3.838   4.377  10.125 -0.2602 -0.3986  0.5766
  565TMC3    O2 8444   4.053   4.380  10.764 -0.3474  0.5119  0.3217
  566MPD2     C 8445   0.248   1.358  14.156 -0.6915 -1.0716  0.4007
  566MPD2    C1 8446   0.229   1.462  14.063  0.0995 -0.5147  0.2483
  566MPD2    C2 8447   0.133   1.452  13.956  0.8065 -0.1130  0.8939
  566MPD2    C3 8448   0.049   1.339  13.954 -0.5317 -0.8452 -0.1235
  566MPD2    C4 8449   0.050   1.249  14.057 -0.6572 -0.0434  0.3742
  566MPD2    C5 8450   0.153   1.263  14.146 -0.1256  0.0085  0.2248
  566MPD2     H 8451   0.141   1.529  13.881 -1.3199 -3.2432 -2.5771
  566MPD2    H1 8452   4.727   1.159  14.061  0.3086 -0.7224 -0.5361
  566MPD2    H2 8453   0.333   1.353  14.224  0.2444  1.9735 -0.5141
  566MPD2    H3 8454   0.178   1.175  14.204 -1.4115 -0.5145 -0.0057
  566MPD2     N 8455   4.694   1.327  13.850  0.1577  0.1335  0.2224
  566MPD2    H5 8456   4.618   1.259  13.857 -1.5716  2.1928  1.6381
  566MPD2    N1 8457   0.334   1.559  14.058 -0.1033 -0.1670  0.2327
  566MPD2    H7 8458   0.426   1.529  14.089  0.7461  1.9848 -0.2011
  567TMC3    C1 8459   0.455   1.713  13.931  0.5338 -0.4683 -0.3024
  567TMC3    C2 8460   0.460   1.770  13.813 -0.3421 -0.0232  0.5966
  567TMC3    C3 8461   0.579   1.802  13.749 -0.4078  0.1998  0.4594
  567TMC3    C4 8462   0.568   1.681  13.998 -0.8547  0.8746 -0.3624
  567TMC3    C5 8463   0.690   1.709  13.932  0.2319 -0.3363 -0.3530
  567TMC3    C6 8464   0.696   1.771  13.811 -0.4590  0.1476 -0.6980
  567TMC3     C 8465   0.325   1.670  13.978 -0.1255 -0.4911 -0.2527
  567TMC3     O 8466   0.235   1.734  13.926 -0.1255 -0.9401 -0.8113
  567TMC3     H 8467   0.366   1.793  13.764 -1.1011 -0.3855  1.8868
  567TMC3    H1 8468   0.564   1.633  14.095 -1.2553 -1.2134 -1.4066
  567TMC3    H2 8469   0.789   1.783  13.757  0.4401  0.4995  0.9194
  567TMC3    C7 8470   0.815   1.709  14.003 -0.3348 -0.2717 -0.4002
  567TMC3    C8 8471   0.564   1.809  13.603 -0.1719  0.4716 -0.4082
  567TMC3    O1 8472   0.922   1.729  13.945  0.4344  0.4652 -0.3325
  567TMC3    O2 8473   0.450   1.790  13.555  0.5903  0.1269  0.2245
  568MPD2     C 8474   3.232   2.186  16.273 -0.6703  0.0245  0.5267
  568MPD2    C1 8475   3.222   2.291  16.363 -0.5325  0.3482 -0.6537
  568MPD2    C2 8476   3.190   2.416  16.316  0.2377 -0.0011  0.4331
  568MPD2    C3 8477   3.198   2.438  16.178 -0.5704 -0.2015 -0.2556
  568MPD2    C4 8478   3.212   2.331  16.089  0.7511 -0.0840 -0.0161
  568MPD2    C5 8479   3.209   2.210  16.141  0.4865  0.1734  0.1643
  568MPD2     H 8480   3.175   2.501  16.382 -3.4507 -0.5395  0.2998
  568MPD2    H1 8481   3.198   2.345  15.982 -1.0945  0.4616  0.2910
  568MPD2    H2 8482   3.250   2.091  16.321  3.1971 -0.1487 -1.2664
  568MPD2    H3 8483   3.207   2.122  16.077  3.2423  2.4007 -2.9539
  568MPD2     N 8484   3.185   2.576  16.144  0.3667 -0.3210  0.2799
  568MPD2    H5 8485   3.157   2.640  16.217  1.2893 -1.2187  1.4137
  568MPD2    N1 8486   3.227   2.256  16.498  0.4081  0.0149  0.1536
  568MPD2    H7 8487   3.245   2.158  16.519 -2.1702 -0.2382  1.1834
  569TMC3    C1 8488   3.226   2.767  16.008  0.4218 -0.1974 -0.7204
  569TMC3    C2 8489   3.209   2.855  16.113  0.1235 -0.5385 -0.2390
  569TMC3    C3 8490   3.208   2.989  16.081 -0.0822 -0.1888  0.7637
  569TMC3    C4 8491   3.243   2.813  15.880  0.4679 -0.0520 -0.5894
  569TMC3    C5 8492   3.227   2.945  15.857  0.5575 -0.5042 -0.2958
  569TMC3    C6 8493   3.211   3.040  15.955  0.8429  0.6367  0.3745
  569TMC3     C 8494   3.243   2.621  16.028 -0.1239 -0.3774  0.1441
  569TMC3     O 8495   3.293   2.564  15.932  0.4819 -0.2037 -0.2412
  569TMC3     H 8496   3.186   2.814  16.210 -1.3114  1.3376  0.2142
  569TMC3    H1 8497   3.259   2.743  15.799  1.3449 -0.6714  0.1154
  569TMC3    H2 8498   3.187   3.143  15.931  1.2169 -0.0243 -2.8774
  569TMC3    C7 8499   3.243   2.986  15.725  0.5756  0.0724 -0.5627
  569TMC3    C8 8500   3.235   3.081  16.182 -1.0016  0.8386  0.5471
  569TMC3    O1 8501   3.235   2.902  15.638 -0.2325  0.4643  0.3888
  569TMC3    O2 8502   3.236   3.200  16.154 -0.1554 -0.1193 -0.0990
  570TMC3    C1 8503   2.509   1.475  16.127  0.1673  0.1010  0.4006
  570TMC3    C2 8504   2.578   1.484  16.012  0.5014  0.0902  0.5372
  570TMC3    C3 8505   2.618   1.609  15.966  0.4359  0.1767 -0.3364
  570TMC3    C4 8506   2.496   1.582  16.201 -0.9625 -0.4886 -0.1753
  570TMC3    C5 8507   2.553   1.701  16.172 -0.3565 -0.3958  0.2957
  570TMC3    C6 8508   2.608   1.717  16.045  1.0656  0.6662 -0.4464
  570TMC3     C 8509   2.422   1.360  16.148  0.1529  0.7575  0.6312
  570TMC3     O 8510   2.448   1.283  16.059 -0.4033 -0.4896  0.0767
  570TMC3     H 8511   2.605   1.396  15.955  1.6460  0.9991 -0.3305
  570TMC3    H1 8512   2.452   1.572  16.300 -0.3704  0.5667  0.1996
  570TMC3    H2 8513   2.655   1.808  16.010  1.5324  0.0388 -1.4552
  570TMC3    C7 8514   2.596   1.787  16.282  0.6096 -0.3853  0.4591
  570TMC3    C8 8515   2.687   1.627  15.839 -0.1522 -0.3207  0.1216
  570TMC3    O1 8516   2.568   1.757  16.396  1.0137 -0.1491 -0.3026
  570TMC3    O2 8517   2.753   1.729  15.820 -0.4150  0.9869  0.3781
  571MPD2     C 8518   4.249   3.559   0.316  0.2489 -0.7525  0.2311
  571MPD2    C1 8519   4.363   3.605   0.248 -0.1195 -0.5403  0.4011
  571MPD2    C2 8520   4.430   3.708   0.309 -0.1253  0.1171 -0.6775
  571MPD2    C3 8521   4.399   3.757   0.436  0.3496 -0.4591 -0.6404
  571MPD2    C4 8522   4.286   3.705   0.501 -1.1702 -0.1841 -0.3346
  571MPD2    C5 8523   4.206   3.611   0.432  0.7166 -0.3024  0.0585
  571MPD2     H 8524   4.510   3.757   0.254 -0.5327 -0.3021 -1.6415
  571MPD2    H1 8525   4.248   3.752   0.591 -0.5155  0.4108 -0.3726
  571MPD2    H2 8526   4.192   3.477   0.273  0.4264 -1.9253  2.2129
  571MPD2    H3 8527   4.115   3.580   0.481  0.9884 -1.7464 -0.3428
  571MPD2     N 8528   4.476   3.861   0.499  0.4017  0.5064  0.4652
  571MPD2    H5 8529   4.439   3.899   0.586  0.0194 -0.7998  0.8665
  571MPD2    N1 8530   4.387   3.553   0.119 -0.1587 -0.8019  0.9437
  571MPD2    H7 8531   4.315   3.497   0.074  1.6659 -1.1051 -1.6247
  572TMC3    C1 8532   4.641   4.023   0.541 -0.3354  0.2898  0.4264
  572TMC3    C2 8533   4.704   3.979   0.653 -0.4720 -0.7369 -0.8507
  572TMC3    C3 8534   0.073   4.060   0.694  0.0460  0.0588 -0.2786
  572TMC3    C4 8535   4.700   4.130   0.473  0.3924  0.5670 -0.1946
  572TMC3    C5 8536   0.076   4.195   0.509  0.4729  0.9966  0.5161
  572TMC3    C6 8537   0.139   4.163   0.626 -0.6084  0.7993  0.4669
  572TMC3     C 8538   4.591   3.924   0.451 -0.2562 -0.3182  0.0189
  572TMC3     O 8539   4.645   3.923   0.341 -0.6908  0.1181  0.5998
  572TMC3     H 8540   4.654   3.910   0.720 -0.9386  1.3527  0.9825
  572TMC3    H1 8541   4.671   4.158   0.372 -0.9634  1.7564  0.5284
  572TMC3    H2 8542   0.236   4.197   0.662  0.6022 -2.9062  0.6672
  572TMC3    C7 8543   0.112   4.315   0.436  0.4577  0.0596  0.4404
  572TMC3    C8 8544   0.148   4.018   0.811  0.1226  0.0929 -0.3660
  572TMC3    O1 8545   0.055   4.340   0.331  0.0227 -0.4035  0.0100
  572TMC3    O2 8546   0.233   4.095   0.852 -0.1451 -0.2370 -0.4494
  573MPD2     C 8547   1.929   3.257   0.041  0.4986  0.8722  0.2855
  573MPD2    C1 8548   1.839   3.356   0.029 -0.3019  0.3241  0.3840
  573MPD2    C2 8549   1.745   3.352  17.674 -0.3407  0.0424  0.0188
  573MPD2    C3 8550   1.745   3.252  17.580  0.2270 -0.0173 -0.2980
  573MPD2    C4 8551   1.839   3.149  17.593  0.0632  0.2661  0.3148
  573MPD2    C5 8552   1.928   3.159  17.691 -0.1379  0.3122  0.3296
  573MPD2     H 8553   1.679   3.436  17.657  0.3232  0.7191  0.7891
  573MPD2    H1 8554   1.842   3.062  17.527 -2.0584  0.1308  0.3956
  573MPD2    H2 8555   2.012   3.243   0.110 -1.5435 -2.9200  1.9731
  573MPD2    H3 8556   1.997   3.077  17.703  1.6192  1.4486 -1.9048
  573MPD2     N 8557   1.652   3.246  17.473  0.0782 -0.3871  0.5354
  573MPD2    H5 8558   1.675   3.182  17.398  0.0818  0.9772 -0.6197
  573MPD2    N1 8559   1.836   3.457   0.128  0.2884 -0.1621 -0.8656
  573MPD2    H7 8560   1.912   3.473   0.193 -0.9802 -0.6689  0.7322
  574TMC3    C1 8561   1.451   3.295  17.345  0.1857 -0.0885  0.1729
  574TMC3    C2 8562   1.321   3.342  17.362 -0.5008 -0.7302 -0.8235
  574TMC3    C3 8563   1.235   3.349  17.252  0.1117  0.7661 -0.0804
  574TMC3    C4 8564   1.489   3.230  17.234  0.1961 -0.6193 -0.0646
  574TMC3    C5 8565   1.390   3.215  17.142 -0.0846 -0.0351 -0.7230
  574TMC3    C6 8566   1.267   3.280  17.140  0.1540  0.0976  0.0757
  574TMC3     C 8567   1.534   3.314  17.470 -0.0784 -0.0624  0.6634
  574TMC3     O 8568   1.483   3.374  17.563 -0.3622  0.3482 -0.1889
  574TMC3     H 8569   1.300   3.394  17.455  1.6502 -1.5863  0.1380
  574TMC3    H1 8570   1.595   3.214  17.217  0.2458  0.6589 -0.9495
  574TMC3    H2 8571   1.202   3.252  17.057  0.1832 -1.7930  0.6766
  574TMC3    C7 8572   1.415   3.123  17.037 -0.3224  0.0208 -0.0970
  574TMC3    C8 8573   1.132   3.442  17.258  0.8890  0.1793  0.3797
  574TMC3    O1 8574   1.337   3.138  16.944  0.3736  0.3075  0.0301
  574TMC3    O2 8575   1.046   3.425  17.172  0.5682 -0.4087  0.0621
  575TMC3    C1 8576   4.041   3.951  11.498 -0.1626  0.1137 -0.3780
  575TMC3    C2 8577   3.955   4.026  11.578  0.5521  0.3416  0.2149
  575TMC3    C3 8578   3.903   4.136  11.518 -0.5100 -0.4440  0.0917
  575TMC3    C4 8579   4.064   3.971  11.363  0.1234  0.5394 -0.0470
  575TMC3    C5 8580   3.995   4.075  11.309 -0.3436 -0.0414  0.2068
  575TMC3    C6 8581   3.911   4.155  11.382 -0.2382 -0.3239 -0.1179
  575TMC3     C 8582   4.108   3.835  11.550 -0.6799 -0.2992 -0.1376
  575TMC3     O 8583   4.205   3.793  11.489 -0.0872  0.6934 -0.5026
  575TMC3     H 8584   3.944   4.016  11.685  2.6329 -0.2267  0.3711
  575TMC3    H1 8585   4.145   3.921  11.310 -0.6226 -1.1487  0.4029
  575TMC3    H2 8586   3.862   4.233  11.324  0.3565  1.6051  1.9800
  575TMC3    C7 8587   4.033   4.114  11.174  0.3094 -1.0603  0.4302
  575TMC3    C8 8588   3.833   4.240  11.597  0.0880 -1.1180 -0.6206
  575TMC3    O1 8589   4.027   4.227  11.134  0.5335 -0.8208  0.0517
  575TMC3    O2 8590   3.770   4.204  11.695  0.3508 -0.2830  0.7446
  576MPD2     C 8591   3.455   1.260  12.322  0.0424  0.1466  0.4070
  576MPD2    C1 8592   3.564   1.242  12.407  0.2169  0.1220 -0.4443
  576MPD2    C2 8593   3.548   1.181  12.531  0.2484 -0.3037 -0.2208
  576MPD2    C3 8594   3.421   1.161  12.586 -0.4921  0.6878 -0.7117
  576MPD2    C4 8595   3.311   1.205  12.516 -0.2235  0.4179 -0.0770
  576MPD2    C5 8596   3.331   1.249  12.389 -0.4167  0.0162 -0.3673
  576MPD2     H 8597   3.630   1.154  12.597 -0.8253 -0.4844  1.0402
  576MPD2    H1 8598   3.209   1.195  12.552 -0.8560  3.0742 -1.1683
  576MPD2    H2 8599   3.460   1.303  12.223 -1.7624  1.0238  0.6976
  576MPD2    H3 8600   3.247   1.273  12.325 -1.3924 -0.3710  0.7698
  576MPD2     N 8601   3.410   1.109  12.718  0.2335 -0.4899  0.5047
  576MPD2    H5 8602   3.493   1.096  12.775  0.6315  0.7770  0.2119
  576MPD2    N1 8603   3.695   1.261  12.369 -0.5938  0.6425  0.7750
  576MPD2    H7 8604   3.767   1.228  12.432 -0.8677  0.4235  0.9781
  577TMC3    C1 8605   3.881   1.335  12.248  0.2548  0.1202 -0.2923
  577TMC3    C2 8606   3.954   1.223  12.277  0.1415  0.3915  0.1460
  577TMC3    C3 8607   4.088   1.210  12.242  0.1709 -0.8239  0.6214
  577TMC3    C4 8608   3.937   1.423  12.161 -0.0214  0.5181 -0.0555
  577TMC3    C5 8609   4.056   1.405  12.106 -0.4006  0.3140  0.2773
  577TMC3    C6 8610   4.134   1.299  12.146  0.3135  0.0959 -0.3871
  577TMC3     C 8611   3.737   1.330  12.260 -0.5369 -0.2146 -0.8476
  577TMC3     O 8612   3.670   1.426  12.220 -0.6447  0.4299 -0.6889
  577TMC3     H 8613   3.904   1.141  12.329  3.8398 -2.0066 -0.0337
  577TMC3    H1 8614   3.876   1.508  12.131  0.9437  1.6353  1.1002
  577TMC3    H2 8615   4.236   1.291  12.109  0.0668  0.2299 -1.1028
  577TMC3    C7 8616   4.096   1.479  11.987  0.4208  0.3273 -0.4163
  577TMC3    C8 8617   4.149   1.077  12.259  0.0658  0.2205  0.2729
  577TMC3    O1 8618   4.217   1.492  11.979 -0.6469  0.0125  0.4305
  577TMC3    O2 8619   4.076   0.979  12.287 -0.3553  0.1179 -0.5539
  578MPD2     C 8620   1.974   2.323   0.988 -0.5381  0.1817 -0.0070
  578MPD2    C1 8621   2.004   2.200   0.923  0.4705 -0.3154 -0.4039
  578MPD2    C2 8622   2.135   2.156   0.906  0.2310 -0.1043  0.5756
  578MPD2    C3 8623   2.238   2.226   0.961 -0.6625  0.3774  0.1978
  578MPD2    C4 8624   2.210   2.345   1.028 -0.3971  0.4815 -0.3904
  578MPD2    C5 8625   2.081   2.386   1.035 -0.0477  0.4442  0.3117
  578MPD2     H 8626   2.159   2.075   0.838 -0.5559  1.2075 -1.2934
  578MPD2    H1 8627   2.288   2.416   1.048  0.3199 -0.6027  0.6781
  578MPD2    H2 8628   1.875   2.366   1.002 -0.8615 -0.9677  1.2953
  578MPD2    H3 8629   2.055   2.485   1.071 -0.1309  0.3000  0.6468
  578MPD2     N 8630   2.367   2.178   0.937  0.8616  0.3525  0.4552
  578MPD2    H5 8631   2.380   2.091   0.888 -1.8548 -1.6324  3.2048
  578MPD2    N1 8632   1.894   2.150   0.853 -0.3305 -0.4925 -0.4214
  578MPD2    H7 8633   1.800   2.187   0.865  1.7450  3.6407  3.1152
  579TMC3    C1 8634   2.607   2.192   0.914 -0.0164  0.3582 -0.3166
  579TMC3    C2 8635   2.708   2.282   0.917  0.1092  0.1520  0.6846
  579TMC3    C3 8636   2.824   2.246   0.858  0.1906  0.2866 -0.2624
  579TMC3    C4 8637   2.617   2.066   0.859 -0.2677  0.8940 -0.4585
  579TMC3    C5 8638   2.748   2.035   0.818 -0.0308  0.5418 -1.0791
  579TMC3    C6 8639   2.859   2.117   0.824 -0.1285 -0.4169 -0.3450
  579TMC3     C 8640   2.481   2.247   0.976 -0.4251 -0.6050  0.2442
  579TMC3     O 8641   2.497   2.350   1.038 -0.4004  0.3093  0.4349
  579TMC3     H 8642   2.700   2.386   0.944 -0.1324  0.6941 -1.4404
  579TMC3    H1 8643   2.544   1.989   0.880 -0.6895  1.5484  0.4556
  579TMC3    H2 8644   2.962   2.082   0.816  0.3450  0.9172 -0.1428
  579TMC3    C7 8645   2.764   1.897   0.774  0.2530  0.8924  0.0632
  579TMC3    C8 8646   2.930   2.341   0.840 -0.5201  0.4738 -0.1212
  579TMC3    O1 8647   2.876   1.857   0.752 -0.2858  0.3581 -0.2798
  579TMC3    O2 8648   2.921   2.446   0.903 -0.1312  0.1736 -0.5864
  580TMC3    C1 8649   1.680   4.431  11.274  0.3177 -0.4941 -0.3806
  580TMC3    C2 8650   1.732   4.370  11.164 -0.4543  0.6540 -0.7448
  580TMC3    C3 8651   1.761   4.240  11.185 -0.0932 -0.3570  0.7222
  580TMC3    C4 8652   1.644   4.366  11.391 -0.4471  0.6516 -0.0950
  580TMC3    C5 8653   1.662   4.236  11.397  0.0477 -0.0206 -0.3417
  580TMC3    C6 8654   1.714   4.168  11.292 -0.2401  0.3355  0.9106
  580TMC3     C 8655   1.700   4.572  11.282 -0.1978  0.4200 -0.6872
  580TMC3     O 8656   1.786   4.617  11.207 -0.8161 -0.0392  0.4626
  580TMC3     H 8657   1.750   4.421  11.070 -1.6351 -0.4912 -1.5963
  580TMC3    H1 8658   1.615   4.427  11.476  0.1049  0.7237  0.0460
  580TMC3    H2 8659   1.740   4.063  11.300 -0.5977  0.1966  0.2908
  580TMC3    C7 8660   1.631   4.173  11.517  0.2133  0.2784  0.2635
  580TMC3    C8 8661   1.868   4.181  11.109 -0.8338  0.0544 -0.2211
  580TMC3    O1 8662   1.647   4.232  11.622  0.3585 -0.2738 -0.0392
  580TMC3    O2 8663   1.889   4.059  11.113  0.6506 -0.0252  0.0416
  581MPD2     C 8664   4.157   4.610  14.817  0.0191 -0.3567 -0.3340
  581MPD2    C1 8665   4.161   4.708  14.915 -0.5716 -0.4357  0.4885
  581MPD2    C2 8666   4.090   0.087  14.902 -0.4969 -0.3162  0.5502
  581MPD2    C3 8667   3.998   0.095  14.791 -0.1105  0.3872 -0.2268
  581MPD2    C4 8668   3.991   4.728  14.700  0.2507  0.0713 -0.3323
  581MPD2    C5 8669   4.075   4.623  14.714  0.3070 -0.1256  0.1568
  581MPD2     H 8670   4.090   0.166  14.976  0.8656  0.1941  0.0225
  581MPD2    H1 8671   3.933   0.001  14.609  1.4074  1.3766 -0.9201
  581MPD2    H2 8672   4.220   4.523  14.824 -0.2826 -0.5472  0.0479
  581MPD2    H3 8673   4.090   4.546  14.639 -3.2864  1.2146 -1.9307
  581MPD2     N 8674   3.901   0.199  14.774 -0.2074 -0.6574 -0.1019
  581MPD2    H5 8675   3.840   0.185  14.694 -0.1439 -1.6841  0.0303
  581MPD2    N1 8676   4.238   4.676  15.030 -0.0913 -0.2334 -0.7190
  581MPD2    H7 8677   4.282   4.585  15.022  1.8571  0.5997  0.4530
  582TMC3    C1 8678   4.304   4.681  15.255 -0.0693 -0.8520 -0.0401
  582TMC3    C2 8679   4.305   0.022  15.370  0.3323 -0.1731  0.5142
  582TMC3    C3 8680   4.310   4.685  15.487  0.1573  0.3119  0.2730
  582TMC3    C4 8681   4.269   4.546  15.260  0.0402 -0.1767 -0.5577
  582TMC3    C5 8682   4.256   4.475  15.379 -0.2337  0.5714  0.4106
  582TMC3    C6 8683   4.279   4.552  15.493  0.1071  0.1935  0.4489
  582TMC3     C 8684   4.262   0.018  15.139  1.0060  0.4576  0.2072
  582TMC3     O 8685   4.232   0.133  15.152 -0.0266 -0.5984 -0.1041
  582TMC3     H 8686   4.308   0.130  15.370  1.2225 -0.1807 -2.3626
  582TMC3    H1 8687   4.271   4.491  15.166  0.6574 -0.6401 -0.2763
  582TMC3    H2 8688   4.278   4.496  15.585  1.0080 -2.0744 -0.9056
  582TMC3    C7 8689   4.231   4.333  15.396 -0.2279 -0.1895  0.3738
  582TMC3    C8 8690   4.323   0.017  15.613  0.3272 -0.2359 -0.1708
  582TMC3    O1 8691   4.298   4.283  15.486 -0.3798  0.3806 -0.2548
  582TMC3    O2 8692   4.309   0.141  15.608  0.2547  0.3776 -0.2420
  583MPD2     C 8693   4.244   2.142  16.640  0.5750 -0.0579  0.0426
  583MPD2    C1 8694   4.291   2.239  16.554  0.5316  0.3499 -0.3783
  583MPD2    C2 8695   4.265   2.372  16.580  0.3068 -0.4966 -0.3467
  583MPD2    C3 8696   4.187   2.409  16.692 -0.7218 -0.2482  0.3514
  583MPD2    C4 8697   4.124   2.309  16.759 -0.6895 -0.0070 -0.8002
  583MPD2    C5 8698   4.159   2.177  16.738 -0.0136  0.1170 -0.1209
  583MPD2     H 8699   4.309   2.451  16.520 -0.2725  0.2162  0.1726
  583MPD2    H1 8700   4.052   2.341  16.833 -0.2995 -0.5500 -0.1793
  583MPD2    H2 8701   4.264   2.035  16.631  1.2768  0.0090  0.7391
  583MPD2    H3 8702   4.125   2.101  16.807  1.0727  0.4113  0.7277
  583MPD2     N 8703   4.172   2.549  16.720  0.2871 -0.1034  0.3714
  583MPD2    H5 8704   4.201   2.616  16.649  1.3761 -0.1113  0.8121
  583MPD2    N1 8705   4.369   2.207  16.439 -0.3465  0.2759 -0.9539
  583MPD2    H7 8706   4.377   2.280  16.369 -2.1623  1.8596  0.4918
  584TMC3    C1 8707   4.131   2.746  16.851  0.0072 -0.1435 -0.5595
  584TMC3    C2 8708   4.240   2.814  16.801  0.5665 -0.1556  0.0420
  584TMC3    C3 8709   4.273   2.941  16.845  0.0247  0.6299  0.3836
  584TMC3    C4 8710   4.064   2.798  16.957 -0.0617  0.1422  0.1053
  584TMC3    C5 8711   4.088   2.927  16.989 -0.0211 -0.2969 -0.4841
  584TMC3    C6 8712   4.192   3.006  16.941  0.0251  0.0983 -0.1482
  584TMC3     C 8713   4.119   2.604  16.830  0.4343 -0.2337 -0.3970
  584TMC3     O 8714   4.093   2.545  16.936 -0.0904 -0.0668  0.9081
  584TMC3     H 8715   4.286   2.764  16.716 -2.7094 -2.7741 -0.1748
  584TMC3    H1 8716   3.974   2.748  16.990 -1.4734  2.3004 -0.5387
  584TMC3    H2 8717   4.211   3.103  16.983  0.9044 -0.0453 -0.2217
  584TMC3    C7 8718   4.011   2.991  17.095 -0.0431 -0.1112  0.6369
  584TMC3    C8 8719   4.364   3.020  16.770 -0.1539  0.8770 -0.0816
  584TMC3    O1 8720   3.978   3.108  17.073 -0.2253  0.1253 -0.1856
  584TMC3    O2 8721   4.377   2.972  16.660 -0.3084  0.5901  0.0124
  585MPD2     C 8722   3.736   1.032   0.101 -0.0806 -0.3418  0.4058
  585MPD2    C1 8723   3.845   1.018   0.013 -0.3364  0.3354 -0.2458
  585MPD2    C2 8724   3.864   0.900  17.681  0.9289  0.3974 -0.1621
  585MPD2    C3 8725   3.764   0.805  17.686  0.7937  0.2709 -0.6847
  585MPD2    C4 8726   3.651   0.822   0.019  0.2202  0.6580  0.2527
  585MPD2    C5 8727   3.645   0.938   0.098  0.1931 -0.2335 -0.6569
  585MPD2     H 8728   3.949   0.883  17.616  1.2514  0.4305  0.2525
  585MPD2    H1 8729   3.562   0.765  17.739  0.4120  1.4372 -2.0706
  585MPD2    H2 8730   3.708   1.117   0.162  0.7079 -0.0623  0.3830
  585MPD2    H3 8731   3.559   0.947   0.163  1.1016 -0.4146  0.5758
  585MPD2     N 8732   3.755   0.700  17.601  0.4608 -0.0050  0.2191
  585MPD2    H5 8733   3.667   0.674  17.558  1.3632 -0.3298 -1.4079
  585MPD2    N1 8734   3.930   1.130  17.740 -0.6156 -0.1023  0.6621
  585MPD2    H7 8735   3.902   1.209   0.051  0.8412 -0.1172  1.3792
  586TMC3    C1 8736   3.844   0.601  17.402 -0.8646 -0.1677 -0.3207
  586TMC3    C2 8737   3.947   0.545  17.337  0.4098  1.1020 -0.3254
  586TMC3    C3 8738   3.936   0.547  17.202  0.0361  0.1152  0.2822
  586TMC3    C4 8739   3.735   0.651  17.343 -0.3013 -0.0958 -0.0829
  586TMC3    C5 8740   3.731   0.653  17.206 -0.2603  0.3930  0.4860
  586TMC3    C6 8741   3.835   0.613  17.132 -0.7848  0.0917  0.3252
  586TMC3     C 8742   3.866   0.650  17.539  0.5542  0.5529 -0.1847
  586TMC3     O 8743   3.975   0.615  17.588  0.6047 -0.4283 -0.3030
  586TMC3     H 8744   4.026   0.494  17.390 -1.0660 -1.9977 -1.0773
  586TMC3    H1 8745   3.651   0.701  17.389 -1.3937 -2.7324  0.7849
  586TMC3    H2 8746   3.822   0.618  17.025  0.2455  1.9743  0.2964
  586TMC3    C7 8747   3.637   0.740  17.128  0.1726 -0.1052  0.4654
  586TMC3    C8 8748   4.046   0.495  17.122  0.4877  0.7671 -0.0077
  586TMC3    O1 8749   3.681   0.822  17.055  0.0055  0.0587 -0.4771
  586TMC3    O2 8750   4.115   0.405  17.167  0.0464  0.3171  0.3533
  587TMC3    C1 8751   1.259   4.698  16.128 -0.3754  0.7214 -0.1530
  587TMC3    C2 8752   1.309   0.058  16.214 -0.4972  1.1993 -0.3898
  587TMC3    C3 8753   1.408   0.032  16.301  0.7555  0.7286 -0.2831
  587TMC3    C4 8754   1.298   4.564  16.140  0.3029 -0.7970  0.0514
  587TMC3    C5 8755   1.398   4.542  16.233  0.9611 -0.1070 -0.2700
  587TMC3    C6 8756   1.456   4.640  16.311  1.2633  0.8728 -0.0625
  587TMC3     C 8757   1.145   4.736  16.050 -0.0414  0.0620 -0.3275
  587TMC3     O 8758   1.139   0.114  16.010  0.1626  0.2833 -0.4368
  587TMC3     H 8759   1.263   0.156  16.209 -2.2759  0.3857 -0.2454
  587TMC3    H1 8760   1.273   4.492  16.063  2.0584  0.1289 -1.4043
  587TMC3    H2 8761   1.529   4.617  16.388 -1.3384  2.2024  2.7936
  587TMC3    C7 8762   1.413   4.404  16.257 -0.1030 -0.1059  0.0171
  587TMC3    C8 8763   1.422   0.102  16.420 -0.1382 -0.1855 -0.6528
  587TMC3    O1 8764   1.322   4.331  16.223  0.0777 -0.0985 -0.3364
  587TMC3    O2 8765   1.527   0.088  16.481 -0.0941  0.6280 -0.0463
  588TMC3    C1 8766   3.720   1.737   9.275 -0.2129  1.0317  0.0218
  588TMC3    C2 8767   3.689   1.605   9.290  0.2433 -0.5021 -0.1239
  588TMC3    C3 8768   3.657   1.563   9.418  0.1160  0.3175  0.2356
  588TMC3    C4 8769   3.706   1.823   9.378 -0.1441  0.1954 -0.4251
  588TMC3    C5 8770   3.668   1.783   9.504 -0.5643  0.8555  0.0285
  588TMC3    C6 8771   3.645   1.649   9.525 -0.4021  0.1496  0.3159
  588TMC3     C 8772   3.792   1.779   9.160  0.1405  0.1415 -0.2957
  588TMC3     O 8773   3.749   1.730   9.058 -0.0449 -0.1195 -0.3180
  588TMC3     H 8774   3.669   1.542   9.204  2.1504  0.6497 -1.4242
  588TMC3    H1 8775   3.692   1.929   9.357  0.2847  0.4522  0.6294
  588TMC3    H2 8776   3.607   1.614   9.620  1.6209 -1.2300  0.6109
  588TMC3    C7 8777   3.662   1.878   9.619 -1.0474 -0.5925 -0.2594
  588TMC3    C8 8778   3.624   1.421   9.431 -0.1479  0.3312 -0.1065
  588TMC3    O1 8779   3.603   1.850   9.719 -0.2348  0.3854 -0.0691
  588TMC3    O2 8780   3.594   1.369   9.325  0.0716 -0.4172  0.3995
  589TMC3    C1 8781   2.866   0.382   1.145 -0.5878  0.3042 -0.0506
  589TMC3    C2 8782   2.993   0.419   1.146  0.0657  0.1287  0.6885
  589TMC3    C3 8783   3.090   0.322   1.126  0.6140 -0.7652  0.3765
  589TMC3    C4 8784   2.824   0.254   1.119  0.1557 -0.2593  0.0210
  589TMC3    C5 8785   2.924   0.154   1.111 -0.3252  0.1640  0.7347
  589TMC3    C6 8786   3.060   0.187   1.118  1.0273  0.0312 -0.5110
  589TMC3     C 8787   2.765   0.481   1.146 -1.0390 -0.2186  0.0223
  589TMC3     O 8788   2.654   0.449   1.110  0.1620 -0.0003 -0.2687
  589TMC3     H 8789   3.028   0.520   1.163  1.1850  0.2808 -2.4795
  589TMC3    H1 8790   2.720   0.225   1.129 -0.0965  0.3525 -0.7969
  589TMC3    H2 8791   3.141   0.117   1.101 -1.0265 -2.1915 -1.0434
  589TMC3    C7 8792   2.884   0.015   1.065  0.3762 -0.8670  0.0983
  589TMC3    C8 8793   3.230   0.364   1.140 -0.5140  0.1107 -0.3955
  589TMC3    O1 8794   2.773   4.718   1.101  0.2254 -0.8490  0.6409
  589TMC3    O2 8795   3.251   0.482   1.153 -0.8382  0.0445  0.0133
  590MPD2     C 8796   2.449   2.811  16.753 -0.4914 -0.3160  0.2365
  590MPD2    C1 8797   2.391   2.931  16.732 -0.2697  0.4764 -0.2504
  590MPD2    C2 8798   2.462   3.036  16.668  0.3870  0.1407 -0.2817
  590MPD2    C3 8799   2.588   3.023  16.623  0.2703  0.4577 -0.0406
  590MPD2    C4 8800   2.649   2.904  16.644  0.3574  0.0450  0.4181
  590MPD2    C5 8801   2.582   2.802  16.710 -0.2659  0.2051 -0.0357
  590MPD2     H 8802   2.420   3.134  16.645 -1.8576 -0.4974  1.0371
  590MPD2    H1 8803   2.744   2.879  16.599  0.0807 -1.1701  0.5121
  590MPD2    H2 8804   2.400   2.723  16.793 -0.2493 -0.9051 -0.7409
  590MPD2    H3 8805   2.630   2.707  16.729 -1.2480 -0.4608 -0.9487
  590MPD2     N 8806   2.648   3.120  16.537  0.0535  0.0329  0.3284
  590MPD2    H5 8807   2.595   3.204  16.519  2.3325  1.3729 -0.0410
  590MPD2    N1 8808   2.252   2.932  16.755 -0.3690 -0.1578 -0.0624
  590MPD2    H7 8809   2.200   2.846  16.770 -0.3615 -0.5260 -2.0425
  591TMC3    C1 8810   2.816   3.216  16.397  0.0304 -0.3256  0.4342
  591TMC3    C2 8811   2.872   3.184  16.275  0.2515 -0.0679  0.5293
  591TMC3    C3 8812   2.870   3.281  16.180  0.2181 -0.4329  1.3922
  591TMC3    C4 8813   2.758   3.343  16.417  0.1021 -0.4774  0.1708
  591TMC3    C5 8814   2.770   3.435  16.324 -0.2245 -0.9605 -0.3283
  591TMC3    C6 8815   2.827   3.405  16.204 -0.0842 -0.4910 -0.4794
  591TMC3     C 8816   2.771   3.099  16.473 -0.2638 -0.5572 -0.6444
  591TMC3     O 8817   2.852   3.003  16.476 -0.5800 -0.9524  0.2617
  591TMC3     H 8818   2.884   3.078  16.253 -2.4226 -0.2415 -0.1013
  591TMC3    H1 8819   2.728   3.374  16.516  0.7713 -0.9322  0.5153
  591TMC3    H2 8820   2.808   3.467  16.117 -1.3605  1.2050  1.0231
  591TMC3    C7 8821   2.683   3.549  16.333  0.0302 -0.1370 -0.1089
  591TMC3    C8 8822   2.891   3.237  16.043 -0.1679  0.9608  0.3559
  591TMC3    O1 8823   2.589   3.534  16.411  0.3364  0.1130 -0.0510
  591TMC3    O2 8824   2.872   3.119  16.027 -0.5985  0.4798 -0.1519
  592MPD2     C 8825   2.864   4.405  11.214  0.6658  0.0321  0.4528
  592MPD2    C1 8826   2.795   4.475  11.312 -0.1985  0.4246 -0.4260
  592MPD2    C2 8827   2.709   4.398  11.397  0.1500 -0.0293  0.1142
  592MPD2    C3 8828   2.689   4.262  11.375  0.4312  0.1869 -0.1144
  592MPD2    C4 8829   2.755   4.198  11.280 -0.3071  0.8507 -0.0249
  592MPD2    C5 8830   2.833   4.275  11.190 -0.0275 -0.3003 -0.0150
  592MPD2     H 8831   2.659   4.443  11.482  1.2173  0.8804  0.2574
  592MPD2    H1 8832   2.760   4.090  11.274 -1.0631  0.9152 -1.6617
  592MPD2    H2 8833   2.934   4.454  11.148  1.5379 -1.9206 -0.0705
  592MPD2    H3 8834   2.883   4.220  11.111  1.2755  0.4599  0.2813
  592MPD2     N 8835   2.600   4.197  11.461 -0.2330 -0.6075  0.5921
  592MPD2    H5 8836   2.569   4.257  11.537  1.1397  0.8311  0.0403
  592MPD2    N1 8837   2.822   4.614  11.327  0.2900 -0.1053  0.1940
  592MPD2    H7 8838   2.901   4.654  11.279  0.5964 -1.2798 -0.2914
  593TMC3    C1 8839   2.805   0.080  11.438 -0.1212  0.0424  0.1001
  593TMC3    C2 8840   2.827   0.100  11.577  0.3099  0.6722  0.3270
  593TMC3    C3 8841   2.898   0.205  11.617 -0.1960  0.0148  0.3234
  593TMC3    C4 8842   2.888   0.142  11.352  0.2672  0.0186  0.6990
  593TMC3    C5 8843   2.974   0.237  11.401  0.8068 -0.6062  0.1591
  593TMC3    C6 8844   2.978   0.270  11.531  0.0016  0.0877 -0.2690
  593TMC3     C 8845   2.739   4.691  11.411  0.4595 -0.6355  0.1178
  593TMC3     O 8846   2.649   4.660  11.492  0.2994 -0.1533  0.0131
  593TMC3     H 8847   2.764   0.042  11.644 -0.3063 -0.6214 -1.3649
  593TMC3    H1 8848   2.876   0.116  11.247  0.7306 -0.2234  0.7035
  593TMC3    H2 8849   3.064   0.329  11.561  1.3274 -1.8575 -0.2122
  593TMC3    C7 8850   3.057   0.297  11.292  0.3274  0.0937 -0.0825
  593TMC3    C8 8851   2.939   0.199  11.760  0.1484  0.6467 -0.2481
  593TMC3    O1 8852   3.116   0.400  11.325  0.2847 -0.2851 -0.6565
  593TMC3    O2 8853   2.902   0.102  11.826 -0.3024 -0.2049 -0.0057
  594MPD2     C 8854   1.465   3.684  13.575  0.6479 -0.6913 -0.2659
  594MPD2    C1 8855   1.447   3.675  13.709 -0.5577  0.6116  0.2808
  594MPD2    C2 8856   1.515   3.767  13.794 -0.6409 -0.5513  0.0296
  594MPD2    C3 8857   1.605   3.866  13.741  0.2414 -0.6286  0.2087
  594MPD2    C4 8858   1.628   3.860  13.606  0.1052  0.4084 -0.2430
  594MPD2    C5 8859   1.567   3.771  13.524 -0.1189  0.2234  0.0693
  594MPD2     H 8860   1.508   3.773  13.902 -0.5485 -1.4496  0.0852
  594MPD2    H1 8861   1.700   3.926  13.561 -0.9494 -0.1468 -2.7481
  594MPD2    H2 8862   1.431   3.604  13.510  0.4291 -0.5524 -0.3211
  594MPD2    H3 8863   1.600   3.767  13.420 -0.4405  2.3819 -0.1134
  594MPD2     N 8864   1.680   3.948  13.835 -0.1732 -0.3731 -0.2746
  594MPD2    H5 8865   1.664   3.933  13.934  0.0125 -0.9685 -0.3387
  594MPD2    N1 8866   1.355   3.572  13.761 -0.0155  0.4698 -0.6939
  594MPD2    H7 8867   1.315   3.508  13.692 -2.1806 -0.9530  1.9008
  595TMC3    C1 8868   1.981   4.244  14.028  0.5235 -0.2218  0.5412
  595TMC3    C2 8869   1.954   4.147  13.929  0.4021 -0.1347  0.4452
  595TMC3    C3 8870   1.825   4.108  13.927 -0.3800  0.8376  0.8902
  595TMC3    C4 8871   1.889   4.288  14.117  0.1956 -0.4777 -0.0032
  595TMC3    C5 8872   1.762   4.245  14.104 -0.4038 -0.1223 -0.0851
  595TMC3    C6 8873   1.721   4.159  14.010 -0.5266 -0.4609 -0.3258
  595TMC3     C 8874   2.121   4.264  14.070  0.4770  0.6685 -0.5605
  595TMC3     O 8875   2.129   4.298  14.187 -0.7095  0.0594  0.8449
  595TMC3     H 8876   2.026   4.095  13.867  1.4990 -1.9706  3.2591
  595TMC3    H1 8877   1.915   4.362  14.192 -2.2179 -0.4263  0.7985
  595TMC3    H2 8878   1.620   4.119  14.013 -1.1413  0.9970 -1.4577
  595TMC3    C7 8879   1.676   4.270  14.216 -0.3188  0.6570 -0.0303
  595TMC3    C8 8880   1.781   4.038  13.812 -0.2223 -1.1122 -0.1429
  595TMC3    O1 8881   1.554   4.265  14.201 -0.4697 -0.4478  0.4917
  595TMC3    O2 8882   1.843   4.053  13.706 -0.6883  0.1637 -0.1712
  596MPD2     C 8883   0.250   1.796  16.878  0.0190  0.0165  0.3072
  596MPD2    C1 8884   0.294   1.914  16.815 -0.7132  0.3950  0.3575
  596MPD2    C2 8885   0.357   1.899  16.695 -0.3218  0.3022 -0.3892
  596MPD2    C3 8886   0.374   1.772  16.639  0.5835  0.1275  0.1043
  596MPD2    C4 8887   0.347   1.659  16.710  0.0775  0.1433 -0.0455
  596MPD2    C5 8888   0.283   1.669  16.833 -0.8188 -0.0938  0.0612
  596MPD2     H 8889   0.384   1.991  16.645 -0.5263  1.2795  1.2860
  596MPD2    H1 8890   0.367   1.558  16.679  1.2970 -0.2440  2.0169
  596MPD2    H2 8891   0.205   1.800  16.976 -0.7162 -0.3353 -0.0176
  596MPD2    H3 8892   0.266   1.580  16.893 -1.5273 -0.6369 -0.9346
  596MPD2     N 8893   0.433   1.754  16.508  0.2407  0.2063  0.4412
  596MPD2    H5 8894   0.440   1.655  16.484 -1.7095  0.0196  0.6995
  596MPD2    N1 8895   0.267   2.049  16.864 -0.2914 -0.0690 -0.3204
  596MPD2    H7 8896   0.314   2.119  16.808 -0.7617  0.7463  0.3103
  597TMC3    C1 8897   0.202   2.229  16.988  0.0599 -0.5041 -0.5726
  597TMC3    C2 8898   0.315   2.298  16.966 -0.1791  0.0854  0.4851
  597TMC3    C3 8899   0.310   2.432  16.986  0.4500 -0.2451 -0.4212
  597TMC3    C4 8900   0.088   2.287  17.032 -0.1157 -0.2215 -0.1013
  597TMC3    C5 8901   0.083   2.424  17.049 -0.0321  0.3060  0.6159
  597TMC3    C6 8902   0.192   2.501  17.027  0.6725  0.5581 -0.2685
  597TMC3     C 8903   0.202   2.082  16.981  0.1103 -0.1033 -0.2729
  597TMC3     O 8904   0.130   2.020  17.058 -0.3537 -0.2760  0.0548
  597TMC3     H 8905   0.407   2.248  16.940 -1.5129 -1.7267 -0.7425
  597TMC3    H1 8906   4.736   2.227  17.047 -0.4808  0.3170 -0.1118
  597TMC3    H2 8907   0.195   2.604  17.062 -0.9368  0.3305  0.5652
  597TMC3    C7 8908   4.709   2.488  17.121  0.0549 -0.0283  0.1594
  597TMC3    C8 8909   0.440   2.492  16.967 -0.0299  0.7896 -0.7687
  597TMC3    O1 8910   4.663   2.415  17.209  0.1624 -0.1515 -0.2166
  597TMC3    O2 8911   0.536   2.425  17.002  0.6899  0.6234  0.2191
  598TMC3    C1 8912   3.504   2.858  15.446 -0.1608 -0.0258 -1.2993
  598TMC3    C2 8913   3.431   2.747  15.469  0.3852  0.0595 -0.0810
  598TMC3    C3 8914   3.385   2.672  15.364 -0.5249  0.4722 -0.2589
  598TMC3    C4 8915   3.514   2.907  15.318  1.1595  0.1783 -0.2947
  598TMC3    C5 8916   3.455   2.838  15.211 -0.6373  0.1240  0.4478
  598TMC3    C6 8917   3.385   2.717  15.235  0.1125 -0.4642  0.4778
  598TMC3     C 8918   3.549   2.941  15.561  0.0979  0.2151  0.3924
  598TMC3     O 8919   3.576   3.054  15.536  1.0084  0.0502 -0.2653
  598TMC3     H 8920   3.398   2.725  15.570 -0.2878  2.4096  0.2207
  598TMC3    H1 8921   3.563   3.001  15.299  1.1708  0.1044 -0.6349
  598TMC3    H2 8922   3.343   2.656  15.156 -1.8510 -0.0497  1.1979
  598TMC3    C7 8923   3.434   2.906  15.081  0.1310 -0.3295 -0.6409
  598TMC3    C8 8924   3.281   2.575  15.393  0.1114  0.9288  0.1131
  598TMC3    O1 8925   3.396   2.836  14.986 -0.4978 -0.3740 -0.1597
  598TMC3    O2 8926   3.193   2.568  15.308 -0.6189  0.1992  0.5990
  599MPD2     C 8927   3.432   0.842  15.473  0.0673  1.3174 -0.7114
  599MPD2    C1 8928   3.390   0.719  15.513  0.8368  0.3196  0.2474
  599MPD2    C2 8929   3.274   0.707  15.594  0.6745 -0.4347  0.2264
  599MPD2    C3 8930   3.219   0.823  15.643 -0.1273  0.6235 -0.2604
  599MPD2    C4 8931   3.254   0.944  15.588 -0.6191 -0.0591  0.2499
  599MPD2    C5 8932   3.371   0.954  15.518 -0.2993 -0.7296  0.1895
  599MPD2     H 8933   3.239   0.606  15.610  1.7188 -0.7096  0.7648
  599MPD2    H1 8934   3.203   1.031  15.627  0.1254 -0.2665  1.7175
  599MPD2    H2 8935   3.517   0.862  15.409 -0.0115  1.4326 -0.7800
  599MPD2    H3 8936   3.404   1.054  15.495 -0.4531 -0.5345  0.8087
  599MPD2     N 8937   3.111   0.831  15.729 -0.2309  0.3578  0.0762
  599MPD2    H5 8938   3.060   0.919  15.728  0.1521  0.5655 -0.7807
  599MPD2    N1 8939   3.463   0.609  15.463  0.1401  0.0555 -0.2445
  599MPD2    H7 8940   3.551   0.631  15.417  1.5348 -0.9766  1.9174
  600TMC3    C1 8941   3.004   0.783  15.941 -0.5165  1.3123  0.3189
  600TMC3    C2 8942   2.966   0.678  16.018  0.2813 -0.1105 -0.2845
  600TMC3    C3 8943   2.877   0.704  16.121  0.3326  0.1335 -0.1862
  600TMC3    C4 8944   2.947   0.903  15.954 -0.1886 -0.5848 -0.4461
  600TMC3    C5 8945   2.856   0.928  16.053 -0.1042  0.5036  0.3770
  600TMC3    C6 8946   2.804   0.828  16.128  0.4628 -0.3443  0.2251
  600TMC3     C 8947   3.100   0.744  15.838 -0.4883  0.1412 -0.0439
  600TMC3     O 8948   3.152   0.639  15.862  0.5434  0.1214 -0.5908
  600TMC3     H 8949   2.994   0.576  15.995 -0.6174 -0.0803 -1.5230
  600TMC3    H1 8950   2.993   0.987  15.904  1.7558 -1.1130  0.4861
  600TMC3    H2 8951   2.726   0.844  16.201  1.1273  2.2845  0.3399
  600TMC3    C7 8952   2.831   1.062  16.102  0.6526 -0.5251  0.0869
  600TMC3    C8 8953   2.816   0.591  16.182  0.2987  0.0835  0.6815
  600TMC3    O1 8954   2.737   1.074  16.177 -0.7726 -0.1146  0.0093
  600TMC3    O2 8955   2.888   0.507  16.236 -0.2008 -0.1828  0.3932
  601MPD2     C 8956   0.340   4.730   0.296 -0.1114 -0.5316 -0.2345
  601MPD2    C1 8957   0.305   4.623   0.219  0.1066 -0.3906 -0.1365
  601MPD2    C2 8958   0.266   4.511   0.289  0.7869 -0.4585 -0.3100
  601MPD2    C3 8959   0.251   4.513   0.432  0.8378  0.1122 -0.0081
  601MPD2    C4 8960   0.297   4.622   0.497 -0.3660 -0.0575  0.8020
  601MPD2    C5 8961   0.345   4.731   0.433 -0.6938  0.3041  0.3097
  601MPD2     H 8962   0.255   4.415   0.241  3.1371 -0.3264 -1.1070
  601MPD2    H1 8963   0.280   4.625   0.604  0.3189 -0.5910  0.9308
  601MPD2    H2 8964   0.370   0.084   0.245 -0.9067 -0.2084 -0.1266
  601MPD2    H3 8965   0.369   0.087   0.484 -0.5591 -0.2046  1.1747
  601MPD2     N 8966   0.200   4.401   0.502  0.0596 -0.4666 -0.1017
  601MPD2    H5 8967   0.203   4.408   0.603 -1.1771  1.8349 -0.2431
  601MPD2    N1 8968   0.294   4.627   0.076 -0.2398  0.2801 -0.1143
  601MPD2    H7 8969   0.244   4.547   0.039  1.7385 -0.4838 -1.1782
  602TMC3    C1 8970   0.289   4.703  17.595  0.1762 -0.3420 -0.5300
  602TMC3    C2 8971   0.274   0.073  17.508  0.7741  0.2616 -0.1130
  602TMC3    C3 8972   0.221   0.049  17.381 -0.0703  0.1169 -0.3367
  602TMC3    C4 8973   0.258   4.577  17.556 -0.0128 -0.0414  0.1189
  602TMC3    C5 8974   0.206   4.555  17.427  0.4382  0.2759 -0.0870
  602TMC3    C6 8975   0.188   4.659  17.341 -0.1486 -0.3950  0.2528
  602TMC3     C 8976   0.339   4.729  17.731  0.0184 -0.4624  0.3211
  602TMC3     O 8977   0.406   0.094  17.746 -0.7604  0.4200  0.4276
  602TMC3     H 8978   0.303   0.169  17.548  1.5182  0.3555 -0.8858
  602TMC3    H1 8979   0.263   4.498  17.630 -0.4729  0.0117  0.2055
  602TMC3    H2 8980   0.126   4.663  17.252 -0.7956  0.0295  0.7156
  602TMC3    C7 8981   0.217   4.424  17.371  0.1697 -0.1853 -0.4111
  602TMC3    C8 8982   0.192   0.157  17.293  0.2563 -0.0221 -0.3032
  602TMC3    O1 8983   0.162   4.333  17.435 -0.7045  0.4164 -0.6535
  602TMC3    O2 8984   0.105   0.231  17.333  0.6717 -0.1745  0.3320
  603TMC3    C1 8985   3.833   3.780  10.601  0.2549  0.4330 -0.1106
  603TMC3    C2 8986   3.842   3.758  10.735 -0.9721 -0.5421 -0.0210
  603TMC3    C3 8987   3.789   3.855  10.816 -0.6958  0.2357 -0.0831
  603TMC3    C4 8988   3.779   3.890  10.547 -0.7936 -0.4220  0.4292
  603TMC3    C5 8989   3.740   3.991  10.628  0.4582 -0.4473 -0.4822
  603TMC3    C6 8990   3.726   3.971  10.762 -0.5630 -0.2805  0.0528
  603TMC3     C 8991   3.916   3.700  10.512 -0.2612  0.3945 -0.4826
  603TMC3     O 8992   4.031   3.674  10.552  0.0187 -0.6228 -0.1515
  603TMC3     H 8993   3.900   3.680  10.782 -0.0183 -0.0446 -0.3656
  603TMC3    H1 8994   3.789   3.904  10.440  1.9020  1.2455  0.9091
  603TMC3    H2 8995   3.728   4.061  10.824 -1.6192  1.6477 -2.7338
  603TMC3    C7 8996   3.693   4.121  10.582  1.0275  0.3612  0.3594
  603TMC3    C8 8997   3.798   3.838  10.954 -0.0137 -0.4089  0.2030
  603TMC3    O1 8998   3.686   4.214  10.661 -0.1444 -0.9229  0.4407
  603TMC3    O2 8999   3.857   3.739  10.998  0.1774 -0.0321  0.5556
  604MPD2     C 9000   4.627   3.293  16.272 -0.5273  0.1687  0.0610
  604MPD2    C1 9001   4.525   3.210  16.247 -0.0057 -0.6953 -0.1770
  604MPD2    C2 9002   4.523   3.118  16.140  0.4290  1.0572 -0.2530
  604MPD2    C3 9003   4.639   3.117  16.069  0.2815  0.6916 -0.7762
  604MPD2    C4 9004   0.017   3.189  16.107 -0.0953 -0.9157 -0.4892
  604MPD2    C5 9005   0.004   3.286  16.203  0.3880  0.1857  0.3933
  604MPD2     H 9006   4.436   3.056  16.120  1.6052  0.4632 -3.6076
  604MPD2    H1 9007   0.099   3.191  16.037  1.3233 -0.4877  1.1819
  604MPD2    H2 9008   4.620   3.374  16.344  0.9618  0.0367  0.3442
  604MPD2    H3 9009   0.092   3.347  16.224  1.0413 -0.2005 -1.1867
  604MPD2     N 9010   4.636   3.037  15.954  0.2601 -0.3519 -0.6459
  604MPD2    H5 9011   4.541   3.016  15.926 -0.4694  1.8455  0.2044
  604MPD2    N1 9012   4.410   3.246  16.323 -0.4205 -0.1767  0.5756
  604MPD2    H7 9013   4.417   3.319  16.394 -0.4531  1.4538 -1.0935
  605TMC3    C1 9014   4.202   3.252  16.402  0.5062 -0.4594  0.4423
  605TMC3    C2 9015   4.265   3.293  16.518  0.0112 -0.2572 -0.6981
  605TMC3    C3 9016   4.229   3.420  16.561 -0.6988 -0.1596  0.3311
  605TMC3    C4 9017   4.091   3.316  16.348  0.1504  0.5561 -0.1315
  605TMC3    C5 9018   4.068   3.438  16.399 -0.2336  0.5399 -0.0000
  605TMC3    C6 9019   4.133   3.498  16.503  0.1636 -0.0433  1.3769
  605TMC3     C 9020   4.281   3.185  16.309 -0.0080 -0.4548  0.1440
  605TMC3     O 9021   4.227   3.116  16.225  0.1726 -0.5860  0.7101
  605TMC3     H 9022   4.348   3.236  16.557  0.7081  0.1879 -1.5343
  605TMC3    H1 9023   4.051   3.277  16.255  1.4550  0.8190 -0.7949
  605TMC3    H2 9024   4.107   3.598  16.536 -0.8057 -0.2382  1.1894
  605TMC3    C7 9025   3.968   3.506  16.329 -0.1653 -0.2200 -0.4528
  605TMC3    C8 9026   4.348   3.505  16.558 -0.0170 -0.5911  0.1735
  605TMC3    O1 9027   3.976   3.628  16.315  0.4809  0.0468 -0.4843
  605TMC3    O2 9028   4.432   3.473  16.477 -0.2213  0.2265  0.9474
  606TMC3    C1 9029   0.714   2.133  16.964  0.6530 -0.5979 -0.2861
  606TMC3    C2 9030   0.721   2.113  17.099  0.8738 -0.0513 -0.2236
  606TMC3    C3 9031   0.648   2.007  17.149  0.4411 -0.1572  0.9799
  606TMC3    C4 9032   0.645   2.048  16.881 -0.0102 -0.0792  0.0946
  606TMC3    C5 9033   0.592   1.932  16.938  0.3257 -0.5768  0.2925
  606TMC3    C6 9034   0.581   1.914  17.071 -0.0157 -0.4330  0.1224
  606TMC3     C 9035   0.797   2.239  16.908 -0.1098 -0.0567 -0.2297
  606TMC3     O 9036   0.760   2.264  16.794  0.5562  0.0838  0.1421
  606TMC3     H 9037   0.783   2.178  17.160  3.2000 -0.6305 -1.9671
  606TMC3    H1 9038   0.636   2.063  16.774 -1.3634  2.2179  0.5134
  606TMC3    H2 9039   0.532   1.830  17.119 -0.2014  0.7774  2.0537
  606TMC3    C7 9040   0.627   1.818  16.855 -0.0318 -0.1220  0.1519
  606TMC3    C8 9041   0.678   1.982  17.289  0.7217  0.3280 -0.2254
  606TMC3    O1 9042   0.672   1.840  16.744 -0.0940  0.0482 -0.2425
  606TMC3    O2 9043   0.780   2.028  17.328  0.0948 -0.5023  0.1276
  607MPD2     C 9044   2.849   3.859  11.644  0.2125 -0.6014 -0.6354
  607MPD2    C1 9045   2.877   3.928  11.763 -0.1788 -0.1106  0.1281
  607MPD2    C2 9046   2.872   3.868  11.879  0.9830  0.1438 -0.5846
  607MPD2    C3 9047   2.834   3.741  11.890  0.1576  0.8394 -0.1207
  607MPD2    C4 9048   2.798   3.668  11.773  0.4964  0.0979 -0.2742
  607MPD2    C5 9049   2.809   3.729  11.652  0.0683 -0.4241 -0.4537
  607MPD2     H 9050   2.900   3.920  11.970 -0.0394  0.6150 -0.5445
  607MPD2    H1 9051   2.757   3.568  11.785  1.2508 -0.0761  0.8803
  607MPD2    H2 9052   2.850   3.918  11.554  3.2117  0.9648  0.4222
  607MPD2    H3 9053   2.793   3.674  11.560 -4.7025  1.0558 -0.5014
  607MPD2     N 9054   2.835   3.688  12.017 -0.0157 -0.0969  0.1423
  607MPD2    H5 9055   2.868   3.745  12.094 -0.4102  0.6545 -0.2420
  607MPD2    N1 9056   2.911   4.064  11.777  0.0125  0.0154  0.0953
  607MPD2    H7 9057   2.955   4.094  11.863 -0.8898  1.7400 -0.0301
  608TMC3    C1 9058   2.949   4.285  11.734  0.1619 -0.4331 -0.5187
  608TMC3    C2 9059   2.948   4.312  11.867  0.1164 -0.1302  0.3370
  608TMC3    C3 9060   2.995   4.433  11.913  0.0749  0.6129  0.6735
  608TMC3    C4 9061   2.992   4.381  11.644  0.0739  0.2465 -0.4774
  608TMC3    C5 9062   3.050   4.494  11.690  0.8052 -0.2446  0.3972
  608TMC3    C6 9063   3.053   4.525  11.828 -0.1133  0.7229  0.5312
  608TMC3     C 9064   2.912   4.155  11.681  0.8632 -0.3849  1.3439
  608TMC3     O 9065   2.877   4.148  11.564  0.2254 -0.0540 -0.0766
  608TMC3     H 9066   2.896   4.243  11.933 -0.4954  0.9529  1.0065
  608TMC3    H1 9067   2.993   4.362  11.538  0.5402 -2.6836  0.0357
  608TMC3    H2 9068   3.110   4.606  11.872  0.3238  1.1502 -0.8040
  608TMC3    C7 9069   3.114   4.586  11.590 -0.2384 -1.0039 -0.0213
  608TMC3    C8 9070   3.015   4.433  12.056  0.8454  0.3455 -0.4613
  608TMC3    O1 9071   3.130   4.540  11.476 -0.5539  0.7415  0.4217
  608TMC3    O2 9072   3.032   4.539  12.112  0.7816  0.3178  0.3363
  609TMC3    C1 9073   0.448   3.505   8.912 -0.2813 -0.4684  0.5519
  609TMC3    C2 9074   0.321   3.497   8.856  0.0655  0.6764 -0.5002
  609TMC3    C3 9075   0.284   3.392   8.779  0.2960 -0.8903  0.2660
  609TMC3    C4 9076   0.542   3.410   8.878 -0.0215 -0.7973  0.4297
  609TMC3    C5 9077   0.503   3.312   8.796  0.2805  0.0476  0.0525
  609TMC3    C6 9078   0.374   3.297   8.744 -0.1572 -0.2483  0.1222
  609TMC3     C 9079   0.464   3.570   9.039 -0.0937 -0.8171  0.4368
  609TMC3     O 9080   0.377   3.657   9.064  0.2709  0.1770 -0.3244
  609TMC3     H 9081   0.253   3.580   8.873  0.7722  1.6916 -2.6173
  609TMC3    H1 9082   0.644   3.430   8.910  0.0113 -0.8438  0.3539
  609TMC3    H2 9083   0.343   3.219   8.676 -0.1078 -0.9592  0.9296
  609TMC3    C7 9084   0.605   3.209   8.767  0.0453  0.9283 -0.6726
  609TMC3    C8 9085   0.166   3.417   8.702  0.3561  0.1824  0.4525
  609TMC3    O1 9086   0.717   3.239   8.812 -0.0901  0.5167  0.1564
  609TMC3    O2 9087   0.116   3.526   8.714 -0.4666  0.7546 -0.6345
  610TMC3    C1 9088   2.882   4.729  12.742 -0.3474  0.0680 -0.4875
  610TMC3    C2 9089   3.010   4.732  12.710  0.1265 -0.0534 -0.4865
  610TMC3    C3 9090   3.082   4.623  12.736 -0.2968 -0.3260 -0.2668
  610TMC3    C4 9091   2.823   4.618  12.794  0.6861 -0.0677 -0.1103
  610TMC3    C5 9092   2.902   4.504  12.825 -0.0947  0.9301 -0.1570
  610TMC3    C6 9093   3.036   4.513  12.803 -0.3599  0.8341  0.0552
  610TMC3     C 9094   2.787   0.064  12.655 -0.3761  0.1342  0.3360
  610TMC3     O 9095   2.701   4.730  12.604 -0.5189 -0.0939 -0.0464
  610TMC3     H 9096   3.053   0.073  12.649  0.3384 -0.6138 -1.0592
  610TMC3    H1 9097   2.715   4.609  12.800  0.7354 -0.2532  0.5270
  610TMC3    H2 9098   3.097   4.426  12.823 -0.1858  0.8948 -0.2050
  610TMC3    C7 9099   2.845   4.370  12.797  0.2839  0.1296  0.1103
  610TMC3    C8 9100   3.223   4.629  12.699  0.8076 -0.7096  0.4309
  610TMC3    O1 9101   2.930   4.280  12.782 -0.2891 -0.2754  0.2557
  610TMC3    O2 9102   3.253   4.729  12.629 -0.0389  0.8163  0.1166
  611MPD2     C 9103   2.786   3.736  10.072  0.2139 -0.1569  0.0050
  611MPD2    C1 9104   2.742   3.815   9.970 -0.1443 -0.3554  0.3990
  611MPD2    C2 9105   2.835   3.904   9.914  0.0908  0.0747 -0.0169
  611MPD2    C3 9106   2.964   3.916   9.957  0.2262 -0.3265 -0.5265
  611MPD2    C4 9107   3.005   3.823  10.050 -0.9023 -0.4002 -0.1612
  611MPD2    C5 9108   2.914   3.739  10.111 -0.7915  0.0244 -0.0695
  611MPD2     H 9109   2.800   3.956   9.826  0.4644  1.0744  0.4234
  611MPD2    H1 9110   3.108   3.810  10.081 -0.9037  2.4522  1.0419
  611MPD2    H2 9111   2.716   3.666  10.116 -2.7414  3.6697  1.4556
  611MPD2    H3 9112   2.946   3.667  10.185  0.1889  1.1573  0.5977
  611MPD2     N 9113   3.062   3.999   9.897  0.1744  0.6695 -0.0363
  611MPD2    H5 9114   3.144   4.016   9.955 -0.5491  2.0102  0.5929
  611MPD2    N1 9115   2.605   3.804   9.940 -0.0456 -0.3616 -0.1976
  611MPD2    H7 9116   2.554   3.729   9.986 -0.9179  1.5866  1.9797
  612TMC3    C1 9117   3.152   4.168   9.755 -0.4059 -0.0465 -0.6962
  612TMC3    C2 9118   3.254   4.185   9.850 -0.1194 -0.3926 -0.8186
  612TMC3    C3 9119   3.348   4.279   9.829  0.6237 -0.2654  0.2144
  612TMC3    C4 9120   3.144   4.238   9.638 -0.1382  0.5693  0.3901
  612TMC3    C5 9121   3.249   4.326   9.629  1.0558 -0.1902  0.2053
  612TMC3    C6 9122   3.351   4.352   9.711 -0.4562 -0.0895 -0.4323
  612TMC3     C 9123   3.047   4.070   9.779 -0.4960 -0.4187 -0.0986
  612TMC3     O 9124   2.967   4.047   9.692 -0.1082  0.2499 -0.0574
  612TMC3     H 9125   3.248   4.146   9.951  1.6854 -4.2180 -2.2037
  612TMC3    H1 9126   3.062   4.219   9.569  0.0675 -1.8099  0.7736
  612TMC3    H2 9127   3.424   4.430   9.692  0.3965 -0.5533  0.9063
  612TMC3    C7 9128   3.222   4.443   9.548  0.1956 -0.0352 -0.1949
  612TMC3    C8 9129   3.404   4.344   9.945 -0.1667 -0.3622 -0.3333
  612TMC3    O1 9130   3.264   4.544   9.604 -0.2169 -0.5802 -0.2206
  612TMC3    O2 9131   3.423   4.463   9.930 -0.0991  0.1026  0.1774
  613MPD2     C 9132   1.573   1.935  16.859  0.1608 -0.0247 -0.1330
  613MPD2    C1 9133   1.561   1.981  16.734 -0.2939 -0.0412 -0.4244
  613MPD2    C2 9134   1.465   1.915  16.650 -0.0907  0.1531  0.1173
  613MPD2    C3 9135   1.397   1.803  16.691  0.2513 -0.2016  0.1915
  613MPD2    C4 9136   1.423   1.755  16.817  0.0945  0.2041 -0.1905
  613MPD2    C5 9137   1.502   1.824  16.905 -0.0819 -0.4011 -0.1033
  613MPD2     H 9138   1.470   1.940  16.544 -2.0661  0.5892  0.1324
  613MPD2    H1 9139   1.378   1.665  16.856 -1.0149  1.2324  0.9121
  613MPD2    H2 9140   1.635   1.985  16.932  0.4006  0.8214 -0.9168
  613MPD2    H3 9141   1.518   1.798  17.009  2.5767 -0.6616 -0.5525
  613MPD2     N 9142   1.333   1.715  16.607  0.2034 -0.0855 -0.1477
  613MPD2    H5 9143   1.317   1.618  16.635 -0.3344  0.4473  1.3973
  613MPD2    N1 9144   1.642   2.085  16.692 -0.0975 -0.2767  0.6853
  613MPD2    H7 9145   1.727   2.101  16.745 -0.6044  3.2496  0.3802
  614TMC3    C1 9146   1.759   2.179  16.524 -0.0967  0.1447 -0.8028
  614TMC3    C2 9147   1.813   2.063  16.472  0.2651  0.3103 -0.0923
  614TMC3    C3 9148   1.832   2.053  16.336 -0.2884  0.5475 -0.4157
  614TMC3    C4 9149   1.736   2.287  16.437  0.2921  0.1712  0.2582
  614TMC3    C5 9150   1.755   2.271  16.304 -0.5165 -0.0398 -0.5190
  614TMC3    C6 9151   1.818   2.160  16.251  0.0850 -0.2297  0.2777
  614TMC3     C 9152   1.634   2.145  16.573 -0.0209 -0.0852  0.6658
  614TMC3     O 9153   1.544   2.157  16.490 -0.7681 -0.2510  0.3535
  614TMC3     H 9154   1.833   1.976  16.533  2.4732  1.3985  0.7512
  614TMC3    H1 9155   1.668   2.367  16.464 -1.8610 -1.2093 -1.0211
  614TMC3    H2 9156   1.829   2.147  16.144  0.4839  3.3367 -0.1047
  614TMC3    C7 9157   1.706   2.377  16.212  0.2430  0.2707  0.7106
  614TMC3    C8 9158   1.823   1.915  16.294 -0.0780  0.4466  0.2021
  614TMC3    O1 9159   1.742   2.491  16.242 -0.2464 -0.3922 -0.0797
  614TMC3    O2 9160   1.813   1.829  16.376 -0.5126 -0.1868  0.3796
  615MPD2     C 9161   1.291   3.537  16.341 -0.3502 -0.1948 -0.1782
  615MPD2    C1 9162   1.233   3.552  16.220 -0.1278 -0.1392  1.1089
  615MPD2    C2 9163   1.151   3.453  16.174  0.2199 -0.3936  0.3835
  615MPD2    C3 9164   1.158   3.324  16.224  0.4727 -0.1892  0.1667
  615MPD2    C4 9165   1.225   3.306  16.337 -0.7109  0.2392 -0.6286
  615MPD2    C5 9166   1.280   3.412  16.397 -0.0366 -0.1785  0.0807
  615MPD2     H 9167   1.109   3.469  16.076 -1.1397 -0.5135  0.9432
  615MPD2    H1 9168   1.246   3.208  16.379 -2.6025 -0.9487 -2.4887
  615MPD2    H2 9169   1.348   3.607  16.401  1.8060 -0.1571 -2.2612
  615MPD2    H3 9170   1.336   3.393  16.488  0.3999  0.7845  0.0129
  615MPD2     N 9171   1.092   3.222  16.155 -0.1011  0.3092  0.1881
  615MPD2    H5 9172   1.049   3.243  16.065  1.6042 -1.9175 -1.1593
  615MPD2    N1 9173   1.239   3.675  16.145 -0.9097  0.0323 -0.1629
  615MPD2    H7 9174   1.180   3.683  16.063 -0.5471  0.5399 -0.3795
  616TMC3    C1 9175   1.320   3.896  16.102 -0.5813 -0.0255  0.3519
  616TMC3    C2 9176   1.435   3.969  16.074 -0.9180 -0.2248 -0.4748
  616TMC3    C3 9177   1.419   4.084  15.999 -0.1450 -0.4436 -0.3196
  616TMC3    C4 9178   1.199   3.935  16.061  0.8799 -0.4934  0.5151
  616TMC3    C5 9179   1.191   4.047  15.984 -1.1192 -0.6646 -0.3914
  616TMC3    C6 9180   1.303   4.123  15.952 -0.3190 -0.6576  0.3272
  616TMC3     C 9181   1.325   3.770  16.174 -0.5584 -0.0488  0.0320
  616TMC3     O 9182   1.423   3.753  16.242 -0.2908  0.2948 -0.0992
  616TMC3     H 9183   1.535   3.931  16.087 -1.1145 -0.4780  0.3074
  616TMC3    H1 9184   1.110   3.881  16.092 -0.1724  0.9089 -0.1333
  616TMC3    H2 9185   1.296   4.214  15.894  0.0802 -0.6447  0.3013
  616TMC3    C7 9186   1.061   4.082  15.930  0.5382 -0.3692  0.3555
  616TMC3    C8 9187   1.520   4.180  15.989  0.1383 -0.2436  0.2893
  616TMC3    O1 9188   0.982   3.992  15.952  0.2901 -0.6346  0.0446
  616TMC3    O2 9189   1.513   4.257  15.895  0.0143 -0.1378 -0.2933
  617MPD2     C 9190   3.887   0.981  13.682  0.2493  0.4404  0.4230
  617MPD2    C1 9191   3.906   0.993  13.815 -0.3655 -0.1523  0.0726
  617MPD2    C2 9192   3.800   1.045  13.887  0.0238  0.0110  0.7731
  617MPD2    C3 9193   3.682   1.099  13.834 -0.0601  0.1261 -0.2769
  617MPD2    C4 9194   3.670   1.084  13.699  0.6107  0.3879  0.5741
  617MPD2    C5 9195   3.770   1.027  13.626 -0.1447  0.9324  0.9383
  617MPD2     H 9196   3.808   1.046  13.995  1.8834  1.2252  0.6368
  617MPD2    H1 9197   3.570   1.091  13.658  0.6773 -3.6914 -0.2236
  617MPD2    H2 9198   3.950   0.935  13.607  0.0687  1.2744 -0.2294
  617MPD2    H3 9199   3.750   1.002  13.522 -1.1307 -0.9587  1.5770
  617MPD2     N 9200   3.572   1.132  13.909  0.4918 -0.3897  0.0001
  617MPD2    H5 9201   3.484   1.157  13.864 -0.7997 -1.1348  2.0981
  617MPD2    N1 9202   4.022   0.931  13.865 -0.0013 -0.6366  0.1017
  617MPD2    H7 9203   4.088   0.898  13.795  1.5388 -0.0534  1.2828
  618TMC3    C1 9204   4.184   0.847  14.000 -0.0738 -0.8398  0.0975
  618TMC3    C2 9205   4.196   0.730  14.065  0.5808  0.2258  0.0875
  618TMC3    C3 9206   4.306   0.654  14.031  0.7299  0.7735  0.4125
  618TMC3    C4 9207   4.272   0.899  13.909 -0.3654  0.2685 -0.0002
  618TMC3    C5 9208   4.375   0.814  13.875  0.5774 -0.6786  0.3647
  618TMC3    C6 9209   4.390   0.689  13.927 -0.2663 -0.5276  0.7177
  618TMC3     C 9210   4.048   0.905  13.998 -0.1922  0.1286 -0.1736
  618TMC3     O 9211   3.986   0.933  14.097  0.3721  0.5669  0.0509
  618TMC3     H 9212   4.111   0.669  14.096  2.1791 -1.4726  1.1573
  618TMC3    H1 9213   4.276   1.000  13.870  1.7295  0.5966  1.0740
  618TMC3    H2 9214   4.470   0.619  13.905 -0.3881 -0.9289  1.5354
  618TMC3    C7 9215   4.429   0.843  13.744 -0.2704 -0.0683  0.0043
  618TMC3    C8 9216   4.271   0.516  14.016  0.7127  0.7304  0.2754
  618TMC3    O1 9217   4.370   0.927  13.681  0.0519  0.3889 -0.7103
  618TMC3    O2 9218   4.290   0.445  14.113 -0.3339  0.1278  0.1337
  619MPD2     C 9219   0.664   2.165  13.650 -0.7764  0.6302  0.3509
  619MPD2    C1 9220   0.631   2.185  13.517  0.2739 -0.1275  0.8783
  619MPD2    C2 9221   0.500   2.170  13.483  0.2664  0.6154  0.6992
  619MPD2    C3 9222   0.401   2.151  13.578 -0.0252  0.0240  0.9351
  619MPD2    C4 9223   0.438   2.128  13.711 -0.4011  0.4854 -0.3871
  619MPD2    C5 9224   0.569   2.141  13.748  0.0215 -0.0499  0.1524
  619MPD2     H 9225   0.476   2.176  13.377 -1.6640  0.0456  1.1093
  619MPD2    H1 9226   0.358   2.097  13.776 -0.6320 -0.4831 -1.1344
  619MPD2    H2 9227   0.764   2.189  13.684 -0.5496  1.6968 -1.0685
  619MPD2    H3 9228   0.596   2.140  13.853 -0.3067 -0.2869  0.2352
  619MPD2     N 9229   0.265   2.136  13.545  1.0205 -0.3497 -0.0128
  619MPD2    H5 9230   0.206   2.134  13.628 -0.1133  1.6131 -0.7770
  619MPD2    N1 9231   0.718   2.199  13.409 -0.3791 -0.5119 -0.5365
  619MPD2    H7 9232   0.678   2.225  13.319  1.4236  1.9141 -0.6545
  620TMC3    C1 9233   0.910   2.262  13.295 -0.3089  0.8307 -0.4607
  620TMC3    C2 9234   0.830   2.256  13.186 -1.1048 -0.5066  0.0124
  620TMC3    C3 9235   0.792   2.368  13.114  0.4947  0.4882  0.2110
  620TMC3    C4 9236   0.968   2.380  13.323 -0.3035  0.4051  0.0468
  620TMC3    C5 9237   0.932   2.492  13.254  0.3150  0.6254  1.0301
  620TMC3    C6 9238   0.843   2.486  13.148 -0.6397  0.5111 -0.2235
  620TMC3     C 9239   0.851   2.207  13.416  0.2166  0.3815  0.8744
  620TMC3     O 9240   0.926   2.190  13.515  0.5902 -0.3424  0.1623
  620TMC3     H 9241   0.782   2.164  13.154 -1.4522 -0.5554  0.6856
  620TMC3    H1 9242   1.022   2.392  13.417  0.9929 -1.3297 -0.4773
  620TMC3    H2 9243   0.801   2.578  13.108  0.6507  1.0537 -0.3165
  620TMC3    C7 9244   0.967   2.612  13.320  0.0117  0.2949  0.1390
  620TMC3    C8 9245   0.654   2.364  13.103 -0.1371 -0.6196  0.2744
  620TMC3    O1 9246   1.062   2.601  13.395  0.2520  0.5830 -0.0257
  620TMC3    O2 9247   0.599   2.295  13.185  0.0834 -0.2059  0.2703
  621MPD2     C 9248   0.449   1.812  10.368 -0.6587  0.1652 -0.3225
  621MPD2    C1 9249   0.385   1.789  10.247 -0.0856  0.1230  0.2053
  621MPD2    C2 9250   0.415   1.873  10.140  0.1192 -0.0170  0.1761
  621MPD2    C3 9251   0.504   1.977  10.146  0.0970  0.6154 -0.6046
  621MPD2    C4 9252   0.566   1.989  10.269 -0.0755 -0.0347 -0.7005
  621MPD2    C5 9253   0.530   1.917  10.381  0.1890 -0.0715  0.1795
  621MPD2     H 9254   0.372   1.860  10.041  0.9091  2.8392 -0.5467
  621MPD2    H1 9255   0.640   2.068  10.278 -2.9029  2.6319 -0.7322
  621MPD2    H2 9256   0.424   1.758  10.458 -0.7730  0.4620 -0.1750
  621MPD2    H3 9257   0.585   1.941  10.472 -0.3563  1.0582  0.2215
  621MPD2     N 9258   0.532   2.058  10.032  0.5013 -0.3098 -0.4918
  621MPD2    H5 9259   0.507   2.019   9.942 -2.4834  1.9789 -0.6454
  621MPD2    N1 9260   0.300   1.679  10.226  0.2818 -0.4615 -0.2764
  621MPD2    H7 9261   0.262   1.663  10.134 -4.2127  1.1798  1.3166
  622TMC3    C1 9262   0.159   1.499  10.268 -0.2037 -0.3059  0.7025
  622TMC3    C2 9263   0.038   1.499  10.334 -0.6413  0.3095 -0.5186
  622TMC3    C3 9264   4.663   1.450  10.268  0.5798  0.2427  0.5421
  622TMC3    C4 9265   0.169   1.456  10.141 -0.2084  0.3454  0.1284
  622TMC3    C5 9266   0.065   1.386  10.090 -0.6213  0.0773  0.0732
  622TMC3    C6 9267   4.683   1.377  10.152  0.2759 -0.1302 -0.1219
  622TMC3     C 9268   0.263   1.582  10.319 -0.3444 -0.5726  0.2980
  622TMC3     O 9269   0.295   1.574  10.436  0.3786 -0.1977  0.0726
  622TMC3     H 9270   0.029   1.553  10.428 -0.3094  0.2849 -0.4710
  622TMC3    H1 9271   0.271   1.446  10.104  0.3750 -1.4045  2.2173
  622TMC3    H2 9272   4.598   1.337  10.097  0.3169  1.2896 -1.1922
  622TMC3    C7 9273   0.089   1.319   9.967  0.7945 -0.0458 -0.1125
  622TMC3    C8 9274   4.574   1.564  10.253  0.6055  0.2892 -0.8100
  622TMC3    O1 9275   0.005   1.239   9.937  0.5209  0.0363  0.3975
  622TMC3    O2 9276   4.555   1.625  10.357 -0.5899 -0.0141 -0.0620
  623MPD2     C 9277   0.213   3.784  15.542 -0.8854  0.4238  0.2258
  623MPD2    C1 9278   0.157   3.679  15.613  0.5930 -0.7130 -0.5413
  623MPD2    C2 9279   0.179   3.680  15.748 -0.0697 -0.1378  0.2071
  623MPD2    C3 9280   0.266   3.770  15.810 -0.3264  1.0041  0.5012
  623MPD2    C4 9281   0.333   3.856  15.732 -0.7351  0.4508  0.4474
  623MPD2    C5 9282   0.306   3.859  15.599 -0.0513 -0.5524  0.5413
  623MPD2     H 9283   0.131   3.613  15.818  0.0826 -1.0205 -0.5386
  623MPD2    H1 9284   0.409   3.922  15.771  2.6675 -2.1888 -1.6604
  623MPD2    H2 9285   0.199   3.788  15.434  0.1338  1.5551  0.1365
  623MPD2    H3 9286   0.362   3.932  15.541  2.3331 -0.6813  2.6672
  623MPD2     N 9287   0.273   3.758  15.953  0.3113 -0.4719  0.7051
  623MPD2    H5 9288   0.231   3.675  15.994 -0.3744 -0.7148 -0.4905
  623MPD2    N1 9289   0.064   3.581  15.559  0.0501 -0.3964  0.0124
  623MPD2    H7 9290   0.034   3.506  15.620  1.5571 -1.3147 -0.3926
  624TMC3    C1 9291   0.420   3.765  16.399 -0.0344  0.5728 -0.6847
  624TMC3    C2 9292   0.298   3.770  16.453  0.5885  0.6117 -0.4057
  624TMC3    C3 9293   0.190   3.782  16.370 -0.3120  0.3332 -0.3412
  624TMC3    C4 9294   0.443   3.787  16.261 -0.1681  0.8972  0.3028
  624TMC3    C5 9295   0.336   3.784  16.182  0.1802  0.3705 -0.4879
  624TMC3    C6 9296   0.204   3.774  16.232 -1.0960 -0.0283 -0.5737
  624TMC3     C 9297   0.534   3.724  16.479  0.0834  0.3450  0.2881
  624TMC3     O 9298   0.532   3.758  16.598 -0.4015 -0.0840 -0.0588
  624TMC3     H 9299   0.293   3.758  16.561 -0.5885 -0.3021 -0.5718
  624TMC3    H1 9300   0.545   3.785  16.223 -0.1280 -0.3667  0.4525
  624TMC3    H2 9301   0.115   3.776  16.169 -1.5504  1.7416  0.1059
  624TMC3    C7 9302   0.358   3.817  16.043  0.5135 -0.5025 -0.1531
  624TMC3    C8 9303   0.058   3.758  16.428  0.5902  0.0610  0.0629
  624TMC3    O1 9304   0.454   3.885  16.021 -0.1091 -0.2156 -0.5884
  624TMC3    O2 9305   4.710   3.702  16.358 -0.1034 -0.0847 -0.4869
  625MPD2     C 9306   0.204   0.032   1.004 -0.0324 -0.1366  0.0197
  625MPD2    C1 9307   0.219   0.147   0.929  0.2493  0.2642  0.1120
  625MPD2    C2 9308   0.344   0.169   0.871 -0.3380  0.5531 -0.3625
  625MPD2    C3 9309   0.450   0.081   0.875 -0.7935  0.0124 -0.1974
  625MPD2    C4 9310   0.424   4.696   0.940  0.0214 -1.0855  0.3661
  625MPD2    C5 9311   0.304   4.678   1.002 -0.1574  0.0599 -0.0526
  625MPD2     H 9312   0.355   0.269   0.832 -0.9913  1.3468  1.5038
  625MPD2    H1 9313   0.495   4.614   0.938 -1.0789 -2.0609  0.8894
  625MPD2    H2 9314   0.108   0.012   1.050  0.2586 -1.3515  0.1180
  625MPD2    H3 9315   0.295   4.574   1.034 -0.5677  0.4907  1.2295
  625MPD2     N 9316   0.569   0.126   0.812 -0.4574  0.2486  0.1332
  625MPD2    H5 9317   0.574   0.218   0.771 -1.0362 -0.2181 -0.9842
  625MPD2    N1 9318   0.124   0.251   0.926  0.6860  0.1371 -0.3503
  625MPD2    H7 9319   0.150   0.329   0.867  0.5670  1.0313  0.7863
  626TMC3    C1 9320   4.659   0.365   0.927 -0.1175  0.2113  0.0353
  626TMC3    C2 9321   4.689   0.425   0.805 -0.6282  0.0873 -0.7686
  626TMC3    C3 9322   4.626   0.547   0.778 -0.7671 -0.1314 -0.1499
  626TMC3    C4 9323   4.583   0.420   1.022 -0.1746 -0.4282 -0.1172
  626TMC3    C5 9324   4.541   0.549   0.996  0.1651 -0.9666  0.0339
  626TMC3    C6 9325   4.555   0.610   0.874  0.3543  0.2551  0.3630
  626TMC3     C 9326   4.734   0.246   0.961  0.0764  0.0915 -0.2393
  626TMC3     O 9327   4.665   0.159   1.012  0.0303 -0.2853  0.0154
  626TMC3     H 9328   0.013   0.372   0.732  0.9949  0.5077  0.2857
  626TMC3    H1 9329   4.576   0.385   1.124 -0.1695  0.3232  0.1377
  626TMC3    H2 9330   4.496   0.698   0.855  1.2138  0.6145 -0.6289
  626TMC3    C7 9331   4.523   0.644   1.111  0.4888  0.6660  0.1388
  626TMC3    C8 9332   4.669   0.611   0.656 -0.1568 -0.0598 -0.6776
  626TMC3    O1 9333   4.587   0.621   1.213 -0.7094 -0.5381 -0.4490
  626TMC3    O2 9334   4.730   0.547   0.577 -0.5246 -0.9267 -0.3307
  627MPD2     C 9335   3.229   0.248  14.513  0.5266 -0.5139 -0.3331
  627MPD2    C1 9336   3.353   0.196  14.533 -0.5480  0.0277 -0.2145
  627MPD2    C2 9337   3.384   0.077  14.468  0.8005 -0.2463  0.4790
  627MPD2    C3 9338   3.289   0.014  14.387 -0.4618  0.8840 -0.6657
  627MPD2    C4 9339   3.161   0.065  14.376  0.2635 -0.0818 -0.5519
  627MPD2    C5 9340   3.131   0.180  14.439 -0.0197  0.9575 -0.0446
  627MPD2     H 9341   3.485   0.040  14.469  0.6981 -0.5728 -1.1306
  627MPD2    H1 9342   3.078   0.025  14.319  0.9327  0.2991 -1.7964
  627MPD2    H2 9343   3.196   0.341  14.558 -0.9533 -0.7087 -1.0122
  627MPD2    H3 9344   3.028   0.213  14.434  0.3714  1.8805 -2.1184
  627MPD2     N 9345   3.336   4.641  14.314  0.2687  0.0161  0.8128
  627MPD2    H5 9346   3.431   4.614  14.333  0.9720  2.9521  1.4363
  627MPD2    N1 9347   3.457   0.260  14.609 -0.3060 -0.3686  0.0450
  627MPD2    H7 9348   3.544   0.208  14.620  0.5671  1.2596  0.7217
  628TMC3    C1 9349   3.565   0.424  14.747  0.4351 -0.1423  0.2172
  628TMC3    C2 9350   3.676   0.350  14.748 -0.0909 -0.4077  0.2073
  628TMC3    C3 9351   3.789   0.406  14.789 -0.0807  0.4475  0.4354
  628TMC3    C4 9352   3.567   0.559  14.777 -0.0186 -0.3501 -0.7496
  628TMC3    C5 9353   3.690   0.610  14.810 -0.5265  0.0652  0.1841
  628TMC3    C6 9354   3.798   0.540  14.824 -0.1578 -0.2369  0.6757
  628TMC3     C 9355   3.441   0.372  14.687 -0.5944 -0.7113  0.0513
  628TMC3     O 9356   3.341   0.445  14.709 -0.2627  0.1661  0.3834
  628TMC3     H 9357   3.673   0.243  14.736 -1.6697 -0.2482 -0.8887
  628TMC3    H1 9358   3.479   0.612  14.809 -0.1027  1.0351 -3.2711
  628TMC3    H2 9359   3.866   0.582  14.897 -1.2222 -2.2580  2.8124
  628TMC3    C7 9360   3.691   0.752  14.843  0.1754 -0.6869 -0.3428
  628TMC3    C8 9361   3.883   0.318  14.841 -0.2077  1.0280  0.0211
  628TMC3    O1 9362   3.776   0.792  14.927 -0.5742  0.0465  0.6374
  628TMC3    O2 9363   3.948   0.357  14.941  0.2100 -0.2226  0.2329
  629MPD2     C 9364   1.953   4.424  16.094 -0.1207  0.0054 -0.5663
  629MPD2    C1 9365   1.967   4.305  16.157  0.4169 -0.5796 -0.1019
  629MPD2    C2 9366   1.860   4.217  16.148 -0.1447 -0.1029  0.2453
  629MPD2    C3 9367   1.738   4.254  16.093 -0.3177 -0.3849 -0.2974
  629MPD2    C4 9368   1.726   4.387  16.043 -0.0154  0.3743 -0.6997
  629MPD2    C5 9369   1.834   4.465  16.035 -0.3903 -0.2871  0.2189
  629MPD2     H 9370   1.866   4.115  16.183 -0.1102  0.2935  1.4024
  629MPD2    H1 9371   1.627   4.424  16.018 -0.7539  2.1680  4.7911
  629MPD2    H2 9372   2.037   4.491  16.076 -0.5960  0.5336 -0.8184
  629MPD2    H3 9373   1.826   4.564  15.993 -0.7318 -0.1073  0.7016
  629MPD2     N 9374   1.627   4.163  16.080 -0.0424 -0.0757 -0.7051
  629MPD2    H5 9375   1.633   4.075  16.129  2.8311 -0.1303 -1.1917
  629MPD2    N1 9376   2.089   4.273  16.220 -0.1076 -0.0430  0.1635
  629MPD2    H7 9377   2.166   4.336  16.203  0.9935 -1.8189 -1.4173
  630TMC3    C1 9378   2.271   4.155  16.301  0.5860 -0.7682  0.1835
  630TMC3    C2 9379   2.351   4.213  16.206 -0.1864  0.0204 -0.8501
  630TMC3    C3 9380   2.487   4.227  16.238  0.1559 -0.2439  0.3173
  630TMC3    C4 9381   2.326   4.087  16.409  0.1297 -1.0105 -0.5726
  630TMC3    C5 9382   2.455   4.124  16.443  0.9061 -0.3480  0.1985
  630TMC3    C6 9383   2.534   4.194  16.355  0.5194  0.5152  0.5016
  630TMC3     C 9384   2.122   4.160  16.290 -0.2290  0.1327  0.3204
  630TMC3     O 9385   2.063   4.064  16.340  0.0538 -0.5079 -0.3020
  630TMC3     H 9386   2.312   4.243  16.109 -1.4067 -2.1185 -1.0305
  630TMC3    H1 9387   2.263   4.049  16.489 -0.3970  0.0521 -0.4904
  630TMC3    H2 9388   2.633   4.217  16.391  1.9233 -0.2643 -2.9203
  630TMC3    C7 9389   2.463   4.168  16.577  0.1961 -0.5615  0.3658
  630TMC3    C8 9390   2.579   4.305  16.144 -0.3296  0.3540 -0.5227
  630TMC3    O1 9391   2.403   4.093  16.652 -0.2936  0.2837  0.0659
  630TMC3    O2 9392   2.677   4.356  16.204 -0.0625 -0.3364 -0.2132
  631MPD2     C 9393   0.439   3.347  15.609  0.1015  0.2136  1.1125
  631MPD2    C1 9394   0.568   3.359  15.559  0.7545  0.1896  0.4908
  631MPD2    C2 9395   0.665   3.265  15.603 -0.0117  0.9630  0.0640
  631MPD2    C3 9396   0.638   3.174  15.699  0.9405 -0.2641 -0.1086
  631MPD2    C4 9397   0.502   3.151  15.735 -0.8574  0.9299  0.6486
  631MPD2    C5 9398   0.409   3.242  15.694  0.0323  0.1440 -0.1765
  631MPD2     H 9399   0.765   3.265  15.561 -0.0935 -2.1024 -0.1039
  631MPD2    H1 9400   0.471   3.064  15.791 -1.3265 -1.6749 -3.6609
  631MPD2    H2 9401   0.366   3.407  15.555 -0.6968 -0.7330  1.1367
  631MPD2    H3 9402   0.304   3.218  15.702  0.5923 -1.9269  0.7763
  631MPD2     N 9403   0.741   3.098  15.762  0.4406 -0.1172 -0.4957
  631MPD2    H5 9404   0.834   3.092  15.721  0.5874 -1.2826  0.0183
  631MPD2    N1 9405   0.586   3.463  15.466 -0.1809  0.0437 -0.6504
  631MPD2    H7 9406   0.500   3.504  15.430 -2.1819 -1.5842  2.2868
  632TMC3    C1 9407   0.709   3.636  15.360 -0.5440  0.6212  0.6188
  632TMC3    C2 9408   0.594   3.721  15.337  0.3394  0.3163 -0.0929
  632TMC3    C3 9409   0.618   3.837  15.261 -0.3872  0.1175  0.3888
  632TMC3    C4 9410   0.832   3.661  15.307 -0.0207 -0.1529  0.0182
  632TMC3    C5 9411   0.840   3.774  15.233 -0.1418  0.5255  0.8721
  632TMC3    C6 9412   0.742   3.869  15.214 -0.0458 -0.0552  0.0380
  632TMC3     C 9413   0.711   3.511  15.434 -0.0026  0.2234  0.4513
  632TMC3     O 9414   0.818   3.472  15.471  0.0654 -0.2964 -0.2310
  632TMC3     H 9415   0.495   3.688  15.365  0.2279  1.7937  1.2010
  632TMC3    H1 9416   0.910   3.585  15.301  1.8922  1.6176  2.3584
  632TMC3    H2 9417   0.765   3.966  15.171 -0.6391 -0.6858 -1.6802
  632TMC3    C7 9418   0.899   3.755  15.105 -0.6920  0.2474  1.0621
  632TMC3    C8 9419   0.500   3.911  15.231  0.0580  0.5476  0.1668
  632TMC3    O1 9420   0.851   3.825  15.021 -0.4422  0.2851  0.0915
  632TMC3    O2 9421   0.392   3.855  15.253  0.0569  0.3426  0.5991
  633MPD2     C 9422   4.721   1.635  17.203  0.1525 -0.0422 -0.7199
  633MPD2    C1 9423   0.027   1.586  17.084 -0.2679  0.2997 -0.3561
  633MPD2    C2 9424   0.107   1.473  17.097  0.3660 -0.8036 -0.1346
  633MPD2    C3 9425   0.130   1.397  17.212  0.4919 -0.3063 -0.3076
  633MPD2    C4 9426   0.072   1.440  17.326  0.4821  0.1792 -0.3930
  633MPD2    C5 9427   0.007   1.563  17.322  0.5320 -0.4680  0.5481
  633MPD2     H 9428   0.151   1.424  17.011 -3.0716 -3.5946 -0.2765
  633MPD2    H1 9429   0.090   1.386  17.419 -0.1689  1.5334  0.5088
  633MPD2    H2 9430   4.658   1.722  17.214  1.0265  0.4504  0.4307
  633MPD2    H3 9431   4.700   1.599  17.414 -2.0528 -2.3590  0.0573
  633MPD2     N 9432   0.201   1.277  17.196  0.0352 -0.3682 -0.1030
  633MPD2    H5 9433   0.232   1.252  17.103 -0.4192  0.3561 -0.4519
  633MPD2    N1 9434   0.000   1.646  16.955  0.2632  0.6527  0.4058
  633MPD2    H7 9435   0.046   1.599  16.877 -0.6255 -1.2193  1.0167
  634TMC3    C1 9436   4.640   1.780  16.798  1.3228 -0.4505 -0.3389
  634TMC3    C2 9437   4.695   1.691  16.713 -0.1200  0.4558  0.0092
  634TMC3    C3 9438   0.026   1.733  16.597  0.8528 -0.9473 -0.1171
  634TMC3    C4 9439   4.663   1.913  16.774  0.2978  0.3323 -0.4054
  634TMC3    C5 9440   4.727   1.956  16.664  0.3192 -0.0679  0.1940
  634TMC3    C6 9441   0.050   1.866  16.576 -0.6675  0.2759  0.6942
  634TMC3     C 9442   4.640   1.735  16.934 -0.3662 -0.9649 -0.0182
  634TMC3     O 9443   4.562   1.800  17.003 -0.3286 -0.2242  0.4949
  634TMC3     H 9444   4.676   1.584  16.718 -0.6282  0.4301 -2.0849
  634TMC3    H1 9445   4.629   1.971  16.860  0.6202 -0.2012  0.0840
  634TMC3    H2 9446   0.098   1.906  16.487  1.5901 -1.6553  1.0278
  634TMC3    C7 9447   4.727   2.101  16.640 -0.1160 -0.3528 -0.3172
  634TMC3    C8 9448   0.082   1.631  16.509  0.5512 -0.3277  0.6477
  634TMC3    O1 9449   0.044   2.134  16.535  0.3026  0.0465 -0.0913
  634TMC3    O2 9450   0.069   1.514  16.543  0.4528  0.6416 -0.3665
  635TMC3    C1 9451   4.510   3.525  17.656 -0.4426  0.2422  0.0618
  635TMC3    C2 9452   4.626   3.507  17.588 -0.0510 -0.3192 -0.0294
  635TMC3    C3 9453   4.615   3.478  17.451 -0.1512 -0.7246  0.4829
  635TMC3    C4 9454   4.388   3.514  17.589 -0.2784  0.5044  0.1783
  635TMC3    C5 9455   4.378   3.481  17.455  0.0506  0.3040 -0.0432
  635TMC3    C6 9456   4.499   3.461  17.388 -1.0511 -0.3806  1.1770
  635TMC3     C 9457   4.509   3.564   0.051  0.0909 -0.2419 -0.2696
  635TMC3     O 9458   4.615   3.616   0.082  0.4236  0.5168  0.0595
  635TMC3     H 9459   4.720   3.497  17.640  0.5046  1.1652 -0.7500
  635TMC3    H1 9460   4.295   3.543  17.636 -0.4674 -0.4835  0.4071
  635TMC3    H2 9461   4.505   3.435  17.282 -0.8552 -0.6995  1.2663
  635TMC3    C7 9462   4.259   3.451  17.384 -0.0190  0.2033 -0.5725
  635TMC3    C8 9463   0.000   3.465  17.370 -0.4200  0.0291 -0.1379
  635TMC3    O1 9464   4.271   3.458  17.261 -0.1082 -0.8329 -0.0586
  635TMC3    O2 9465   4.728   3.400  17.266  0.2412 -0.2215  0.0909
  636MPD2     C 9466   1.162   1.959  15.682  0.4990 -0.0116  0.6841
  636MPD2    C1 9467   1.166   2.024  15.805 -0.3979 -0.2177  0.4706
  636MPD2    C2 9468   1.203   1.941  15.910 -0.9093  0.0618  0.2868
  636MPD2    C3 9469   1.199   1.799  15.898  0.4257 -0.1048 -0.5547
  636MPD2    C4 9470   1.181   1.736  15.776 -0.2111  0.6006 -0.5857
  636MPD2    C5 9471   1.174   1.815  15.663  0.2494 -0.5072  0.5770
  636MPD2     H 9472   1.209   1.976  16.013 -1.1745 -0.7133  0.5680
  636MPD2    H1 9473   1.182   1.628  15.767  0.6169  0.3734  2.2255
  636MPD2    H2 9474   1.142   2.021  15.595  0.6840 -0.0592  0.6096
  636MPD2    H3 9475   1.157   1.775  15.564 -1.1943 -0.4193  0.7889
  636MPD2     N 9476   1.226   1.734  16.020  0.5272  0.7552 -0.5227
  636MPD2    H5 9477   1.237   1.788  16.105  0.7764  0.3294 -0.2878
  636MPD2    N1 9478   1.138   2.160  15.827  0.6359  0.0898  0.1931
  636MPD2    H7 9479   1.158   2.197  15.919  1.1762  0.4039 -0.0525
  637TMC3    C1 9480   1.259   1.553  16.167  0.5475 -1.0416  0.5832
  637TMC3    C2 9481   1.232   1.636  16.272 -0.0270 -0.9130  0.2926
  637TMC3    C3 9482   1.310   1.623  16.385  0.3065 -0.2499 -0.0025
  637TMC3    C4 9483   1.366   1.462  16.167 -0.4952  0.3100  0.3487
  637TMC3    C5 9484   1.442   1.462  16.281 -0.7466 -0.4359  0.1973
  637TMC3    C6 9485   1.416   1.533  16.395  0.1402 -0.4169  0.4779
  637TMC3     C 9486   1.220   1.598  16.033 -0.7567 -0.9735  0.6722
  637TMC3     O 9487   1.217   1.512  15.946 -0.6017  0.3729  0.4929
  637TMC3     H 9488   1.151   1.708  16.267 -0.8522 -1.7934  1.1371
  637TMC3    H1 9489   1.397   1.423  16.071  0.6062 -0.0701  0.8680
  637TMC3    H2 9490   1.484   1.535  16.480 -0.8786 -0.6734  1.3070
  637TMC3    C7 9491   1.581   1.460  16.262 -0.7225  0.4631  0.1212
  637TMC3    C8 9492   1.319   1.740  16.473 -0.1084  0.0091  0.5125
  637TMC3    O1 9493   1.656   1.482  16.352 -0.1911 -0.0881 -0.0724
  637TMC3    O2 9494   1.291   1.840  16.413  0.4518  0.6275  0.4257
  638MPD2     C 9495   1.014   0.955  14.749 -0.2382 -0.4127 -0.0206
  638MPD2    C1 9496   1.020   0.843  14.675  0.6767 -0.3519 -0.6587
  638MPD2    C2 9497   1.033   0.722  14.738  0.7790  0.3340  0.8820
  638MPD2    C3 9498   1.036   0.720  14.874  0.1569 -0.7242 -0.5406
  638MPD2    C4 9499   1.021   0.835  14.950  0.6174 -0.1873 -0.3124
  638MPD2    C5 9500   1.005   0.954  14.884 -0.6408  0.4040 -0.5494
  638MPD2     H 9501   1.027   0.630  14.682 -2.1835  0.7735  0.4506
  638MPD2    H1 9502   1.036   0.840  15.058 -0.0088 -1.7218 -0.1527
  638MPD2    H2 9503   1.023   1.053  14.704 -0.1341  0.5414  2.0658
  638MPD2    H3 9504   0.996   1.042  14.946  0.4558  0.8828 -1.0718
  638MPD2     N 9505   1.021   0.585  14.922  0.0819 -0.1162 -0.5124
  638MPD2    H5 9506   1.030   0.515  14.849  2.7430 -0.2080 -0.1094
  638MPD2    N1 9507   1.030   0.867  14.533  0.7608 -0.4585 -0.0092
  638MPD2    H7 9508   1.072   0.953  14.500  0.0376 -0.6393 -1.3950
  639TMC3    C1 9509   1.001   0.403  15.044 -0.8150  0.3247  0.8545
  639TMC3    C2 9510   0.934   0.350  14.943  1.0778 -0.1873  0.1272
  639TMC3    C3 9511   0.964   0.217  14.920 -0.0863  0.2633 -0.6011
  639TMC3    C4 9512   1.081   0.334  15.129 -0.1115  0.1309  0.3135
  639TMC3    C5 9513   1.108   0.204  15.109 -0.0482 -1.1060 -0.0976
  639TMC3    C6 9514   1.050   0.140  14.998 -0.2158  0.6917 -0.9084
  639TMC3     C 9515   1.010   0.544  15.051  0.3088  0.4622  0.0530
  639TMC3     O 9516   1.018   0.603  15.157 -0.5192  0.4878  0.3364
  639TMC3     H 9517   0.862   0.402  14.881  2.4541 -1.5627 -2.6352
  639TMC3    H1 9518   1.144   0.397  15.191 -1.9230  0.0407  2.2724
  639TMC3    H2 9519   1.057   0.032  14.992 -1.3439  0.4243  2.3611
  639TMC3    C7 9520   1.229   0.145  15.168  0.1540  0.0576  0.1212
  639TMC3    C8 9521   0.882   0.156  14.813 -0.0598  0.1122 -0.1575
  639TMC3    O1 9522   1.257   0.167  15.281  0.1305 -0.3211 -0.3476
  639TMC3    O2 9523   0.933   0.057  14.766  0.5331 -0.1189 -0.1546
  640MPD2     C 9524   1.226   4.000   9.541  0.0159 -0.2792 -0.0250
  640MPD2    C1 9525   1.091   4.015   9.561  0.5451 -0.1213  0.2910
  640MPD2    C2 9526   1.038   4.096   9.659 -0.0928  1.3439  0.1207
  640MPD2    C3 9527   1.119   4.165   9.739 -0.0282  0.1819  0.6133
  640MPD2    C4 9528   1.261   4.151   9.723  0.2199  0.2701  0.0605
  640MPD2    C5 9529   1.310   4.075   9.621 -0.2140  0.2586 -0.5321
  640MPD2     H 9530   0.930   4.104   9.666 -0.2892 -1.0942 -0.1843
  640MPD2    H1 9531   1.333   4.206   9.783  0.5944  0.3166 -0.4302
  640MPD2    H2 9532   1.260   3.950   9.450 -0.4408  1.4400 -1.1358
  640MPD2    H3 9533   1.418   4.076   9.610  0.1226 -1.3113  2.6139
  640MPD2     N 9534   1.069   4.253   9.844 -0.4687 -0.1160  0.5381
  640MPD2    H5 9535   0.969   4.272   9.850 -0.8903 -1.2465 -2.5760
  640MPD2    N1 9536   1.006   3.934   9.482 -0.2699  0.4480  0.3016
  640MPD2    H7 9537   1.061   3.868   9.427 -2.0215 -0.5845 -0.2292
  641TMC3    C1 9538   0.832   3.854   9.343  0.2846  0.1324  0.1983
  641TMC3    C2 9539   0.889   3.727   9.339 -0.3398 -0.6966 -0.2144
  641TMC3    C3 9540   0.878   3.652   9.225  0.1512 -0.3047  0.0036
  641TMC3    C4 9541   0.781   3.907   9.227  0.0996 -0.4312  0.2135
  641TMC3    C5 9542   0.770   3.829   9.117 -0.2012  0.7053  0.4968
  641TMC3    C6 9543   0.814   3.699   9.119  0.3690  0.3052  0.1997
  641TMC3     C 9544   0.871   3.947   9.454 -0.8607  0.2736  0.5038
  641TMC3     O 9545   0.802   4.049   9.468  0.5779  0.2537  0.0437
  641TMC3     H 9546   0.927   3.681   9.429 -0.0052  2.2171  1.1242
  641TMC3    H1 9547   0.754   4.012   9.215  0.2035 -0.5114 -0.6849
  641TMC3    H2 9548   0.801   3.643   9.027 -0.5948 -0.3773  0.7479
  641TMC3    C7 9549   0.670   3.873   9.023  0.0066  0.2129  0.1211
  641TMC3    C8 9550   0.960   3.530   9.204 -0.2299  0.0136 -0.6305
  641TMC3    O1 9551   0.580   3.951   9.061 -0.7076 -0.3005  0.3796
  641TMC3    O2 9552   0.936   3.472   9.096  0.4584  0.5065 -0.3567
  642TMC3    C1 9553   2.655   0.205  12.072 -0.5110  0.0162 -0.0213
  642TMC3    C2 9554   2.748   0.232  12.169 -0.4375  0.1362 -0.1884
  642TMC3    C3 9555   2.816   0.127  12.228 -0.8117 -0.0629  1.0627
  642TMC3    C4 9556   2.629   0.077  12.038  0.1288  0.5362 -0.3748
  642TMC3    C5 9557   2.683   4.713  12.110  0.0552  0.5661 -0.5445
  642TMC3    C6 9558   2.783   4.734  12.203 -0.4676 -0.3042 -0.1558
  642TMC3     C 9559   2.592   0.312  12.005 -0.4828  0.0195  0.3366
  642TMC3     O 9560   2.647   0.422  12.013  0.1003  0.0142  0.2490
  642TMC3     H 9561   2.767   0.336  12.192 -0.6410  0.2365 -0.4686
  642TMC3    H1 9562   2.554   0.052  11.964  2.8217 -1.1743 -2.5212
  642TMC3    H2 9563   2.846   4.650  12.229  1.5472  0.2782 -3.0838
  642TMC3    C7 9564   2.642   4.583  12.076 -0.7657 -0.3956 -0.0544
  642TMC3    C8 9565   2.931   0.150  12.312 -0.0263  0.3456  0.1783
  642TMC3    O1 9566   2.583   4.553  11.972  0.7157  0.2428  0.5056
  642TMC3    O2 9567   2.992   0.052  12.346  0.2314 -0.5367  0.0153
  643TMC3    C1 9568   1.749   4.667   0.575 -0.4729 -0.1328 -0.2203
  643TMC3    C2 9569   1.687   0.055   0.559 -0.3528 -1.3583 -0.1240
  643TMC3    C3 9570   1.686   0.104   0.432 -0.2844  0.8160 -0.5326
  643TMC3    C4 9571   1.807   4.606   0.464 -0.2565 -0.3534 -0.8575
  643TMC3    C5 9572   1.801   4.657   0.339  1.0478 -0.1274 -0.2122
  643TMC3    C6 9573   1.733   0.035   0.322 -0.0928  0.2363 -0.0984
  643TMC3     C 9574   1.847   4.667   0.682  0.6616  0.4890 -0.7816
  643TMC3     O 9575   1.921   4.574   0.685  0.2370  0.0548  0.5463
  643TMC3     H 9576   1.639   0.104   0.643  1.5731  1.0861 -0.4582
  643TMC3    H1 9577   1.840   4.503   0.479  3.5000  1.1907  1.3953
  643TMC3    H2 9578   1.719   0.078   0.224 -0.4083 -0.0524 -0.1778
  643TMC3    C7 9579   1.854   4.587   0.228  0.0383  0.2657  0.3609
  643TMC3    C8 9580   1.617   0.232   0.416 -0.5152 -0.1299 -0.3763
  643TMC3    O1 9581   1.853   4.467   0.234  0.3534  0.2000 -0.3355
  643TMC3    O2 9582   1.526   0.254   0.494  0.0048 -0.5174  0.6325
  644MPD2     C 9583   1.446   3.189   8.699 -0.4884 -0.1091 -0.2146
  644MPD2    C1 9584   1.480   3.063   8.664  0.1037  0.2373 -0.0787
  644MPD2    C2 9585   1.394   2.994   8.583  0.5696 -0.4774  0.2642
  644MPD2    C3 9586   1.269   3.045   8.556 -0.2210  0.3601  0.3481
  644MPD2    C4 9587   1.233   3.163   8.620  0.2236 -0.5904  0.2819
  644MPD2    C5 9588   1.322   3.243   8.685 -0.1580 -0.3407  0.7544
  644MPD2     H 9589   1.429   2.903   8.535  0.0234 -0.5448 -0.0086
  644MPD2    H1 9590   1.131   3.197   8.605  1.4506  2.3562 -1.5238
  644MPD2    H2 9591   1.516   3.237   8.766  0.2113 -1.0674 -0.2573
  644MPD2    H3 9592   1.291   3.336   8.731  3.5552  0.2735  2.0555
  644MPD2     N 9593   1.176   2.966   8.481  0.2920 -0.1200  0.0134
  644MPD2    H5 9594   1.207   2.872   8.460 -1.4551  0.2037 -3.9914
  644MPD2    N1 9595   1.603   3.014   8.718 -0.5451 -0.7831  0.0980
  644MPD2    H7 9596   1.652   3.078   8.780 -0.3099  2.1048 -3.0861
  645TMC3    C1 9597   0.948   2.890   8.423  0.3661 -0.1798 -0.0052
  645TMC3    C2 9598   0.982   2.758   8.442  0.3253  1.0632 -0.0131
  645TMC3    C3 9599   0.886   2.664   8.408  0.2438 -1.0468 -0.5753
  645TMC3    C4 9600   0.816   2.930   8.398  0.0992  0.6869  0.2558
  645TMC3    C5 9601   0.721   2.834   8.376 -0.0403  0.3751  0.3230
  645TMC3    C6 9602   0.749   2.697   8.390 -0.0186  0.0579  0.0932
  645TMC3     C 9603   1.045   3.002   8.449 -0.2027 -0.0384  0.1599
  645TMC3     O 9604   1.001   3.114   8.438 -0.1758  0.9150  0.3099
  645TMC3     H 9605   1.079   2.724   8.475 -0.4087 -0.0491  0.9934
  645TMC3    H1 9606   0.810   3.036   8.373  0.1488 -0.4554 -4.4550
  645TMC3    H2 9607   0.678   2.622   8.357 -2.0885  2.7275 -1.5340
  645TMC3    C7 9608   0.590   2.874   8.333 -0.0695 -0.0827 -0.1260
  645TMC3    C8 9609   0.907   2.521   8.442  0.3755  0.0146  0.2115
  645TMC3    O1 9610   0.512   2.780   8.321 -0.6924  0.0925 -0.1939
  645TMC3    O2 9611   0.809   2.444   8.437 -0.7345 -0.2042 -0.1869
  646MPD2     C 9612   1.254   4.104  14.362 -0.0823  0.0435  1.0371
  646MPD2    C1 9613   1.174   4.135  14.474  0.0248  0.2099 -0.6939
  646MPD2    C2 9614   1.053   4.202  14.459  0.0229 -0.0431  0.5447
  646MPD2    C3 9615   1.009   4.225  14.325 -0.0758 -0.0843 -0.7326
  646MPD2    C4 9616   1.089   4.202  14.218 -0.1994  0.1781 -0.4560
  646MPD2    C5 9617   1.212   4.138  14.233  0.6809 -0.6277 -0.4299
  646MPD2     H 9618   0.993   4.227  14.546 -0.2470 -2.7192  1.1265
  646MPD2    H1 9619   1.063   4.218  14.114  0.4198 -0.8352 -0.7716
  646MPD2    H2 9620   1.339   4.037  14.369 -0.4531 -0.4967  0.3421
  646MPD2    H3 9621   1.267   4.105  14.146 -3.0772 -2.4033 -2.1223
  646MPD2     N 9622   0.868   4.259  14.316 -0.3964  0.2352 -0.0466
  646MPD2    H5 9623   0.814   4.288  14.397 -0.8603  1.8112 -0.9469
  646MPD2    N1 9624   1.212   4.097  14.607  0.2148  0.1747  0.2509
  646MPD2    H7 9625   1.298   4.043  14.619 -0.5892 -1.5207 -1.6375
  647TMC3    C1 9626   1.229   4.085  14.836 -1.2978  0.0225 -0.0714
  647TMC3    C2 9627   1.167   4.067  14.957  0.1429 -0.4556 -0.3559
  647TMC3    C3 9628   1.248   4.043  15.069  0.1064 -1.0452 -0.2063
  647TMC3    C4 9629   1.370   4.078  14.827  0.0486 -0.0759 -0.5103
  647TMC3    C5 9630   1.442   4.049  14.944 -0.0071 -0.1821  0.4562
  647TMC3    C6 9631   1.381   4.030  15.063 -0.4004  0.1287  0.3024
  647TMC3     C 9632   1.140   4.113  14.722 -0.8118 -0.7055 -0.1013
  647TMC3     O 9633   1.021   4.127  14.739  0.0880  0.3739  0.5281
  647TMC3     H 9634   1.060   4.078  14.966  0.7478  3.1960  2.1760
  647TMC3    H1 9635   1.417   4.118  14.738 -1.9469 -1.5527 -2.2366
  647TMC3    H2 9636   1.447   4.000  15.143 -1.0186  0.0718  0.7909
  647TMC3    C7 9637   1.580   4.002  14.935  0.3296 -0.2916  0.5728
  647TMC3    C8 9638   1.189   4.065  15.199  0.1377  0.2335 -0.8333
  647TMC3    O1 9639   1.641   3.996  15.041 -0.2057  0.1319  0.2265
  647TMC3    O2 9640   1.086   4.130  15.208 -0.3271  0.4787 -0.0697
  648TMC3    C1 9641   0.499   1.783  16.287  0.1286 -0.1925  0.3636
  648TMC3    C2 9642   0.547   1.656  16.275  0.4123  0.1409 -0.7335
  648TMC3    C3 9643   0.559   1.602  16.148 -0.0803 -0.3924 -0.4758
  648TMC3    C4 9644   0.457   1.852  16.178  0.1984  0.1755 -0.2698
  648TMC3    C5 9645   0.488   1.802  16.058  0.7232  0.3248  0.7430
  648TMC3    C6 9646   0.542   1.681  16.034 -0.1119 -0.0603  0.3466
  648TMC3     C 9647   0.475   1.845  16.417  0.1862 -0.0386  0.1042
  648TMC3     O 9648   0.482   1.965  16.437 -0.2996 -0.1311 -0.0779
  648TMC3     H 9649   0.566   1.594  16.362  0.3357  2.3236  0.8436
  648TMC3    H1 9650   0.412   1.950  16.193 -0.5636 -0.2158  0.0294
  648TMC3    H2 9651   0.546   1.644  15.932  1.3068  1.8433 -0.2752
  648TMC3    C7 9652   0.456   1.887  15.940 -0.3038 -0.0282  0.0686
  648TMC3    C8 9653   0.609   1.468  16.150 -0.1209  0.0863 -0.6962
  648TMC3    O1 9654   0.510   1.858  15.833  0.0100  0.3332  0.4928
  648TMC3    O2 9655   0.565   1.391  16.234 -0.4290  0.3091  0.3497
  649TMC3    C1 9656   3.675   2.486  12.380  0.3722 -0.2705  0.5710
  649TMC3    C2 9657   3.773   2.570  12.339  0.0690 -0.4441 -0.1373
  649TMC3    C3 9658   3.851   2.625  12.429 -0.0658 -0.0819 -0.4740
  649TMC3    C4 9659   3.681   2.441  12.511  0.5929  0.0463 -0.3575
  649TMC3    C5 9660   3.765   2.493  12.602  0.7506  0.2340 -0.0623
  649TMC3    C6 9661   3.861   2.587  12.559 -0.1461  0.2133  0.1893
  649TMC3     C 9662   3.534   2.521  12.336 -0.1365  0.0079 -0.8020
  649TMC3     O 9663   3.443   2.466  12.405 -0.1850  0.2772 -0.6045
  649TMC3     H 9664   3.768   2.625  12.245  0.0521 -0.8957 -0.4029
  649TMC3    H1 9665   3.602   2.371  12.540 -0.1914  0.4372 -1.5483
  649TMC3    H2 9666   3.913   2.640  12.638  0.3725  0.2138 -0.1492
  649TMC3    C7 9667   3.753   2.433  12.736  0.1468  0.2118  0.0264
  649TMC3    C8 9668   3.948   2.715  12.380  0.3050  0.8001  0.6094
  649TMC3    O1 9669   3.644   2.393  12.765 -0.1517  0.1901 -0.0703
  649TMC3    O2 9670   3.955   2.727  12.260 -0.0924 -0.1561 -0.1391
  650TMC3    C1 9671   1.720   3.871  12.407 -0.2033  0.3181  0.3780
  650TMC3    C2 9672   1.694   4.008  12.424 -0.6177  0.1626 -0.0502
  650TMC3    C3 9673   1.630   4.079  12.323 -0.0272 -0.1707  0.1224
  650TMC3    C4 9674   1.678   3.807  12.299 -0.2329 -0.1658  0.0717
  650TMC3    C5 9675   1.609   3.881  12.203 -0.3413 -0.4036 -0.5362
  650TMC3    C6 9676   1.589   4.017  12.205 -0.3379  0.1575 -0.7764
  650TMC3     C 9677   1.817   3.811  12.493  0.3020 -0.1402  0.3388
  650TMC3     O 9678   1.835   3.688  12.495  0.2085  0.5892  0.2906
  650TMC3     H 9679   1.713   4.066  12.514  1.0775 -1.7881  0.8552
  650TMC3    H1 9680   1.678   3.699  12.299  1.6505 -0.1671  0.5389
  650TMC3    H2 9681   1.527   4.070  12.134 -1.0858  0.4046  0.0607
  650TMC3    C7 9682   1.595   3.817  12.074 -1.0452  0.0931  0.1137
  650TMC3    C8 9683   1.580   4.213  12.353  0.2761 -0.3417 -0.2924
  650TMC3    O1 9684   1.565   3.700  12.086 -0.2793 -0.4141 -0.5792
  650TMC3    O2 9685   1.566   4.242  12.472 -0.0121 -0.6143  0.0853
  651MPD2     C 9686   1.311   1.468  11.203 -0.0419  0.0126 -0.0400
  651MPD2    C1 9687   1.239   1.497  11.092  0.1074  0.4631  0.4461
  651MPD2    C2 9688   1.300   1.478  10.967 -0.0845  1.4225  0.2767
  651MPD2    C3 9689   1.429   1.436  10.954  0.7429  0.1180  0.4419
  651MPD2    C4 9690   1.499   1.413  11.070 -0.4650 -0.5431 -0.5183
  651MPD2    C5 9691   1.436   1.420  11.191 -0.3903 -0.5376  0.1121
  651MPD2     H 9692   1.248   1.488  10.872 -1.0193 -0.5599  0.5852
  651MPD2    H1 9693   1.604   1.390  11.081 -0.5446  0.3560  2.1853
  651MPD2    H2 9694   1.268   1.472  11.303  2.6733  0.5074  1.1148
  651MPD2    H3 9695   1.493   1.398  11.280 -1.0166  3.3522  1.4702
  651MPD2     N 9696   1.477   1.430  10.828  0.0272  0.2410  0.1966
  651MPD2    H5 9697   1.419   1.457  10.749 -0.0978 -0.2316  0.1300
  651MPD2    N1 9698   1.097   1.541  11.097 -0.8536  0.0792 -0.5469
  651MPD2    H7 9699   1.052   1.535  11.007 -0.0811 -3.5382 -0.6787
  652TMC3    C1 9700   1.762   1.426  10.463  0.7199 -1.4502  0.0297
  652TMC3    C2 9701   1.745   1.396  10.591 -0.1678 -0.0976 -0.0092
  652TMC3    C3 9702   1.613   1.390  10.639  0.0786  0.0445 -0.7268
  652TMC3    C4 9703   1.666   1.437  10.372 -0.0729 -0.6508  0.0778
  652TMC3    C5 9704   1.536   1.430  10.424  0.0558  0.2839  0.1486
  652TMC3    C6 9705   1.507   1.394  10.557 -0.1013  0.6142  0.2914
  652TMC3     C 9706   1.897   1.440  10.414  1.0698  0.6318 -0.5102
  652TMC3     O 9707   1.980   1.360  10.456  0.1181 -0.5101 -0.1066
  652TMC3     H 9708   1.827   1.382  10.661 -1.2888 -1.8965  0.9372
  652TMC3    H1 9709   1.692   1.434  10.267  0.2593 -0.5281  0.1580
  652TMC3    H2 9710   1.404   1.379  10.588  0.9813 -1.7416  2.7648
  652TMC3    C7 9711   1.424   1.429  10.335 -0.1767 -0.2841  0.2330
  652TMC3    C8 9712   1.601   1.391  10.786 -0.2808  0.4388  0.1443
  652TMC3    O1 9713   1.323   1.367  10.364  0.3312  0.3214 -0.1609
  652TMC3    O2 9714   1.698   1.381  10.861 -0.1329 -0.1971  0.4492
  653MPD2     C 9715   4.433   2.179   0.068  0.2061 -0.4150 -0.0693
  653MPD2    C1 9716   4.357   2.231  17.710  0.1515  0.0866  0.9264
  653MPD2    C2 9717   4.346   2.153  17.598 -0.4047  0.1248 -1.1441
  653MPD2    C3 9718   4.385   2.021  17.590 -0.2063  0.9994 -0.1559
  653MPD2    C4 9719   4.452   1.965  17.694  0.6436 -0.4618 -0.3942
  653MPD2    C5 9720   4.488   2.053   0.055  0.9909  0.1064  0.6034
  653MPD2     H 9721   4.297   2.194  17.511 -2.9039  0.1615  0.2885
  653MPD2    H1 9722   4.498   1.868  17.681 -0.0174 -0.5073 -2.4035
  653MPD2    H2 9723   4.442   2.238   0.158  0.3749 -0.3772 -0.1098
  653MPD2    H3 9724   4.544   2.001   0.132  0.4368 -0.7059  0.4598
  653MPD2     N 9725   4.354   1.953  17.464  0.2456  0.4268 -0.3772
  653MPD2    H5 9726   4.313   2.008  17.390  2.1843  0.2465 -1.5957
  653MPD2    N1 9727   4.311   2.366  17.709  0.5612  0.1286 -0.4610
  653MPD2    H7 9728   4.267   2.405  17.626 -3.6445 -2.3104  0.5828
  654TMC3    C1 9729   4.314   1.768  17.305  0.1078 -0.2421 -0.0313
  654TMC3    C2 9730   4.211   1.833  17.237  0.2808  0.1877  0.1812
  654TMC3    C3 9731   4.177   1.786  17.115  0.2295 -0.0771 -0.3024
  654TMC3    C4 9732   4.379   1.656  17.255  0.3215 -0.0782 -0.8398
  654TMC3    C5 9733   4.325   1.610  17.140  0.2971  0.2866 -0.5113
  654TMC3    C6 9734   4.228   1.672  17.067 -0.2384  0.3815  0.4595
  654TMC3     C 9735   4.366   1.815  17.434 -0.1823  0.2334 -0.1681
  654TMC3     O 9736   4.425   1.731  17.503  0.1671 -0.3514 -0.2535
  654TMC3     H 9737   4.150   1.913  17.276  1.2982  1.2352 -0.3843
  654TMC3    H1 9738   4.452   1.604  17.315 -1.0719  0.7545  1.5513
  654TMC3    H2 9739   4.189   1.628  16.976 -0.0449  1.1157  0.0260
  654TMC3    C7 9740   4.378   1.490  17.083 -0.2255  0.2126 -0.4565
  654TMC3    C8 9741   4.058   1.844  17.052 -0.3657 -0.2572  0.6322
  654TMC3    O1 9742   4.366   1.471  16.964 -0.0328 -0.5667 -0.2537
  654TMC3    O2 9743   3.985   1.914  17.122 -0.3115  0.1742 -0.0713
  655MPD2     C 9744   0.876   1.642  15.706 -0.1299  0.2532  0.2064
  655MPD2    C1 9745   0.845   1.759  15.633  0.3324 -0.2457  0.0786
  655MPD2    C2 9746   0.856   1.759  15.491  0.2367  0.3829  0.3076
  655MPD2    C3 9747   0.878   1.637  15.421 -0.2230 -0.3845  0.1220
  655MPD2    C4 9748   0.897   1.519  15.505 -0.4751 -0.3882 -0.1956
  655MPD2    C5 9749   0.900   1.522  15.645 -0.1869 -0.3143  0.5214
  655MPD2     H 9750   0.849   1.852  15.436  0.0080  0.3817  0.3348
  655MPD2    H1 9751   0.901   1.419  15.463  1.1865  0.7735 -2.8027
  655MPD2    H2 9752   0.887   1.639  15.814  0.2107  0.3914  0.1750
  655MPD2    H3 9753   0.916   1.438  15.711  1.2283 -0.6126 -0.2056
  655MPD2     N 9754   0.874   1.618  15.285  0.4880 -0.6347 -0.1305
  655MPD2    H5 9755   0.865   1.524  15.247 -1.0265 -0.6346  0.2145
  655MPD2    N1 9756   0.809   1.877  15.700 -0.6595 -0.4425  0.3736
  655MPD2    H7 9757   0.766   1.947  15.640 -1.4051 -1.1236  0.1116
  656TMC3    C1 9758   0.788   2.042  15.858 -1.2054  0.8847 -0.1780
  656TMC3    C2 9759   0.761   2.084  15.982 -0.2466 -0.6574 -0.3625
  656TMC3    C3 9760   0.697   2.207  15.996  0.2839 -0.5346 -0.0567
  656TMC3    C4 9761   0.755   2.119  15.747  0.1090  0.4328 -0.6355
  656TMC3    C5 9762   0.685   2.230  15.768  0.2369 -0.0344 -0.2928
  656TMC3    C6 9763   0.646   2.272  15.890 -0.3299  0.1143  0.5603
  656TMC3     C 9764   0.805   1.904  15.834 -0.1023  0.3153 -0.6688
  656TMC3     O 9765   0.811   1.828  15.928 -0.3312  0.3691  0.3316
  656TMC3     H 9766   0.766   2.014  16.064  1.5719 -0.1064  0.0009
  656TMC3    H1 9767   0.772   2.088  15.645 -0.4233  2.4522 -1.3278
  656TMC3    H2 9768   0.585   2.361  15.901 -1.0731 -0.5340  1.7241
  656TMC3    C7 9769   0.647   2.299  15.647  0.2523  0.6894  0.2826
  656TMC3    C8 9770   0.611   2.216  16.118 -0.3826 -0.0070 -0.6120
  656TMC3    O1 9771   0.664   2.237  15.544  0.0006 -0.6821  0.1392
  656TMC3    O2 9772   0.594   2.108  16.170  0.2209  0.9355  0.1748
  657TMC3    C1 9773   4.346   1.368  15.156  0.3714 -0.2976  0.5084
  657TMC3    C2 9774   4.397   1.409  15.276 -1.0564 -0.0486  0.3167
  657TMC3    C3 9775   4.419   1.539  15.293 -0.5748  0.4935 -0.4836
  657TMC3    C4 9776   4.318   1.464  15.061  0.1896  0.2206  0.4751
  657TMC3    C5 9777   4.332   1.598  15.089  0.4418 -0.4677  0.3474
  657TMC3    C6 9778   4.379   1.632  15.210  0.0242  0.1485  0.3377
  657TMC3     C 9779   4.327   1.227  15.130  0.0189  0.4271  0.3411
  657TMC3     O 9780   4.250   1.184  15.044 -0.4919  0.1577  0.4504
  657TMC3     H 9781   4.419   1.340  15.357 -1.5454 -0.1784  0.3411
  657TMC3    H1 9782   4.285   1.432  14.963 -0.6159 -0.0821  0.8440
  657TMC3    H2 9783   4.388   1.737  15.237 -1.4670  0.2117  0.5364
  657TMC3    C7 9784   4.307   1.707  15.000  0.0153 -0.6558 -0.1236
  657TMC3    C8 9785   4.521   1.565  15.397  0.0945 -0.0295  0.3257
  657TMC3    O1 9786   4.324   1.820  15.053  0.0806 -0.4725 -0.5020
  657TMC3    O2 9787   4.548   1.475  15.473  0.3539 -0.0693  0.4875
  658MPD2     C 9788   1.046   1.717  14.462 -0.0325 -0.1135  0.3324
  658MPD2    C1 9789   0.909   1.714  14.481 -0.8952  0.4003 -0.6952
  658MPD2    C2 9790   0.827   1.707  14.369 -0.0153 -0.1657  0.6206
  658MPD2    C3 9791   0.880   1.711  14.243 -0.6912  0.5834  0.3554
  658MPD2    C4 9792   1.018   1.712  14.228 -1.2564  0.7213 -0.1138
  658MPD2    C5 9793   1.096   1.710  14.337  0.1200 -0.3109  0.6655
  658MPD2     H 9794   0.719   1.703  14.377  0.1235 -0.8797  1.9562
  658MPD2    H1 9795   1.060   1.718  14.128 -1.6848  0.0603 -0.3361
  658MPD2    H2 9796   1.119   1.712  14.543  1.0456 -0.9609 -0.7074
  658MPD2    H3 9797   1.203   1.713  14.319 -0.1547 -1.5457 -1.2024
  658MPD2     N 9798   0.793   1.709  14.136 -0.2187 -0.2544  0.3233
  658MPD2    H5 9799   0.694   1.722  14.156  0.0912  1.2480  0.8777
  658MPD2    N1 9800   0.851   1.706  14.606  0.0510  0.3187 -0.2279
  658MPD2    H7 9801   0.753   1.678  14.611  0.8403 -2.2635  0.7091
  659TMC3    C1 9802   0.824   1.721  14.838  0.7381  0.0993  0.1732
  659TMC3    C2 9803   0.867   1.765  14.962 -0.2292 -0.3105 -0.0367
  659TMC3    C3 9804   0.808   1.701  15.071 -0.7053  0.4657 -0.5638
  659TMC3    C4 9805   0.726   1.631  14.826 -1.0557 -0.2497 -0.5204
  659TMC3    C5 9806   0.664   1.586  14.934 -0.5721 -0.5197  0.5774
  659TMC3    C6 9807   0.708   1.611  15.058 -0.0694 -0.1197  0.3263
  659TMC3     C 9808   0.909   1.740  14.719 -0.3936 -0.3296 -0.2919
  659TMC3     O 9809   1.018   1.795  14.735 -0.1686  0.9237  0.2971
  659TMC3     H 9810   0.945   1.838  14.976 -0.3792 -0.1639  0.0260
  659TMC3    H1 9811   0.692   1.604  14.727  1.3485  0.4359 -1.5148
  659TMC3    H2 9812   0.664   1.576  15.150 -1.1007 -2.1569 -0.9468
  659TMC3    C7 9813   0.517   1.580  14.920 -0.6628  0.2457 -0.9453
  659TMC3    C8 9814   0.868   1.726  15.200 -0.9352  0.4138  0.3066
  659TMC3    O1 9815   0.450   1.645  15.003 -0.0992 -0.2020  0.1771
  659TMC3    O2 9816   0.908   1.839  15.217 -0.0713 -0.3076 -0.2566
  660MPD2     C 9817   3.766   0.709  12.587 -0.5523 -0.2235  0.0429
  660MPD2    C1 9818   3.633   0.746  12.597 -0.7230  0.2515 -0.4695
  660MPD2    C2 9819   3.571   0.735  12.718 -0.1406 -0.5854  0.3958
  660MPD2    C3 9820   3.635   0.664  12.821 -0.9491  0.2929  0.6523
  660MPD2    C4 9821   3.772   0.640  12.806  0.3764 -0.0715 -0.7825
  660MPD2    C5 9822   3.840   0.661  12.688  0.0383  0.0052 -0.0367
  660MPD2     H 9823   3.472   0.775  12.736  0.6465  0.6315  2.0103
  660MPD2    H1 9824   3.833   0.590  12.880  0.5626  1.2496 -0.0376
  660MPD2    H2 9825   3.813   0.731  12.491  0.1835  1.0160  0.6881
  660MPD2    H3 9826   3.946   0.641  12.689 -0.1195 -0.8833 -3.4597
  660MPD2     N 9827   3.577   0.637  12.949 -0.5230  0.0121 -0.0205
  660MPD2    H5 9828   3.638   0.614  13.027 -0.4740  0.3085  0.0285
  660MPD2    N1 9829   3.576   0.789  12.476  0.1649  0.3416  0.0593
  660MPD2    H7 9830   3.642   0.808  12.401  0.7418  1.3000  0.8124
  661TMC3    C1 9831   3.420   0.837  12.305 -0.4015 -0.4405 -0.6754
  661TMC3    C2 9832   3.515   0.922  12.244  0.5443  0.5617  0.2719
  661TMC3    C3 9833   3.500   0.960  12.111  0.1284 -0.3646  0.1937
  661TMC3    C4 9834   3.337   0.767  12.233 -0.8124 -0.4113 -0.0401
  661TMC3    C5 9835   3.326   0.802  12.099  0.1052  0.2184  0.1787
  661TMC3    C6 9836   3.400   0.896  12.034  0.8115 -0.3559  0.3497
  661TMC3     C 9837   3.440   0.791  12.439 -0.1282 -0.4655  0.0737
  661TMC3     O 9838   3.342   0.751  12.492 -0.1688  0.1429 -0.2742
  661TMC3     H 9839   3.571   0.977  12.319  0.5450 -0.2654  0.8786
  661TMC3    H1 9840   3.272   0.692  12.278 -0.3089 -0.1774  1.0942
  661TMC3    H2 9841   3.372   0.915  11.931  1.6498  1.6624  0.5097
  661TMC3    C7 9842   3.273   0.695  12.018 -0.2787 -0.0721 -0.5135
  661TMC3    C8 9843   3.601   1.020  12.038 -0.8549 -0.3557  0.0585
  661TMC3    O1 9844   3.235   0.725  11.903  0.4083  0.3579 -0.2382
  661TMC3    O2 9845   3.703   1.031  12.103  0.1087 -1.0451 -0.1338
  662MPD2     C 9846   4.344   0.573  16.709  0.3544 -0.7697  0.1805
  662MPD2    C1 9847   4.331   0.466  16.793 -1.3276  0.0679  0.0835
  662MPD2    C2 9848   4.253   0.470  16.901 -0.0358 -0.3746  0.3901
  662MPD2    C3 9849   4.166   0.580  16.923  0.7383 -0.7755 -0.1229
  662MPD2    C4 9850   4.168   0.681  16.820  0.1136 -0.3196  0.5046
  662MPD2    C5 9851   4.257   0.677  16.716 -0.2706 -0.7857  0.3056
  662MPD2     H 9852   4.246   0.383  16.964  0.5147  0.4822  1.6355
  662MPD2    H1 9853   4.098   0.760  16.844 -1.3515 -2.0299  1.8710
  662MPD2    H2 9854   4.409   0.570  16.622  0.8466  1.1872  0.4617
  662MPD2    H3 9855   4.260   0.749  16.635  0.1535 -0.0436  0.9718
  662MPD2     N 9856   4.059   0.580  17.017  0.6727 -0.9163 -0.1268
  662MPD2    H5 9857   3.983   0.646  17.008  1.0808 -0.7582 -2.5318
  662MPD2    N1 9858   4.410   0.351  16.775 -0.3124 -0.4330 -0.4231
  662MPD2    H7 9859   4.398   0.274  16.840 -1.2877 -0.4656 -0.6495
  663TMC3    C1 9860   4.580   0.202  16.689 -0.2927 -0.3690 -0.9993
  663TMC3    C2 9861   4.607   0.156  16.818 -0.2862 -0.4461 -0.3317
  663TMC3    C3 9862   4.672   0.033  16.820 -0.3574  0.1161 -0.4911
  663TMC3    C4 9863   4.601   0.131  16.572 -0.6341 -0.6965 -0.0236
  663TMC3    C5 9864   4.647   0.005  16.579  0.6866 -0.7220 -0.2527
  663TMC3    C6 9865   4.661   4.690  16.707  0.4004 -0.2347  0.4624
  663TMC3     C 9866   4.504   0.326  16.672 -0.5300 -0.3188 -0.3188
  663TMC3     O 9867   4.517   0.383  16.567  0.3758 -0.5142 -0.5532
  663TMC3     H 9868   4.616   0.227  16.899  1.7444 -0.8662 -0.1719
  663TMC3    H1 9869   4.576   0.161  16.471  2.9975 -0.5433 -0.8689
  663TMC3    H2 9870   4.715   4.597  16.711 -1.3509 -1.2644  0.3184
  663TMC3    C7 9871   4.574   4.648  16.491  0.3348  0.2110 -0.5642
  663TMC3    C8 9872   4.678   4.689  16.943 -0.3709  0.2421  0.1869
  663TMC3    O1 9873   4.581   4.685  16.373 -0.2915  0.7209  1.0415
  663TMC3    O2 9874   4.716   4.572  16.934  0.3166  0.1129 -0.1843
  664MPD2     C 9875   2.224   3.638  17.547  1.4970  0.1616  0.7146
  664MPD2    C1 9876   2.259   3.757  17.615 -1.2547 -0.3593  1.1165
  664MPD2    C2 9877   2.260   3.751   0.009 -0.1770 -0.0723  0.4002
  664MPD2    C3 9878   2.244   3.630   0.076  0.4135  0.7632  0.0425
  664MPD2    C4 9879   2.209   3.514   0.005 -0.4534 -0.1481 -0.4400
  664MPD2    C5 9880   2.198   3.525  17.614 -0.3083 -0.2346  0.2992
  664MPD2     H 9881   2.297   3.836   0.065 -1.6538 -0.5795  2.1440
  664MPD2    H1 9882   2.199   3.416   0.049  2.1303  1.3748  3.5058
  664MPD2    H2 9883   2.217   3.635  17.438 -1.2092  0.5724  0.8781
  664MPD2    H3 9884   2.179   3.438  17.552 -3.3010 -1.1296  2.4951
  664MPD2     N 9885   2.253   3.635   0.216  0.6926 -0.0339 -0.4257
  664MPD2    H5 9886   2.284   3.722   0.257  2.1177 -0.8142  0.1350
  664MPD2    N1 9887   2.293   3.881  17.554 -0.1520  0.1709  0.0918
  664MPD2    H7 9888   2.335   3.950  17.616  1.6397 -2.4304  1.7772
  665TMC3    C1 9889   2.177   3.582   0.443 -0.1572  0.3314 -0.2562
  665TMC3    C2 9890   2.058   3.548   0.498  0.4433 -0.0837 -0.3812
  665TMC3    C3 9891   2.034   3.606   0.621  0.2316 -0.1557 -0.1055
  665TMC3    C4 9892   2.270   3.665   0.495  0.7457 -0.9773  0.2908
  665TMC3    C5 9893   2.235   3.729   0.610 -0.4103 -0.5141  0.1607
  665TMC3    C6 9894   2.115   3.702   0.671 -0.0582  0.3675 -0.2747
  665TMC3     C 9895   2.192   3.541   0.303 -0.2551  0.3453 -0.0692
  665TMC3     O 9896   2.128   3.446   0.265  0.3025  0.2225 -0.1892
  665TMC3     H 9897   2.001   3.465   0.459 -0.7932  1.2635 -1.4348
  665TMC3    H1 9898   2.360   3.689   0.440  0.5117 -0.2127  0.2502
  665TMC3    H2 9899   2.092   3.756   0.762  0.6735 -1.2202  0.8436
  665TMC3    C7 9900   2.318   3.842   0.646  0.6959  0.4332 -0.1150
  665TMC3    C8 9901   1.898   3.639   0.641  0.5665 -0.4264 -0.6838
  665TMC3    O1 9902   2.435   3.832   0.603  0.4647 -0.4192 -0.3667
  665TMC3    O2 9903   1.877   3.745   0.701  0.4154  0.2683 -0.4203
  666TMC3    C1 9904   0.599   2.250   9.910  0.0749  0.0131 -0.2248
  666TMC3    C2 9905   0.556   2.198   9.787  0.4087  0.1361 -0.0604
  666TMC3    C3 9906   0.560   2.281   9.676  0.0709  0.1299 -0.4965
  666TMC3    C4 9907   0.646   2.380   9.913  0.8563  0.8601  0.1159
  666TMC3    C5 9908   0.652   2.455   9.801 -0.2380 -0.0580  0.2663
  666TMC3    C6 9909   0.595   2.412   9.682  0.2976  0.0992 -0.3754
  666TMC3     C 9910   0.589   2.180  10.039 -0.1995 -0.7009 -0.1176
  666TMC3     O 9911   0.646   2.239  10.130  0.5133  0.0957 -0.2526
  666TMC3     H 9912   0.528   2.095   9.768  0.8372  0.0385 -0.1665
  666TMC3    H1 9913   0.690   2.418  10.005  2.1371  0.1538 -0.2107
  666TMC3    H2 9914   0.592   2.478   9.596  0.3115  0.2091 -0.2913
  666TMC3    C7 9915   0.732   2.583   9.798 -0.2723  0.5074 -0.1398
  666TMC3    C8 9916   0.548   2.224   9.543  0.7351  0.2442 -0.2177
  666TMC3    O1 9917   0.793   2.601   9.897  0.3108  0.1842  0.3214
  666TMC3    O2 9918   0.462   2.139   9.529  0.5471  0.8923 -0.0171
  667MPD2     C 9919   2.804   3.113  14.895 -0.0756  0.1267  0.2674
  667MPD2    C1 9920   2.738   3.207  14.969 -0.5486 -0.0277  0.1462
  667MPD2    C2 9921   2.601   3.197  14.984  0.1082  0.6610  0.4875
  667MPD2    C3 9922   2.532   3.094  14.925  0.9656 -0.3880 -0.2196
  667MPD2    C4 9923   2.602   2.993  14.869 -0.4313  0.1027  0.2645
  667MPD2    C5 9924   2.733   3.009  14.846 -0.7413  0.4207 -0.0373
  667MPD2     H 9925   2.545   3.271  15.038 -0.9407  2.8483 -3.6212
  667MPD2    H1 9926   2.546   2.907  14.834 -0.5445  0.3969 -0.2771
  667MPD2    H2 9927   2.907   3.125  14.862  0.0372 -1.7579 -0.0628
  667MPD2    H3 9928   2.789   2.953  14.772 -0.1564 -0.4381  1.0566
  667MPD2     N 9929   2.393   3.078  14.929  0.2301 -0.1253  0.0463
  667MPD2    H5 9930   2.347   3.010  14.870  0.6274  0.0054 -0.4125
  667MPD2    N1 9931   2.803   3.311  15.031 -0.1923 -0.3898  0.8490
  667MPD2    H7 9932   2.746   3.374  15.087 -0.6282 -0.0812  0.0532
  668TMC3    C1 9933   2.987   3.453  15.092 -0.5829 -0.1705 -0.2097
  668TMC3    C2 9934   3.091   3.523  15.041  0.1900 -0.1428 -0.1927
  668TMC3    C3 9935   3.116   3.646  15.089 -0.4407 -0.2421  0.1654
  668TMC3    C4 9936   2.920   3.496  15.203  0.2080  0.0352  0.1297
  668TMC3    C5 9937   2.949   3.621  15.252 -0.0773  0.2743 -0.0184
  668TMC3    C6 9938   3.054   3.698  15.196 -0.6243  0.1151  0.8477
  668TMC3     C 9939   2.938   3.338  15.022 -0.3918  0.4095  0.8189
  668TMC3     O 9940   3.019   3.286  14.946  0.0446  0.0047  0.2163
  668TMC3     H 9941   3.144   3.479  14.957 -1.5798 -0.0603 -1.3466
  668TMC3    H1 9942   2.858   3.422  15.254 -0.7135 -0.3995 -1.6365
  668TMC3    H2 9943   3.065   3.797  15.239  0.4293  0.0874  0.6337
  668TMC3    C7 9944   2.891   3.666  15.373  0.7471 -0.0995 -0.1786
  668TMC3    C8 9945   3.179   3.744  15.010  0.3763 -0.1076  0.0520
  668TMC3    O1 9946   2.949   3.747  15.449  0.3531  0.2845 -0.2626
  668TMC3    O2 9947   3.243   3.833  15.071 -0.0100 -0.6805 -0.4407
  669TMC3    C1 9948   1.228   3.235  14.045  0.3292 -0.4657  0.3010
  669TMC3    C2 9949   1.154   3.173  13.950  0.3861  0.0158 -0.1187
  669TMC3    C3 9950   1.125   3.246  13.836  0.4514 -0.5412  0.0082
  669TMC3    C4 9951   1.274   3.365  14.029  0.1150 -0.1302  0.3712
  669TMC3    C5 9952   1.250   3.428  13.912 -0.3876 -0.4485 -0.1558
  669TMC3    C6 9953   1.175   3.372  13.815 -0.5100 -0.0615  0.0356
  669TMC3     C 9954   1.237   3.173  14.178 -0.5585  0.2770  0.5465
  669TMC3     O 9955   1.291   3.244  14.262  0.0266 -0.0687  0.1273
  669TMC3     H 9956   1.116   3.073  13.965  1.6819 -0.3994  0.3880
  669TMC3    H1 9957   1.326   3.417  14.108  2.8762 -0.7149 -1.0566
  669TMC3    H2 9958   1.148   3.424  13.724 -3.7693 -0.3774  0.8251
  669TMC3    C7 9959   1.330   3.551  13.893  0.4591 -0.5620 -0.3062
  669TMC3    C8 9960   1.031   3.175  13.753  0.0359 -0.2821 -0.4111
  669TMC3    O1 9961   1.393   3.582  13.990 -0.4451 -0.0349  0.2030
  669TMC3    O2 9962   0.979   3.076  13.807 -0.1268  0.2786 -0.2626
  670MPD2     C 9963   3.492   0.707  13.528  0.1499 -0.5973  0.2091
  670MPD2    C1 9964   3.628   0.717  13.550  1.0568  0.8462 -0.0712
  670MPD2    C2 9965   3.681   0.717  13.679 -0.4374 -0.1234  0.3720
  670MPD2    C3 9966   3.597   0.737  13.786  0.0128 -0.5260  0.4477
  670MPD2    C4 9967   3.463   0.744  13.764 -0.2514 -0.1089  0.5458
  670MPD2    C5 9968   3.413   0.729  13.640 -0.1161  0.1627 -0.2624
  670MPD2     H 9969   3.788   0.706  13.691 -0.9416 -0.8782  3.9371
  670MPD2    H1 9970   3.393   0.754  13.847  1.0442  2.0002  1.4033
  670MPD2    H2 9971   3.454   0.687  13.428  0.6989 -0.0001 -0.1173
  670MPD2    H3 9972   3.305   0.738  13.637 -0.2304 -1.4599 -1.0658
  670MPD2     N 9973   3.648   0.750  13.921  0.3433 -0.4741  0.1193
  670MPD2    H5 9974   3.748   0.739  13.938 -0.0118 -0.7602  2.0677
  670MPD2    N1 9975   3.725   0.698  13.448 -0.6790  0.2364  0.2958
  670MPD2    H7 9976   3.818   0.682  13.484  0.1709 -0.0671 -2.0150
  671TMC3    C1 9977   3.657   0.774  14.160 -0.6178 -0.3641  0.6650
  671TMC3    C2 9978   3.770   0.689  14.172  0.3067 -0.3409  0.5421
  671TMC3    C3 9979   3.791   0.632  14.294 -0.7205  0.2376 -0.3051
  671TMC3    C4 9980   3.578   0.802  14.279 -0.3493  0.1200  0.3700
  671TMC3    C5 9981   3.594   0.733  14.393  0.5048 -0.1235 -0.1509
  671TMC3    C6 9982   3.706   0.654  14.399  0.1956 -1.0702  0.3422
  671TMC3     C 9983   3.576   0.772  14.038  0.1086 -0.0391  0.2826
  671TMC3     O 9984   3.458   0.804  14.043  0.6992  0.2527  0.4320
  671TMC3     H 9985   3.826   0.653  14.086  1.0757  0.1465  0.8425
  671TMC3    H1 9986   3.482   0.846  14.255 -0.9357 -0.6019  1.3994
  671TMC3    H2 9987   3.724   0.604  14.494  0.8743 -0.1964  0.6755
  671TMC3    C7 9988   3.478   0.655  14.425  0.0074  0.4525  0.2126
  671TMC3    C8 9989   3.890   0.528  14.287 -1.1031 -0.6459 -0.7322
  671TMC3    O1 9990   3.496   0.534  14.444  0.4267 -0.4448 -0.0201
  671TMC3    O2 9991   3.920   0.471  14.178 -0.6752 -0.4804 -0.4426
  672MPD2     C 9992   4.315   2.081   0.437 -0.7658  0.3786  0.3505
  672MPD2    C1 9993   4.404   1.995   0.499 -0.3491 -0.3496  0.2381
  672MPD2    C2 9994   4.469   2.029   0.616  0.1032  0.3725  0.3748
  672MPD2    C3 9995   4.449   2.149   0.676 -0.0498 -0.0356 -0.3426
  672MPD2    C4 9996   4.370   2.239   0.606 -0.3798  0.1423  0.3452
  672MPD2    C5 9997   4.306   2.209   0.487  0.1728 -0.1296  0.2896
  672MPD2     H 9998   4.526   1.955   0.670 -1.2489  0.0329  1.3465
  672MPD2    H1 9999   4.361   2.337   0.653 -0.5041  1.8765 -3.3137
  672MPD2    H210000   4.258   2.054   0.349  2.2065 -2.1922 -0.7884
  672MPD2    H310001   4.247   2.277   0.427  2.2527  1.5341  0.1222
  672MPD2     N10002   4.507   2.188   0.798 -0.2521  0.4570 -0.1791
  672MPD2    H510003   4.482   2.279   0.834 -0.5658  0.5146 -0.5476
  672MPD2    N110004   4.430   1.868   0.455 -0.2587  0.1447  0.0874
  672MPD2    H710005   4.499   1.814   0.506 -0.7399 -0.0740  0.5044
  673TMC3    C110006   4.416   1.674   0.308 -0.0949  0.0083  0.2075
  673TMC3    C210007   4.360   1.574   0.389  0.1894 -0.0027  0.4591
  673TMC3    C310008   4.296   1.477   0.323 -0.1982  0.1655  0.2721
  673TMC3    C410009   4.414   1.670   0.168 -0.4084  0.2718 -0.0186
  673TMC3    C510010   4.347   1.558   0.109  0.8484 -0.2153 -0.1690
  673TMC3    C610011   4.284   1.471   0.190 -0.1109  0.0763  0.5145
  673TMC3     C10012   4.367   1.804   0.351 -1.1059 -0.7319  0.4762
  673TMC3     O10013   4.283   1.854   0.273 -0.3375  0.6096  0.0693
  673TMC3     H10014   4.351   1.592   0.496  0.8140 -1.7404  0.7951
  673TMC3    H110015   4.445   1.755   0.109  1.4433 -1.3424 -1.3805
  673TMC3    H210016   4.242   1.386   0.137  2.0942 -0.9341  0.3779
  673TMC3    C710017   4.265   1.605   0.002 -0.9728 -0.2006  0.0754
  673TMC3    C810018   4.265   1.353   0.386 -0.8866 -0.5751 -0.1695
  673TMC3    O110019   4.241   1.523  17.661  0.0553 -0.2732  0.0828
  673TMC3    O210020   4.206   1.273   0.313 -0.4389 -0.0953  0.6200
  674MPD2     C10021   4.375   0.763  17.186 -0.2663 -0.0760  0.0004
  674MPD2    C110022   4.306   0.762  17.305  0.1166 -0.1650 -0.0181
  674MPD2    C210023   4.214   0.867  17.335  0.1635  0.4648  0.0260
  674MPD2    C310024   4.217   0.984  17.257 -0.2774  0.1442 -0.2557
  674MPD2    C410025   4.293   0.991  17.137  0.3305  0.1355  0.1364
  674MPD2    C510026   4.364   0.879  17.105  0.4324 -1.0662  0.1465
  674MPD2     H10027   4.158   0.856  17.428  0.7766 -1.3684  0.1811
  674MPD2    H110028   4.296   1.075  17.068  0.4858  0.6545  0.7745
  674MPD2    H210029   4.442   0.681  17.165 -1.5740 -0.2883 -3.3828
  674MPD2    H310030   4.418   0.880  17.011 -0.9823  0.1380 -0.6402
  674MPD2     N10031   4.152   1.089  17.317 -0.6153  0.0166 -0.4493
  674MPD2    H510032   4.114   1.070  17.409 -1.0970  0.7933 -0.4930
  674MPD2    N110033   4.320   0.647  17.394 -0.6607  0.0192  0.2287
  674MPD2    H710034   4.369   0.575  17.343 -0.7604  0.4670 -0.5069
  675TMC3    C110035   4.287   0.744  17.619  0.1053 -0.2389  1.2102
  675TMC3    C210036   4.208   0.733  17.731  0.1496 -0.5524 -0.4671
  675TMC3    C310037   4.198   0.828   0.084 -0.3335  0.2426 -1.3598
  675TMC3    C410038   4.353   0.864  17.610  0.2049  0.1322  0.6095
  675TMC3    C510039   4.351   0.954  17.709 -0.6222 -0.2837 -0.2214
  675TMC3    C610040   4.266   0.946   0.072 -0.1558 -0.3511 -0.4938
  675TMC3     C10041   4.290   0.631  17.526 -0.3750 -0.2169  0.1934
  675TMC3     O10042   4.302   0.523  17.576 -0.3676  0.2101  0.0434
  675TMC3     H10043   4.170   0.633   0.003  0.0926 -0.7614 -1.7214
  675TMC3    H110044   4.416   0.877  17.522  0.6406 -1.0939  0.7295
  675TMC3    H210045   4.268   1.023   0.149  0.9309 -1.5416  0.6881
  675TMC3    C710046   4.434   1.068  17.698 -1.1516 -0.2925  0.2129
  675TMC3    C810047   4.095   0.820   0.180 -0.5732 -0.6991 -1.4278
  675TMC3    O110048   4.455   1.110  17.585  0.2219  0.2273  0.1289
  675TMC3    O210049   4.036   0.712   0.174  0.8582  0.3165  0.0489
  676MPD2     C10050   2.304   3.346  11.107 -0.1456 -0.4633  1.6653
  676MPD2    C110051   2.191   3.393  11.035  0.8557  0.0282  0.1088
  676MPD2    C210052   2.139   3.311  10.939 -0.5093 -0.3841  0.0418
  676MPD2    C310053   2.215   3.204  10.895 -0.2687 -0.1648 -0.0240
  676MPD2    C410054   2.332   3.167  10.959 -0.0389  0.0651 -0.1078
  676MPD2    C510055   2.372   3.238  11.067  0.1164  0.7142  0.0384
  676MPD2     H10056   2.039   3.326  10.899  0.3771  4.0222 -0.6051
  676MPD2    H110057   2.385   3.079  10.926  0.2720  0.0977  0.3065
  676MPD2    H210058   2.338   3.404  11.192  0.4726 -1.3775  2.0371
  676MPD2    H310059   2.452   3.198  11.129  1.2983  0.9045 -1.3763
  676MPD2     N10060   2.174   3.129  10.782  0.6374 -0.0860 -0.2057
  676MPD2    H510061   2.220   3.045  10.750  0.9329  1.1414 -3.1005
  676MPD2    N110062   2.116   3.507  11.068 -0.3642 -0.4124  0.1356
  676MPD2    H710063   2.026   3.514  11.022  0.7157  2.1605 -1.5763
  677TMC3    C110064   2.056   3.691  11.192  0.6010  0.3143 -0.7738
  677TMC3    C210065   1.952   3.619  11.237  0.1054  0.1552 -0.0847
  677TMC3    C310066   1.877   3.671  11.340 -0.2621 -0.2500 -0.2372
  677TMC3    C410067   2.093   3.803  11.252 -0.1042  0.2581  0.3253
  677TMC3    C510068   2.017   3.855  11.360 -0.6192 -0.1889 -0.1414
  677TMC3    C610069   1.904   3.793  11.397 -0.5187 -0.2128  0.3253
  677TMC3     C10070   2.157   3.607  11.149 -0.1016  0.1134  0.4324
  677TMC3     O10071   2.276   3.635  11.178  0.1076 -0.0542 -0.5312
  677TMC3     H10072   1.922   3.523  11.198  2.0652  0.1049 -1.4847
  677TMC3    H110073   2.187   3.843  11.215  0.6041 -1.1477  0.6107
  677TMC3    H210074   1.833   3.836  11.467 -0.4781 -0.2946  0.4158
  677TMC3    C710075   2.047   3.986  11.420  0.3939  0.0765  0.1361
  677TMC3    C810076   1.772   3.582  11.388  0.2835  0.6264 -0.0879
  677TMC3    O110077   2.003   4.021  11.531  0.2510  0.0841 -1.1215
  677TMC3    O210078   1.692   3.543  11.303  0.6428 -0.6058 -0.1840
  678MPD2     C10079   3.747   0.339   1.148  0.2884 -0.7223  0.0648
  678MPD2    C110080   3.700   0.226   1.088  0.5448 -0.1390  0.2840
  678MPD2    C210081   3.567   0.191   1.097  0.3384 -0.1346 -0.0060
  678MPD2    C310082   3.474   0.286   1.145  0.0487 -0.6128  0.5351
  678MPD2    C410083   3.519   0.405   1.200 -0.1991  0.2492 -0.0451
  678MPD2    C510084   3.659   0.424   1.198 -0.0422  0.0230 -0.2363
  678MPD2     H10085   3.531   0.096   1.059 -0.8149  0.2372  0.1696
  678MPD2    H110086   3.458   0.475   1.255 -0.1748  0.1678  0.0846
  678MPD2    H210087   3.853   0.362   1.151  0.4089 -1.3736  0.7678
  678MPD2    H310088   3.693   0.523   1.225 -1.0370  0.6728 -1.3615
  678MPD2     N10089   3.330   0.265   1.120  0.5865  0.7369 -0.3723
  678MPD2    H510090   3.306   0.170   1.095 -1.1004  1.1421 -0.3060
  678MPD2    N110091   3.786   0.129   1.045 -0.5868  0.1061 -0.4558
  678MPD2    H710092   3.749   0.045   1.001  0.4690 -0.3464 -0.4824
  679TMC3    C110093   4.020   4.543   0.946 -0.6685  0.2314 -0.5858
  679TMC3    C210094   3.954   4.648   1.004  0.0567  0.6786  0.6136
  679TMC3    C310095   3.979   0.033   0.940  0.2872  0.2358  0.0118
  679TMC3    C410096   4.122   4.558   0.854  0.2202 -0.4097  0.3149
  679TMC3    C510097   4.152   4.682   0.817  0.7214  1.1510 -0.0441
  679TMC3    C610098   4.083   0.052   0.854 -0.0265  0.0423 -0.3178
  679TMC3     C10099   4.018   4.407   1.006 -0.0057 -0.4336  0.0906
  679TMC3     O10100   4.112   4.331   0.981  0.1862 -0.8650  0.3083
  679TMC3     H10101   3.888   4.643   1.089  0.5073  1.9517  1.0397
  679TMC3    H110102   4.195   4.481   0.831 -0.3706 -0.7454 -0.4498
  679TMC3    H210103   4.107   0.147   0.807  1.7123  0.5441  1.6013
  679TMC3    C710104   4.228   4.692   0.702 -0.3626 -0.0935  0.5781
  679TMC3    C810105   3.912   0.152   0.993 -0.4213 -0.5696 -0.1195
  679TMC3    O110106   4.201   4.612   0.613 -0.2156 -0.3877 -0.1428
  679TMC3    O210107   3.973   0.258   0.979 -0.1658 -0.3177 -0.1825
  680MPD2     C10108   3.076   2.350  13.350  0.1783 -0.1214 -0.0400
  680MPD2    C110109   3.211   2.349  13.374  0.5196  0.2939  0.2100
  680MPD2    C210110   3.284   2.465  13.405  1.1569 -0.0239  0.0075
  680MPD2    C310111   3.213   2.588  13.413 -0.4327  0.7967  0.3643
  680MPD2    C410112   3.076   2.588  13.393  0.2168  0.4947  0.9345
  680MPD2    C510113   3.008   2.470  13.365  0.9119 -0.2354 -0.2927
  680MPD2     H10114   3.392   2.470  13.401  0.9983  3.2607 -0.3507
  680MPD2    H110115   3.014   2.677  13.405  0.9580  0.9582  1.3036
  680MPD2    H210116   3.029   2.264  13.305  1.1590 -0.6546 -0.0409
  680MPD2    H310117   2.904   2.468  13.336  0.5407  1.0554  0.9437
  680MPD2     N10118   3.275   2.716  13.443 -0.0067  0.6842  0.7038
  680MPD2    H510119   3.212   2.794  13.430  0.3797  0.7060 -1.0639
  680MPD2    N110120   3.290   2.236  13.353  0.5894 -0.2492 -0.0782
  680MPD2    H710121   3.390   2.244  13.367  0.5410 -1.6559  1.0124
  681TMC3    C110122   3.362   2.027  13.337 -0.1143 -0.3626 -0.0715
  681TMC3    C210123   3.366   1.958  13.457 -0.6822  0.2160 -0.0177
  681TMC3    C310124   3.477   1.976  13.538 -0.3457  0.7459 -0.1897
  681TMC3    C410125   3.475   2.090  13.290 -0.3377  0.0247  0.1506
  681TMC3    C510126   3.590   2.077  13.363  0.3810 -0.7580  0.0744
  681TMC3    C610127   3.586   2.038  13.495  0.0689 -0.4012  0.7827
  681TMC3     C10128   3.244   2.109  13.340 -0.3443  0.1161  0.6168
  681TMC3     O10129   3.131   2.062  13.348  0.1060  0.0607  0.0825
  681TMC3     H10130   3.272   1.914  13.489 -1.5753  2.0472 -0.1270
  681TMC3    H110131   3.466   2.131  13.190  1.2776  0.0521  0.0140
  681TMC3    H210132   3.682   2.039  13.547 -0.0897  2.1645  1.0432
  681TMC3    C710133   3.726   2.110  13.307  0.5663  0.5039 -0.0461
  681TMC3    C810134   3.429   2.005  13.673 -0.4816  0.1535  0.3511
  681TMC3    O110135   3.828   2.087  13.368 -0.1581 -0.1869 -0.3010
  681TMC3    O210136   3.323   1.959  13.712  0.6266  0.2233  0.0627
  682MPD2     C10137   1.225   3.696  10.326 -0.5242  0.1582  0.0317
  682MPD2    C110138   1.177   3.585  10.395  0.0500  0.0935 -0.0236
  682MPD2    C210139   1.145   3.591  10.532  0.0671  0.0551  0.1960
  682MPD2    C310140   1.148   3.712  10.599  0.2203  0.4207 -0.3882
  682MPD2    C410141   1.183   3.822  10.528  0.1178  0.3427  0.1824
  682MPD2    C510142   1.226   3.816  10.399 -0.7818 -0.0766  0.5610
  682MPD2     H10143   1.116   3.504  10.590 -1.2870  0.5536  0.2618
  682MPD2    H110144   1.191   3.913  10.586 -1.7843 -0.0490  1.0763
  682MPD2    H210145   1.254   3.695  10.221 -1.1691 -1.7355 -0.1344
  682MPD2    H310146   1.258   3.906  10.348  1.2495 -1.1703 -0.1042
  682MPD2     N10147   1.112   3.728  10.739  0.5380  0.1886 -0.0299
  682MPD2    H510148   1.138   3.806  10.798  3.2484 -1.3213  0.7824
  682MPD2    N110149   1.170   3.461  10.338  0.0051 -0.5866 -0.1196
  682MPD2    H710150   1.143   3.383  10.397  3.3186 -1.1623  0.6314
  683TMC3    C110151   1.172   3.706  11.142 -0.1042  0.1420  0.4128
  683TMC3    C210152   1.174   3.580  11.197 -0.6042 -0.0161  0.4609
  683TMC3    C310153   1.103   3.481  11.131  0.8335 -0.2931  0.2169
  683TMC3    C410154   1.116   3.733  11.024  0.4760  0.2589 -0.1124
  683TMC3    C510155   1.050   3.636  10.956 -0.3683  0.3583 -0.9700
  683TMC3    C610156   1.036   3.513  11.015 -0.2574  0.5258 -0.4265
  683TMC3     C10157   1.221   3.819  11.218  0.6762 -0.0941  0.4667
  683TMC3     O10158   1.231   3.808  11.339  0.6176  0.0145  0.0572
  683TMC3     H10159   1.219   3.562  11.294 -0.4126  0.5476  0.4752
  683TMC3    H110160   1.120   3.830  10.975 -2.0462  1.6357  2.3734
  683TMC3    H210161   0.980   3.438  10.961 -0.0756  0.3102 -0.3158
  683TMC3    C710162   1.040   3.639  10.810 -0.1559 -0.5847  0.0821
  683TMC3    C810163   1.112   3.333  11.144  0.1157  0.7843 -0.2061
  683TMC3    O110164   0.973   3.549  10.764 -0.1104 -0.3798 -0.4992
  683TMC3    O210165   1.048   3.262  11.068  0.3501 -0.1743  0.0240
  684MPD2     C10166   4.387   3.461  15.943 -0.3349  0.2712 -0.1741
  684MPD2    C110167   4.347   3.540  15.832  0.4446  0.1552 -1.0650
  684MPD2    C210168   4.296   3.662  15.847  0.5427  0.3203  0.2949
  684MPD2    C310169   4.249   3.705  15.975 -0.2326  0.1674  0.4105
  684MPD2    C410170   4.310   3.635  16.083 -0.2057  0.1046 -0.6356
  684MPD2    C510171   4.378   3.519  16.064  0.6438 -0.6179 -0.4296
  684MPD2     H10172   4.280   3.722  15.758 -1.6567  2.1380  1.9199
  684MPD2    H110173   4.296   3.670  16.185  1.7710  0.7535 -0.5964
  684MPD2    H210174   4.421   3.358  15.943 -1.2591 -0.0270  0.6048
  684MPD2    H310175   4.416   3.465  16.150 -1.1857  1.4487  1.6866
  684MPD2     N10176   4.205   3.833  16.004 -0.7387 -0.0212  0.5144
  684MPD2    H510177   4.207   3.880  16.095  0.8055 -0.4609  0.7108
  684MPD2    N110178   4.368   3.504  15.699 -0.4361  0.3172 -0.3532
  684MPD2    H710179   4.343   3.572  15.628  0.4832  0.6345 -0.3672
  685TMC3    C110180   4.463   3.389  15.519  0.4328  0.6927  0.1599
  685TMC3    C210181   4.382   3.416  15.412  0.0423  0.0010  0.2893
  685TMC3    C310182   4.439   3.468  15.297  0.2522  0.3148 -0.2439
  685TMC3    C410183   4.593   3.422  15.519 -0.3627 -0.0933  0.6389
  685TMC3    C510184   4.648   3.487  15.411  0.1533 -0.8331  0.4577
  685TMC3    C610185   4.574   3.510  15.302  0.4504 -0.3285 -0.0173
  685TMC3     C10186   4.425   3.385  15.655  0.1312  0.5251  0.4325
  685TMC3     O10187   4.464   3.291  15.726  0.2678  0.2579 -0.2998
  685TMC3     H10188   4.276   3.391  15.421  0.5390 -1.8899  0.8924
  685TMC3    H110189   4.657   3.402  15.603  1.2590 -0.7509 -0.7448
  685TMC3    H210190   4.621   3.565  15.221  0.3898 -0.7314 -0.3285
  685TMC3    C710191   0.022   3.574  15.428  0.7063 -0.8121 -0.6991
  685TMC3    C810192   4.348   3.518  15.196 -0.4543  1.1365 -0.6333
  685TMC3    O110193   0.065   3.641  15.333 -0.6588  0.3480  0.2960
  685TMC3    O210194   4.388   3.534  15.082 -0.1547 -0.3863 -0.2655
  686MPD2     C10195   1.058   3.277  15.493  0.4497  0.0878  0.4895
  686MPD2    C110196   1.069   3.275  15.629 -0.4846 -0.0654 -1.2058
  686MPD2    C210197   1.126   3.169  15.688  0.5569  0.7745  0.5607
  686MPD2    C310198   1.141   3.051  15.615 -0.2673 -0.1011  0.1548
  686MPD2    C410199   1.138   3.060  15.476  0.6530 -0.5866  0.1142
  686MPD2    C510200   1.111   3.179  15.418 -0.3228  1.1968  0.9095
  686MPD2     H10201   1.145   3.172  15.795 -1.1359 -1.4388  0.9206
  686MPD2    H110202   1.153   2.973  15.413 -2.1330 -0.8132 -0.2184
  686MPD2    H210203   1.016   3.361  15.439  1.4719  0.9231  0.9906
  686MPD2    H310204   1.118   3.185  15.310 -2.2422  1.6115  0.8265
  686MPD2     N10205   1.173   2.925  15.672 -0.0262 -0.1440 -0.2651
  686MPD2    H510206   1.198   2.852  15.605 -2.7087 -0.8592 -0.4777
  686MPD2    N110207   1.000   3.385  15.694 -0.0628  1.1024  0.5637
  686MPD2    H710208   0.955   3.442  15.623 -1.9416  1.6526  2.2263
  687TMC3    C110209   1.085   2.956  15.891  0.4238  0.2985  0.3010
  687TMC3    C210210   0.957   2.960  15.848 -0.3464 -0.0292  0.8165
  687TMC3    C310211   0.854   2.998  15.935 -0.2044  0.3574 -0.6568
  687TMC3    C410212   1.110   2.974  16.025 -0.3435  0.1169 -1.0473
  687TMC3    C510213   1.006   3.012  16.109  0.4147 -0.2816 -0.1592
  687TMC3    C610214   0.878   3.031  16.064 -0.2533 -0.2926  0.6110
  687TMC3     C10215   1.181   2.893  15.809  0.9029  0.4989  0.0460
  687TMC3     O10216   1.209   2.784  15.854  0.1698  0.0819 -0.1738
  687TMC3     H10217   0.938   2.930  15.746 -0.2803 -0.4712  0.9323
  687TMC3    H110218   1.214   2.973  16.056 -1.3715  1.5128  2.4357
  687TMC3    H210219   0.802   3.042  16.141 -0.2939  0.4559  0.4662
  687TMC3    C710220   1.044   3.106  16.213 -0.0905 -0.2356 -0.2130
  687TMC3    C810221   0.729   3.041  15.883  0.2282 -0.6341 -0.5936
  687TMC3    O110222   1.061   3.058  16.325  0.2372  1.1721 -0.6983
  687TMC3    O210223   0.635   3.049  15.964 -0.1686  0.6612  0.3651
  688MPD2     C10224   4.400   2.887  17.245  0.3153  0.1585  0.1959
  688MPD2    C110225   4.427   2.774  17.313  0.0558 -0.1631 -0.1097
  688MPD2    C210226   4.516   2.682  17.262 -0.4525 -0.2963  0.6225
  688MPD2    C310227   4.579   2.702  17.139 -0.5029 -0.0585 -0.1977
  688MPD2    C410228   4.553   2.817  17.078  0.2949 -0.1437  0.1933
  688MPD2    C510229   4.466   2.909  17.129 -0.1628 -0.2602  0.2496
  688MPD2     H10230   4.549   2.595  17.318 -1.3951 -1.9677 -1.4079
  688MPD2    H110231   4.599   2.835  16.981 -2.5866  0.6455 -1.0044
  688MPD2    H210232   4.325   2.958  17.278  0.3904 -0.0790  0.8832
  688MPD2    H310233   4.456   2.997  17.065  0.8044 -0.1818  0.2059
  688MPD2     N10234   4.671   2.615  17.073  0.1349 -0.2009  0.4287
  688MPD2    H510235   4.721   2.648  16.991 -0.2142 -0.1508  0.2334
  688MPD2    N110236   4.374   2.744  17.442  0.4552  0.3845  0.2370
  688MPD2    H710237   4.401   2.657  17.486  0.6686 -0.2373 -1.1122
  689TMC3    C110238   4.273   2.763  17.644 -0.0785  0.3638 -0.1367
  689TMC3    C210239   4.216   2.842  17.740 -0.3160 -0.3129  0.2443
  689TMC3    C310240   4.186   2.788   0.116 -1.2294  0.5194  0.4383
  689TMC3    C410241   4.305   2.636  17.660  0.6250 -0.0865 -0.6603
  689TMC3    C510242   4.271   2.590   0.037 -0.7109  0.0346  0.1461
  689TMC3    C610243   4.213   2.661   0.139 -0.6239  0.1021  0.0923
  689TMC3     C10244   4.300   2.825  17.518  0.2842 -0.6033  0.0051
  689TMC3     O10245   4.256   2.935  17.488  0.5437  0.1688 -0.2998
  689TMC3     H10246   4.184   2.943  17.716 -0.4157 -0.1776  0.9444
  689TMC3    H110247   4.355   2.571  17.589 -1.3002 -2.0503 -0.2222
  689TMC3    H210248   4.173   2.619   0.231  1.1811 -1.6641  0.0737
  689TMC3    C710249   4.310   2.453   0.072  0.4509 -0.5402  0.1422
  689TMC3    C810250   4.088   2.857   0.196  0.3395  0.1076  0.1503
  689TMC3    O110251   4.338   2.431   0.188 -0.8130 -0.0389  0.6618
  689TMC3    O210252   3.999   2.919   0.148 -0.0983 -0.1218  0.2721
  690MPD2     C10253   2.505   4.638  15.378  0.1792  0.3348 -0.4932
  690MPD2    C110254   2.416   4.578  15.294 -0.1552  0.3955 -0.3749
  690MPD2    C210255   2.443   4.562  15.161  0.0904  0.0665 -0.3391
  690MPD2    C310256   2.567   4.596  15.108  0.2009  0.3336 -0.1320
  690MPD2    C410257   2.651   4.663  15.196 -0.8900  0.2398  0.1771
  690MPD2    C510258   2.612   4.693  15.328  0.5618  0.2911 -0.5214
  690MPD2     H10259   2.363   4.527  15.096 -0.0394  2.1757 -1.3105
  690MPD2    H110260   2.749   4.703  15.170 -1.0840  1.8278  1.8701
  690MPD2    H210261   2.493   4.649  15.485 -1.4559 -1.4972 -0.4914
  690MPD2    H310262   2.674   0.009  15.401 -0.9859  2.7455 -1.0014
  690MPD2     N10263   2.604   4.572  14.968 -0.5846  0.1685 -0.0000
  690MPD2    H510264   2.529   4.548  14.905 -1.7783  0.2994  1.3719
  690MPD2    N110265   2.285   4.542  15.341 -0.2295  0.1291 -0.2709
  690MPD2    H710266   2.218   4.499  15.278 -1.0598  0.8106  0.1600
  691TMC3    C110267   2.139   4.452  15.510 -0.2767 -0.0414  0.3212
  691TMC3    C210268   2.030   4.436  15.423 -0.0376  0.5671  0.1241
  691TMC3    C310269   1.918   4.399  15.486 -0.4087 -0.3315 -0.6520
  691TMC3    C410270   2.136   4.414  15.638 -0.3008  0.0059 -0.2113
  691TMC3    C510271   2.018   4.365  15.688 -1.1159  0.6638  1.1071
  691TMC3    C610272   1.906   4.361  15.618 -0.2107 -0.6207 -0.7330
  691TMC3     C10273   2.257   4.529  15.473 -0.8035  0.0557  0.6871
  691TMC3     O10274   2.307   4.590  15.570 -0.0897 -0.8229 -0.4093
  691TMC3     H10275   2.041   4.449  15.316  1.9479  0.8431  0.3611
  691TMC3    H110276   2.223   4.432  15.699 -0.1646 -1.9006  0.1787
  691TMC3    H210277   1.816   4.314  15.655 -0.3650 -0.9521 -1.5287
  691TMC3    C710278   2.038   4.258  15.785  0.0057  0.4422  0.7406
  691TMC3    C810279   1.809   4.379  15.393  0.6536  0.3574  0.7198
  691TMC3    O110280   2.137   4.281  15.858  0.4104 -0.3997 -0.2133
  691TMC3    O210281   1.847   4.363  15.277  0.2375  0.6245 -0.4373
  692TMC3    C110282   3.556   0.399  15.505  0.0029 -1.0836  0.0637
  692TMC3    C210283   3.658   0.458  15.565 -0.4906  0.0157  0.1074
  692TMC3    C310284   3.752   0.380  15.628 -0.3252  0.2959 -0.3126
  692TMC3    C410285   3.555   0.265  15.477  0.0799  0.0573 -0.2639
  692TMC3    C510286   3.666   0.191  15.519  0.2780 -0.7394 -0.3376
  692TMC3    C610287   3.758   0.246  15.603 -0.2172  0.0131 -0.2980
  692TMC3     C10288   3.440   0.478  15.478  0.5261 -0.4349  0.7528
  692TMC3     O10289   3.330   0.427  15.494  0.0154  0.0909  0.2073
  692TMC3     H10290   3.647   0.557  15.608 -0.9539 -0.1650  0.4098
  692TMC3    H110291   3.467   0.212  15.443 -3.3733  5.2109  0.7089
  692TMC3    H210292   3.857   0.201  15.607 -0.6677 -0.9576 -0.0822
  692TMC3    C710293   3.672   0.049  15.477 -0.0056  0.3756  0.1208
  692TMC3    C810294   3.880   0.444  15.647  0.6132  0.4789  0.1672
  692TMC3    O110295   3.601   0.028  15.383  0.6867  0.6338  0.1844
  692TMC3    O210296   3.967   0.383  15.709 -0.4514 -0.2558  0.2903
  693MPD2     C10297   2.956   3.254  10.425 -0.8085  1.5071  0.1089
  693MPD2    C110298   3.003   3.137  10.477  0.4287 -0.0098  0.4470
  693MPD2    C210299   3.126   3.137  10.546 -0.4158  0.5334  0.0247
  693MPD2    C310300   3.194   3.258  10.562 -0.1409 -0.4334 -0.3324
  693MPD2    C410301   3.141   3.372  10.504  0.9613 -0.3383 -0.1263
  693MPD2    C510302   3.022   3.368  10.443  0.2524  0.3501 -0.2398
  693MPD2     H10303   3.167   3.047  10.590 -2.7221  0.0465  1.1728
  693MPD2    H110304   3.201   3.462  10.504  0.1306  0.2033 -1.5319
  693MPD2    H210305   2.862   3.266  10.371 -0.7867 -1.8464 -0.6838
  693MPD2    H310306   2.974   3.459  10.409 -1.3173 -0.0713  0.8811
  693MPD2     N10307   3.316   3.268  10.625 -0.0575 -0.3391  0.1341
  693MPD2    H510308   3.342   3.362  10.656 -2.1604  0.1452  0.3963
  693MPD2    N110309   2.925   3.020  10.471 -0.1569 -0.3359 -0.0742
  693MPD2    H710310   2.956   2.942  10.528  1.0933  0.0371 -0.2426
  694TMC3    C110311   2.740   2.883  10.434  0.0042  0.0526 -0.1068
  694TMC3    C210312   2.671   2.816  10.336 -0.3004  0.2597  0.6076
  694TMC3    C310313   2.618   2.690  10.370 -0.3786  0.7726 -0.5465
  694TMC3    C410314   2.748   2.837  10.563  0.7202  0.0317 -0.0145
  694TMC3    C510315   2.708   2.712  10.589  0.7219  0.2374 -0.3904
  694TMC3    C610316   2.637   2.633  10.500 -0.2865  1.2275 -0.4006
  694TMC3     C10317   2.817   2.998  10.389  0.1766 -0.9182 -0.1854
  694TMC3     O10318   2.802   3.041  10.274  0.7610 -0.7290  0.2167
  694TMC3     H10319   2.658   2.857  10.236 -1.4800  0.7034  0.9549
  694TMC3    H110320   2.797   2.900  10.637 -0.5543  1.8565 -0.7214
  694TMC3    H210321   2.606   2.531  10.521 -1.6042  1.7104  0.0298
  694TMC3    C710322   2.722   2.676  10.734  0.2823  0.3298  0.6233
  694TMC3    C810323   2.518   2.623  10.277  0.2996  0.5850  0.6523
  694TMC3    O110324   2.736   2.773  10.808 -0.2587  0.8717  0.2214
  694TMC3    O210325   2.432   2.558  10.337  0.2999 -0.5822  0.1799
  695MPD2     C10326   3.950   4.676  13.678 -0.0541 -0.3454  0.3760
  695MPD2    C110327   3.891   4.633  13.797 -0.1089 -0.0798 -0.6581
  695MPD2    C210328   3.767   4.677  13.828 -0.0027 -0.3795  0.4901
  695MPD2    C310329   3.693   0.024  13.751 -0.1500 -0.0084 -0.5286
  695MPD2    C410330   3.743   0.053  13.623 -0.8279  0.0530  0.5238
  695MPD2    C510331   3.877   0.021  13.597 -0.1378  0.2051  0.2627
  695MPD2     H10332   3.725   4.670  13.928 -0.7138  1.4486  0.3216
  695MPD2    H110333   3.681   0.109  13.554 -0.7061 -1.3468 -0.7223
  695MPD2    H210334   4.047   4.643  13.643  0.5066  2.8081 -1.0971
  695MPD2    H310335   3.926   0.054  13.506  0.5284 -0.0307  0.5304
  695MPD2     N10336   3.569   0.060  13.801  0.0129 -0.0025 -0.4109
  695MPD2    H510337   3.552   0.032  13.897 -0.9415  1.4709 -0.1419
  695MPD2    N110338   3.955   4.548  13.893 -0.3281  0.4345 -0.5982
  695MPD2    H710339   3.906   4.536  13.981  0.2287  1.5337 -0.1433
  696TMC3    C110340   3.354   0.154  13.798  0.0308  0.2433 -0.5042
  696TMC3    C210341   3.351   0.144  13.936 -0.0912  0.1717 -0.3038
  696TMC3    C310342   3.238   0.196  13.993 -0.1014  1.1693 -0.8735
  696TMC3    C410343   3.254   0.194  13.716  0.1910 -0.4999 -0.4826
  696TMC3    C510344   3.142   0.225  13.783 -0.0119  1.0065 -0.1827
  696TMC3    C610345   3.135   0.232  13.918  0.3995 -0.5206 -0.4101
  696TMC3     C10346   3.480   0.134  13.729  0.1861 -0.2436  0.2159
  696TMC3     O10347   3.484   0.187  13.616  0.4707 -0.3150  0.4519
  696TMC3     H10348   3.424   0.093  13.998 -0.1435  2.5781  1.7294
  696TMC3    H110349   3.264   0.207  13.609  0.3912 -2.7662 -0.7452
  696TMC3    H210350   3.046   0.274  13.964  0.8024 -1.2575  1.0664
  696TMC3    C710351   3.056   0.326  13.734  0.4473  0.9745 -0.5507
  696TMC3    C810352   3.272   0.276  14.110 -0.4378  0.9475 -0.7028
  696TMC3    O110353   2.948   0.286  13.695  0.8347 -0.2122  0.4366
  696TMC3    O210354   3.389   0.302  14.126  0.0088  0.6753 -0.0826
  697MPD2     C10355   3.640   2.263  15.590  0.2156  0.0940 -0.5950
  697MPD2    C110356   3.579   2.217  15.479 -0.1862 -0.4522  0.5779
  697MPD2    C210357   3.577   2.306  15.370 -0.0875  0.3398  0.4510
  697MPD2    C310358   3.648   2.424  15.368  0.5168  0.8597 -0.9567
  697MPD2    C410359   3.694   2.471  15.490 -0.4924  0.0990 -0.0662
  697MPD2    C510360   3.698   2.384  15.596 -0.1569  0.0043 -0.3967
  697MPD2     H10361   3.528   2.265  15.282  0.2188 -0.0161  0.4452
  697MPD2    H110362   3.728   2.572  15.508  0.4853  0.1181 -1.9077
  697MPD2    H210363   3.641   2.202  15.680  0.3656  1.3051  0.2404
  697MPD2    H310364   3.737   2.414  15.693 -2.0063  0.1002  0.3130
  697MPD2     N10365   3.650   2.496  15.243 -0.1751  0.3442 -0.7038
  697MPD2    H510366   3.604   2.455  15.162 -1.3582  1.4317 -0.5817
  697MPD2    N110367   3.514   2.090  15.468  0.1214  0.2835 -0.0170
  697MPD2    H710368   3.478   2.061  15.378 -0.9717 -0.3895  0.6335
  698TMC3    C110369   3.729   2.640  15.065 -0.4111 -0.1256 -0.0929
  698TMC3    C210370   3.841   2.707  15.029 -0.1059 -0.2503 -0.3293
  698TMC3    C310371   3.902   2.681  14.907  0.2738 -0.1049  0.2331
  698TMC3    C410372   3.667   2.556  14.979  0.2399  0.4091 -0.0363
  698TMC3    C510373   3.723   2.540  14.860 -0.1129 -0.0778 -0.9784
  698TMC3    C610374   3.842   2.600  14.821 -0.3884 -0.6254 -0.2497
  698TMC3     C10375   3.716   2.611  15.209 -0.1738 -0.0320  0.3880
  698TMC3     O10376   3.779   2.686  15.279  0.2266  0.0457  0.2679
  698TMC3     H10377   3.903   2.752  15.106  0.8046 -1.8887 -0.1087
  698TMC3    H110378   3.566   2.525  15.003  0.6097  2.2775  3.8619
  698TMC3    H210379   3.884   2.581  14.722  0.1948  1.9998 -0.4857
  698TMC3    C710380   3.635   2.491  14.763  0.1017 -0.8347  0.1110
  698TMC3    C810381   4.040   2.721  14.891 -0.3164 -0.4952  0.6181
  698TMC3    O110382   3.515   2.487  14.790 -0.1177 -0.1024 -0.0032
  698TMC3    O210383   4.099   2.753  14.992  0.7202 -0.1554  0.2822
  699TMC3    C110384   3.421   0.553  13.105 -0.1410  0.4696 -0.7795
  699TMC3    C210385   3.509   0.450  13.144  0.2086 -0.1338  0.6775
  699TMC3    C310386   3.466   0.371  13.251  0.6603 -0.2339 -1.3938
  699TMC3    C410387   3.296   0.569  13.163  0.3503 -0.4269 -0.4575
  699TMC3    C510388   3.262   0.494  13.271  1.0525  0.3666 -0.9897
  699TMC3    C610389   3.346   0.397  13.315  0.1894 -0.6310 -0.5739
  699TMC3     C10390   3.445   0.618  12.979  0.3271 -0.5082  0.2109
  699TMC3     O10391   3.343   0.628  12.910 -0.3657  0.2539  0.4803
  699TMC3     H10392   3.586   0.419  13.073 -2.3105  2.0833 -3.0453
  699TMC3    H110393   3.229   0.647  13.128 -2.2638 -2.1944  0.6991
  699TMC3    H210394   3.323   0.327  13.395 -1.7042 -0.0867 -0.6469
  699TMC3    C710395   3.121   0.462  13.308 -0.0817  0.2685 -0.2104
  699TMC3    C810396   3.519   0.238  13.254  0.1565 -0.3547 -0.2907
  699TMC3    O110397   3.108   0.351  13.356 -0.0190 -0.7002 -0.1678
  699TMC3    O210398   3.444   0.149  13.293  0.4987 -0.6157  0.1995
  700TMC3    C110399   2.869   3.150  17.169 -0.2970 -1.2481  0.3460
  700TMC3    C210400   2.923   3.021  17.184 -0.0831 -0.2290 -0.6222
  700TMC3    C310401   3.031   3.011  17.268 -0.1941  0.4118  1.0698
  700TMC3    C410402   2.899   3.258  17.254  0.3406 -0.0128 -0.0962
  700TMC3    C510403   3.003   3.233  17.347 -0.2506 -0.1106  1.0111
  700TMC3    C610404   3.077   3.116  17.349 -0.3894 -0.2150 -0.2160
  700TMC3     C10405   2.761   3.175  17.072 -0.2465 -0.2811  0.1477
  700TMC3     O10406   2.661   3.107  17.072 -0.4714 -0.1587  0.0643
  700TMC3     H10407   2.906   2.935  17.121 -0.8171  0.8102 -1.8388
  700TMC3    H110408   2.846   3.352  17.243 -0.3876 -0.1797  1.8995
  700TMC3    H210409   3.159   3.101  17.418 -2.7421  0.2028  2.6867
  700TMC3    C710410   3.030   3.340  17.450 -0.4402 -0.0396  0.5939
  700TMC3    C810411   3.111   2.892  17.247  0.0614 -0.8804 -0.9056
  700TMC3    O110412   3.113   3.314  17.538  0.0882 -0.8758  0.2215
  700TMC3    O210413   3.047   2.787  17.240  0.1707 -0.1046 -0.4002
  701TMC3    C110414   2.459   1.791  15.634  0.0007 -0.5544  0.1723
  701TMC3    C210415   2.461   1.690  15.540  0.2196  0.3277 -0.0246
  701TMC3    C310416   2.567   1.686  15.448  0.2244  0.9092 -0.2858
  701TMC3    C410417   2.560   1.886  15.643  0.3410 -0.1211 -0.2759
  701TMC3    C510418   2.663   1.875  15.554 -0.1833 -0.0509 -0.8928
  701TMC3    C610419   2.660   1.783  15.452 -0.7302 -0.3181 -0.4123
  701TMC3     C10420   2.377   1.787  15.751  0.0452  0.0371  0.0188
  701TMC3     O10421   2.403   1.878  15.827  0.3736 -0.0097 -0.2143
  701TMC3     H10422   2.385   1.612  15.539 -1.4741  1.9710  1.3058
  701TMC3    H110423   2.540   1.981  15.690  1.3333 -0.1889  0.2733
  701TMC3    H210424   2.748   1.790  15.389  0.4388  1.7069  1.4041
  701TMC3    C710425   2.741   1.994  15.541 -0.5694  0.3787 -0.8252
  701TMC3    C810426   2.570   1.594  15.333  0.0103  0.1574 -0.1073
  701TMC3    O110427   2.765   2.037  15.425 -0.1400  0.1137  0.0611
  701TMC3    O210428   2.672   1.583  15.268 -0.0929 -0.0601 -0.0211
  702MPD2     C10429   1.923   3.125   9.939  0.0341 -0.5669 -0.4851
  702MPD2    C110430   2.008   3.187  10.030 -1.5089  0.8785 -0.5482
  702MPD2    C210431   2.084   3.295   9.986 -0.0341 -0.4464 -0.5323
  702MPD2    C310432   2.076   3.337   9.856  0.1502 -0.7445  0.0820
  702MPD2    C410433   2.001   3.267   9.771 -0.0735 -0.8519  0.9432
  702MPD2    C510434   1.923   3.164   9.808  0.0135 -0.6376  0.8381
  702MPD2     H10435   2.134   3.351  10.064  3.3576 -0.2324 -2.8650
  702MPD2    H110436   1.991   3.302   9.669 -1.3943 -1.6059  0.7978
  702MPD2    H210437   1.848   3.050   9.962  1.0074 -1.4724 -0.2331
  702MPD2    H310438   1.857   3.112   9.739 -1.1407  0.6754  0.9664
  702MPD2     N10439   2.137   3.448   9.803 -0.5408 -1.1639 -0.4172
  702MPD2    H510440   2.106   3.482   9.713  0.0474 -2.6838 -1.2098
  702MPD2    N110441   2.021   3.157  10.169  0.2855 -0.4293  0.4709
  702MPD2    H710442   2.080   3.223  10.218 -0.7468  2.2477 -1.8407
  703TMC3    C110443   2.272   3.633   9.809 -0.3916  0.0194  0.3292
  703TMC3    C210444   2.160   3.713   9.769  0.4142  0.6127  0.5241
  703TMC3    C310445   2.193   3.842   9.729 -0.3886 -0.3642  0.1235
  703TMC3    C410446   2.397   3.683   9.841  0.3577 -0.2068  0.8178
  703TMC3    C510447   2.414   3.813   9.805  0.1070 -0.4296 -0.3463
  703TMC3    C610448   2.320   3.893   9.736 -0.0552 -0.7153  0.2766
  703TMC3     C10449   2.236   3.512   9.868  0.0748  0.2360  0.9202
  703TMC3     O10450   2.316   3.453   9.940  0.3869 -0.7550  0.0585
  703TMC3     H10451   2.061   3.671   9.771 -0.0125  1.6152  0.4214
  703TMC3    H110452   2.475   3.616   9.874 -0.9039 -2.0165  0.1329
  703TMC3    H210453   2.344   3.998   9.722 -0.7357 -0.5094  0.6722
  703TMC3    C710454   2.544   3.875   9.838 -0.0789 -0.5755 -0.2465
  703TMC3    C810455   2.085   3.936   9.713 -0.0181  0.3675 -0.1172
  703TMC3    O110456   2.573   3.980   9.783  0.4700  0.0567  0.0871
  703TMC3    O210457   2.116   4.051   9.682  0.1148  0.1803  0.2815
  704TMC3    C110458   4.089   1.751  12.225  0.2795 -0.0095 -0.3274
  704TMC3    C210459   4.212   1.782  12.173 -0.2404  0.0495 -0.7132
  704TMC3    C310460   4.313   1.785  12.269 -0.0260  0.3286 -0.9092
  704TMC3    C410461   4.069   1.695  12.347  0.2521 -0.2573  0.4901
  704TMC3    C510462   4.180   1.681  12.428 -0.5068 -0.3653 -0.8215
  704TMC3    C610463   4.298   1.738  12.396 -0.5510  0.1375  0.3238
  704TMC3     C10464   3.970   1.794  12.160  0.0017  0.0708 -0.3666
  704TMC3     O10465   3.870   1.783  12.235 -0.4407 -0.5255  0.2208
  704TMC3     H10466   4.228   1.820  12.073  0.1909  1.3492 -0.1548
  704TMC3    H110467   3.974   1.647  12.366 -0.2360  0.0412 -1.2622
  704TMC3    H210468   4.379   1.739  12.469 -1.4029 -0.9355  1.2801
  704TMC3    C710469   4.182   1.597  12.544 -0.7549  0.2168 -0.6445
  704TMC3    C810470   4.438   1.814  12.214  0.1055 -0.4077 -0.1432
  704TMC3    O110471   4.291   1.571  12.594  0.0134  0.0570 -0.1768
  704TMC3    O210472   4.448   1.792  12.093  0.6612  0.3517 -0.3071
  705MPD2     C10473   3.857   0.405  16.822  0.5901  0.1715  0.0018
  705MPD2    C110474   3.826   0.505  16.731  0.3435 -0.7129  0.5496
  705MPD2    C210475   3.707   0.577  16.739  0.2346  0.1837 -0.4612
  705MPD2    C310476   3.618   0.543  16.839  0.6701 -0.1101 -0.3442
  705MPD2    C410477   3.646   0.438  16.923 -0.5105 -1.2014 -0.1905
  705MPD2    C510478   3.775   0.381  16.928  0.0015  0.3719  0.2818
  705MPD2     H10479   3.686   0.656  16.668  2.2062  0.1377 -1.0797
  705MPD2    H110480   3.564   0.400  16.983 -1.3678 -0.2916 -0.7806
  705MPD2    H210481   3.962   0.378  16.824  0.7175  0.7231  0.6827
  705MPD2    H310482   3.805   0.300  16.994 -1.6924 -0.3411  0.1824
  705MPD2     N10483   3.484   0.586  16.848 -0.1829  0.0909 -0.1206
  705MPD2    H510484   3.425   0.544  16.919 -1.5200  0.3786 -1.0490
  705MPD2    N110485   3.907   0.532  16.618 -0.1674  0.0193 -0.0114
  705MPD2    H710486   3.868   0.589  16.543 -1.5680  0.3297  0.9496
  706TMC3    C110487   4.193   0.381  16.264  1.0651  0.8804  0.2677
  706TMC3    C210488   4.203   0.499  16.202 -0.2440  0.6748  0.4217
  706TMC3    C310489   4.149   0.608  16.265 -0.0706  0.3091  0.3005
  706TMC3    C410490   4.137   0.371  16.383 -0.3600 -0.4837 -0.7397
  706TMC3    C510491   4.075   0.478  16.451 -0.2244 -0.2912 -0.4653
  706TMC3    C610492   4.073   0.598  16.381 -0.4838  0.1791 -0.5364
  706TMC3     C10493   4.284   0.278  16.232  0.1991  0.6606  0.1801
  706TMC3     O10494   4.328   0.216  16.329  0.4720 -0.0568  0.3631
  706TMC3     H10495   4.265   0.516  16.115 -0.1603 -1.7086  0.0054
  706TMC3    H110496   4.147   0.274  16.431  0.2893 -0.0091  0.0864
  706TMC3    H210497   4.036   0.692  16.421  1.8205  0.8279  0.0770
  706TMC3    C710498   4.019   0.454  16.585 -0.5460 -0.2713 -0.6406
  706TMC3    C810499   4.180   0.740  16.221 -0.2885 -0.4557 -0.4394
  706TMC3    O110500   4.062   0.354  16.642  0.0928  0.0344  0.1969
  706TMC3    O210501   4.107   0.836  16.238 -0.1909 -0.3351  0.1034
  707TMC3    C110502   0.914   4.081   0.140  0.4478 -0.7994  0.3728
  707TMC3    C210503   0.812   4.152   0.187  0.5400  0.7938 -0.4099
  707TMC3    C310504   0.684   4.115   0.165  0.1471  0.8427  0.2271
  707TMC3    C410505   0.892   3.974   0.058  0.2662  0.7930 -0.0469
  707TMC3    C510506   0.763   3.928   0.037 -0.4492 -0.2287  0.0422
  707TMC3    C610507   0.659   4.002   0.090 -0.1582  0.2979  0.7920
  707TMC3     C10508   1.047   4.078   0.204  0.1480 -0.0955 -0.4094
  707TMC3     O10509   1.136   4.021   0.140  0.3202  0.6780 -0.0343
  707TMC3     H10510   0.829   4.243   0.243  1.2343  1.2199 -1.3132
  707TMC3    H110511   0.978   3.918   0.023  1.2934  0.9402  2.2357
  707TMC3    H210512   0.556   3.980   0.066  0.7346 -2.8175 -0.1911
  707TMC3    C710513   0.734   3.805  17.705 -0.5890  0.5863  0.3465
  707TMC3    C810514   0.623   4.115   0.296 -1.2297 -0.2151  0.3447
  707TMC3    O110515   0.614   3.786  17.684  0.3197 -0.4425  0.0225
  707TMC3    O210516   0.521   4.185   0.309  0.0143  0.0692  0.4812
  708MPD2     C10517   2.168   2.889  14.054  0.1152  0.1380  0.4659
  708MPD2    C110518   2.101   2.983  14.127  0.5558  0.0868 -0.7478
  708MPD2    C210519   2.151   3.021  14.248  0.2087 -0.2077  0.3344
  708MPD2    C310520   2.279   2.985  14.285 -0.7072  0.4420 -0.0842
  708MPD2    C410521   2.354   2.914  14.191 -0.2215 -0.2772 -0.3327
  708MPD2    C510522   2.296   2.871  14.083 -0.2317 -0.2176  0.0568
  708MPD2     H10523   2.094   3.084  14.317 -2.8947 -1.2855 -1.2272
  708MPD2    H110524   2.458   2.890  14.210  0.1181  1.1901 -0.3394
  708MPD2    H210525   2.138   2.864  13.952  1.5460  0.6018 -0.0698
  708MPD2    H310526   2.341   2.796  14.019  0.0685  0.2468 -0.2743
  708MPD2     N10527   2.324   3.049  14.406 -0.5346  0.1908 -0.6251
  708MPD2    H510528   2.253   3.104  14.455 -0.3714 -0.3473  0.2104
  708MPD2    N110529   1.973   3.030  14.079  0.3531 -0.3692  0.0729
  708MPD2    H710530   1.943   2.988  13.991 -1.0829 -0.6855  0.7301
  709TMC3    C110531   1.754   3.142  14.086  0.4444 -0.3578  0.2089
  709TMC3    C210532   1.754   3.216  13.974 -0.1054 -0.2870  0.8333
  709TMC3    C310533   1.684   3.334  13.968 -0.5006  0.3242  0.1457
  709TMC3    C410534   1.681   3.185  14.196 -0.1473  0.8011  0.2691
  709TMC3    C510535   1.616   3.304  14.188 -0.3308  0.3835  0.8492
  709TMC3    C610536   1.608   3.379  14.074 -0.6841 -1.1335  0.1818
  709TMC3     C10537   1.884   3.117  14.142 -0.2994  0.2653 -0.2354
  709TMC3     O10538   1.907   3.199  14.230  0.5974  0.7523  0.6808
  709TMC3     H10539   1.835   3.202  13.904  1.0459  1.9260  1.7348
  709TMC3    H110540   1.669   3.118  14.280 -1.3829 -1.1001 -1.4152
  709TMC3    H210541   1.588   3.486  14.078  4.6134 -0.1220  0.0284
  709TMC3    C710542   1.615   3.385  14.310  0.6622  0.4992 -0.0502
  709TMC3    C810543   1.761   3.439  13.899 -0.6477  0.4293 -0.5784
  709TMC3    O110544   1.558   3.494  14.314 -0.0642  0.2452 -0.1177
  709TMC3    O210545   1.777   3.541  13.965  0.0318 -0.1394 -0.2144
  710TMC3    C110546   4.023   0.221  17.627 -0.3953  0.2887 -0.6266
  710TMC3    C210547   4.117   0.203  17.527 -0.3573 -0.1585 -0.0162
  710TMC3    C310548   4.244   0.165  17.566 -0.0643  0.8144 -0.0866
  710TMC3    C410549   4.047   0.181   0.010 -0.3002  0.3831  0.2291
  710TMC3    C510550   4.176   0.143   0.046  0.0969  0.6109  0.2279
  710TMC3    C610551   4.272   0.141  17.697 -0.2260 -0.1166  0.3732
  710TMC3     C10552   3.885   0.221  17.580  0.3641 -0.2822  0.7888
  710TMC3     O10553   3.855   0.166  17.473  0.1053  0.3572 -0.0187
  710TMC3     H10554   4.098   0.239  17.427 -1.5866  1.6896  0.8869
  710TMC3    H110555   3.972   0.181   0.089  0.7031 -1.1568  1.1828
  710TMC3    H210556   4.373   0.118  17.729 -0.3268  2.7045  2.7005
  710TMC3    C710557   4.205   0.119   0.188 -0.0452 -0.0134  0.3945
  710TMC3    C810558   4.338   0.132  17.467  0.3864  0.6737 -0.1053
  710TMC3    O110559   4.112   0.084   0.262 -0.2450  0.0420 -0.2529
  710TMC3    O210560   4.328   0.198  17.361 -0.5163  0.1710  0.0957
  711TMC3    C110561   3.105   1.135  15.046  0.0861 -0.3616 -0.0677
  711TMC3    C210562   3.144   1.226  15.139 -0.4020 -0.2847  0.1711
  711TMC3    C310563   3.262   1.204  15.209  0.1094 -1.3469  0.7984
  711TMC3    C410564   3.181   1.019  15.033 -0.1036 -0.3122 -0.5342
  711TMC3    C510565   3.274   0.992  15.129 -0.1473  0.9806 -0.2451
  711TMC3    C610566   3.322   1.083  15.216 -0.3729  0.0924  0.3251
  711TMC3     C10567   2.964   1.120  15.018 -0.0818 -0.6347 -0.5095
  711TMC3     O10568   2.917   1.006  14.997 -0.1590 -0.0782 -0.2702
  711TMC3     H10569   3.079   1.309  15.163 -0.4749 -0.9232  2.2014
  711TMC3    H110570   3.154   0.957  14.948 -0.3104 -0.5247 -0.3138
  711TMC3    H210571   3.392   1.048  15.290  0.8308 -1.1924 -1.4194
  711TMC3    C710572   3.319   0.856  15.123  0.0089 -0.8435  0.0755
  711TMC3    C810573   3.309   1.299  15.312  0.1240  0.0356 -0.0642
  711TMC3    O110574   3.427   0.827  15.167 -0.5523 -0.0627  0.1260
  711TMC3    O210575   3.237   1.393  15.341  0.1229 -0.7885  0.1239
  712MPD2     C10576   4.496   1.600  13.897  0.3689  0.3586 -0.2334
  712MPD2    C110577   4.402   1.652  13.810 -0.4656  0.0894 -0.1703
  712MPD2    C210578   4.422   1.769  13.740 -0.9046  0.8310  0.6096
  712MPD2    C310579   4.542   1.837  13.751 -0.2208  0.1606  0.9657
  712MPD2    C410580   4.629   1.793  13.849 -0.3205 -0.4741  0.8111
  712MPD2    C510581   4.599   1.682  13.914  0.0255  0.3666 -0.1320
  712MPD2     H10582   4.353   1.789  13.659  0.8916  1.3969 -0.7885
  712MPD2    H110583   4.723   1.844  13.867 -1.3327  0.9968  2.0006
  712MPD2    H210584   4.494   1.508  13.953  1.0314  1.2775  1.3208
  712MPD2    H310585   4.677   1.645  13.980 -0.4964 -1.0108 -0.2855
  712MPD2     N10586   4.576   1.952  13.666 -0.4823  0.2040  0.3814
  712MPD2    H510587   4.668   1.993  13.680 -1.2522  1.7221  1.0352
  712MPD2    N110588   4.285   1.581  13.771 -0.3124  0.1034  0.3769
  712MPD2    H710589   4.228   1.630  13.704  0.3813  1.1642  0.5726
  713TMC3    C110590   4.588   2.081  13.487  0.8047 -0.4518 -0.6279
  713TMC3    C210591   4.726   2.072  13.490  0.3736 -0.4149  0.1090
  713TMC3    C310592   0.063   2.158  13.418  0.7734  0.6387  0.5824
  713TMC3    C410593   4.528   2.184  13.417 -0.4117 -0.6536 -0.5105
  713TMC3    C510594   4.609   2.269  13.339  0.4226  0.1208 -0.0564
  713TMC3    C610595   0.009   2.256  13.335 -0.4279 -0.4411  0.2059
  713TMC3     C10596   4.504   1.995  13.559  0.3485  0.5123 -0.3824
  713TMC3     O10597   4.390   1.971  13.526 -0.1582 -0.0140  0.3502
  713TMC3     H10598   0.031   1.992  13.549 -2.7594 -2.1957 -0.0635
  713TMC3    H110599   4.420   2.184  13.412 -0.3074 -0.5718 -2.5771
  713TMC3    H210600   0.068   2.329  13.281 -2.3230 -0.0420 -1.3280
  713TMC3    C710601   4.555   2.358  13.234  0.0047  0.1504  0.0642
  713TMC3    C810602   0.211   2.140  13.416  0.3567  0.6000 -0.2872
  713TMC3    O110603   4.627   2.406  13.151 -0.0534 -0.3746 -0.1768
  713TMC3    O210604   0.269   2.141  13.307  0.5258  0.5043  0.2254
  714MPD2     C10605   2.232   1.372   0.851 -0.4047  0.0523 -0.2340
  714MPD2    C110606   2.244   1.231   0.844 -0.3986  0.0406 -0.7187
  714MPD2    C210607   2.120   1.158   0.840  0.2859  0.3946  0.1038
  714MPD2    C310608   1.993   1.216   0.840 -0.5411 -0.0515  0.2918
  714MPD2    C410609   1.989   1.353   0.845 -0.3477  0.8312  0.0914
  714MPD2    C510610   2.107   1.430   0.854  0.1567  0.7716 -0.2990
  714MPD2     H10611   2.116   1.051   0.825 -0.4428  0.6922 -1.8329
  714MPD2    H110612   1.901   1.414   0.826 -1.0345  0.4944  2.1309
  714MPD2    H210613   2.320   1.434   0.841 -0.1429 -0.1385  0.9072
  714MPD2    H310614   2.099   1.538   0.844  0.0139  1.0844  3.2334
  714MPD2     N10615   1.880   1.133   0.841 -0.2546 -0.5497 -0.7876
  714MPD2    H510616   1.889   1.033   0.853 -0.4933 -0.3590  0.9274
  714MPD2    N110617   2.377   1.176   0.836 -0.0717  0.1751 -0.2989
  714MPD2    H710618   2.446   1.246   0.862 -0.3593  0.4248 -0.2122
  715TMC3    C110619   2.555   1.020   0.822 -0.2256  0.3379  0.6851
  715TMC3    C210620   2.588   0.889   0.818 -0.0270 -0.6302  0.3506
  715TMC3    C310621   2.723   0.863   0.827  1.5907 -0.4503 -0.6746
  715TMC3    C410622   2.642   1.126   0.822 -0.1796 -0.6966  0.0609
  715TMC3    C510623   2.777   1.093   0.834 -0.0017  0.2951 -0.3326
  715TMC3    C610624   2.819   0.959   0.840  0.2611  0.3051 -0.3779
  715TMC3     C10625   2.412   1.046   0.815 -0.0067  0.1666 -0.4611
  715TMC3     O10626   2.334   0.957   0.783  0.5794  0.4604 -0.1360
  715TMC3     H10627   2.507   0.820   0.801 -0.5860 -0.1242  0.9834
  715TMC3    H110628   2.601   1.223   0.798 -2.4844 -1.8141 -0.5534
  715TMC3    H210629   2.918   0.941   0.881  0.8909  1.7782 -1.2738
  715TMC3    C710630   2.867   1.196   0.885  0.1935  0.3535 -0.3263
  715TMC3    C810631   2.759   0.723   0.826  0.5364  0.6372 -0.0708
  715TMC3    O110632   2.988   1.165   0.899 -0.0341 -0.1182 -0.2729
  715TMC3    O210633   2.659   0.649   0.822  0.1661 -0.2538  0.0026
  716MPD2     C10634   1.229   3.382   9.406 -0.2982 -0.5126 -0.5479
  716MPD2    C110635   1.146   3.399   9.293  0.1178  0.0125  0.6474
  716MPD2    C210636   1.162   3.306   9.190 -0.0457 -0.3446 -0.0617
  716MPD2    C310637   1.273   3.224   9.177  0.0830 -0.1748 -1.1529
  716MPD2    C410638   1.353   3.226   9.280 -0.2895 -0.2569  0.5970
  716MPD2    C510639   1.333   3.302   9.391 -0.1990 -0.5569  0.2276
  716MPD2     H10640   1.089   3.308   9.110 -0.2287  0.4109  0.1281
  716MPD2    H110641   1.450   3.178   9.281  0.5754  1.5403  1.0190
  716MPD2    H210642   1.216   3.442   9.495 -0.8271  0.8065 -1.5121
  716MPD2    H310643   1.415   3.307   9.462 -0.6660 -1.9202  0.8628
  716MPD2     N10644   1.284   3.134   9.068  0.1254 -0.4686 -0.4092
  716MPD2    H510645   1.203   3.117   9.010 -1.4495  2.7587  0.8448
  716MPD2    N110646   1.047   3.497   9.307 -0.3162  0.4133  0.3700
  716MPD2    H710647   1.043   3.558   9.388 -0.4757  0.9482 -0.0427
  717TMC3    C110648   1.341   2.937   8.964  0.6886  0.0904  0.1775
  717TMC3    C210649   1.208   2.919   8.920 -0.1219 -1.1392  0.4616
  717TMC3    C310650   1.192   2.805   8.840  0.1062  0.4966 -0.0083
  717TMC3    C410651   1.437   2.840   8.936  0.2676  0.2493 -0.2158
  717TMC3    C510652   1.405   2.725   8.871 -0.2746  0.1144 -0.2662
  717TMC3    C610653   1.279   2.706   8.825  0.3796  0.2611 -0.2398
  717TMC3     C10654   1.383   3.046   9.052 -0.4343 -0.4421 -0.6299
  717TMC3     O10655   1.488   3.033   9.108 -0.2617 -0.1721 -0.4003
  717TMC3     H10656   1.116   2.962   8.957  0.0754  0.8508 -1.3526
  717TMC3    H110657   1.541   2.854   8.965  0.6698 -1.9206 -0.6255
  717TMC3    H210658   1.256   2.618   8.767  0.4126 -0.7487  1.2709
  717TMC3    C710659   1.493   2.616   8.860  0.0449  0.0879  0.3662
  717TMC3    C810660   1.056   2.761   8.823  0.0923  0.7753 -1.1103
  717TMC3    O110661   1.458   2.523   8.786 -0.3639 -0.2789 -0.2530
  717TMC3    O210662   1.038   2.642   8.831  0.4387  0.0396  0.1246
  718MPD2     C10663   1.232   1.560  12.197 -0.1680  0.6690 -0.9016
  718MPD2    C110664   1.211   1.696  12.199 -0.8544  0.4788  0.6030
  718MPD2    C210665   1.144   1.763  12.294 -0.6392  0.2580  1.2137
  718MPD2    C310666   1.072   1.685  12.386  0.0601 -0.2710  0.9376
  718MPD2    C410667   1.084   1.547  12.387  0.5115 -0.0757 -0.1160
  718MPD2    C510668   1.162   1.478  12.290  0.0543  0.0165  0.4169
  718MPD2     H10669   1.157   1.870  12.307 -2.4192  0.6735 -0.3859
  718MPD2    H110670   1.017   1.481  12.440 -0.1017  1.0723  0.5413
  718MPD2    H210671   1.295   1.508  12.126  1.0936  0.5262  0.3005
  718MPD2    H310672   1.168   1.370  12.298  1.4350  0.0480 -0.1777
  718MPD2     N10673   0.970   1.762  12.450  0.6755  0.7033 -0.0113
  718MPD2    H510674   0.970   1.862  12.436 -2.8975  0.7645  0.3777
  718MPD2    N110675   1.265   1.767  12.086  0.3279 -0.3008 -0.4802
  718MPD2    H710676   1.317   1.718  12.014  2.1005  2.0654 -0.8139
  719TMC3    C110677   1.279   1.943  11.920  0.0388  0.0384  0.1731
  719TMC3    C210678   1.180   2.015  11.864  0.3080  0.3468  0.3834
  719TMC3    C310679   1.197   2.139  11.811 -0.5499 -0.1300 -0.2578
  719TMC3    C410680   1.404   1.995  11.914  0.0935 -0.2722  0.5312
  719TMC3    C510681   1.420   2.123  11.868  0.1619 -0.3557 -0.2576
  719TMC3    C610682   1.319   2.192  11.813  0.1105  0.7339  0.2993
  719TMC3     C10683   1.237   1.901  12.055 -0.1719  0.1350  0.0411
  719TMC3     O10684   1.159   1.979  12.102  0.2650  0.7416 -0.0641
  719TMC3     H10685   1.082   1.969  11.874  0.1755  0.4121 -0.5982
  719TMC3    H110686   1.483   1.944  11.968  0.0620 -1.0165 -0.1185
  719TMC3    H210687   1.328   2.293  11.776  0.3459  0.5511 -0.1520
  719TMC3    C710688   1.556   2.170  11.834 -0.6442 -0.3557  0.0440
  719TMC3    C810689   1.090   2.229  11.858  0.5275 -0.5556 -0.6690
  719TMC3    O110690   1.582   2.197  11.718  0.4694  0.5754 -0.3676
  719TMC3    O210691   1.052   2.313  11.781 -0.1472 -0.1830 -0.0916
  720MPD2     C10692   0.213   3.856  14.196  0.1947 -0.1239  0.7644
  720MPD2    C110693   0.287   3.846  14.085 -0.2254  0.6009  0.3837
  720MPD2    C210694   0.427   3.845  14.102  0.2770  0.4039 -0.1613
  720MPD2    C310695   0.495   3.864  14.221 -0.2387  0.0775  0.2667
  720MPD2    C410696   0.411   3.869  14.331 -0.3277 -0.4931  1.4578
  720MPD2    C510697   0.272   3.858  14.322 -0.2909 -0.3488 -0.2053
  720MPD2     H10698   0.489   3.849  14.013  1.8230  0.3347  0.9097
  720MPD2    H110699   0.453   3.891  14.428 -0.3428  0.9329  1.1401
  720MPD2    H210700   0.105   3.864  14.188  0.1281 -0.1498  1.6165
  720MPD2    H310701   0.212   3.866  14.412 -0.7424  2.2550 -0.7343
  720MPD2     N10702   0.640   3.877  14.217  0.4287 -0.5560  0.3488
  720MPD2    H510703   0.690   3.863  14.130 -1.0473  0.9573 -0.7449
  720MPD2    N110704   0.229   3.823  13.960  0.1432 -0.5127  0.4078
  720MPD2    H710705   0.296   3.841  13.887 -0.5249  1.7132  0.3609
  721TMC3    C110706   0.852   3.867  14.314 -0.0289 -0.6383  0.3544
  721TMC3    C210707   0.937   3.845  14.416  0.3230 -0.3889  0.2327
  721TMC3    C310708   1.064   3.815  14.394 -0.9868  0.3294  0.5129
  721TMC3    C410709   0.896   3.858  14.186 -0.0213 -0.2470 -0.4480
  721TMC3    C510710   1.027   3.831  14.167  0.4614  0.1830 -0.7042
  721TMC3    C610711   1.117   3.818  14.267 -0.3701 -0.1767 -0.5874
  721TMC3     C10712   0.713   3.887  14.334  0.5394  0.8443 -0.2808
  721TMC3     O10713   0.683   3.919  14.446 -1.2475 -0.1392  0.3824
  721TMC3     H10714   0.895   3.849  14.516 -1.4675  0.8676 -0.5712
  721TMC3    H110715   0.830   3.896  14.109  0.1502  0.9186 -0.0092
  721TMC3    H210716   1.219   3.791  14.244  0.1166  3.6022 -2.8931
  721TMC3    C710717   1.082   3.847  14.039 -0.6504 -0.2439 -0.6044
  721TMC3    C810718   1.158   3.779  14.505  0.1666 -0.0140 -0.9984
  721TMC3    O110719   1.194   3.897  14.028 -0.1140  0.7450  0.3248
  721TMC3    O210720   1.273   3.773  14.472  0.1205  0.1458 -0.5191
  722MPD2     C10721   3.239   2.323  12.986  0.2655  0.0783  0.3093
  722MPD2    C110722   3.233   2.451  13.029  0.2203 -0.0972 -0.3447
  722MPD2    C210723   3.109   2.516  13.016  0.3941 -0.1088 -0.8724
  722MPD2    C310724   2.990   2.449  12.986 -0.8173  0.4020  0.0495
  722MPD2    C410725   3.004   2.317  12.952  0.1003  0.6749  0.7541
  722MPD2    C510726   3.127   2.253  12.949  0.8262 -0.2960  0.0192
  722MPD2     H10727   3.101   2.614  13.061 -0.3090  0.1821 -1.6260
  722MPD2    H110728   2.922   2.251  12.927  0.2927  1.0536 -0.8836
  722MPD2    H210729   3.333   2.270  12.978 -0.1224 -0.9559  2.6749
  722MPD2    H310730   3.143   2.148  12.927  0.9705  0.2683 -2.5737
  722MPD2     N10731   2.871   2.522  12.995 -0.2450 -0.3897  0.5548
  722MPD2    H510732   2.875   2.618  13.027 -1.4393 -1.1517  3.0074
  722MPD2    N110733   3.345   2.526  13.073 -0.3732 -0.3406 -0.1937
  722MPD2    H710734   3.339   2.627  13.086  2.7468 -0.1983  0.2467
  723TMC3    C110735   2.634   2.563  12.964 -0.2130  0.4346 -0.0901
  723TMC3    C210736   2.520   2.502  12.959  0.3314 -0.2775 -0.7110
  723TMC3    C310737   2.413   2.574  12.925 -0.3576 -0.0664  0.4573
  723TMC3    C410738   2.645   2.698  12.924  0.5241 -0.0352  0.6961
  723TMC3    C510739   2.530   2.768  12.898 -0.4242  0.1188  0.7623
  723TMC3    C610740   2.411   2.707  12.898 -0.4951  0.0110 -0.5402
  723TMC3     C10741   2.752   2.468  12.947  0.1394 -0.7161 -0.2584
  723TMC3     O10742   2.737   2.365  12.879 -0.3083 -0.0990  0.0871
  723TMC3     H10743   2.523   2.401  12.998  0.2559  0.0328  0.1056
  723TMC3    H110744   2.739   2.752  12.922  0.5742 -0.1125  0.9645
  723TMC3    H210745   2.323   2.764  12.870 -0.0692  0.1775 -1.5772
  723TMC3    C710746   2.525   2.896  12.821  0.0023 -0.1052 -0.3381
  723TMC3    C810747   2.288   2.502  12.893  0.1719  0.8850 -0.7000
  723TMC3    O110748   2.465   2.889  12.716 -0.5153  0.5017  0.4852
  723TMC3    O210749   2.198   2.578  12.871  0.4923  0.1031 -0.1876
  724TMC3    C110750   3.775   0.360  10.593  0.0002  0.2026  0.1861
  724TMC3    C210751   3.798   0.379  10.461 -0.3179  0.5186  0.0757
  724TMC3    C310752   3.866   0.494  10.421  1.0357 -0.3615 -0.1491
  724TMC3    C410753   3.813   0.454  10.686 -0.0111 -0.7624  0.1698
  724TMC3    C510754   3.869   0.570  10.643 -0.2544 -0.2314  0.4460
  724TMC3    C610755   3.891   0.598  10.506  0.0387 -0.1781 -0.4455
  724TMC3     C10756   3.756   0.212  10.626  0.3916  0.1626  0.7443
  724TMC3     O10757   3.734   0.137  10.531 -0.3492 -0.1275 -0.0872
  724TMC3     H10758   3.777   0.293  10.398  1.0203  0.7475 -0.6786
  724TMC3    H110759   3.805   0.430  10.792  1.2507  3.7378  1.2409
  724TMC3    H210760   3.931   0.693  10.474  0.7779 -0.6548 -0.9253
  724TMC3    C710761   3.927   0.659  10.740 -0.5383 -0.9515  0.5881
  724TMC3    C810762   3.867   0.513  10.278 -0.3654 -0.1220 -0.0341
  724TMC3    O110763   4.010   0.737  10.691  0.2138 -0.1094  0.3292
  724TMC3    O210764   3.816   0.422  10.209 -0.3201 -0.2127 -0.1062
  725TMC3    C110765   0.563   3.998  12.632 -0.5454 -0.3972  0.1780
  725TMC3    C210766   0.467   3.979  12.535  0.3034  0.7491 -0.7129
  725TMC3    C310767   0.446   3.857  12.483  0.5524  0.5841 -1.0291
  725TMC3    C410768   0.638   3.893  12.671 -0.3755 -0.5061 -0.3374
  725TMC3    C510769   0.595   3.767  12.630  0.0121  0.3824  0.2333
  725TMC3    C610770   0.503   3.748  12.529  0.4786  0.3265  0.1462
  725TMC3     C10771   0.602   4.124  12.666  0.3540  0.5627 -0.1676
  725TMC3     O10772   0.511   4.203  12.690  0.5834  0.5570 -0.2243
  725TMC3     H10773   0.413   4.064  12.495 -1.5015 -0.7261 -1.4576
  725TMC3    H110774   0.720   3.909  12.739  0.4447  0.1289 -1.4618
  725TMC3    H210775   0.476   3.646  12.503  1.1109  0.7316 -2.0492
  725TMC3    C710776   0.640   3.648  12.703  0.4693 -0.2263 -0.1406
  725TMC3    C810777   0.332   3.849  12.393 -0.0012  0.3268  0.3138
  725TMC3    O110778   0.559   3.557  12.702 -0.4898  0.0744 -0.5909
  725TMC3    O210779   0.241   3.767  12.415  0.1875  0.1416 -0.2291
  726MPD2     C10780   3.130   0.992   9.648 -0.0101  0.6073 -0.0922
  726MPD2    C110781   3.158   1.055   9.771 -0.7428 -0.5935 -1.0425
  726MPD2    C210782   3.103   0.998   9.884 -1.1009 -0.4062  0.3275
  726MPD2    C310783   3.032   0.879   9.868 -0.3261 -0.3873 -0.2448
  726MPD2    C410784   3.021   0.815   9.752 -0.4463  0.3406 -0.2182
  726MPD2    C510785   3.067   0.875   9.640 -0.6571  0.2020 -0.4559
  726MPD2     H10786   3.120   1.033   9.985 -0.4578 -0.1587  0.1345
  726MPD2    H110787   2.979   0.715   9.741  0.8518 -0.1238 -0.9745
  726MPD2    H210788   3.178   1.034   9.561  0.3066 -0.9957 -0.6718
  726MPD2    H310789   3.047   0.828   9.544  1.7152 -0.6588 -0.5361
  726MPD2     N10790   2.981   0.808   9.979  0.5906 -0.3888 -1.0358
  726MPD2    H510791   2.929   0.725   9.952 -2.3047  1.4349 -1.1115
  726MPD2    N110792   3.226   1.176   9.765  0.7216 -0.5376  0.2804
  726MPD2    H710793   3.251   1.217   9.676  3.4012  1.1219  1.7947
  727TMC3    C110794   3.330   1.368   9.846 -0.2611 -0.7006  0.2426
  727TMC3    C210795   3.408   1.422   9.944  0.0044  0.6670 -0.0531
  727TMC3    C310796   3.436   1.551   9.918 -0.5366  0.7384  0.0824
  727TMC3    C410797   3.276   1.438   9.740 -0.3717  0.1740 -0.2655
  727TMC3    C510798   3.315   1.568   9.717  0.3316  0.2805  0.3684
  727TMC3    C610799   3.392   1.632   9.807  0.2457  0.6920  0.3195
  727TMC3     C10800   3.265   1.244   9.876  0.1036  0.5659 -0.4936
  727TMC3     O10801   3.268   1.205   9.990 -0.4806  0.5180  0.7144
  727TMC3     H10802   3.447   1.356  10.020  1.5161  3.6376  1.7695
  727TMC3    H110803   3.205   1.396   9.670  0.1577  0.9259 -1.2639
  727TMC3    H210804   3.393   1.740   9.815  2.0266  0.5882  1.5285
  727TMC3    C710805   3.304   1.611   9.577  0.4724  0.0486 -0.1249
  727TMC3    C810806   3.509   1.615  10.031  0.4404  0.6216 -0.8884
  727TMC3    O110807   3.298   1.512   9.502  0.4640  0.3074  0.3331
  727TMC3    O210808   3.485   1.582  10.149  0.2964 -0.0994  0.0920
  728TMC3    C110809   2.735   4.604  14.781  0.1272  0.4250  0.1543
  728TMC3    C210810   2.861   4.574  14.736 -0.9103 -0.7186 -0.2912
  728TMC3    C310811   2.874   4.561  14.603  0.2942 -0.2150  0.4506
  728TMC3    C410812   2.628   4.640  14.704  0.1936 -0.2711 -0.5604
  728TMC3    C510813   2.666   4.649  14.570  0.1880  0.3731 -0.5424
  728TMC3    C610814   2.774   4.587  14.509 -0.0250  0.1261 -0.2633
  728TMC3     C10815   2.727   4.602  14.922 -0.0682 -0.1067  0.6169
  728TMC3     O10816   2.831   4.608  14.986  0.0403  0.0213 -0.1644
  728TMC3     H10817   2.945   4.550  14.800 -0.4427  0.3065 -0.5172
  728TMC3    H110818   2.536   4.685  14.740  0.9919  0.0313  1.0698
  728TMC3    H210819   2.783   4.576  14.402 -0.7803 -1.3223 -0.1810
  728TMC3    C710820   2.572   4.708  14.473 -1.0539 -0.2539  0.3311
  728TMC3    C810821   2.974   4.479  14.549  0.4869  0.0979  0.2402
  728TMC3    O110822   2.547   4.633  14.380 -0.1972 -0.0973 -0.5809
  728TMC3    O210823   2.966   4.435  14.438 -0.0286  0.3192  0.4472
  729MPD2     C10824   4.659   0.734  16.719 -0.2502 -0.1299 -0.4194
  729MPD2    C110825   0.060   0.763  16.698  0.1576  0.3537  0.2237
  729MPD2    C210826   0.133   0.780  16.808 -0.2503 -0.2471  0.4687
  729MPD2    C310827   0.087   0.762  16.939  0.6045 -0.1652 -0.1118
  729MPD2    C410828   4.688   0.736  16.958  0.5142  0.6765 -0.2029
  729MPD2    C510829   4.608   0.720  16.851 -0.2518  0.3015  0.5339
  729MPD2     H10830   0.237   0.804  16.794 -0.1718 -2.4698 -2.6192
  729MPD2    H110831   4.652   0.706  17.056 -2.2502 -1.4948 -1.8744
  729MPD2    H210832   4.594   0.708  16.637  0.2670  2.1466 -1.5544
  729MPD2    H310833   4.505   0.688  16.862 -0.2605  1.6955  4.6040
  729MPD2     N10834   0.169   0.790  17.053 -0.2491  0.1071  0.2791
  729MPD2    H510835   0.126   0.811  17.143  1.1116 -3.5512  1.7745
  729MPD2    N110836   0.114   0.798  16.575  0.6273  0.6632  0.1512
  729MPD2    H710837   0.210   0.829  16.572  0.3866  1.4886  0.8366
  730TMC3    C110838   0.376   0.881  17.153  0.2346  0.2642  0.7825
  730TMC3    C210839   0.490   0.929  17.094 -0.2133  0.3523  0.4580
  730TMC3    C310840   0.517   1.062  17.107  0.0317 -0.0454 -0.6621
  730TMC3    C410841   0.290   0.960  17.232 -1.0359  0.4499  0.4629
  730TMC3    C510842   0.325   1.086  17.259  0.7520  0.0296  0.9076
  730TMC3    C610843   0.440   1.141  17.194  0.0565  0.0887 -0.6964
  730TMC3     C10844   0.303   0.795  17.049 -0.0899 -0.2435  0.3512
  730TMC3     O10845   0.375   0.736  16.972 -0.3173 -0.5101 -0.1554
  730TMC3     H10846   0.551   0.869  17.028 -1.6591 -3.5575  2.6402
  730TMC3    H110847   0.206   0.919  17.286 -1.2466  0.3994  0.0939
  730TMC3    H210848   0.440   1.249  17.182 -1.4338  0.5339  3.5317
  730TMC3    C710849   0.228   1.181  17.298 -0.2896 -0.0240  0.0822
  730TMC3    C810850   0.599   1.118  17.008  1.0626  0.1630  0.7733
  730TMC3    O110851   0.185   1.167  17.412  0.2453  0.3921  0.3313
  730TMC3    O210852   0.629   1.050  16.911  0.0581  0.2299  0.3354
  731MPD2     C10853   0.104   3.418  12.595  0.0756  0.3475  0.1484
  731MPD2    C110854   4.729   3.352  12.552  0.6307 -0.0660  0.0914
  731MPD2    C210855   4.630   3.317  12.642 -0.5504  0.2588 -0.6268
  731MPD2    C310856   4.634   3.339  12.776 -0.6461 -0.0681 -0.2460
  731MPD2    C410857   0.016   3.399  12.819  0.8133 -0.0747 -0.7708
  731MPD2    C510858   0.108   3.438  12.732  0.6839 -0.1150  0.3861
  731MPD2     H10859   4.538   3.274  12.606 -1.0378  0.3829  0.4500
  731MPD2    H110860   0.041   3.417  12.923  1.5904  0.5755 -1.0681
  731MPD2    H210861   0.189   3.448  12.535 -0.2505  0.4565 -0.2532
  731MPD2    H310862   0.199   3.484  12.769  0.4101  0.7856 -0.0691
  731MPD2     N10863   4.532   3.299  12.862  0.4081  0.2743  0.2742
  731MPD2    H510864   4.454   3.242  12.832  0.3428  1.1862 -1.2711
  731MPD2    N110865   4.728   3.328  12.407  0.6147 -0.0484  0.2974
  731MPD2    H710866   0.072   3.348  12.350  1.3494 -3.3086  0.1853
  732TMC3    C110867   4.646   3.254  12.203  0.5392 -0.7197  0.2813
  732TMC3    C210868   4.532   3.248  12.129 -0.3836 -0.5160 -0.1508
  732TMC3    C310869   4.556   3.227  11.990  0.9588  0.2657 -0.7520
  732TMC3    C410870   0.036   3.248  12.152  0.8613 -0.8567  0.1272
  732TMC3    C510871   0.049   3.220  12.023 -0.3448 -0.1184  0.7524
  732TMC3    C610872   4.681   3.198  11.936  0.6785 -0.6865  0.2029
  732TMC3     C10873   4.619   3.290  12.341 -0.5910  0.0988  0.1570
  732TMC3     O10874   4.501   3.292  12.377 -0.3236 -0.4546  0.3480
  732TMC3     H10875   4.439   3.280  12.174 -0.1756  1.1420 -0.9040
  732TMC3    H110876   0.120   3.278  12.214  0.5700  1.1354 -0.4603
  732TMC3    H210877   4.692   3.166  11.834 -0.1679 -2.9108  0.7996
  732TMC3    C710878   0.174   3.194  11.967 -0.4541  0.5368  0.0372
  732TMC3    C810879   4.439   3.203  11.902 -0.4865 -0.2662 -0.0413
  732TMC3    O110880   0.187   3.209  11.843 -1.1693 -0.0275  0.0078
  732TMC3    O210881   4.444   3.202  11.778  0.2648  0.3741  0.1251
  733TMC3    C110882   0.564   1.871  12.642 -0.1277  0.4175  0.2074
  733TMC3    C210883   0.670   1.779  12.646  0.6113  0.1911 -0.0666
  733TMC3    C310884   0.762   1.809  12.549  0.1071  1.2065 -0.4878
  733TMC3    C410885   0.564   1.989  12.573 -0.2500  0.5499 -0.2032
  733TMC3    C510886   0.659   2.007  12.481 -0.3092  0.5792  0.3709
  733TMC3    C610887   0.752   1.908  12.456  0.0815 -0.1025 -0.0342
  733TMC3     C10888   0.435   1.844  12.712  0.1291  0.1672  0.6729
  733TMC3     O10889   0.338   1.897  12.673  0.3127 -0.4005  0.1105
  733TMC3     H10890   0.651   1.688  12.702  1.1051 -0.5063 -1.0371
  733TMC3    H110891   0.485   2.061  12.589 -1.9859 -1.2195 -0.8419
  733TMC3    H210892   0.807   1.898  12.364  0.4441 -0.9478  0.2758
  733TMC3    C710893   0.656   2.132  12.415 -0.5030 -0.4139 -0.2983
  733TMC3    C810894   0.862   1.708  12.516  0.7013  0.2046  0.0814
  733TMC3    O110895   0.550   2.191  12.400  0.0784 -0.1256  0.6360
  733TMC3    O210896   0.863   1.600  12.582  0.3868  0.0466 -0.1708
  734MPD2     C10897   3.022   4.164  12.486  0.3393  0.1418 -0.0677
  734MPD2    C110898   3.008   4.074  12.381 -0.9320  0.2190  0.3674
  734MPD2    C210899   3.009   4.129  12.258 -0.3075 -0.6236  0.1265
  734MPD2    C310900   3.024   4.270  12.235 -1.0580 -0.7582 -0.6625
  734MPD2    C410901   3.023   4.358  12.340  0.4004  0.0539  0.2352
  734MPD2    C510902   3.035   4.297  12.465  0.0502 -0.0308  0.1933
  734MPD2     H10903   3.001   4.074  12.164  1.6720 -0.9461  0.1363
  734MPD2    H110904   3.052   4.461  12.328  0.9917 -0.1978 -0.4700
  734MPD2    H210905   3.019   4.128  12.588  0.6878 -0.6347 -0.3340
  734MPD2    H310906   3.052   4.359  12.553 -1.5897  0.6776  0.0081
  734MPD2     N10907   3.028   4.305  12.101 -0.0910 -0.6969 -0.3322
  734MPD2    H510908   3.036   4.232  12.030 -1.9900 -1.2642  0.0477
  734MPD2    N110909   3.001   3.937  12.404 -0.2647  1.0502  0.1224
  734MPD2    H710910   3.015   3.906  12.500 -3.0280 -1.1062 -0.1576
  735TMC3    C110911   2.911   3.712  12.369  0.0853 -0.0398  0.0768
  735TMC3    C210912   2.826   3.652  12.277  0.3239  0.5173 -0.2990
  735TMC3    C310913   2.869   3.550  12.193  0.0088  0.2150 -1.3928
  735TMC3    C410914   3.030   3.653  12.388  0.0556  0.2444  0.1749
  735TMC3    C510915   3.071   3.552  12.303  0.0511  0.1040  0.4060
  735TMC3    C610916   3.001   3.498  12.203  0.0588 -0.5904 -0.5321
  735TMC3     C10917   2.934   3.849  12.321  0.4554 -0.0151  0.2990
  735TMC3     O10918   2.881   3.874  12.217  0.4893 -0.3961  0.1838
  735TMC3     H10919   2.728   3.693  12.257 -1.1495 -1.9349  1.8096
  735TMC3    H110920   3.100   3.697  12.459 -1.2100  1.6378  0.5521
  735TMC3    H210921   3.030   3.406  12.154 -1.9617 -1.1938 -0.5887
  735TMC3    C710922   3.213   3.510  12.312 -0.4960 -0.8413 -0.3667
  735TMC3    C810923   2.830   3.561  12.055 -0.7221  0.3919  0.6400
  735TMC3    O110924   3.264   3.539  12.419 -0.4960  0.0168 -0.0546
  735TMC3    O210925   2.817   3.462  11.990 -0.6084  0.4041  0.0583
  736MPD2     C10926   3.484   3.400  12.301 -0.2051  0.4679 -0.0091
  736MPD2    C110927   3.416   3.422  12.183  0.3709 -0.8415  0.2538
  736MPD2    C210928   3.475   3.399  12.063  0.2161  0.3950 -0.2479
  736MPD2    C310929   3.602   3.351  12.052  0.2377 -0.6002  0.1628
  736MPD2    C410930   3.670   3.325  12.168 -0.6032 -0.1032 -0.3755
  736MPD2    C510931   3.607   3.342  12.289 -0.2406  0.6761  0.5106
  736MPD2     H10932   3.416   3.418  11.974 -1.9066  1.9581  1.5034
  736MPD2    H110933   3.768   3.280  12.170  0.2228  1.8054  2.6763
  736MPD2    H210934   3.446   3.419  12.400  0.7340  1.0106  0.2439
  736MPD2    H310935   3.665   3.330  12.379  0.7629 -0.0020 -0.2276
  736MPD2     N10936   3.677   3.327  11.930  0.2778 -0.2075 -0.2765
  736MPD2    H510937   3.771   3.289  11.940 -0.8715 -3.2667 -1.2268
  736MPD2    N110938   3.286   3.483  12.192  0.8136 -0.2314  0.0430
  736MPD2    H710939   3.237   3.493  12.104 -2.6441 -0.5675  1.9345
  737TMC3    C110940   3.751   3.385  11.713  0.0013 -0.0642  0.0571
  737TMC3    C210941   3.748   3.487  11.628 -0.3188  0.0342  0.0379
  737TMC3    C310942   3.839   3.493  11.526  0.0198 -0.3896  0.1160
  737TMC3    C410943   3.819   3.265  11.688 -0.9488  0.6169 -0.7661
  737TMC3    C510944   3.906   3.274  11.588  0.3969 -0.4775 -0.2963
  737TMC3    C610945   3.917   3.380  11.503 -0.1743  0.2448  0.3089
  737TMC3     C10946   3.646   3.396  11.815 -0.2189 -0.2118  0.5489
  737TMC3     O10947   3.551   3.473  11.801 -0.4616  0.3458  0.2090
  737TMC3     H10948   3.677   3.565  11.653 -0.9162 -0.0485 -1.4495
  737TMC3    H110949   3.807   3.173  11.744  1.9334  0.5397 -0.2547
  737TMC3    H210950   3.983   3.383  11.417 -0.1787  0.2613  0.3061
  737TMC3    C710951   3.958   3.148  11.542 -0.1817 -0.7090  0.8726
  737TMC3    C810952   3.825   3.590  11.430 -0.6956 -0.5710 -0.2049
  737TMC3    O110953   3.894   3.047  11.527 -0.3226 -0.2794 -0.2974
  737TMC3    O210954   3.890   3.576  11.330  0.0766 -0.2842  0.1481
  738MPD2     C10955   4.315   2.729  14.787  0.3615  0.2137 -0.7619
  738MPD2    C110956   4.210   2.738  14.707  0.2058  0.1401 -0.4603
  738MPD2    C210957   4.217   2.764  14.575  0.4744  0.3363  0.5032
  738MPD2    C310958   4.341   2.786  14.518  0.2163 -0.1299  0.4482
  738MPD2    C410959   4.453   2.772  14.598  0.5351  0.5017  0.1996
  738MPD2    C510960   4.440   2.732  14.727 -0.2387 -0.0723 -0.6505
  738MPD2     H10961   4.125   2.750  14.519  1.4805 -1.6522 -0.6771
  738MPD2    H110962   4.549   2.779  14.548  1.0187 -0.0268  1.0444
  738MPD2    H210963   4.312   2.689  14.888  2.1813 -0.3506 -0.9277
  738MPD2    H310964   4.529   2.701  14.780 -1.3792  1.1831  2.0094
  738MPD2     N10965   4.357   2.802  14.382  0.2742 -0.2671  0.3620
  738MPD2    H510966   4.450   2.793  14.343  0.9132 -0.4398  1.9095
  738MPD2    N110967   4.083   2.714  14.761  0.7918 -0.3832  0.8139
  738MPD2    H710968   4.007   2.694  14.696 -0.6206 -0.1309  2.4087
  739TMC3    C110969   4.297   2.884  14.162 -1.4334 -0.1013 -0.4675
  739TMC3    C210970   4.212   2.967  14.089 -0.0420 -0.2721  0.0062
  739TMC3    C310971   4.257   3.014  13.970 -0.2775 -0.0964 -0.1016
  739TMC3    C410972   4.426   2.868  14.128 -0.2307  0.3503  0.5252
  739TMC3    C510973   4.470   2.932  14.013 -0.4146  0.2005  0.6112
  739TMC3    C610974   4.387   2.994  13.927  0.0475 -0.1654 -0.0097
  739TMC3     C10975   4.256   2.856  14.300  0.4829  0.2514  0.0910
  739TMC3     O10976   4.139   2.883  14.327  0.1210  0.3330  0.5317
  739TMC3     H10977   4.112   2.989  14.126  0.9665  0.8927  2.0376
  739TMC3    H110978   4.493   2.800  14.179  1.7361  2.0736  0.2365
  739TMC3    H210979   4.420   3.043  13.836  0.7093  0.6633  0.6828
  739TMC3    C710980   4.617   2.926  13.988 -0.0953 -1.0002  0.2340
  739TMC3    C810981   4.149   3.055  13.883 -0.3343  0.2559 -0.6621
  739TMC3    O110982   4.692   2.863  14.063  0.4732 -0.0008 -0.1806
  739TMC3    O210983   4.034   3.050  13.927  0.3495  0.0120 -0.1880
  740TMC3    C110984   4.234   4.286  14.308  0.4135 -0.3155 -0.5647
  740TMC3    C210985   4.244   4.385  14.403  0.3053 -0.0974  0.0843
  740TMC3    C310986   4.374   4.420  14.435  0.1697  0.3156  0.4162
  740TMC3    C410987   4.334   4.215  14.255  0.0146  0.2298  0.3340
  740TMC3    C510988   4.461   4.240  14.307 -0.3257  0.4402 -0.5331
  740TMC3    C610989   4.482   4.341  14.395 -0.2204 -0.3111  0.1092
  740TMC3     C10990   4.102   4.245  14.262 -0.0999  0.4716  0.0925
  740TMC3     O10991   4.103   4.215  14.146 -0.0675  0.5085 -0.0663
  740TMC3     H10992   4.154   4.427  14.445 -0.0578 -1.2898  0.4865
  740TMC3    H110993   4.318   4.132  14.187 -1.7687  1.8310 -1.2218
  740TMC3    H210994   4.585   4.368  14.418  0.2335 -2.0285  0.0728
  740TMC3    C710995   4.580   4.195  14.238 -0.2470 -0.7419 -0.2075
  740TMC3    C810996   4.397   4.531  14.526 -0.0099 -1.0666 -0.1524
  740TMC3    O110997   4.682   4.175  14.302 -0.2680  0.1465  0.1939
  740TMC3    O210998   4.321   4.624  14.510  1.0048  0.3185  0.4882
  741TMC3    C110999   4.140   3.619  13.783 -0.0748 -0.2023 -0.0785
  741TMC3    C211000   4.008   3.591  13.812 -0.0313 -0.3909 -0.8009
  741TMC3    C311001   3.971   3.495  13.906  0.1201  0.2076  0.4653
  741TMC3    C411002   4.238   3.554  13.853 -0.3409  0.2009 -0.8652
  741TMC3    C511003   4.198   3.457  13.938  0.4550  0.2426  0.1287
  741TMC3    C611004   4.066   3.424  13.970  0.2449  0.0997  0.0574
  741TMC3     C11005   4.165   3.666  13.651 -0.3753 -0.5902  0.2978
  741TMC3     O11006   4.076   3.725  13.594  0.1435 -0.6743 -0.2902
  741TMC3     H11007   3.928   3.641  13.758 -0.0919 -0.8831 -1.1659
  741TMC3    H111008   4.342   3.573  13.829  0.8669 -2.7236  2.0326
  741TMC3    H211009   4.046   3.325  14.010  0.5801  1.0090  2.5219
  741TMC3    C711010   4.310   3.411  14.022 -0.2885  0.6819  0.7014
  741TMC3    C811011   3.837   3.433  13.897 -0.2203 -0.3145  0.5648
  741TMC3    O111012   4.418   3.468  14.010 -0.2407 -0.4499  0.7764
  741TMC3    O211013   3.769   3.458  13.801  0.1270 -0.2124  0.3310
  742TMC3    C111014   4.168   2.503  15.227  0.1289  0.5539  0.1378
  742TMC3    C211015   4.064   2.461  15.144  0.6008 -0.2207 -0.1507
  742TMC3    C311016   4.100   2.403  15.026  0.1699  0.2087  0.1590
  742TMC3    C411017   4.296   2.492  15.198  0.6604  0.0886  0.1749
  742TMC3    C511018   4.331   2.451  15.069 -0.3786  0.0603  0.3891
  742TMC3    C611019   4.232   2.406  14.982  0.1716  0.0002  0.2182
  742TMC3     C11020   4.141   2.518  15.370 -0.1595 -0.1636 -0.3358
  742TMC3     O11021   4.236   2.485  15.442  0.4360 -0.0759 -0.2272
  742TMC3     H11022   3.965   2.454  15.188 -1.3883  1.2391 -4.3483
  742TMC3    H111023   4.369   2.511  15.276  0.5199  0.7446  0.1460
  742TMC3    H211024   4.264   2.350  14.895  1.0456  0.6861  0.1004
  742TMC3    C711025   4.451   2.375  15.068 -0.3291 -0.1440  0.2972
  742TMC3    C811026   4.005   2.335  14.943 -0.6545 -0.2557 -0.5726
  742TMC3    O111027   4.444   2.255  15.035 -0.7691 -0.6204  0.3230
  742TMC3    O211028   4.023   2.334  14.821 -0.2509  0.2420 -0.0484
  743MPD2     C11029   1.158   4.563   1.098 -0.1814 -0.3932  0.3675
  743MPD2    C111030   1.251   4.467   1.127 -0.1504  0.4849 -0.1538
  743MPD2    C211031   1.357   4.492   1.212  0.5458 -0.2423  0.5093
  743MPD2    C311032   1.373   4.624   1.259 -0.7296 -1.2150 -0.0628
  743MPD2    C411033   1.283   4.718   1.233 -0.9434  0.2189  0.3290
  743MPD2    C511034   1.181   4.686   1.148  0.0873 -0.2914  0.0004
  743MPD2     H11035   1.429   4.415   1.238  0.6535 -0.8136 -1.4823
  743MPD2    H111036   1.283   0.084   1.267  0.8430  0.0799  0.7599
  743MPD2    H211037   1.074   4.544   1.032 -1.3987  1.0298  1.5139
  743MPD2    H311038   1.104   0.023   1.129  0.3686 -0.2215 -0.8947
  743MPD2     N11039   1.488   4.641   1.335 -0.3664 -0.2938 -0.7392
  743MPD2    H511040   1.547   4.562   1.359 -1.5815 -0.9326  0.1790
  743MPD2    N111041   1.230   4.343   1.071 -0.6391 -0.1257  0.2014
  743MPD2    H711042   1.152   4.329   1.007  0.6654 -1.1254 -1.1783
  744TMC3    C111043   1.269   4.123   1.003 -0.6526 -0.2611  0.0605
  744TMC3    C211044   1.143   4.102   0.960 -0.0423  0.0327  0.1919
  744TMC3    C311045   1.118   3.985   0.888 -0.2421  0.2214  0.2479
  744TMC3    C411046   1.371   4.030   0.973 -0.1616 -0.1331 -1.2170
  744TMC3    C511047   1.341   3.917   0.900 -0.0031  0.3026  0.3955
  744TMC3    C611048   1.220   3.895   0.846  0.2297 -0.2274 -0.1346
  744TMC3     C11049   1.320   4.237   1.076 -0.0055  0.0290 -0.2973
  744TMC3     O11050   1.435   4.229   1.110  0.4356  0.1148  0.4499
  744TMC3     H11051   1.062   4.174   0.968  1.1474  1.1654  2.0454
  744TMC3    H111052   1.472   4.034   1.012 -0.7844 -1.6670  0.5554
  744TMC3    H211053   1.181   3.812   0.788 -1.3591  1.5783 -1.6855
  744TMC3    C711054   1.448   3.829   0.871 -0.1262 -0.7240 -0.3379
  744TMC3    C811055   1.009   3.991   0.793  0.7379  0.3152 -0.1281
  744TMC3    O111056   1.562   3.859   0.894  0.1517  0.7362 -0.3138
  744TMC3    O211057   1.037   3.933   0.694  0.4658  0.1666 -0.1966
  745TMC3    C111058   4.132   1.406  13.760  0.1638 -0.3801  0.0388
  745TMC3    C211059   4.029   1.379  13.842 -0.3904  0.4143  0.2382
  745TMC3    C311060   3.905   1.366  13.786  0.3096 -0.1691  0.0938
  745TMC3    C411061   4.116   1.433  13.625 -0.8563 -0.6054 -0.4372
  745TMC3    C511062   3.997   1.422  13.568 -0.2258  1.0744  0.3756
  745TMC3    C611063   3.891   1.382  13.645  0.0958  0.7051  0.6518
  745TMC3     C11064   4.248   1.456  13.824  0.5876  0.3316  0.9454
  745TMC3     O11065   4.273   1.410  13.935  0.7374 -1.0284 -0.1364
  745TMC3     H11066   4.044   1.335  13.940  0.2559 -1.0295 -0.5012
  745TMC3    H111067   4.195   1.456  13.555 -0.5317 -1.4263 -0.3430
  745TMC3    H211068   3.791   1.377  13.603  0.9021  0.4390 -1.2169
  745TMC3    C711069   3.994   1.385  13.426 -0.3331  0.4728  0.4052
  745TMC3    C811070   3.819   1.464  13.845  0.6526  0.1958 -0.0291
  745TMC3    O111071   3.947   1.276  13.397 -0.6627 -0.2691  0.4284
  745TMC3    O211072   3.723   1.496  13.779 -0.0697 -0.0675  0.1723
  746TMC3    C111073   2.060   3.075  10.586  0.2052 -0.4788 -0.4954
  746TMC3    C211074   2.028   3.120  10.457  0.2244 -0.4466 -0.1933
  746TMC3    C311075   1.971   3.025  10.375 -0.7912 -0.2515  0.2953
  746TMC3    C411076   2.039   2.948  10.631 -0.7424 -0.1196 -0.0428
  746TMC3    C511077   1.969   2.866  10.546 -0.5870 -0.1828 -0.6394
  746TMC3    C611078   1.938   2.906  10.422 -0.0955 -0.2863  0.8976
  746TMC3     C11079   2.082   3.170  10.693 -0.0375 -0.2821 -0.0507
  746TMC3     O11080   2.034   3.280  10.672 -0.4579 -0.0139 -0.1096
  746TMC3     H11081   2.061   3.216  10.419  1.6486 -0.5413  0.8413
  746TMC3    H111082   2.071   2.912  10.728  0.2552 -0.0948 -0.3591
  746TMC3    H211083   1.898   2.828  10.358  0.9868  0.7808 -1.0910
  746TMC3    C711084   1.885   2.756  10.592 -0.2970  0.3921  0.6423
  746TMC3    C811085   1.964   3.040  10.228  0.3673 -0.2271  0.6094
  746TMC3    O111086   1.766   2.774  10.577  0.1925  0.5091 -0.0663
  746TMC3    O211087   1.895   2.955  10.176 -0.2228  0.4811  0.2299
  747TMC3    C111088   0.087   3.275  10.977  0.7874 -0.0356 -0.2827
  747TMC3    C211089   4.728   3.184  11.005  0.2691 -0.3970  0.3198
  747TMC3    C311090   4.681   3.182  11.135 -0.3054 -0.1330  0.5325
  747TMC3    C411091   0.130   3.365  11.072  0.4747 -0.1664  0.7218
  747TMC3    C511092   0.072   3.366  11.200 -0.1834 -0.4365  0.4292
  747TMC3    C611093   4.728   3.260  11.240 -0.5371  0.2925 -0.1016
  747TMC3     C11094   0.141   3.292  10.841  0.6413  1.0267  0.4655
  747TMC3     O11095   0.249   3.346  10.828  0.1468  0.3347 -0.3401
  747TMC3     H11096   4.687   3.108  10.939  1.3434 -1.0584  0.4258
  747TMC3    H111097   0.207   3.436  11.042 -1.7737  0.3055 -4.0204
  747TMC3    H211098   4.705   3.240  11.344 -0.4386  0.1777 -0.1023
  747TMC3    C711099   0.134   3.439  11.306 -0.3664 -0.1789  0.7032
  747TMC3    C811100   4.577   3.083  11.163 -0.3765  0.4878 -0.4137
  747TMC3    O111101   0.108   3.395  11.421 -0.1708 -0.5518  0.4516
  747TMC3    O211102   4.543   3.010  11.070 -0.0218  0.5590  0.0942
  748MPD2     C11103   0.696   0.536   1.086 -0.3220  0.4320 -0.0603
  748MPD2    C111104   0.767   0.418   1.076 -0.5257  0.1973  0.4116
  748MPD2    C211105   0.881   0.426   1.005  0.1056  0.5408 -0.2366
  748MPD2    C311106   0.922   0.542   0.945 -0.1109 -0.5340 -0.1917
  748MPD2    C411107   0.843   0.655   0.957 -0.0074 -0.4116 -0.2188
  748MPD2    C511108   0.731   0.655   1.025 -0.0920  0.0454 -1.4347
  748MPD2     H11109   0.946   0.341   0.990 -1.7218 -0.3142 -3.4255
  748MPD2    H111110   0.869   0.745   0.903 -2.3415  0.8423  0.7675
  748MPD2    H211111   0.602   0.546   1.139 -0.7530  0.2647 -0.7929
  748MPD2    H311112   0.673   0.746   1.028  1.0761  0.8090 -1.7655
  748MPD2     N11113   1.048   0.536   0.876 -0.6401 -0.1955 -0.1239
  748MPD2    H511114   1.092   0.445   0.880  0.3935  0.2251 -2.0691
  748MPD2    N111115   0.721   0.297   1.133  0.3711 -0.3562 -0.2463
  748MPD2    H711116   0.630   0.298   1.178  0.2558 -0.6597 -0.4763
  749TMC3    C111117   1.240   0.600   0.756  0.1609 -0.0400 -0.2305
  749TMC3    C211118   1.276   0.468   0.770 -0.1604 -0.1271  0.6876
  749TMC3    C311119   1.411   0.449   0.738  0.2981 -0.2909  0.9107
  749TMC3    C411120   1.320   0.709   0.721  0.4597  0.1796  0.1488
  749TMC3    C511121   1.448   0.678   0.696 -0.0939  0.9595 -1.5334
  749TMC3    C611122   1.493   0.551   0.705  0.1570 -0.5781 -0.3364
  749TMC3     C11123   1.111   0.639   0.809 -0.6077 -0.2976  0.5279
  749TMC3     O11124   1.083   0.759   0.807 -0.3385  0.1401  0.3842
  749TMC3     H11125   1.209   0.386   0.795 -0.0408 -0.0519  1.2545
  749TMC3    H111126   1.278   0.808   0.702 -0.0548 -0.1255 -0.2860
  749TMC3    H211127   1.591   0.518   0.674 -0.7260 -2.4789 -1.0464
  749TMC3    C711128   1.534   0.778   0.627  0.1101 -0.0752 -0.3935
  749TMC3    C811129   1.483   0.328   0.772 -0.2693 -0.0272 -1.0906
  749TMC3    O111130   1.484   0.887   0.595 -0.4642  0.8658 -0.8896
  749TMC3    O211131   1.602   0.331   0.785  0.1359  0.0529 -0.3309
  750MPD2     C11132   2.421   0.509  10.877 -0.2341 -0.6075 -0.6362
  750MPD2    C111133   2.361   0.418  10.960 -0.1414 -0.0978  0.3849
  750MPD2    C211134   2.340   0.291  10.905 -0.0502  0.3596 -0.2083
  750MPD2    C311135   2.372   0.264  10.777  0.5583 -0.3574 -0.1009
  750MPD2    C411136   2.430   0.358  10.692 -0.6740  0.1634  0.0036
  750MPD2    C511137   2.451   0.486  10.744 -0.4587 -0.4647  0.4123
  750MPD2     H11138   2.279   0.220  10.958  1.8646  0.4776  2.1505
  750MPD2    H111139   2.458   0.333  10.590  0.0165 -1.9105  0.7062
  750MPD2    H211140   2.444   0.606  10.920  0.5707 -1.2858  0.4570
  750MPD2    H311141   2.491   0.555  10.671 -0.5332  0.1206  0.9180
  750MPD2     N11142   2.360   0.132  10.722  0.5617 -0.2203  0.3744
  750MPD2    H511143   2.367   0.128  10.621  0.0326  0.5304  0.3064
  750MPD2    N111144   2.313   0.464  11.086 -0.7374  0.1216 -0.7141
  750MPD2    H711145   2.334   0.560  11.113 -0.0097 -0.2341 -0.0388
  751TMC3    C111146   2.295   4.644  10.705  0.2166 -0.1266  0.0879
  751TMC3    C211147   2.172   4.582  10.713  0.0705 -0.6679 -0.1118
  751TMC3    C311148   2.122   4.501  10.612  0.3063 -0.8266  0.2614
  751TMC3    C411149   2.366   4.631  10.587 -0.1467 -0.4343  0.1252
  751TMC3    C511150   2.319   4.552  10.489 -0.4141 -0.2257  0.0749
  751TMC3    C611151   2.200   4.486  10.502 -0.2412 -0.3398 -0.0930
  751TMC3     C11152   2.324   0.019  10.794 -0.1395 -0.0545  0.5387
  751TMC3     O11153   2.317   4.734  10.916  0.3024 -0.4025 -0.3896
  751TMC3     H11154   2.127   4.580  10.812  0.6232 -0.3746  0.1464
  751TMC3    H111155   2.459   4.684  10.569 -0.9307  0.2304 -1.9281
  751TMC3    H211156   2.160   4.443  10.411 -1.2576 -0.9080  0.6243
  751TMC3    C711157   2.424   4.493  10.404  0.2039 -0.2704 -0.8196
  751TMC3    C811158   1.993   4.428  10.627 -0.0214 -0.1995  0.0963
  751TMC3    O111159   2.519   4.563  10.386  0.2969 -0.6533 -0.3646
  751TMC3    O211160   1.988   4.327  10.554 -0.0265  0.2956  0.4098
  752TMC3    C111161   0.876   0.766  17.036 -0.3232 -0.6039  0.2034
  752TMC3    C211162   0.850   0.672  17.129 -0.3532 -0.7113 -0.4976
  752TMC3    C311163   0.835   0.706  17.261 -0.0586  0.5245  0.7106
  752TMC3    C411164   0.873   0.901  17.067  0.4089  0.3602  0.3556
  752TMC3    C511165   0.856   0.934  17.199 -0.3120 -1.0378  0.4048
  752TMC3    C611166   0.834   0.840  17.299  0.0373  0.1989  0.3502
  752TMC3     C11167   0.880   0.730  16.897 -0.1621  0.3795  0.3976
  752TMC3     O11168   0.950   0.632  16.864 -0.0815 -0.4914  0.3019
  752TMC3     H11169   0.870   0.570  17.096  1.4375 -0.5747  0.2256
  752TMC3    H111170   0.893   0.979  16.995 -0.7973 -1.5940 -2.1002
  752TMC3    H211171   0.827   0.882  17.398 -2.9259 -2.3465  1.2240
  752TMC3    C711172   0.859   1.080  17.214  0.0099 -0.3175 -0.2573
  752TMC3    C811173   0.815   0.595  17.350 -0.0839 -0.1986  0.0254
  752TMC3    O111174   0.929   1.147  17.138  0.1836 -0.4066  0.7807
  752TMC3    O211175   0.806   0.482  17.308 -0.3447 -0.0357 -0.0382
  753TMC3    C111176   2.480   2.142  13.365  0.4409 -0.0958 -0.0542
  753TMC3    C211177   2.508   2.077  13.478  0.3783 -0.4167 -0.3928
  753TMC3    C311178   2.498   1.942  13.480 -0.3637 -0.5266  0.1013
  753TMC3    C411179   2.410   2.072  13.266  0.3983  0.1481  0.0313
  753TMC3    C511180   2.396   1.934  13.279 -0.2435  0.0435  0.6415
  753TMC3    C611181   2.459   1.865  13.378 -0.4278 -0.4758  0.2896
  753TMC3     C11182   2.494   2.282  13.368 -0.5035  0.7423  0.0157
  753TMC3     O11183   2.580   2.331  13.437 -0.3008 -0.4888  0.0979
  753TMC3     H11184   2.551   2.131  13.562  0.0678 -1.2727  0.3091
  753TMC3    H111185   2.359   2.123  13.186  1.7882  0.1658 -0.8384
  753TMC3    H211186   2.459   1.757  13.383 -0.4749 -0.4520  0.7618
  753TMC3    C711187   2.348   1.857  13.170  0.4628  0.1957 -0.0182
  753TMC3    C811188   2.543   1.860  13.590  0.3811  0.0578  0.0794
  753TMC3    O111189   2.377   1.897  13.061  0.0753 -0.1438  0.2983
  753TMC3    O211190   2.511   1.743  13.595 -0.1956 -0.5297 -0.1926
  754MPD2     C11191   0.972   0.829  12.992  0.1200  0.0784 -0.2369
  754MPD2    C111192   1.008   0.700  13.023  0.4292  0.9756  0.3395
  754MPD2    C211193   0.930   0.593  12.987  0.2058  0.1196  0.6543
  754MPD2    C311194   0.817   0.619  12.906  0.7240 -0.0586  0.6015
  754MPD2    C411195   0.787   0.746  12.859 -0.0567 -0.3515  1.0535
  754MPD2    C511196   0.867   0.849  12.901  0.2600  0.3254 -0.3818
  754MPD2     H11197   0.955   0.501  13.038  2.2749 -0.0934 -0.7017
  754MPD2    H111198   0.701   0.767  12.797  0.3883  0.8520  0.8599
  754MPD2    H211199   1.023   0.920  13.023  0.4713 -1.0896  2.5655
  754MPD2    H311200   0.842   0.947  12.861 -0.1640  1.0305  1.6352
  754MPD2     N11201   0.731   0.516  12.854 -0.2657  0.3571 -0.5327
  754MPD2    H511202   0.644   0.545  12.811 -0.1012 -0.0250 -1.1195
  754MPD2    N111203   1.114   0.692  13.121 -0.4337  0.1649 -0.2097
  754MPD2    H711204   1.144   0.781  13.159 -0.8784  0.9383 -1.6682
  755MPD2     C11205   4.598   0.536  12.853  0.2396 -0.0141  0.1399
  755MPD2    C111206   4.618   0.404  12.875  0.3714 -0.0079 -0.2231
  755MPD2    C211207   0.011   0.355  12.862 -0.0271  0.4862  0.3882
  755MPD2    C311208   0.121   0.440  12.835 -0.8012  0.0918  0.1413
  755MPD2    C411209   0.101   0.573  12.809 -0.6394 -0.3334  0.0195
  755MPD2    C511210   4.706   0.619  12.823 -0.0969  0.5047 -0.3704
  755MPD2     H11211   0.034   0.253  12.889  2.1392  0.8897  0.0987
  755MPD2    H111212   0.179   0.634  12.766  0.2163 -0.8907  0.7864
  755MPD2    H211213   4.498   0.577  12.859  0.8698  1.7715 -1.6161
  755MPD2    H311214   4.678   0.718  12.791  1.1206  0.3752 -1.8251
  755MPD2     N11215   0.247   0.393  12.810 -0.4165  0.2085  0.1917
  755MPD2    H511216   0.321   0.461  12.795 -0.3311 -0.2042 -1.2715
  755MPD2    N111217   4.511   0.318  12.926  0.1049 -0.5535  0.1757
  755MPD2    H711218   4.538   0.226  12.959 -1.5790 -1.7096 -1.6653
  756MPD2     C11219   1.284   1.145   9.564  0.2317  0.2413  0.0774
  756MPD2    C111220   1.251   1.057   9.671 -0.4165 -0.1671  0.2529
  756MPD2    C211221   1.121   1.026   9.697  0.2493 -0.0901 -0.6436
  756MPD2    C311222   1.016   1.073   9.619 -1.0192  0.4923 -0.3078
  756MPD2    C411223   1.045   1.165   9.522 -0.4196 -0.1325 -0.2370
  756MPD2    C511224   1.175   1.203   9.500  0.1093 -0.8573 -0.4219
  756MPD2     H11225   1.097   0.968   9.785 -0.8749 -0.7164 -1.3744
  756MPD2    H111226   0.961   1.212   9.472  1.6576  2.4376 -1.2914
  756MPD2    H211227   1.386   1.171   9.537  0.4491  0.2086  0.8811
  756MPD2    H311228   1.190   1.270   9.417 -1.6334  1.5059  1.1689
  756MPD2     N11229   0.882   1.029   9.641 -0.4376 -0.4202 -0.0316
  756MPD2    H511230   0.866   0.951   9.705  0.4213  1.3687  2.3784
  756MPD2    N111231   1.350   0.996   9.753  0.4040  0.2900  0.1821
  756MPD2    H711232   1.326   0.933   9.830  0.5525 -1.3424 -1.1210
  757MPD2     C11233   0.693   0.503  10.219 -0.8827  0.2171  0.7807
  757MPD2    C111234   0.803   0.555  10.158 -0.3941  0.0349 -0.0276
  757MPD2    C211235   0.775   0.631  10.043 -0.2202 -0.3395  0.3683
  757MPD2    C311236   0.646   0.640   9.987 -0.8419 -1.0998 -0.4249
  757MPD2    C411237   0.537   0.591  10.057 -0.0437  0.1306 -0.0640
  757MPD2    C511238   0.567   0.516  10.167 -0.0164  0.7007 -0.1762
  757MPD2     H11239   0.853   0.682   9.988 -1.9097 -0.9130 -2.5451
  757MPD2    H111240   0.431   0.603  10.037  0.3270 -0.9491 -2.6936
  757MPD2    H211241   0.700   0.466  10.320 -0.3251 -1.5623  0.0931
  757MPD2    H311242   0.483   0.490  10.230  1.4394 -2.5705  0.4114
  757MPD2     N11243   0.623   0.725   9.877 -0.1737  0.4095  0.2037
  757MPD2    H511244   0.705   0.758   9.826  0.0058  1.3460  1.1032
  757MPD2    N111245   0.933   0.536  10.219 -0.1486  0.1862  0.9038
  757MPD2    H711246   0.936   0.475  10.299  1.6781  0.3587  0.9774
  758MPD2     C11247   1.615   0.461  15.642  0.6021  0.4020  0.8388
  758MPD2    C111248   1.627   0.345  15.717  0.5481 -0.5047 -0.5626
  758MPD2    C211249   1.605   0.344  15.856 -0.4414  0.6384  0.1938
  758MPD2    C311250   1.565   0.464  15.916 -0.6574  0.1135  0.2334
  758MPD2    C411251   1.546   0.573  15.836  0.1302 -0.0854 -0.0157
  758MPD2    C511252   1.565   0.567  15.700  0.3951  0.0375  0.3590
  758MPD2     H11253   1.627   0.257  15.916  2.0968  0.9701 -0.2495
  758MPD2    H111254   1.514   0.662  15.889 -1.5083 -0.5191 -0.2633
  758MPD2    H211255   1.642   0.462  15.537  1.9510 -0.2854  1.1794
  758MPD2    H311256   1.557   0.656  15.639 -0.4756 -0.8810 -0.8588
  758MPD2     N11257   1.532   0.480  16.052  0.7145 -0.1049 -0.6666
  758MPD2    H511258   1.500   0.573  16.074 -0.7555 -0.2998 -1.9882
  758MPD2    N111259   1.671   0.228  15.647 -0.2057  0.1067 -0.6262
  758MPD2    H711260   1.709   0.245  15.554  4.1278 -2.8041  0.6352
  759MPD2     C11261   0.289   2.468   9.907  0.6256 -0.0827 -0.2795
  759MPD2    C111262   0.340   2.523  10.023  0.2961  0.1236 -0.3504
  759MPD2    C211263   0.412   2.643  10.018  0.1579 -0.6665  0.7997
  759MPD2    C311264   0.420   2.714   9.903 -0.1845 -0.4303 -0.4079
  759MPD2    C411265   0.367   2.663   9.793 -0.4964  0.1175 -0.2044
  759MPD2    C511266   0.300   2.545   9.796  0.1184  1.0058 -0.4253
  759MPD2     H11267   0.464   2.675  10.108  0.1000  1.6424  0.0077
  759MPD2    H111268   0.381   2.710   9.697 -0.6584 -0.2003 -0.3825
  759MPD2    H211269   0.237   2.373   9.909 -1.7191  1.2543  2.7586
  759MPD2    H311270   0.259   2.511   9.702  2.3435 -2.0824 -0.2759
  759MPD2     N11271   0.500   2.833   9.904  0.3408 -0.0784  0.3049
  759MPD2    H511272   0.538   2.855   9.995 -0.3784 -1.4484  0.9407
  759MPD2    N111273   0.337   2.458  10.149 -0.2373 -0.3793 -0.4334
  759MPD2    H711274   0.390   2.502  10.224 -0.7616  0.6577 -0.6652
  760MPD2     C11275   0.144   0.229  11.120  0.2664 -0.3676  0.0451
  760MPD2    C111276   0.226   0.266  11.219 -0.6164  0.1744 -0.0618
  760MPD2    C211277   0.239   0.187  11.334  0.7744 -0.5690 -0.0638
  760MPD2    C311278   0.170   0.064  11.340  0.0560  0.2614  0.1214
  760MPD2    C411279   0.084   0.032  11.237 -0.5278 -0.0662  0.2617
  760MPD2    C511280   0.065   0.117  11.130 -0.2110  0.5415 -0.2498
  760MPD2     H11281   0.300   0.217  11.418 -1.3122  0.5161  1.0476
  760MPD2    H111282   0.024   4.679  11.233  2.4509 -1.9524 -1.0078
  760MPD2    H211283   0.129   0.296  11.036 -0.7511 -1.2981 -0.5157
  760MPD2    H311284   4.729   0.100  11.052 -2.2383  2.2012  1.2660
  760MPD2     N11285   0.193   4.720  11.453  0.3705 -0.2921  0.3725
  760MPD2    H511286   0.272   0.008  11.512  0.4500 -1.0703  0.5872
  760MPD2    N111287   0.301   0.389  11.211  0.6111  0.2466 -0.4013
  760MPD2    H711288   0.357   0.413  11.293  0.0398 -0.2077  0.1194
  761MPD2     C11289   1.519   4.369  10.798 -1.5702  0.6027  0.7916
  761MPD2    C111290   1.594   4.295  10.707 -0.1293 -0.0039 -1.1762
  761MPD2    C211291   1.726   4.338  10.677  0.3852 -0.0798 -0.3752
  761MPD2    C311292   1.774   4.446  10.739  0.0083 -0.2695 -0.2953
  761MPD2    C411293   1.695   4.514  10.835  0.3461  0.2757 -0.4471
  761MPD2    C511294   1.577   4.470  10.872 -0.3731  0.1490  0.2339
  761MPD2     H11295   1.786   4.273  10.615 -0.2140  0.0723 -1.1170
  761MPD2    H111296   1.725   4.604  10.887 -1.5282  1.0682 -0.7076
  761MPD2    H211297   1.419   4.335  10.826 -2.6635  2.3305 -1.0235
  761MPD2    H311298   1.530   4.526  10.952  1.0339  2.5130 -0.6147
  761MPD2     N11299   1.904   4.492  10.715  0.0683 -0.5288 -0.0450
  761MPD2    H511300   1.938   4.576  10.761  0.1064  0.1357 -1.2783
  761MPD2    N111301   1.529   4.195  10.638 -0.0996 -0.3622  0.0466
  761MPD2    H711302   1.432   4.174  10.661 -0.1825 -0.1948 -0.1532
  762MPD2     C11303   1.640   4.121   9.895 -0.0884  0.3732  0.1504
  762MPD2    C111304   1.683   4.012   9.971 -0.4606  0.6203  0.4158
  762MPD2    C211305   1.791   3.934   9.932  0.3526 -0.4443  0.1661
  762MPD2    C311306   1.864   3.966   9.820  0.1841  0.4355 -0.0370
  762MPD2    C411307   1.832   4.082   9.746  0.6555 -0.3832 -0.9595
  762MPD2    C511308   1.720   4.153   9.789 -0.4648  0.3012 -0.2855
  762MPD2     H11309   1.823   3.854   9.997  2.5100 -1.2626 -1.9227
  762MPD2    H111310   1.879   4.094   9.650 -0.6940  1.9377 -1.3397
  762MPD2    H211311   1.560   4.188   9.924 -1.3082 -1.1087  0.1574
  762MPD2    H311312   1.693   4.245   9.737 -1.7885 -0.6600 -1.2908
  762MPD2     N11313   1.973   3.891   9.789  0.2499  0.2571 -0.2691
  762MPD2    H511314   1.964   3.794   9.819 -1.0914  0.5531  0.2444
  762MPD2    N111315   1.613   3.990  10.090 -0.0870  0.0816  0.1220
  762MPD2    H711316   1.533   4.050  10.107  1.4431  2.0159  0.4527
  763MPD2     C11317   3.484   0.236  15.924 -0.8678  0.5129 -0.1231
  763MPD2    C111318   3.414   0.307  15.833  0.0143  0.8064  0.4586
  763MPD2    C211319   3.412   0.447  15.834 -0.9244 -0.4942  0.4348
  763MPD2    C311320   3.495   0.516  15.926 -0.1653 -0.9315  0.1212
  763MPD2    C411321   3.565   0.438  16.016  0.0668 -0.5741 -0.0428
  763MPD2    C511322   3.557   0.304  16.020  0.0263  0.4672 -0.2169
  763MPD2     H11323   3.347   0.507  15.770 -1.0174 -1.6812 -0.5770
  763MPD2    H111324   3.622   0.476  16.100 -0.1481 -0.6869  0.1540
  763MPD2    H211325   3.469   0.130  15.940 -2.4563  0.8523  0.7071
  763MPD2    H311326   3.590   0.244  16.104  3.9091  3.4613  0.3909
  763MPD2     N11327   3.509   0.655  15.936 -0.6042 -0.4419  0.2771
  763MPD2    H511328   3.441   0.704  15.878  0.0306  0.3688  0.2257
  763MPD2    N111329   3.343   0.243  15.729 -0.7999  0.7829 -0.1623
  763MPD2    H711330   3.290   0.308  15.673  1.4251  1.3538 -1.5961
  764MPD2     C11331   1.492   2.007  17.209 -0.0770  0.0216 -0.7538
  764MPD2    C111332   1.361   1.980  17.219 -0.1487  0.7601  0.1808
  764MPD2    C211333   1.308   1.931  17.339 -0.0598 -0.0520  0.3984
  764MPD2    C311334   1.398   1.910  17.439  0.6467  0.1199  0.8006
  764MPD2    C411335   1.531   1.942  17.425 -0.3703  0.0149  0.1265
  764MPD2    C511336   1.581   1.983  17.308  0.6771 -1.2498 -0.1760
  764MPD2     H11337   1.201   1.928  17.351 -0.2710  0.4948 -1.2585
  764MPD2    H111338   1.605   1.937  17.505 -0.6464 -0.9778  0.3211
  764MPD2    H211339   1.540   2.050  17.122 -0.0730 -0.6649 -1.0956
  764MPD2    H311340   1.685   2.006  17.290  0.1625  0.3249 -1.1550
  764MPD2     N11341   1.345   1.861  17.559  0.0196  0.3209  0.2528
  764MPD2    H511342   1.244   1.850  17.554 -0.2098  2.1409  1.1103
  764MPD2    N111343   1.275   2.010  17.113  0.3822  0.1946 -0.2419
  764MPD2    H711344   1.180   1.980  17.134  0.0251  0.7278 -1.1093
  765MPD2     C11345   1.325   4.433  15.272 -0.0802 -0.0499  0.4956
  765MPD2    C111346   1.346   4.503  15.392  0.2690  0.7817  0.3735
  765MPD2    C211347   1.471   4.493  15.451 -0.4662  0.0305  0.5242
  765MPD2    C311348   1.571   4.425  15.384  0.8303  1.0736 -0.3776
  765MPD2    C411349   1.554   4.366  15.256 -0.2773  0.4825 -0.0269
  765MPD2    C511350   1.431   4.371  15.202 -0.0934 -0.5893 -0.2043
  765MPD2     H11351   1.502   4.538  15.544  1.0841  0.0853 -0.0192
  765MPD2    H111352   1.632   4.322  15.194 -0.0587  0.9025 -0.0526
  765MPD2    H211353   1.239   4.432  15.206 -0.4156  1.7710  0.9049
  765MPD2    H311354   1.438   4.329  15.103 -1.2147  0.1193 -0.5804
  765MPD2     N11355   1.692   4.416  15.451  0.3291 -0.3083  0.0570
  765MPD2    H511356   1.697   4.443  15.548  0.9461 -1.4937  0.3610
  765MPD2    N111357   1.243   4.583  15.446  0.5171 -0.3733  0.0788
  765MPD2    H711358   1.160   4.581  15.387  0.6614 -0.3381 -0.1235
  766MPD2     C11359   0.600   0.021  15.201  0.1877  0.6340  0.3101
  766MPD2    C111360   0.729   4.709  15.215  0.0641  0.2934 -0.0678
  766MPD2    C211361   0.783   4.632  15.117 -0.3623 -0.3412 -0.5005
  766MPD2    C311362   0.711   4.601  15.007 -0.2525 -0.1658  0.6015
  766MPD2    C411363   0.579   4.644  14.995 -0.3452  0.0564 -1.0979
  766MPD2    C511364   0.529   4.722  15.095 -0.3560 -0.0907  0.2940
  766MPD2     H11365   0.888   4.608  15.129 -0.9393 -1.9399  1.4007
  766MPD2    H111366   0.527   4.615  14.905 -0.0432 -0.2163 -1.1886
  766MPD2    H211367   0.560   0.083  15.280  2.4109 -0.9934  2.7530
  766MPD2    H311368   0.424   0.007  15.087 -0.9002 -2.3168  1.2772
  766MPD2     N11369   0.768   4.531  14.904  0.6593  0.8428 -0.5192
  766MPD2    H511370   0.721   4.525  14.814  0.5767 -0.2065 -0.4058
  766MPD2    N111371   0.805   4.722  15.334  0.0276  0.3843  0.3969
  766MPD2    H711372   0.896   4.676  15.335 -0.1465  0.0060 -0.9532
  767MPD2     C11373   0.520   0.157  14.810 -0.6188 -0.8276 -0.3038
  767MPD2    C111374   0.639   0.134  14.753  0.6113 -0.4186 -0.5402
  767MPD2    C211375   0.653   0.049  14.646 -0.8664 -0.0976 -0.4146
  767MPD2    C311376   0.543   4.721  14.603 -0.2749 -0.6732  0.3607
  767MPD2    C411377   0.414   0.020  14.651  0.0476  0.3226 -0.3608
  767MPD2    C511378   0.406   0.107  14.758  0.6400 -1.3057 -0.7096
  767MPD2     H11379   0.749   0.047  14.597 -2.0700 -3.0284 -2.6072
  767MPD2    H111380   0.323   4.710  14.616  0.1214  1.2738 -1.8009
  767MPD2    H211381   0.512   0.224  14.895 -0.5609 -0.4919 -0.5674
  767MPD2    H311382   0.308   0.136  14.793  0.3623 -1.4017 -1.4130
  767MPD2     N11383   0.561   4.626  14.499 -0.4609  0.2697  0.7487
  767MPD2    H511384   0.657   4.607  14.472 -0.2590  1.0938  0.8871
  767MPD2    N111385   0.749   0.181  14.831 -0.1756  0.0486  0.9522
  767MPD2    H711386   0.725   0.218  14.922 -2.8842  0.0471  0.2310
  768MPD2     C11387   1.608   2.386  10.252 -0.8067  0.3135  0.0283
  768MPD2    C111388   1.624   2.308  10.359  0.6928 -0.5814  0.0727
  768MPD2    C211389   1.741   2.315  10.427  0.1916 -0.3467 -0.2714
  768MPD2    C311390   1.845   2.391  10.382  0.5782 -0.1153 -0.1140
  768MPD2    C411391   1.831   2.469  10.275 -0.2671  0.5209  0.1563
  768MPD2    C511392   1.710   2.463  10.207  0.3167  0.8401  0.2595
  768MPD2     H11393   1.744   2.263  10.522 -0.4955  2.0479  1.0685
  768MPD2    H111394   1.911   2.538  10.252 -0.9918  0.6239 -2.0342
  768MPD2    H211395   1.514   2.391  10.199 -0.9565  0.4557  0.3077
  768MPD2    H311396   1.688   2.533  10.127 -0.8062  0.2065  0.0174
  768MPD2     N11397   1.980   2.395  10.443 -0.8273 -0.0611 -0.6985
  768MPD2    H511398   2.038   2.472  10.412  0.4913 -1.1739 -0.9932
  768MPD2    N111399   1.521   2.231  10.418 -0.3837 -0.1685 -0.0771
  768MPD2    H711400   1.529   2.195  10.513 -1.0378  0.1995  0.1230
  769MPD2     C11401   2.373   1.146  15.157  0.1901 -0.2789 -0.1512
  769MPD2    C111402   2.273   1.236  15.173 -0.5672  0.5694 -0.2758
  769MPD2    C211403   2.297   1.369  15.209  0.5266 -0.0628  0.1192
  769MPD2    C311404   2.429   1.404  15.233  0.1683 -0.1939  0.0448
  769MPD2    C411405   2.533   1.313  15.222  0.8758  0.4508  0.0779
  769MPD2    C511406   2.502   1.190  15.190 -0.8087  0.0957  0.1990
  769MPD2     H11407   2.220   1.445  15.212 -1.1366 -1.6942 -0.5762
  769MPD2    H111408   2.634   1.346  15.243  1.7221 -0.3018 -2.8288
  769MPD2    H211409   2.354   1.043  15.128 -0.2786  0.5724 -2.8688
  769MPD2    H311410   2.588   1.124  15.187 -0.7575  0.2335 -1.3707
  769MPD2     N11411   2.447   1.528  15.307 -0.1194  0.2478 -0.0636
  769MPD2    H511412   2.362   1.571  15.342 -2.0223 -1.8133 -2.1499
  769MPD2    N111413   2.142   1.184  15.146  0.4284  0.4244 -0.0003
  769MPD2    H711414   2.125   1.085  15.129  3.6956 -0.1044 -0.1661
  770MPD2     C11415   2.247   0.442  14.859 -0.4841 -0.2998  0.3782
  770MPD2    C111416   2.121   0.432  14.806 -1.1810 -0.0402  0.5598
  770MPD2    C211417   2.036   0.537  14.822  0.4356  0.1713  0.1574
  770MPD2    C311418   2.074   0.651  14.895  0.6695 -0.6549 -0.3958
  770MPD2    C411419   2.199   0.654  14.950  0.0117 -1.0031  0.5825
  770MPD2    C511420   2.285   0.548  14.934 -0.1500  0.4784  0.0122
  770MPD2     H11421   1.936   0.534  14.779  0.5663 -1.6632 -0.0024
  770MPD2    H111422   2.241   0.732  15.012 -0.5104 -1.0488  0.9893
  770MPD2    H211423   2.310   0.359  14.832 -0.8304 -0.0905 -1.1049
  770MPD2    H311424   2.378   0.561  14.987 -0.3901  0.8970  0.3373
  770MPD2     N11425   1.984   0.758  14.918  0.3132 -0.1552 -0.2975
  770MPD2    H511426   1.896   0.768  14.868  0.6610  1.4895 -0.6040
  770MPD2    N111427   2.092   0.317  14.731  0.3089  0.7444  0.3754
  770MPD2    H711428   2.160   0.245  14.713 -1.4934 -0.7803 -0.3548
  771MPD2     C11429   3.370   3.774  13.472  0.4382  0.3537 -0.0203
  771MPD2    C111430   3.301   3.891  13.485 -0.7321  0.3103 -0.3321
  771MPD2    C211431   3.170   3.895  13.440  0.1277  0.4775  0.4764
  771MPD2    C311432   3.111   3.786  13.375 -0.4696  0.0929 -0.5841
  771MPD2    C411433   3.188   3.669  13.366 -0.0348  0.7599  0.5984
  771MPD2    C511434   3.316   3.661  13.413 -0.5649  0.3272 -0.1094
  771MPD2     H11435   3.109   3.984  13.451  0.3702  0.6624  0.3239
  771MPD2    H111436   3.153   3.574  13.325  0.3455  0.4735  0.9399
  771MPD2    H211437   3.467   3.752  13.513 -0.4257  0.4177  2.0906
  771MPD2    H311438   3.377   3.573  13.398  1.9404  1.9218  0.8233
  771MPD2     N11439   2.979   3.807  13.338 -0.1206 -0.2499 -0.1520
  771MPD2    H511440   2.943   3.900  13.357 -0.9145 -0.6750  0.4007
  771MPD2    N111441   3.351   4.010  13.544 -0.3603 -0.3574  0.3038
  771MPD2    H711442   3.287   4.088  13.551 -1.5731 -1.1282 -2.3113
  772MPD2     C11443   3.129   4.606  13.854 -0.7356  0.3066 -0.4608
  772MPD2    C111444   3.119   4.503  13.756 -0.6766 -0.2703  0.2770
  772MPD2    C211445   3.003   4.464  13.689  1.0465  0.9754  0.1866
  772MPD2    C311446   2.889   4.536  13.728 -0.1177  1.0041 -0.1536
  772MPD2    C411447   2.889   4.629  13.827 -0.2969 -0.6523  0.8568
  772MPD2    C511448   3.012   4.668  13.887 -0.4155  0.9245 -0.4137
  772MPD2     H11449   3.004   4.384  13.616 -0.5703 -0.3639  1.6147
  772MPD2    H111450   2.796   4.677  13.853 -0.2967 -0.7157  0.9765
  772MPD2    H211451   3.217   4.642  13.907 -1.2620  1.1080 -0.1325
  772MPD2    H311452   3.012   4.727  13.978  0.7625 -0.2392  0.3430
  772MPD2     N11453   2.765   4.511  13.672  1.4486 -0.2411  0.2380
  772MPD2    H511454   2.688   4.564  13.711  1.2908  0.5570 -1.1542
  772MPD2    N111455   3.231   4.433  13.717 -0.3886 -0.2341 -0.3964
  772MPD2    H711456   3.218   4.362  13.646 -1.1058 -0.9680  0.4689
  773MPD2     C11457   2.457   1.149   0.245 -1.2405  0.5006  0.0929
  773MPD2    C111458   2.386   1.031   0.246  0.3660  0.0152 -0.2747
  773MPD2    C211459   2.446   0.924   0.307  0.6937 -0.4248 -0.0403
  773MPD2    C311460   2.564   0.930   0.364 -0.5750 -0.2408 -0.1761
  773MPD2    C411461   2.637   1.048   0.366 -0.4223  0.4839  0.2615
  773MPD2    C511462   2.580   1.157   0.315  0.2090 -0.1427 -0.5904
  773MPD2     H11463   2.391   0.831   0.303 -1.9382  1.2108 -1.4511
  773MPD2    H111464   2.732   1.049   0.418 -0.3052 -2.2867  0.1163
  773MPD2    H211465   2.420   1.239   0.196  0.8820  1.7007  0.6991
  773MPD2    H311466   2.617   1.258   0.325  0.4360 -0.4505  1.7857
  773MPD2     N11467   2.614   0.808   0.408  0.1290 -0.8039  0.1580
  773MPD2    H511468   2.563   0.727   0.375  2.8049 -2.5383  0.2307
  773MPD2    N111469   2.264   1.019   0.181  0.0600 -0.4566  0.1131
  773MPD2    H711470   2.226   0.925   0.176 -1.8734  0.2984  0.5819
  774MPD2     C11471   0.951   4.514  13.462 -0.1542  0.3946  0.1516
  774MPD2    C111472   1.084   4.542  13.435 -0.1767 -0.5183 -0.3922
  774MPD2    C211473   1.130   4.677  13.430  0.0944 -0.3024 -0.1728
  774MPD2    C311474   1.040   0.042  13.456  0.1149  0.0496 -0.0099
  774MPD2    C411475   0.907   0.013  13.487 -0.0611  0.0835  0.2963
  774MPD2    C511476   0.865   4.623  13.485 -0.0390  0.4128  0.0507
  774MPD2     H11477   1.234   4.693  13.404 -0.2656  0.6835 -0.9985
  774MPD2    H111478   0.842   0.096  13.512 -0.8037 -0.7468  1.1396
  774MPD2    H211479   0.915   4.412  13.477 -0.1378  0.0450 -2.2921
  774MPD2    H311480   0.763   4.591  13.499 -0.5841  2.5125  0.8446
  774MPD2     N11481   1.076   0.179  13.456 -0.0032 -0.3146 -0.1867
  774MPD2    H511482   1.008   0.247  13.488  1.0260  0.8766 -0.5482
  774MPD2    N111483   1.173   4.431  13.414 -0.0159 -0.1003 -0.2182
  774MPD2    H711484   1.137   4.337  13.399 -2.8673  1.3100 -2.1783
  775MPD2     C11485   2.720   1.384  15.571 -0.0983  1.0046  0.1539
  775MPD2    C111486   2.757   1.486  15.652 -0.3563  0.0733 -0.3051
  775MPD2    C211487   2.873   1.542  15.613 -0.0372  0.1234  0.1168
  775MPD2    C311488   2.966   1.495  15.521 -0.5240 -0.0805  0.3734
  775MPD2    C411489   2.930   1.383  15.455  0.2320 -0.0947  0.1381
  775MPD2    C511490   2.804   1.329  15.482  0.2782 -0.0649  0.0307
  775MPD2     H11491   2.897   1.635  15.664 -0.4876 -0.0134  0.5793
  775MPD2    H111492   2.993   1.340  15.378 -1.1449  1.8116 -2.0359
  775MPD2    H211493   2.622   1.342  15.593  0.4044 -0.1696  0.1185
  775MPD2    H311494   2.773   1.238  15.431 -1.7707  0.2628  0.6834
  775MPD2     N11495   3.089   1.562  15.495 -0.2358  0.4347 -0.5807
  775MPD2    H511496   3.145   1.518  15.423 -1.4551 -0.6983 -0.8457
  775MPD2    N111497   2.676   1.515  15.763  0.0389  0.1477  0.3328
  775MPD2    H711498   2.616   1.437  15.787  0.1617  0.7958  2.7422
  776MPD2     C11499   1.785   0.988  11.357  0.1327  0.1435  0.2999
  776MPD2    C111500   1.922   0.975  11.350  0.1470 -0.4136 -0.6270
  776MPD2    C211501   2.002   1.084  11.308 -0.0470  0.0515 -0.0430
  776MPD2    C311502   1.939   1.191  11.253  0.0818 -0.0704  0.1639
  776MPD2    C411503   1.802   1.209  11.250 -0.2535  0.2234  0.9788
  776MPD2    C511504   1.733   1.102  11.305 -0.0839 -0.0150 -0.0671
  776MPD2     H11505   2.110   1.073  11.307 -0.1868 -1.3953  1.1173
  776MPD2    H111506   1.744   1.295  11.219 -0.5130 -0.0956  0.5825
  776MPD2    H211507   1.721   0.919  11.410  0.3019 -0.3354 -0.1202
  776MPD2    H311508   1.625   1.098  11.310 -0.2179  2.1888 -0.8729
  776MPD2     N11509   2.010   1.294  11.190 -0.2913  0.0762  0.0396
  776MPD2    H511510   1.951   1.353  11.132 -0.4679 -0.0895  0.0516
  776MPD2    N111511   1.978   0.846  11.386  0.4204 -0.5768 -0.4675
  776MPD2    H711512   1.907   0.782  11.420  1.5131 -0.3188  2.2751
  777MPD2     C11513   2.452   4.298   0.828 -0.4856 -0.3468 -1.0893
  777MPD2    C111514   2.321   4.267   0.861  0.7697 -0.5765 -0.0258
  777MPD2    C211515   2.260   4.140   0.833  0.4738  0.1934  0.0157
  777MPD2    C311516   2.326   4.050   0.760  0.3226  0.0872  0.2812
  777MPD2    C411517   2.454   4.084   0.718 -0.7181  0.7854  0.0013
  777MPD2    C511518   2.512   4.201   0.753  0.0122  0.3268 -0.2702
  777MPD2     H11519   2.163   4.111   0.870  2.2263 -0.6464  3.9437
  777MPD2    H111520   2.535   4.025   0.675  0.0306  0.2094  2.2000
  777MPD2    H211521   2.501   4.391   0.856 -0.6698 -1.0962  1.7478
  777MPD2    H311522   2.616   4.208   0.721  0.0060  1.1845 -0.0967
  777MPD2     N11523   2.261   3.934   0.731  0.1894  0.1661  0.5487
  777MPD2    H511524   2.166   3.914   0.761 -0.0264 -0.7098 -0.7493
  777MPD2    N111525   2.259   4.375   0.931 -0.0334 -0.3239  0.5458
  777MPD2    H711526   2.296   4.468   0.917 -1.3260  0.1656  0.3016
  778MPD2     C11527   3.245   3.941  14.791  0.7409 -0.3113  0.7274
  778MPD2    C111528   3.188   3.818  14.772 -0.7780 -0.2443 -0.2379
  778MPD2    C211529   3.167   3.771  14.645  0.2845 -0.4313 -0.0914
  778MPD2    C311530   3.191   3.856  14.542  0.2434  0.4229 -0.1234
  778MPD2    C411531   3.239   3.989  14.558 -0.5585  0.4451  0.0662
  778MPD2    C511532   3.264   4.026  14.687  0.7015  0.0429 -0.4835
  778MPD2     H11533   3.136   3.668  14.633 -0.3910  0.0574 -2.5034
  778MPD2    H111534   3.270   4.055  14.478  2.0658 -1.7505 -0.7418
  778MPD2    H211535   3.250   3.993  14.886 -0.6608 -0.7129  1.0237
  778MPD2    H311536   3.299   4.127  14.709  2.8914 -0.7837 -0.1842
  778MPD2     N11537   3.182   3.795  14.421 -0.0054  0.0402  0.8712
  778MPD2    H511538   3.152   3.698  14.426 -0.4086 -0.0198 -2.3776
  778MPD2    N111539   3.148   3.731  14.878 -0.5074 -0.0230  0.1692
  778MPD2    H711540   3.088   3.653  14.854 -2.2629  1.0551  1.1289
  779MPD2     C11541   2.856   2.860  14.324 -0.0936  0.3316 -0.0609
  779MPD2    C111542   2.883   2.800  14.205  0.0337 -0.4633  0.2344
  779MPD2    C211543   2.881   2.879  14.087 -0.3229 -0.1320  0.0919
  779MPD2    C311544   2.860   3.018  14.086  0.0875 -0.0067  0.3884
  779MPD2    C411545   2.830   3.071  14.212 -0.3031  0.7409 -0.0800
  779MPD2    C511546   2.829   2.988  14.324 -0.4763  0.2353 -0.8355
  779MPD2     H11547   2.918   2.834  13.996  0.5761 -1.4454  1.1036
  779MPD2    H111548   2.813   3.177  14.226 -0.6375  0.5601  0.8907
  779MPD2    H211549   2.868   2.812  14.420  1.0859  0.6256 -0.0637
  779MPD2    H311550   2.801   3.027  14.421  0.5144 -0.2099 -0.3846
  779MPD2     N11551   2.897   3.099  13.975 -0.2956  0.5224  0.3228
  779MPD2    H511552   2.959   3.062  13.904 -1.5555 -0.3234 -0.3295
  779MPD2    N111553   2.928   2.663  14.188 -0.2444 -0.2305  1.0393
  779MPD2    H711554   2.927   2.635  14.090 -1.9607  0.1646  0.9574
  780MPD2     C11555   2.942   2.911   0.871  0.5302 -0.5004 -0.0026
  780MPD2    C111556   2.853   2.924   0.767  0.1573 -0.1796 -0.2154
  780MPD2    C211557   2.892   2.998   0.653  0.2956 -0.0990  0.2171
  780MPD2    C311558   3.023   3.052   0.645  0.1862  0.7429  0.2781
  780MPD2    C411559   3.106   3.036   0.751  0.1611 -0.1310 -0.1045
  780MPD2    C511560   3.068   2.965   0.861  0.2855  0.1894  0.3817
  780MPD2     H11561   2.824   3.017   0.571  1.6326 -0.2229 -0.9256
  780MPD2    H111562   3.211   3.058   0.743  0.1911 -0.2481 -0.0332
  780MPD2    H211563   2.922   2.860   0.965 -1.1202  2.0398  1.0471
  780MPD2    H311564   3.145   2.942   0.933  0.7269  1.7632  0.4091
  780MPD2     N11565   3.072   3.085   0.517 -0.5019  0.4027 -0.3621
  780MPD2    H511566   3.009   3.085   0.437 -0.4129  0.3475 -0.4326
  780MPD2    N111567   2.723   2.863   0.772 -0.6797 -0.0628  0.0541
  780MPD2    H711568   2.708   2.803   0.852  0.0312 -0.9570 -0.4815
  781MPD2     C11569   4.410   3.599  12.065 -0.4907 -0.0305 -0.0744
  781MPD2    C111570   4.499   3.597  12.172  0.3940  0.6624 -0.4682
  781MPD2    C211571   4.632   3.585  12.149 -0.1918 -0.3540 -0.3739
  781MPD2    C311572   4.688   3.569  12.024 -0.3603  0.3279 -0.1573
  781MPD2    C411573   4.602   3.569  11.919 -0.9393 -0.5848 -0.2738
  781MPD2    C511574   4.463   3.576  11.940  0.1645  0.2901 -0.3972
  781MPD2     H11575   4.693   3.588  12.239 -0.2897  1.7011 -0.3759
  781MPD2    H111576   4.638   3.561  11.818 -1.0376 -1.1289 -0.2675
  781MPD2    H211577   4.304   3.612  12.083 -0.2017  0.5383  1.1754
  781MPD2    H311578   4.398   3.577  11.853  0.4237  1.2076 -0.5848
  781MPD2     N11579   0.095   3.581  12.002 -0.2673 -0.3265  0.3000
  781MPD2    H511580   0.122   3.592  11.905  1.6857  0.2201  0.9045
  781MPD2    N111581   4.464   3.614  12.310 -0.0857 -0.0050 -0.2739
  781MPD2    H711582   4.537   3.606  12.381  1.0219 -0.1115 -1.4345
  782MPD2     C11583   2.771   0.146   9.785 -0.3184  0.2288 -0.0657
  782MPD2    C111584   2.843   0.127   9.907  0.1020  0.0160 -0.1257
  782MPD2    C211585   2.807   0.199  10.020 -0.7116  0.3281  0.4011
  782MPD2    C311586   2.724   0.306  10.006 -0.6617 -0.8522  0.1369
  782MPD2    C411587   2.651   0.323   9.892 -0.0715  0.0653  0.2668
  782MPD2    C511588   2.674   0.241   9.786 -0.1419  0.4070 -0.4811
  782MPD2     H11589   2.855   0.179  10.115  0.2645  0.1580 -0.1397
  782MPD2    H111590   2.586   0.409   9.880  0.7879  0.6850  0.0630
  782MPD2    H211591   2.793   0.079   9.703 -0.6806 -0.8464  0.7072
  782MPD2    H311592   2.611   0.256   9.699 -1.4556 -1.5717  0.1421
  782MPD2     N11593   2.723   0.398  10.105 -0.3584  0.3396 -0.5923
  782MPD2    H511594   2.771   0.367  10.189 -3.4188 -1.2639  0.5404
  782MPD2    N111595   2.937   0.027   9.929  0.0227  0.3643  0.3548
  782MPD2    H711596   2.975   0.015  10.023  1.5811 -3.2715 -0.7261
  783MPD2     C11597   2.432   4.189  10.203  0.6444 -0.4764  0.6413
  783MPD2    C111598   2.484   4.305  10.261 -0.3399  0.1866 -0.7419
  783MPD2    C211599   2.612   4.349  10.219 -0.5195 -0.1665 -0.2213
  783MPD2    C311600   2.684   4.288  10.117  0.4228 -0.2968 -0.0909
  783MPD2    C411601   2.623   4.178  10.056 -0.2223  0.1335 -0.2588
  783MPD2    C511602   2.500   4.130  10.095 -0.1408 -0.2840  0.4552
  783MPD2     H11603   2.658   4.439  10.259 -0.3801 -0.4688  0.2920
  783MPD2    H111604   2.676   4.127   9.977  0.0631  0.1213 -0.0616
  783MPD2    H211605   2.335   4.153  10.232  0.6881  0.1154  1.5176
  783MPD2    H311606   2.444   4.048  10.052 -0.2000  0.2546 -0.4887
  783MPD2     N11607   2.812   4.339  10.082 -0.4877 -0.2318 -0.2083
  783MPD2    H511608   2.848   4.419  10.135  1.4263 -0.3269 -1.3596
  783MPD2    N111609   2.402   4.370  10.356 -0.2933  0.7649  0.6316
  783MPD2    H711610   2.316   4.321  10.378 -1.0755  0.2487 -3.4680
  784MPD2     C11611   4.421   0.996   0.728 -0.8704 -0.6937  0.0468
  784MPD2    C111612   4.479   1.122   0.760  0.1888  0.7922 -0.2590
  784MPD2    C211613   4.447   1.236   0.684  0.2825  0.2990  0.2747
  784MPD2    C311614   4.367   1.227   0.575  0.1174 -0.0867 -0.1272
  784MPD2    C411615   4.303   1.104   0.548  0.1498  0.1647  0.5444
  784MPD2    C511616   4.339   0.990   0.620 -0.4023  0.0002 -0.3752
  784MPD2     H11617   4.502   1.327   0.705  0.0178  0.6196 -0.4489
  784MPD2    H111618   4.242   1.080   0.462  0.0754  3.3569 -0.2678
  784MPD2    H211619   4.439   0.907   0.786  2.5955  0.8427  1.2936
  784MPD2    H311620   4.296   0.896   0.588 -1.2909  0.3181 -0.1238
  784MPD2     N11621   4.335   1.344   0.503  0.1973 -0.8885  0.3076
  784MPD2    H511622   4.380   1.429   0.536 -0.1376  0.2455 -2.1448
  784MPD2    N111623   4.565   1.134   0.871 -0.4111  0.1833 -0.1099
  784MPD2    H711624   4.599   1.226   0.894 -2.5790  1.0874 -0.5876
  785MPD2     C11625   0.867   4.572  10.634  0.0757  0.2040  0.6528
  785MPD2    C111626   0.781   4.517  10.730 -0.3606  0.6633  0.1388
  785MPD2    C211627   0.778   4.380  10.733  0.1672  0.6761 -0.5850
  785MPD2    C311628   0.847   4.300  10.646  0.7983  0.2875 -0.0564
  785MPD2    C411629   0.936   4.357  10.559  0.1348 -0.4296  0.2494
  785MPD2    C511630   0.948   4.495  10.557 -0.0593 -0.4904 -0.1299
  785MPD2     H11631   0.715   4.333  10.807 -2.6011  2.6759 -1.6815
  785MPD2    H111632   1.003   4.292  10.503 -0.2329  1.1457 -2.0109
  785MPD2    H211633   0.883   4.679  10.639  1.3647  0.1035 -1.3541
  785MPD2    H311634   1.025   4.543  10.497 -0.5977 -0.9796 -1.2107
  785MPD2     N11635   0.828   4.161  10.672 -0.8227  0.0653 -0.3568
  785MPD2    H511636   0.762   4.134  10.744 -2.8964  0.0247 -2.2441
  785MPD2    N111637   0.711   4.614  10.811 -0.3140  0.0108 -0.5779
  785MPD2    H711638   0.735   4.711  10.796  1.8694 -0.5826 -0.9547
  786MPD2     C11639   3.602   2.020  14.915 -0.4313  0.6281  0.9130
  786MPD2    C111640   3.698   2.054  14.817  0.2600  0.3364  0.2714
  786MPD2    C211641   3.793   2.147  14.856  0.2258 -0.1516  0.1216
  786MPD2    C311642   3.802   2.195  14.984 -0.3825 -0.4462 -0.1735
  786MPD2    C411643   3.713   2.153  15.081  0.3972  0.6501  0.0890
  786MPD2    C511644   3.614   2.068  15.040  0.0132 -0.0976 -0.2077
  786MPD2     H11645   3.864   2.175  14.778  0.7962 -0.9091  0.3686
  786MPD2    H111646   3.718   2.187  15.184 -1.4182  1.1475  0.0092
  786MPD2    H211647   3.523   1.950  14.892  0.2933 -0.2304  1.0513
  786MPD2    H311648   3.533   2.050  15.110 -0.0211 -2.0046 -0.7517
  786MPD2     N11649   3.903   2.281  15.021  0.2531 -0.5148  0.4546
  786MPD2    H511650   3.912   2.295  15.121  0.2003  1.7074  0.1318
  786MPD2    N111651   3.688   2.009  14.689 -0.3968  1.0164  0.1503
  786MPD2    H711652   3.773   2.027  14.637  0.1588  0.1557  0.7647
  787MPD2     C11653   3.993   1.454  14.770 -0.2547 -0.4091  0.1270
  787MPD2    C111654   3.947   1.456  14.641  0.3765  0.2477  0.2788
  787MPD2    C211655   3.993   1.358  14.554  0.3033 -0.0910 -0.3420
  787MPD2    C311656   4.083   1.260  14.601 -0.1654 -0.4849 -0.0823
  787MPD2    C411657   4.123   1.262  14.734 -0.4461 -0.0376 -0.1594
  787MPD2    C511658   4.079   1.360  14.819  0.4139 -0.8111  0.5825
  787MPD2     H11659   3.968   1.349  14.448  0.5922 -0.1662 -0.4029
  787MPD2    H111660   4.186   1.183  14.771 -0.5501 -0.1115 -0.1411
  787MPD2    H211661   3.942   1.526  14.834 -0.3195 -0.8705  0.5962
  787MPD2    H311662   4.111   1.364  14.923 -1.6768 -0.0249  1.2039
  787MPD2     N11663   4.123   1.163  14.499  0.1563 -0.3751 -0.1965
  787MPD2    H511664   4.090   1.183  14.405  0.9178 -0.5168 -0.4994
  787MPD2    N111665   3.865   1.563  14.586  0.1722  0.3890  0.0174
  787MPD2    H711666   3.840   1.647  14.637  0.0502  0.0338  0.5405
  788MPD2     C11667   0.707   0.700   0.649  0.0222  0.6154 -0.0780
  788MPD2    C111668   0.809   0.627   0.582  0.6000 -0.1306  0.4377
  788MPD2    C211669   0.914   0.700   0.529  0.4861 -0.2136  0.2247
  788MPD2    C311670   0.904   0.838   0.522  0.4268  0.0998 -0.5292
  788MPD2    C411671   0.803   0.908   0.586  0.0634  0.5554  0.3757
  788MPD2    C511672   0.696   0.839   0.652 -0.1279 -0.5329  0.1892
  788MPD2     H11673   0.995   0.643   0.484  0.5406  1.7567 -2.1249
  788MPD2    H111674   0.807   1.016   0.585  1.0947  0.4788 -2.6167
  788MPD2    H211675   0.623   0.646   0.693  1.0797 -1.7471 -0.9296
  788MPD2    H311676   0.614   0.892   0.700  2.2759  1.3881  2.1323
  788MPD2     N11677   1.004   0.923   0.465 -0.2393  0.0346 -0.6582
  788MPD2    H511678   0.987   1.020   0.490 -0.4193 -0.3239  0.6271
  788MPD2    N111679   0.804   0.492   0.596 -0.4574  0.5603 -0.4875
  788MPD2    H711680   0.739   0.454   0.664 -0.6803  0.5951 -0.6816
  789MPD2     C11681   1.360   0.280  16.658  0.0460 -0.3466 -0.8099
  789MPD2    C111682   1.275   0.257  16.544 -0.2296 -0.5572 -0.3388
  789MPD2    C211683   1.149   0.314  16.548  0.0835  0.0580  0.1911
  789MPD2    C311684   1.105   0.380  16.657  0.1630  0.4315 -0.2131
  789MPD2    C411685   1.192   0.399  16.767 -0.0145  0.1745 -0.2917
  789MPD2    C511686   1.321   0.355  16.765 -0.1156 -0.5038  0.0272
  789MPD2     H11687   1.088   0.318  16.458  1.5567 -2.7829 -0.9516
  789MPD2    H111688   1.157   0.456  16.852 -0.3319  0.1349 -0.3948
  789MPD2    H211689   1.452   0.224  16.658 -0.5697 -1.3674 -0.5461
  789MPD2    H311690   1.381   0.387  16.849 -1.1756  2.3391 -0.3001
  789MPD2     N11691   0.978   0.448  16.662 -0.0447 -0.0137  0.4018
  789MPD2    H511692   0.952   0.498  16.746  1.1351 -0.4028  0.9905
  789MPD2    N111693   1.316   0.181  16.432  0.1661 -0.2669 -0.4652
  789MPD2    H711694   1.247   0.165  16.359 -0.7459 -0.1358  0.3692
  790MPD2     C11695   1.696   1.563  13.544  0.2224  0.0289 -0.1305
  790MPD2    C111696   1.790   1.475  13.578 -1.2695 -0.4768 -0.3965
  790MPD2    C211697   1.792   1.347  13.523  0.7167  0.6919 -0.3576
  790MPD2    C311698   1.700   1.317  13.422  0.2597 -0.4453 -0.4181
  790MPD2    C411699   1.606   1.406  13.381  0.3123  0.5745 -0.0372
  790MPD2    C511700   1.600   1.523  13.449 -0.4978 -0.4716  0.2795
  790MPD2     H11701   1.863   1.269  13.551  0.1330  0.9484  1.8568
  790MPD2    H111702   1.537   1.385  13.300  2.1713  1.4392 -1.8467
  790MPD2    H211703   1.683   1.663  13.584 -1.9147 -1.5881  3.2184
  790MPD2    H311704   1.531   1.601  13.420  0.9444 -0.6614 -3.7270
  790MPD2     N11705   1.709   1.191  13.358  0.8009  0.5739  0.2773
  790MPD2    H511706   1.789   1.133  13.382 -1.6933 -2.3901  1.4963
  790MPD2    N111707   1.886   1.513  13.676  0.9003  0.1653 -0.0739
  790MPD2    H711708   1.883   1.607  13.715 -1.6454  0.1180 -0.1305
  791MPD2     C11709   1.254   1.033  12.830  0.0462  0.0155  0.3684
  791MPD2    C111710   1.304   0.904  12.859  1.0813 -0.0882 -0.3152
  791MPD2    C211711   1.256   0.794  12.794  0.2175 -0.5393  0.0292
  791MPD2    C311712   1.164   0.810  12.687 -0.1703 -0.5544 -0.1032
  791MPD2    C411713   1.123   0.939  12.656 -0.0504  0.0949 -0.1195
  791MPD2    C511714   1.159   1.045  12.731 -0.4820 -0.1795  0.2541
  791MPD2     H11715   1.283   0.698  12.836  3.3888  0.4980  0.3760
  791MPD2    H111716   1.044   0.944  12.582  0.4734  1.5527 -0.5773
  791MPD2    H211717   1.278   1.119  12.891  0.7790 -0.5454  0.8680
  791MPD2    H311718   1.121   1.144  12.708 -1.6472 -0.2658  1.7537
  791MPD2     N11719   1.101   0.695  12.635  0.3530 -0.2785  0.1420
  791MPD2    H511720   1.135   0.609  12.676  1.2892 -0.4754 -1.0668
  791MPD2    N111721   1.403   0.894  12.957 -0.4987  0.0747  0.3805
  791MPD2    H711722   1.446   0.980  12.989  0.3751 -0.8579  1.7125
  792MPD2     C11723   2.620   1.149  11.023  0.4207  0.0388 -1.0692
  792MPD2    C111724   2.539   1.156  10.914 -0.3759 -0.4497 -0.5942
  792MPD2    C211725   2.415   1.101  10.916 -0.1971  0.3168  0.1252
  792MPD2    C311726   2.367   1.032  11.029 -0.2129  0.2981 -0.2563
  792MPD2    C411727   2.452   1.021  11.139  0.5619  0.6344 -0.5682
  792MPD2    C511728   2.579   1.088  11.137  0.0014  0.6799 -0.1836
  792MPD2     H11729   2.355   1.096  10.826 -0.7412  0.8383  0.4593
  792MPD2    H111730   2.411   0.968  11.224  1.4154  0.2526 -0.3882
  792MPD2    H211731   2.717   1.196  11.015  1.2252 -1.1779  1.2910
  792MPD2    H311732   2.652   1.064  11.214  1.0244  0.5191 -1.2201
  792MPD2     N11733   2.237   0.976  11.039 -0.4458  0.2945 -0.1829
  792MPD2    H511734   2.215   0.926  11.125 -1.1462 -1.5572 -1.4276
  792MPD2    N111735   2.593   1.226  10.804 -0.0045  0.3220  0.6459
  792MPD2    H711736   2.684   1.268  10.819  0.8999 -1.4399  0.2135
  793MPD2     C11737   1.388   1.060  10.488 -0.1839 -0.0135  0.0507
  793MPD2    C111738   1.520   1.035  10.454  0.5602  0.5726 -0.4297
  793MPD2    C211739   1.618   1.044  10.550  0.3547  0.6782  0.2019
  793MPD2    C311740   1.584   1.049  10.688  0.4202 -0.1071 -0.4319
  793MPD2    C411741   1.452   1.046  10.721 -0.0209 -0.1652 -0.5691
  793MPD2    C511742   1.359   1.061  10.618 -0.4997 -0.1454  1.0209
  793MPD2     H11743   1.717   1.011  10.519  0.2279  1.2487 -0.7890
  793MPD2    H111744   1.419   1.043  10.824  0.7005  0.4720 -0.3272
  793MPD2    H211745   1.304   1.062  10.420  0.5132 -2.1102 -0.8893
  793MPD2    H311746   1.252   1.072  10.634 -0.7911 -0.6242 -0.5716
  793MPD2     N11747   1.686   1.037  10.777 -0.0941 -0.1695  0.0038
  793MPD2    H511748   1.780   1.032  10.739 -0.5551  0.1241 -1.1812
  793MPD2    N111749   1.570   1.003  10.324  0.2465 -0.0461  0.2574
  793MPD2    H711750   1.672   1.002  10.314  0.2319 -0.1768  0.1197
  794MPD2     C11751   1.650   1.284  17.413 -0.4085  0.7187 -0.6225
  794MPD2    C111752   1.721   1.187  17.351 -0.2673 -0.1260 -0.0221
  794MPD2    C211753   1.702   1.148  17.218  0.5493 -0.3573 -0.4549
  794MPD2    C311754   1.638   1.244  17.147 -0.3612  0.1223  0.4351
  794MPD2    C411755   1.570   1.349  17.206  0.1774  0.0876  0.1577
  794MPD2    C511756   1.574   1.369  17.338 -0.0333  0.3487  0.5355
  794MPD2     H11757   1.749   1.060  17.176 -0.0841  0.2057 -2.3187
  794MPD2    H111758   1.497   1.407  17.151 -0.9961 -0.3382  1.2608
  794MPD2    H211759   1.656   1.308  17.519 -2.5269  0.4250 -0.4245
  794MPD2    H311760   1.528   1.453  17.388  2.3991  2.4326 -0.7197
  794MPD2     N11761   1.599   1.226  17.014  0.3935 -0.5072 -0.0078
  794MPD2    H511762   1.566   1.315  16.976  0.2629 -0.2858  0.6181
  794MPD2    N111763   1.827   1.122  17.422  0.3560  0.0322  0.1825
  794MPD2    H711764   1.874   1.051  17.368  0.7390  0.1307  0.3887
  795MPD2     C11765   4.149   2.532  12.968  0.1166 -0.4228  0.9176
  795MPD2    C111766   4.112   2.507  13.097 -0.0225  0.4650  0.1385
  795MPD2    C211767   4.201   2.443  13.187 -0.0945 -0.4292 -0.0969
  795MPD2    C311768   4.330   2.410  13.149  1.1317  0.6513 -0.2345
  795MPD2    C411769   4.363   2.437  13.018  0.0784  0.4933  1.0768
  795MPD2    C511770   4.274   2.486  12.929 -0.2865  0.3849 -0.0181
  795MPD2     H11771   4.160   2.434  13.287  0.5660  3.1541  0.4911
  795MPD2    H111772   4.465   2.416  12.988 -0.4410 -0.0998 -0.2568
  795MPD2    H211773   4.078   2.583  12.904 -0.1229  0.7057  2.0804
  795MPD2    H311774   4.303   2.499  12.825 -0.5260  2.1037  0.1261
  795MPD2     N11775   4.417   2.362  13.244  0.1438 -0.2842  0.4486
  795MPD2    H511776   4.376   2.335  13.333 -0.3408  1.3210  0.7146
  795MPD2    N111777   3.979   2.526  13.133 -0.4531  0.2501  0.3484
  795MPD2    H711778   3.939   2.466  13.205  1.6959 -0.2925  1.0776
  796MPD2     C11779   3.800   4.290  15.511  0.4597  0.2451 -0.4860
  796MPD2    C111780   3.886   4.362  15.591  0.9002 -0.6212  0.6659
  796MPD2    C211781   3.871   4.501  15.601  0.6863  0.2566  0.3948
  796MPD2    C311782   3.783   4.568  15.521 -0.3857  0.3843  0.6752
  796MPD2    C411783   3.708   4.501  15.430 -0.0976 -0.0260  0.3784
  796MPD2    C511784   3.722   4.358  15.424 -0.3295  0.4614 -0.5067
  796MPD2     H11785   3.926   4.553  15.679 -0.7217  0.6907  1.0855
  796MPD2    H111786   3.639   4.548  15.361 -1.7410 -1.6325  0.9452
  796MPD2    H211787   3.811   4.182  15.512 -1.2406  0.0714 -0.0950
  796MPD2    H311788   3.667   4.297  15.352  0.3430  0.0570 -0.6805
  796MPD2     N11789   3.760   4.709  15.551  0.3511 -0.5002 -0.0332
  796MPD2    H511790   3.808   0.010  15.631 -0.7983  2.5013 -0.7385
  796MPD2    N111791   3.984   4.288  15.663  0.2467 -0.1457  0.4010
  796MPD2    H711792   3.980   4.190  15.640  0.0150 -0.7542  3.0478
  797MPD2     C11793   0.164   4.242  17.140 -0.4444 -0.7042 -0.0470
  797MPD2    C111794   0.249   4.355  17.134  0.6089 -0.0636  0.1915
  797MPD2    C211795   0.302   4.400  17.013 -0.1294 -0.8143 -0.1812
  797MPD2    C311796   0.262   4.325  16.902 -0.0010 -0.0095 -0.5623
  797MPD2    C411797   0.184   4.211  16.907 -0.1447  0.6402  0.1421
  797MPD2    C511798   0.138   4.173  17.026  0.6457  0.1027  0.8153
  797MPD2     H11799   0.366   4.487  17.000 -2.4439  0.6734 -1.6971
  797MPD2    H111800   0.159   4.148  16.822 -0.4715 -0.1062  0.7971
  797MPD2    H211801   0.118   4.216  17.235 -1.4522 -0.8142 -0.5547
  797MPD2    H311802   0.075   4.086  17.037  2.3485 -0.9585  2.2092
  797MPD2     N11803   0.304   4.377  16.781 -0.3762  0.2482 -0.1588
  797MPD2    H511804   0.365   4.455  16.802  0.4922 -0.6036  0.5380
  797MPD2    N111805   0.267   4.438  17.245 -0.1563 -0.3270  0.2666
  797MPD2    H711806   0.298   4.532  17.224 -0.9213 -0.1648 -0.1188
  798MPD2     C11807   0.186   0.307  16.806  0.3114 -0.3152  0.0472
  798MPD2    C111808   0.255   0.193  16.813  0.1557  0.1438  0.0359
  798MPD2    C211809   0.284   0.138  16.935 -0.3582 -0.5121 -0.0084
  798MPD2    C311810   0.223   0.199  17.051 -0.3666 -0.3428 -0.1353
  798MPD2    C411811   0.142   0.310  17.037  1.0955  0.0344 -0.0061
  798MPD2    C511812   0.119   0.358  16.912  0.2419 -0.0105 -0.7399
  798MPD2     H11813   0.347   0.050  16.940  0.3872  0.0046 -0.4501
  798MPD2    H111814   0.102   0.358  17.125  1.8339  1.0243 -0.2120
  798MPD2    H211815   0.157   0.362  16.717  1.0320  0.4803  0.3048
  798MPD2    H311816   0.047   0.437  16.892  0.2977  0.7031  1.8634
  798MPD2     N11817   0.246   0.132  17.173  0.3967  0.1092  0.5457
  798MPD2    H511818   0.298   0.044  17.169 -2.9845 -1.8762  0.7919
  798MPD2    N111819   0.292   0.125  16.696  0.3501 -0.3978  0.2011
  798MPD2    H711820   0.260   0.163  16.608 -0.7721 -0.7480  0.4566
  799MPD2     C11821   3.699   1.046  14.794 -0.9434  0.0063 -0.4769
  799MPD2    C111822   3.612   0.958  14.733 -0.2200  0.8758 -0.2335
  799MPD2    C211823   3.531   1.000  14.630  0.5469  0.4364 -0.3748
  799MPD2    C311824   3.531   1.129  14.587 -0.3898  0.4927 -1.0266
  799MPD2    C411825   3.623   1.211  14.655 -0.9315  0.1359  1.0356
  799MPD2    C511826   3.710   1.169  14.749  0.6270  0.0707 -0.3652
  799MPD2     H11827   3.473   0.921  14.584  0.9942 -1.4430  2.3125
  799MPD2    H111828   3.647   1.311  14.622 -0.5388 -0.3365 -0.1121
  799MPD2    H211829   3.772   1.017  14.868 -0.3671  1.9522 -0.3067
  799MPD2    H311830   3.790   1.239  14.771  0.7692 -0.7303  1.6272
  799MPD2     N11831   3.453   1.181  14.487 -0.0934  0.6135 -0.3989
  799MPD2    H511832   3.459   1.280  14.466  0.7076  1.1863  2.6518
  799MPD2    N111833   3.610   0.820  14.756 -0.5363  0.2751 -0.9114
  799MPD2    H711834   3.559   0.766  14.686 -1.5767 -1.5081  1.2083
  800MPD2     C11835   3.873   1.927  14.085  0.2180 -0.3790  0.0541
  800MPD2    C111836   3.983   1.848  14.112  0.6398  0.3173  0.5648
  800MPD2    C211837   3.987   1.710  14.072  0.0014 -0.2483 -0.6465
  800MPD2    C311838   3.875   1.658  14.002  0.1254 -0.0711 -0.4313
  800MPD2    C411839   3.754   1.735  13.984  0.1219 -0.0532 -0.2819
  800MPD2    C511840   3.760   1.865  14.031 -0.5401 -0.8135 -0.3934
  800MPD2     H11841   4.075   1.647  14.073 -0.5000 -0.9366 -0.4802
  800MPD2    H111842   3.677   1.689  13.923 -0.0939 -1.3131  0.9402
  800MPD2    H211843   3.865   2.034  14.102 -2.5400 -1.0531  2.9647
  800MPD2    H311844   3.683   1.933  13.997 -1.0411 -0.8199  0.7391
  800MPD2     N11845   3.892   1.534  13.947 -0.0215 -0.0375  0.4836
  800MPD2    H511846   3.973   1.483  13.980  0.1105 -1.1497 -1.5230
  800MPD2    N111847   4.099   1.915  14.152  0.2469 -0.5612  0.3769
  800MPD2    H711848   4.083   2.015  14.155 -0.1313 -0.5864 -0.7889
  801MPD2     C11849   4.354   2.497  13.868 -0.3368 -0.7568  0.0575
  801MPD2    C111850   4.297   2.429  13.973  0.3027 -0.5738 -0.3984
  801MPD2    C211851   4.185   2.480  14.043  0.1692 -0.2429 -0.3472
  801MPD2    C311852   4.132   2.601  14.003  0.0541 -0.3021  0.4782
  801MPD2    C411853   4.174   2.654  13.884 -0.0172  1.0011  0.4134
  801MPD2    C511854   4.287   2.614  13.824 -0.8125 -0.1932 -0.3118
  801MPD2     H11855   4.147   2.421  14.126 -2.8135 -0.4399 -1.8348
  801MPD2    H111856   4.123   2.737  13.836 -0.4399  1.6861  2.0324
  801MPD2    H211857   4.434   2.449  13.812  0.5612 -0.0586  0.7327
  801MPD2    H311858   4.320   2.652  13.729  1.7158  0.2906  0.7604
  801MPD2     N11859   4.015   2.654  14.065 -0.2385 -0.3555  0.4635
  801MPD2    H511860   3.960   2.720  14.011  2.6614  0.9681 -0.8528
  801MPD2    N111861   4.347   2.307  14.021 -0.0283 -0.2533 -0.3027
  801MPD2    H711862   4.304   2.264  14.102 -1.6213  1.1541 -0.4072
  802MPD2     C11863   4.302   4.111   0.275 -1.2918  0.1882 -0.9116
  802MPD2    C111864   4.172   4.076   0.253  0.2376 -1.0409 -0.9978
  802MPD2    C211865   4.126   4.081   0.124  0.3804 -0.5293  0.8059
  802MPD2    C311866   4.197   4.131   0.014  0.2479 -0.5951  1.0191
  802MPD2    C411867   4.325   4.181   0.037 -0.0946 -0.0778 -0.4408
  802MPD2    C511868   4.369   4.172   0.168 -1.3473 -0.7419 -0.0306
  802MPD2     H11869   4.021   4.060   0.107  0.0500  2.4959 -0.9328
  802MPD2    H111870   4.388   4.222  17.706 -1.7717 -2.7472 -3.2706
  802MPD2    H211871   4.336   4.121   0.377 -1.2232 -0.4518 -0.8726
  802MPD2    H311872   4.460   4.231   0.182 -1.0238 -1.3619  0.4575
  802MPD2     N11873   4.138   4.127  17.634  0.2068  0.7627 -0.1258
  802MPD2    H511874   4.043   4.090  17.635  0.8403 -0.8856 -2.2556
  802MPD2    N111875   4.083   4.032   0.351 -0.5118 -0.3794  0.1786
  802MPD2    H711876   3.990   4.014   0.316  0.4738 -2.8416 -1.2188
  803MPD2     C11877   0.517   1.194  12.169 -0.5172 -0.4519  0.4845
  803MPD2    C111878   0.388   1.252  12.138  0.0911 -0.7032 -0.5119
  803MPD2    C211879   0.285   1.217  12.220 -0.0594  0.8729  0.2548
  803MPD2    C311880   0.291   1.104  12.299 -0.2627 -0.2518  0.0968
  803MPD2    C411881   0.409   1.043  12.322  0.3306  0.0934  0.1814
  803MPD2    C511882   0.522   1.087  12.253 -0.0456 -0.1101  0.7587
  803MPD2     H11883   0.191   1.269  12.205 -2.2854 -2.8948  1.1638
  803MPD2    H111884   0.429   0.957  12.386 -0.7808 -0.1993  0.1400
  803MPD2    H211885   0.607   1.220  12.115 -0.6472  0.0434  0.5080
  803MPD2    H311886   0.611   1.026  12.262 -1.0730 -1.8515 -0.9326
  803MPD2     N11887   0.179   1.047  12.363  0.9176  0.3450 -0.5715
  803MPD2    H511888   0.201   0.969  12.424  1.5398 -1.4380 -3.0899
  803MPD2    N111889   0.378   1.364  12.053 -0.2713  0.3408 -0.6158
  803MPD2    H711890   0.303   1.432  12.054 -0.0834  0.5338  0.8066
  804MPD2     C11891   4.603   3.167  16.674  0.7667  0.0928 -0.7234
  804MPD2    C111892   4.537   3.194  16.790  0.1844 -0.4341  0.6856
  804MPD2    C211893   4.587   3.296  16.869 -0.1556 -0.1107 -0.0955
  804MPD2    C311894   4.681   3.388  16.820 -0.3975  0.2084 -0.0672
  804MPD2    C411895   0.003   3.360  16.698 -0.3937 -0.8627  0.7628
  804MPD2    C511896   4.699   3.254  16.628  0.0182  0.4444  0.2234
  804MPD2     H11897   4.540   3.315  16.965 -0.8356  1.0482 -0.6564
  804MPD2    H111898   0.086   3.421  16.664 -1.7697  1.5138  1.7185
  804MPD2    H211899   4.586   3.074  16.621  2.7498  0.4816 -2.0821
  804MPD2    H311900   0.007   3.241  16.530 -0.3524  0.1928  0.0839
  804MPD2     N11901   4.722   3.497  16.897 -0.0196  0.3819  0.9452
  804MPD2    H511902   4.668   3.521  16.980 -2.0926 -0.3075 -0.2059
  804MPD2    N111903   4.428   3.119  16.839  0.6438 -0.4992 -0.3858
  804MPD2    H711904   4.401   3.138  16.934 -2.4550 -2.1582 -0.9515
  805MPD2     C11905   3.437   1.421  15.550  0.1200 -0.1794 -0.1957
  805MPD2    C111906   3.511   1.369  15.442  0.0672  0.5360 -0.4068
  805MPD2    C211907   3.651   1.367  15.456 -1.3835 -0.3789 -0.2821
  805MPD2    C311908   3.710   1.413  15.576  0.0367  0.2274  1.1034
  805MPD2    C411909   3.626   1.455  15.683 -0.4928  0.1108  0.2333
  805MPD2    C511910   3.494   1.464  15.665 -0.1386  0.0613  0.1770
  805MPD2     H11911   3.716   1.329  15.378 -1.1875 -0.1487 -0.2312
  805MPD2    H111912   3.656   1.482  15.783  1.8019 -1.7459  0.0284
  805MPD2    H211913   3.329   1.426  15.558  0.1712 -1.3042  1.4868
  805MPD2    H311914   3.439   1.508  15.748 -0.0344 -1.0795  0.8555
  805MPD2     N11915   3.852   1.411  15.593  0.1915 -0.3232 -0.3004
  805MPD2    H511916   3.892   1.416  15.501 -0.2928 -1.1755 -0.5592
  805MPD2    N111917   3.443   1.289  15.345  0.0137 -0.6622  0.2276
  805MPD2    H711918   3.495   1.227  15.284 -0.1053  0.0285 -0.5888
  806MPD2     C11919   3.803   0.954   0.575 -0.1532  0.4100  0.0143
  806MPD2    C111920   3.880   1.063   0.548 -0.2200  0.4770  0.2635
  806MPD2    C211921   3.976   1.050   0.445  0.6822  0.8830 -0.5886
  806MPD2    C311922   3.973   0.938   0.365 -0.0592  0.1013 -1.0412
  806MPD2    C411923   3.872   0.846   0.384  0.3288  0.4869  0.2238
  806MPD2    C511924   3.791   0.854   0.488  0.2399  0.2644  0.2463
  806MPD2     H11925   4.042   1.133   0.423  0.5524  1.2934  0.5297
  806MPD2    H111926   3.863   0.761   0.318  2.1860 -0.5027  1.2310
  806MPD2    H211927   3.733   0.956   0.658 -0.5217 -0.6805 -0.2612
  806MPD2    H311928   3.728   0.770   0.513 -2.5983  2.2446 -0.2951
  806MPD2     N11929   4.075   0.926   0.264  0.3789  0.1328  0.5671
  806MPD2    H511930   4.139   1.004   0.255  0.2730  0.1040 -0.3962
  806MPD2    N111931   3.890   1.170   0.640  0.0367 -0.3104 -0.1252
  806MPD2    H711932   3.860   1.150   0.734 -1.4249 -2.8458 -1.1457
  807MPD2     C11933   3.814   1.840   1.131 -0.6156  0.0374 -0.1186
  807MPD2    C111934   3.776   1.708   1.151 -0.3545 -0.1281  0.5126
  807MPD2    C211935   3.682   1.683   1.246  0.3506 -0.0180 -0.7333
  807MPD2    C311936   3.621   1.781   1.320 -0.1631 -0.6046  0.1085
  807MPD2    C411937   3.660   1.915   1.295  0.0840 -0.7021 -0.3576
  807MPD2    C511938   3.761   1.941   1.205 -0.0992 -0.4122  0.7534
  807MPD2     H11939   3.667   1.581   1.279 -1.1743  1.1863  2.3409
  807MPD2    H111940   3.618   1.996   1.354  1.6853  0.4804 -0.8633
  807MPD2    H211941   3.888   1.871   1.058 -0.4338  1.0907  0.5155
  807MPD2    H311942   3.812   2.037   1.202 -1.5719  0.3905  1.2249
  807MPD2     N11943   3.539   1.753   1.433 -0.0709  0.0562 -0.1039
  807MPD2    H511944   3.507   1.657   1.444 -0.6226  0.2083 -0.3837
  807MPD2    N111945   3.829   1.604   1.071  0.2478 -0.5446  0.2033
  807MPD2    H711946   3.849   1.513   1.112 -0.5068 -0.0925  1.6045
  808MPD2     C11947   4.066   1.780  10.208  0.3706  0.2616  0.6435
  808MPD2    C111948   4.156   1.751  10.111  0.1642 -0.6721  0.1068
  808MPD2    C211949   4.227   1.851  10.052  0.7971  0.2760 -0.3017
  808MPD2    C311950   4.210   1.980  10.100 -0.3661  0.4188 -0.1137
  808MPD2    C411951   4.142   1.996  10.218 -0.3794  0.2166  0.3428
  808MPD2    C511952   4.063   1.903  10.268 -0.2798  0.3485  0.0770
  808MPD2     H11953   4.295   1.815   9.976  1.0110  0.2875 -0.1150
  808MPD2    H111954   4.143   2.097  10.260  0.8518 -0.2037  1.3454
  808MPD2    H211955   3.997   1.705  10.247  1.1303 -0.7799 -0.0207
  808MPD2    H311956   4.002   1.919  10.356 -1.5973  1.1883 -0.9964
  808MPD2     N11957   4.285   2.088  10.051 -0.5000  0.9812  0.0908
  808MPD2    H511958   4.298   2.170  10.109 -0.1881  1.5979 -0.8522
  808MPD2    N111959   4.164   1.633  10.035  0.4406 -0.2072  0.6291
  808MPD2    H711960   4.198   1.631   9.940 -0.8304  0.4496  0.1535
  809MPD2     C11961   0.084   2.133   9.188 -0.4937  0.4167  0.4883
  809MPD2    C111962   0.161   2.125   9.303 -0.2026 -0.1893 -0.0343
  809MPD2    C211963   0.101   2.173   9.420 -0.4094  0.7035 -0.0194
  809MPD2    C311964   4.708   2.219   9.428  0.8444  0.1547  0.7901
  809MPD2    C411965   4.633   2.213   9.315  0.4263  0.2472  0.7336
  809MPD2    C511966   4.686   2.171   9.194  0.4144  0.2837 -0.0302
  809MPD2     H11967   0.174   2.169   9.499 -2.1916 -0.6803  1.5504
  809MPD2    H111968   4.527   2.234   9.316 -0.3293 -3.5594 -0.7255
  809MPD2    H211969   0.127   2.110   9.091  0.3301 -0.0902  0.9682
  809MPD2    H311970   4.617   2.158   9.111  1.1535 -0.6468 -0.4922
  809MPD2     N11971   4.646   2.253   9.546 -0.5877 -0.1389  0.6391
  809MPD2    H511972   4.545   2.252   9.535 -0.4555 -0.4373 -0.4733
  809MPD2    N111973   0.289   2.074   9.316 -0.0324  0.0171  0.0614
  809MPD2    H711974   0.332   2.075   9.408  4.1779  0.5421 -1.9094
  810MPD2     C11975   3.931   1.064  10.795 -0.1947 -0.4106  0.1475
  810MPD2    C111976   3.946   1.137  10.679  0.1939 -0.7483 -0.1313
  810MPD2    C211977   3.953   1.275  10.690  0.0734  0.8079 -0.0175
  810MPD2    C311978   3.957   1.333  10.813 -1.3550  0.5869  0.9515
  810MPD2    C411979   3.942   1.260  10.933  0.1415  0.0922  0.9933
  810MPD2    C511980   3.933   1.122  10.917  0.0441  0.0637  0.1428
  810MPD2     H11981   3.980   1.331  10.601 -0.4566  1.4592  0.2307
  810MPD2    H111982   3.936   1.304  11.031  1.1477 -0.0487  1.1247
  810MPD2    H211983   3.928   0.956  10.799 -0.4552 -0.4583 -1.2319
  810MPD2    H311984   3.927   1.060  11.006  1.1474 -0.3818 -0.0989
  810MPD2     N11985   3.966   1.475  10.825 -0.4167 -0.6731  0.4379
  810MPD2    H511986   3.954   1.510  10.920 -0.0427  1.5188 -0.3261
  810MPD2    N111987   3.957   1.070  10.547 -0.0408 -0.6130 -0.1043
  810MPD2    H711988   3.937   0.971  10.559  2.0837 -0.9140  0.8967
  811MPD2     C11989   3.510   1.000   9.716 -0.5150  0.7853 -0.0073
  811MPD2    C111990   3.596   1.079   9.791  0.0896  0.3800 -0.0994
  811MPD2    C211991   3.629   1.205   9.731 -0.5898  0.1934  0.7711
  811MPD2    C311992   3.594   1.242   9.602 -0.9578  0.3848 -0.2925
  811MPD2    C411993   3.518   1.160   9.530  0.0514  0.2187 -0.0404
  811MPD2    C511994   3.483   1.038   9.585 -0.0286 -0.1141 -0.8431
  811MPD2     H11995   3.685   1.272   9.795  1.9704 -0.6094 -0.6368
  811MPD2    H111996   3.496   1.177   9.425 -0.7094  1.7837  0.3752
  811MPD2    H211997   3.473   0.903   9.748 -1.1806  0.6547 -1.1789
  811MPD2    H311998   3.420   0.979   9.520 -0.3177 -0.1727 -0.5099
  811MPD2     N11999   3.652   1.364   9.557  0.8757  0.2987 -0.3748
  811MPD2    H512000   3.690   1.418   9.634 -2.0683 -1.7090  2.5022
  811MPD2    N112001   3.637   1.036   9.919 -0.8456 -0.5474 -0.3085
  811MPD2    H712002   3.597   0.948   9.948 -1.0858 -1.5537 -3.7026
  812MPD2     C12003   2.697   1.096  12.183 -0.8332  0.0323  0.4181
  812MPD2    C112004   2.621   1.212  12.219 -0.1665 -0.0088  0.0338
  812MPD2    C212005   2.572   1.222  12.344 -0.2442 -0.3942 -0.5420
  812MPD2    C312006   2.582   1.118  12.436  0.1378 -0.8130  0.8540
  812MPD2    C412007   2.629   0.996  12.392 -0.2313 -0.2877 -0.6245
  812MPD2    C512008   2.697   0.992  12.275  0.0946  0.4074 -0.1020
  812MPD2     H12009   2.520   1.311  12.378  1.8936  1.2999 -1.7415
  812MPD2    H112010   2.630   0.903  12.447  1.3170 -0.9460 -1.7667
  812MPD2    H212011   2.744   1.092  12.086 -0.5689  0.0363  0.5467
  812MPD2    H312012   2.733   0.892  12.249 -0.1126  0.8592 -2.1527
  812MPD2     N12013   2.525   1.142  12.566 -0.2393 -0.0545  0.0315
  812MPD2    H512014   2.485   1.234  12.584  0.5424  0.4048 -0.6286
  812MPD2    N112015   2.623   1.322  12.127  0.6661 -0.3993  0.0373
  812MPD2    H712016   2.659   1.302  12.034 -0.4258 -0.3696 -0.3923
  813MPD2     C12017   2.024   2.826  12.959 -0.1770 -0.3225 -0.2692
  813MPD2    C112018   1.959   2.943  12.926 -0.2453  0.0163 -0.3133
  813MPD2    C212019   1.826   2.945  12.907 -0.6144  0.4121 -0.9666
  813MPD2    C312020   1.751   2.832  12.920  0.1395 -0.3009  0.2971
  813MPD2    C412021   1.816   2.715  12.947  0.3820 -0.5481  0.3342
  813MPD2    C512022   1.949   2.710  12.966 -0.0145  0.4948 -0.0020
  813MPD2     H12023   1.782   3.038  12.872 -1.3565  0.1802 -0.6515
  813MPD2    H112024   1.768   2.618  12.945 -1.0818  0.1815  0.1213
  813MPD2    H212025   2.132   2.817  12.951 -0.2640 -2.2298  0.9324
  813MPD2    H312026   1.996   2.612  12.964  1.6479  1.3184 -1.8675
  813MPD2     N12027   1.612   2.848  12.906  0.4229 -0.0634  0.2548
  813MPD2    H512028   1.570   2.936  12.878  0.6604  0.5315  1.7847
  813MPD2    N112029   2.020   3.069  12.930 -0.2209 -0.0503  0.4946
  813MPD2    H712030   1.963   3.152  12.914 -0.8546 -1.0031 -2.1826
  814MPD2     C12031   2.646   4.076  12.166 -0.0648 -0.1771  0.0763
  814MPD2    C112032   2.626   4.151  12.050  0.1678 -0.5903 -0.2371
  814MPD2    C212033   2.641   4.289  12.053  0.3725  0.1514  0.8146
  814MPD2    C312034   2.659   4.360  12.172  0.0126 -0.1993 -0.0336
  814MPD2    C412035   2.682   4.286  12.286  0.1569  0.6082  0.0917
  814MPD2    C512036   2.683   4.148  12.282 -0.0551  0.0553 -0.3324
  814MPD2     H12037   2.632   4.335  11.956 -1.4419  0.2774  1.0476
  814MPD2    H112038   2.704   4.333  12.381 -0.5155 -0.9074  0.9985
  814MPD2    H212039   2.647   3.968  12.175 -0.0227 -0.1949 -0.1591
  814MPD2    H312040   2.710   4.089  12.368 -1.5429  0.7326  0.5962
  814MPD2     N12041   2.664   4.498  12.178  0.0349  0.3375  0.7663
  814MPD2    H512042   2.692   4.534  12.268  0.5797  0.0991  0.6952
  814MPD2    N112043   2.588   4.093  11.933  0.1672  0.0884 -0.1373
  814MPD2    H712044   2.571   4.151  11.851  2.1800  0.8548  0.0009
  815MPD2     C12045   2.729   3.026  11.316 -0.0399 -0.8379  0.2161
  815MPD2    C112046   2.795   2.907  11.300  0.3358  0.2096  0.0140
  815MPD2    C212047   2.751   2.795  11.366 -0.5190  0.4013 -0.2925
  815MPD2    C312048   2.639   2.799  11.445 -0.2598 -0.6708  0.3064
  815MPD2    C412049   2.570   2.924  11.462 -0.7656 -0.2164 -0.4143
  815MPD2    C512050   2.618   3.034  11.394 -0.1058 -0.1609 -0.0313
  815MPD2     H12051   2.798   2.697  11.358 -2.0993 -0.5664  2.1464
  815MPD2    H112052   2.480   2.936  11.520  0.6668  0.4386  1.6759
  815MPD2    H212053   2.768   3.113  11.263  1.1748 -2.2125 -1.1178
  815MPD2    H312054   2.563   3.127  11.401 -1.1498 -0.8429  0.8164
  815MPD2     N12055   2.588   2.680  11.506 -0.6478  0.3917 -0.5956
  815MPD2    H512056   2.653   2.603  11.495  0.1484  1.3055 -2.2197
  815MPD2    N112057   2.900   2.905  11.207  0.0501  0.2753 -0.0827
  815MPD2    H712058   2.924   2.989  11.155 -1.4415  0.3119 -0.7100
  816MPD2     C12059   3.482   2.854  17.255 -0.2575 -0.1986 -0.1888
  816MPD2    C112060   3.353   2.816  17.231  0.2690  0.2314  0.0310
  816MPD2    C212061   3.321   2.696  17.167  0.4809 -0.2054 -0.1258
  816MPD2    C312062   3.425   2.616  17.127  0.2919 -0.4458 -0.1048
  816MPD2    C412063   3.551   2.645  17.161  0.3026  0.4170 -0.1380
  816MPD2    C512064   3.582   2.764  17.223  0.3149 -0.4020  0.4032
  816MPD2     H12065   3.221   2.662  17.140 -0.2259  1.7422  0.0580
  816MPD2    H112066   3.631   2.581  17.124 -1.4229 -0.9396 -1.4998
  816MPD2    H212067   3.507   2.947  17.304 -2.2644  0.1313  0.2099
  816MPD2    H312068   3.684   2.790  17.250  0.2808 -1.8963  1.9261
  816MPD2     N12069   3.391   2.508  17.040 -0.4350 -0.0663  0.1984
  816MPD2    H512070   3.300   2.505  16.997  0.0902  0.4661 -0.9670
  816MPD2    N112071   3.249   2.915  17.257 -0.4271  0.5822 -0.7714
  816MPD2    H712072   3.278   3.012  17.267  0.1849  0.2920  0.2240
  817MPD2     C12073   1.854   2.836   9.620 -0.2234 -0.0565 -0.5044
  817MPD2    C112074   1.982   2.879   9.582  0.1700  0.4196 -0.1532
  817MPD2    C212075   2.002   2.903   9.441 -0.1619  0.1411  0.7162
  817MPD2    C312076   1.899   2.869   9.350  0.1604  0.2816  0.0490
  817MPD2    C412077   1.776   2.822   9.400 -0.0332  0.1503  0.4682
  817MPD2    C512078   1.759   2.799   9.531 -0.2004  0.2787  0.4547
  817MPD2     H12079   2.096   2.939   9.400 -0.3434  0.9110  0.9862
  817MPD2    H112080   1.698   2.786   9.333  0.8993  1.5155 -1.3527
  817MPD2    H212081   1.814   2.823   9.720  1.1785 -0.2988  0.0211
  817MPD2    H312082   1.665   2.762   9.570 -0.5270  2.3795  1.7120
  817MPD2     N12083   1.929   2.878   9.214 -0.4534  0.0976  0.6720
  817MPD2    H512084   2.020   2.912   9.184 -0.6997 -1.6138 -2.0730
  817MPD2    N112085   2.090   2.906   9.670  0.0181 -0.3841 -0.2441
  817MPD2    H712086   2.175   2.939   9.625  0.3825 -1.3681 -0.2677
  818MPD2     C12087   0.913   3.033   9.623  0.3847  0.4754  0.5476
  818MPD2    C112088   0.944   2.956   9.733 -0.2536  0.1040  0.7510
  818MPD2    C212089   0.886   2.831   9.753 -0.7103 -0.0431 -0.6659
  818MPD2    C312090   0.797   2.778   9.663  0.8285  0.6024 -0.0757
  818MPD2    C412091   0.767   2.858   9.559 -0.7867  0.9656 -0.2588
  818MPD2    C512092   0.825   2.983   9.535 -0.0891 -0.0427  0.0654
  818MPD2     H12093   0.924   2.767   9.832 -0.6035  1.9097  0.8441
  818MPD2    H112094   0.694   2.815   9.491 -0.4492  0.1554 -0.1026
  818MPD2    H212095   0.971   3.122   9.607 -1.2165  1.3080 -0.6206
  818MPD2    H312096   0.809   3.025   9.436  1.2638  2.6475  1.0003
  818MPD2     N12097   0.724   2.659   9.682  0.1462 -0.0086 -0.3074
  818MPD2    H512098   0.659   2.632   9.609  0.6812  1.4112 -1.3152
  818MPD2    N112099   1.031   2.992   9.836  0.0091  0.4964  0.1927
  818MPD2    H712100   1.072   2.919   9.894  0.3631  0.2331 -0.3857
  819MPD2     C12101   4.236   0.600  15.369 -0.6482  0.2374  0.0105
  819MPD2    C112102   4.169   0.488  15.407  0.2590 -0.2969  0.2023
  819MPD2    C212103   4.216   0.428  15.519  0.7834  0.2484  0.1280
  819MPD2    C312104   4.331   0.477  15.588 -0.3295  0.4748 -0.1474
  819MPD2    C412105   4.394   0.588  15.539 -0.0202 -0.6610  0.2003
  819MPD2    C512106   4.343   0.651  15.428  0.3159 -0.2946 -0.0055
  819MPD2     H12107   4.170   0.341  15.563  1.0691  0.7956  1.5256
  819MPD2    H112108   4.490   0.625  15.574 -1.9601  1.4586  3.2411
  819MPD2    H212109   4.215   0.643  15.272 -0.4682  0.8528  0.2424
  819MPD2    H312110   4.379   0.747  15.391  3.3421 -1.9238 -1.3005
  819MPD2     N12111   4.387   0.411  15.702 -0.2047  0.4118  0.1841
  819MPD2    H512112   4.374   0.310  15.706  1.1286  0.1999 -0.7704
  819MPD2    N112113   4.061   0.439  15.332 -0.5541 -0.4514  0.7397
  819MPD2    H712114   4.036   0.476  15.241  0.7474  0.3492  0.7116
  820MPD2     C12115   3.128   0.566  15.003 -0.2057 -0.1440 -0.1036
  820MPD2    C112116   3.238   0.637  15.054  0.6845  0.0948  0.0135
  820MPD2    C212117   3.350   0.562  15.089 -0.2125 -0.4147 -0.2557
  820MPD2    C312118   3.358   0.430  15.064 -0.1533 -0.0210  0.4905
  820MPD2    C412119   3.249   0.359  15.022  0.0550  0.1335 -0.5550
  820MPD2    C512120   3.135   0.428  14.993 -1.0463  0.1165  0.1008
  820MPD2     H12121   3.432   0.606  15.145 -0.5137 -0.2809  0.0815
  820MPD2    H112122   3.256   0.251  15.015 -1.0992  0.0477 -0.3916
  820MPD2    H212123   3.034   0.614  14.982 -0.3023 -0.7647 -1.1112
  820MPD2    H312124   3.050   0.367  14.966 -0.1082 -0.4381 -1.6217
  820MPD2     N12125   3.480   0.361  15.082 -0.4865 -0.1968  0.5378
  820MPD2    H512126   3.470   0.260  15.083 -0.1938 -0.2374 -0.7710
  820MPD2    N112127   3.219   0.774  15.081  0.4631 -0.5279  0.1210
  820MPD2    H712128   3.130   0.821  15.076  0.0603 -1.0613  2.1216
  821MPD2     C12129   4.078   1.326  13.139 -0.0320 -0.1419  0.0260
  821MPD2    C112130   4.091   1.450  13.197 -0.6861 -0.5604 -0.0958
  821MPD2    C212131   4.142   1.546  13.114 -0.0439  0.7488  0.3614
  821MPD2    C312132   4.169   1.512  12.976  0.1146  0.8534  0.0250
  821MPD2    C412133   4.163   1.383  12.933 -0.0817  0.3057  0.0107
  821MPD2    C512134   4.119   1.286  13.018  0.5909  0.4371 -0.6768
  821MPD2     H12135   4.160   1.644  13.158  2.3657 -0.4820  2.0881
  821MPD2    H112136   4.206   1.353  12.838  0.0667 -1.2599  0.5644
  821MPD2    H212137   4.050   1.233  13.188 -1.4852  0.0731 -0.3893
  821MPD2    H312138   4.110   1.184  12.983 -1.1970  0.6239 -0.7530
  821MPD2     N12139   4.219   1.618  12.889  0.3827  0.5323  0.0776
  821MPD2    H512140   4.263   1.597  12.800  0.4607  4.4106 -0.8104
  821MPD2    N112141   4.059   1.477  13.337  0.3138  0.0304 -0.2514
  821MPD2    H712142   4.083   1.569  13.374  1.0403  0.8412 -2.7295
  822MPD2     C12143   0.364   2.110  15.756 -0.2001 -0.3575 -0.2396
  822MPD2    C112144   0.332   2.092  15.887  0.4008 -0.0100 -0.4700
  822MPD2    C212145   0.255   2.188  15.942  0.3860  0.3002 -0.3934
  822MPD2    C312146   0.218   2.305  15.880  0.4067  0.0383 -0.2306
  822MPD2    C412147   0.261   2.320  15.754 -0.3016  0.9386  0.4333
  822MPD2    C512148   0.331   2.227  15.685  0.1883  0.4846  0.4092
  822MPD2     H12149   0.228   2.169  16.045  0.0870 -0.7607 -0.6720
  822MPD2    H112150   0.241   2.415  15.705  1.9077  1.7487  1.1313
  822MPD2    H212151   0.412   2.034  15.695 -1.5597 -1.7787  0.4878
  822MPD2    H312152   0.357   2.238  15.581  0.0940 -0.0324  0.3280
  822MPD2     N12153   0.152   2.406  15.956 -0.3801  0.5242  0.1244
  822MPD2    H512154   0.123   2.378  16.049  1.6866  0.2151  0.6632
  822MPD2    N112155   0.365   1.989  15.970 -0.2986  0.2166 -0.3156
  822MPD2    H712156   0.336   1.990  16.068 -1.7057  0.5069 -0.7439
  823MPD2     C12157   4.550   2.573  16.676 -0.6114  0.1617  0.2869
  823MPD2    C112158   4.583   2.505  16.564 -0.4761 -0.2855 -0.4327
  823MPD2    C212159   4.622   2.371  16.579  0.1781  0.1092 -0.0445
  823MPD2    C312160   4.598   2.303  16.696 -0.1829 -0.7467 -0.2219
  823MPD2    C412161   4.562   2.372  16.808  0.1810  0.6400  0.4000
  823MPD2    C512162   4.539   2.505  16.795 -0.3339 -0.6047 -1.0228
  823MPD2     H12163   4.653   2.315  16.492 -0.1831  0.4965 -0.4249
  823MPD2    H112164   4.554   2.327  16.906  2.1248  0.1669  0.3452
  823MPD2    H212165   4.504   2.671  16.667  1.8894  1.1354 -2.2249
  823MPD2    H312166   4.496   2.566  16.874 -2.2433 -1.0763 -1.6967
  823MPD2     N12167   4.640   2.173  16.719 -0.0429 -0.2372  0.1728
  823MPD2    H512168   4.613   2.130  16.807  1.1531  1.8155  1.5310
  823MPD2    N112169   4.604   2.575  16.445  0.5924  0.0227  0.4431
  823MPD2    H712170   4.596   2.676  16.455  0.7670  0.1669 -0.8154
  824MPD2     C12171   0.779   1.228  16.147 -0.4512  0.4587 -0.1201
  824MPD2    C112172   0.800   1.343  16.068  0.1987 -0.7951 -0.1270
  824MPD2    C212173   0.916   1.346  15.990 -0.1607  0.1679 -0.7329
  824MPD2    C312174   1.001   1.237  15.983 -0.0665  0.1018 -0.7695
  824MPD2    C412175   0.963   1.119  16.056 -0.2784 -0.0151 -0.5775
  824MPD2    C512176   0.856   1.120  16.143 -0.1299  0.2204 -0.0393
  824MPD2     H12177   0.942   1.435  15.934  0.7971 -0.3980 -1.1905
  824MPD2    H112178   1.035   1.038  16.067  0.0749  0.4605  0.6170
  824MPD2    H212179   0.695   1.217  16.214  1.1427 -1.4371  1.5699
  824MPD2    H312180   0.844   1.038  16.212  0.1996  0.1303 -0.0905
  824MPD2     N12181   1.108   1.245  15.897 -0.3840  0.6002 -0.2052
  824MPD2    H512182   1.117   1.332  15.846  1.8582 -1.2776 -2.9719
  824MPD2    N112183   0.711   1.455  16.063 -0.4599  0.2237  0.1045
  824MPD2    H712184   0.743   1.527  15.999  0.7256 -0.2319  0.1893
  825MPD2     C12185   1.236   1.508  15.156  0.7965 -0.5183  0.4652
  825MPD2    C112186   1.275   1.534  15.290 -0.3315  0.4107  0.3855
  825MPD2    C212187   1.296   1.668  15.327  0.4824 -0.2515 -0.7393
  825MPD2    C312188   1.270   1.769  15.233  0.9029  0.7123  0.4806
  825MPD2    C412189   1.224   1.733  15.107 -0.3840 -0.2248  0.2743
  825MPD2    C512190   1.212   1.605  15.068  0.3088 -0.5818  0.6542
  825MPD2     H12191   1.334   1.700  15.423 -0.6119  2.2925 -1.1582
  825MPD2    H112192   1.205   1.813  15.036  0.6733 -1.1043 -0.9920
  825MPD2    H212193   1.222   1.407  15.119  0.9240 -0.2567 -0.3130
  825MPD2    H312194   1.167   1.578  14.973  1.8057  2.8436 -1.0298
  825MPD2     N12195   1.301   1.906  15.259 -0.5975  0.2801 -0.2748
  825MPD2    H512196   1.268   1.968  15.185  2.3892  1.7678 -0.3395
  825MPD2    N112197   1.290   1.427  15.377  0.3052 -0.0699 -0.4506
  825MPD2    H712198   1.274   1.335  15.338  0.9251 -0.1018 -0.6363
  826MPD2     C12199   4.469   0.853  12.995  0.6804  0.7034 -0.8753
  826MPD2    C112200   4.562   0.856  13.101 -0.0043  0.2172  0.3801
  826MPD2    C212201   4.538   0.935  13.214 -0.2004  0.0397  0.4209
  826MPD2    C312202   4.436   1.021  13.214  0.3051 -0.1020  0.1549
  826MPD2    C412203   4.357   1.031  13.107  1.2427 -0.1791 -0.2938
  826MPD2    C512204   4.373   0.949  12.996 -0.0542  0.9018 -0.0847
  826MPD2     H12205   4.615   0.930  13.290  0.3942  0.9372 -0.1244
  826MPD2    H112206   4.286   1.112  13.098 -1.3322 -2.6383 -2.4160
  826MPD2    H212207   4.488   0.799  12.903 -1.9480  1.0064 -1.5967
  826MPD2    H312208   4.316   0.963  12.905  1.4170 -1.2573 -1.3525
  826MPD2     N12209   4.418   1.117  13.317 -0.1723  0.1966  0.1708
  826MPD2    H512210   4.336   1.176  13.308  1.3353  2.2550  0.0080
  826MPD2    N112211   4.677   0.768  13.089  0.6242 -0.1495 -0.1639
  826MPD2    H712212   4.665   0.698  13.017  0.8720  0.8808 -1.1980
  827MPD2     C12213   1.606   2.446   9.655 -0.1971  0.3984  0.2748
  827MPD2    C112214   1.603   2.316   9.699  0.4408  0.0643 -0.4229
  827MPD2    C212215   1.500   2.237   9.650  0.2502 -0.4968 -0.4899
  827MPD2    C312216   1.399   2.287   9.568  0.4587  0.4500  0.2195
  827MPD2    C412217   1.401   2.420   9.545 -0.0810 -0.3521 -0.4388
  827MPD2    C512218   1.502   2.501   9.583  0.3066 -0.4706  0.1517
  827MPD2     H12219   1.498   2.131   9.671 -0.6031 -0.3404  0.2258
  827MPD2    H112220   1.329   2.467   9.479  0.3440  1.2544  0.2428
  827MPD2    H212221   1.690   2.507   9.685 -0.0052 -0.3277  1.1950
  827MPD2    H312222   1.510   2.605   9.554 -2.9619 -0.7952 -1.8958
  827MPD2     N12223   1.302   2.194   9.506 -0.3869  0.7456  0.9384
  827MPD2    H512224   1.295   2.100   9.544  1.5404  0.8773  1.6173
  827MPD2    N112225   1.705   2.277   9.791  0.2897 -0.4191  0.0127
  827MPD2    H712226   1.755   2.358   9.826 -0.8815  0.1871  0.2683
  828MPD2     C12227   4.600   2.273  12.289  0.5975  0.3488  0.2603
  828MPD2    C112228   4.522   2.214  12.191 -0.1590  0.1179 -1.0584
  828MPD2    C212229   4.573   2.201  12.060 -0.5026 -0.8944 -0.8103
  828MPD2    C312230   4.708   2.227  12.037 -0.7264  0.0267  0.0955
  828MPD2    C412231   0.049   2.284  12.144  0.7955 -0.4762  0.0190
  828MPD2    C512232   4.729   2.314  12.268  0.1444  0.8201  0.3261
  828MPD2     H12233   4.511   2.146  11.989 -1.7789  1.2932 -1.3968
  828MPD2    H112234   0.149   2.320  12.126  0.2879  1.2903  0.7140
  828MPD2    H212235   4.557   2.287  12.388 -0.9009  0.9724 -0.4797
  828MPD2    H312236   0.051   2.350  12.351  1.6748 -2.1974  0.5864
  828MPD2     N12237   0.036   2.201  11.908  0.1074  0.5088  0.1591
  828MPD2    H512238   0.133   2.231  11.903 -0.1339  1.5944  1.8189
  828MPD2    N112239   4.386   2.172  12.216  0.0388  1.3887 -0.1100
  828MPD2    H712240   4.328   2.140  12.140  2.9411 -2.6830 -0.6312
  829MPD2     C12241   3.835   2.374  11.664  0.6095 -0.5531  0.2680
  829MPD2    C112242   3.740   2.356  11.757  0.0915  0.2588 -0.3031
  829MPD2    C212243   3.773   2.293  11.878 -0.0138 -0.0721 -0.8266
  829MPD2    C312244   3.909   2.269  11.908 -0.9167  0.4813 -0.2251
  829MPD2    C412245   4.003   2.304  11.812 -0.1285  0.4465  0.0936
  829MPD2    C512246   3.967   2.346  11.690 -0.0167 -0.0824 -0.2199
  829MPD2     H12247   3.699   2.283  11.957  1.3093 -3.2874 -0.0005
  829MPD2    H112248   4.111   2.305  11.827 -0.1848  2.0303  0.4680
  829MPD2    H212249   3.814   2.427  11.571  1.1238 -0.7106  0.0639
  829MPD2    H312250   4.048   2.386  11.630 -0.5718 -0.2443 -1.0648
  829MPD2     N12251   3.956   2.222  12.035 -0.1149 -0.3671 -0.2667
  829MPD2    H512252   4.053   2.194  12.042 -0.2848 -1.0688 -0.6994
  829MPD2    N112253   3.606   2.398  11.737  0.3218 -0.3688 -0.7797
  829MPD2    H712254   3.597   2.467  11.664 -1.5925 -0.1005 -0.3084
  830MPD2     C12255   0.413   0.193  15.914 -0.4116 -0.0362  0.1477
  830MPD2    C112256   0.287   0.218  15.861 -0.7079  0.3128  0.4909
  830MPD2    C212257   0.277   0.308  15.754 -0.0083  0.4750  0.4640
  830MPD2    C312258   0.383   0.374  15.702 -0.0565  0.7235 -0.6434
  830MPD2    C412259   0.508   0.357  15.765 -0.1724  0.1525 -0.1042
  830MPD2    C512260   0.514   0.271  15.865  0.2507 -0.3851  0.1870
  830MPD2     H12261   0.175   0.324  15.721  1.1778 -1.2779 -4.0881
  830MPD2    H112262   0.600   0.409  15.738  1.2386 -2.9216 -1.2309
  830MPD2    H212263   0.427   0.126  15.998  0.5388  2.8135  2.2479
  830MPD2    H312264   0.612   0.268  15.911  0.2682 -0.0367  0.1738
  830MPD2     N12265   0.378   0.462  15.590  0.3399 -0.0202  0.0983
  830MPD2    H512266   0.464   0.510  15.568  1.3357 -0.4620  3.0293
  830MPD2    N112267   0.177   0.162  15.921  0.0842 -0.3835  0.5811
  830MPD2    H712268   0.187   0.124  16.015  0.7494  3.0006  1.8628
  831MPD2     C12269   0.437   2.494  16.268  0.0331 -0.1548  0.3656
  831MPD2    C112270   0.452   2.364  16.224 -0.2659  0.2546 -0.4336
  831MPD2    C212271   0.347   2.271  16.228 -0.0960 -0.6279 -0.2448
  831MPD2    C312272   0.219   2.312  16.273  0.0323  0.5911  0.4933
  831MPD2    C412273   0.222   2.441  16.330  0.1007  0.2132  0.4667
  831MPD2    C512274   0.322   2.525  16.326  0.3572 -0.4505 -0.4180
  831MPD2     H12275   0.363   2.175  16.180  1.9458 -0.3606 -0.1274
  831MPD2    H112276   0.142   2.492  16.383 -0.9151  1.9670 -2.7753
  831MPD2    H212277   0.521   2.563  16.270 -1.5179  1.7470 -1.0352
  831MPD2    H312278   0.307   2.627  16.361 -1.6498 -0.7698 -0.3762
  831MPD2     N12279   0.104   2.234  16.267  0.4250 -0.2004  0.0087
  831MPD2    H512280   0.013   2.275  16.289 -0.6617 -2.2258 -0.7684
  831MPD2    N112281   0.564   2.338  16.146  0.5723  0.3198 -0.5826
  831MPD2    H712282   0.620   2.419  16.119  3.0152 -0.9453  0.6976
  832MPD2     C12283   3.501   3.833  16.842 -0.2280  0.2991 -0.1663
  832MPD2    C112284   3.471   3.971  16.874  0.1861 -0.3797  0.4208
  832MPD2    C212285   3.340   4.009  16.862  0.5342 -0.1268 -0.8056
  832MPD2    C312286   3.239   3.914  16.835  0.0868  0.1272 -0.3877
  832MPD2    C412287   3.267   3.780  16.832  0.0016 -0.6962  0.2513
  832MPD2    C512288   3.405   3.743  16.822 -0.1209 -0.4313  0.0942
  832MPD2     H12289   3.307   4.110  16.839 -1.0255 -0.7797 -1.4084
  832MPD2    H112290   3.198   3.698  16.816 -0.7533 -0.1671  0.8054
  832MPD2    H212291   3.603   3.795  16.841 -0.1120  0.6544 -2.1232
  832MPD2    H312292   3.444   3.642  16.818 -0.2916 -0.5663  1.7751
  832MPD2     N12293   3.103   3.953  16.809  0.0823 -0.8176 -0.6391
  832MPD2    H512294   3.038   3.875  16.815 -0.9205  0.2865  2.8742
  832MPD2    N112295   3.571   4.067  16.910  0.3291  0.4307 -0.1522
  832MPD2    H712296   3.551   4.163  16.934  1.0998  0.7158 -0.6785
  833MPD2     C12297   0.785   4.055  12.084  0.0915 -0.3157  0.6374
  833MPD2    C112298   0.838   4.175  12.148  0.3163 -0.2467 -0.5201
  833MPD2    C212299   0.962   4.222  12.096 -0.0353 -0.3841  0.1717
  833MPD2    C312300   1.038   4.154  11.995 -0.3674 -0.4824  0.2074
  833MPD2    C412301   0.981   4.034  11.943 -0.6422 -0.2237 -0.6404
  833MPD2    C512302   0.858   3.991  11.991  0.2993 -0.2772 -0.2071
  833MPD2     H12303   0.987   4.324  12.120  1.6665 -0.7125 -0.2134
  833MPD2    H112304   1.025   3.986  11.857  2.3201  1.8565 -0.2751
  833MPD2    H212305   0.683   4.025  12.105  0.1808  0.2594  1.8758
  833MPD2    H312306   0.808   3.909  11.940  1.2500  1.0860 -3.3817
  833MPD2     N12307   1.144   4.210  11.918  0.4738 -0.3651  0.3456
  833MPD2    H512308   1.158   4.175  11.823  0.9241 -2.1923  1.0883
  833MPD2    N112309   0.774   4.256  12.237  0.3455  0.5179  0.0874
  833MPD2    H712310   0.822   4.334  12.280 -2.0601  2.6880 -1.1220
  834MPD2     C12311   1.356   4.133  11.105  0.4897  0.1903  0.5671
  834MPD2    C112312   1.286   4.058  11.192 -0.4000  0.2683 -0.4153
  834MPD2    C212313   1.265   4.103  11.320 -0.3596 -0.0838 -1.1491
  834MPD2    C312314   1.290   4.239  11.347 -0.2536 -0.9770  0.5132
  834MPD2    C412315   1.347   4.319  11.250 -0.0882  0.2049 -0.1705
  834MPD2    C512316   1.389   4.264  11.134  0.2812  0.2327  0.6584
  834MPD2     H12317   1.208   4.052  11.396  0.3871 -1.3464 -1.4391
  834MPD2    H112318   1.352   4.427  11.255 -1.0190  0.2787 -0.8384
  834MPD2    H212319   1.388   4.097  11.008 -0.8798 -0.7823  0.4807
  834MPD2    H312320   1.445   4.328  11.067  0.0979 -1.5821 -1.2428
  834MPD2     N12321   1.263   4.296  11.473  0.2521  0.2053 -0.4143
  834MPD2    H512322   1.212   4.243  11.541 -0.2306  0.3422 -0.6717
  834MPD2    N112323   1.259   3.929  11.143  0.2213  0.4413 -0.2759
  834MPD2    H712324   1.275   3.911  11.045 -1.7409 -0.8229 -0.3717
  835MPD2     C12325   1.095   2.403  11.208  0.6420 -0.5831  0.3174
  835MPD2    C112326   0.960   2.453  11.208  0.0736 -0.0005  0.1783
  835MPD2    C212327   0.889   2.458  11.333 -0.3416  0.3186 -0.9696
  835MPD2    C312328   0.957   2.425  11.455 -0.0035  0.5846  0.8450
  835MPD2    C412329   1.083   2.367  11.444  0.6910  1.1849 -0.2495
  835MPD2    C512330   1.155   2.362  11.325  0.4908 -0.4970 -0.5631
  835MPD2     H12331   0.784   2.486  11.335 -0.5804 -0.6151 -0.4773
  835MPD2    H112332   1.129   2.316  11.528 -1.3662  0.3270  0.3551
  835MPD2    H212333   1.143   2.414  11.111  1.4900  2.1980  1.0511
  835MPD2    H312334   1.257   2.326  11.321  0.4287 -0.6055 -1.1719
  835MPD2     N12335   0.887   2.408  11.579  0.5572 -0.0476  0.4220
  835MPD2    H512336   0.940   2.348  11.640 -0.7956  0.6427  2.2615
  835MPD2    N112337   0.895   2.495  11.091 -0.0192  0.0966  0.1540
  835MPD2    H712338   0.805   2.539  11.107 -1.1919 -1.8599 -1.0040
  836MPD2     C12339   0.198   2.566  11.580  0.2016  0.6044  0.1492
  836MPD2    C112340   0.211   2.508  11.698  0.1193  0.1519  0.7785
  836MPD2    C212341   0.095   2.503  11.767 -0.3875  0.4506  0.1184
  836MPD2    C312342   4.708   2.535  11.713 -0.7554 -0.0774 -0.7909
  836MPD2    C412343   4.692   2.580  11.592 -0.3435  0.4818 -0.6355
  836MPD2    C512344   0.073   2.603  11.528 -0.0675 -0.0783 -0.4021
  836MPD2     H12345   0.104   2.462  11.867 -0.7516  2.3081  0.9133
  836MPD2    H112346   4.597   2.600  11.543 -0.2271 -0.3699 -1.2040
  836MPD2    H212347   0.285   2.571  11.516  0.1140  2.1922  0.1478
  836MPD2    H312348   0.068   2.640  11.426 -1.6010  1.9296  0.3972
  836MPD2     N12349   4.587   2.541  11.788  0.0609 -0.0416  0.3226
  836MPD2    H512350   4.504   2.563  11.733 -1.4322 -0.7611  2.2948
  836MPD2    N112351   0.340   2.476  11.741  0.0488  0.5259 -0.0751
  836MPD2    H712352   0.414   2.500  11.676  0.8408  1.0736  1.0331
  837MPD2     C12353   3.648   2.159   9.735  0.0732  0.2864  0.3464
  837MPD2    C112354   3.731   2.120   9.629 -0.1612  0.2385 -0.5352
  837MPD2    C212355   3.817   2.213   9.578 -0.0984 -0.3738 -0.3416
  837MPD2    C312356   3.816   2.340   9.614  0.1886 -0.0823 -0.1018
  837MPD2    C412357   3.736   2.376   9.715 -0.4144 -0.8577 -0.0623
  837MPD2    C512358   3.659   2.285   9.783 -0.0091 -0.5475  0.5068
  837MPD2     H12359   3.886   2.178   9.502  2.2771 -0.9625  2.1337
  837MPD2    H112360   3.730   2.482   9.736 -0.5703 -0.7131 -0.8615
  837MPD2    H212361   3.568   2.102   9.781 -0.4741  0.9994  0.2751
  837MPD2    H312362   3.590   2.331   9.852 -0.5820  1.4469 -1.3732
  837MPD2     N12363   3.900   2.426   9.546  0.1581  0.8640  0.5393
  837MPD2    H512364   3.965   2.380   9.483  1.3601  1.8626  1.0486
  837MPD2    N112365   3.737   1.985   9.582 -0.6200 -0.2529  0.1752
  837MPD2    H712366   3.788   1.972   9.495  0.0789 -0.0665  0.5525
  838MPD2     C12367   2.279   4.173  10.801 -0.8042  0.5043 -0.4983
  838MPD2    C112368   2.282   4.288  10.880 -0.4352  0.3175  0.6139
  838MPD2    C212369   2.167   4.326  10.951 -0.5495  0.7244  0.9147
  838MPD2    C312370   2.060   4.239  10.970 -0.2438 -0.4911  0.2615
  838MPD2    C412371   2.066   4.127  10.892 -0.4370 -0.1065  0.3089
  838MPD2    C512372   2.162   4.103  10.809  0.3227  0.1353 -0.1920
  838MPD2     H12373   2.166   4.415  11.012 -1.4899  1.4710 -0.2015
  838MPD2    H112374   1.978   4.064  10.894 -0.3042 -0.3481 -1.4110
  838MPD2    H212375   2.348   4.155  10.719 -1.1926 -2.8198 -0.0763
  838MPD2    H312376   2.153   4.011  10.752 -1.7522  1.3059 -1.7697
  838MPD2     N12377   1.948   4.270  11.048  0.2247  0.1746 -0.4965
  838MPD2    H512378   1.926   4.366  11.072  2.5180 -0.5313  4.3348
  838MPD2    N112379   2.395   4.368  10.876 -0.0214 -0.0804  0.1298
  838MPD2    H712380   2.391   4.449  10.938  0.0695 -0.3116  0.4364
  839MPD2     C12381   2.087   4.282  11.413  0.8834  0.4399  0.4125
  839MPD2    C112382   2.170   4.191  11.359 -0.2727  0.1420 -0.8636
  839MPD2    C212383   2.281   4.237  11.289  0.7456  0.9192  0.4168
  839MPD2    C312384   2.322   4.366  11.295 -0.5933  0.4456 -0.0676
  839MPD2    C412385   2.244   4.457  11.360  0.8858 -0.5401 -0.2893
  839MPD2    C512386   2.124   4.416  11.413 -0.2025 -0.4031  0.2072
  839MPD2     H12387   2.340   4.159  11.242 -0.2388  0.4045  0.0460
  839MPD2    H112388   2.276   4.560  11.370  0.8567 -0.6601  1.0484
  839MPD2    H212389   1.986   4.262  11.448  0.2400  0.1722 -1.6186
  839MPD2    H312390   2.053   4.484  11.458  0.5089  0.3469  0.1875
  839MPD2     N12391   2.435   4.409  11.222 -0.1311 -0.3015 -0.0721
  839MPD2    H512392   2.499   4.334  11.198  1.0993  0.3293  1.2180
  839MPD2    N112393   2.127   4.056  11.331  0.2893  0.5146 -0.3593
  839MPD2    H712394   2.150   3.998  11.251 -0.5206 -0.0608 -0.1749
  840MPD2     C12395   2.275   2.536   9.819  0.0852  0.0418 -0.4269
  840MPD2    C112396   2.256   2.479   9.944 -0.8158 -0.7199  0.1576
  840MPD2    C212397   2.333   2.512  10.057  0.0827  0.9339 -0.2999
  840MPD2    C312398   2.442   2.604  10.036  0.5973 -0.2410  0.3871
  840MPD2    C412399   2.457   2.652   9.906 -0.1473 -0.1076  1.1105
  840MPD2    C512400   2.380   2.623   9.799  0.3785 -0.1809 -0.0640
  840MPD2     H12401   2.309   2.486  10.159 -1.7474  1.0669 -0.7028
  840MPD2    H112402   2.549   2.706   9.884 -2.1645  2.7830 -0.1650
  840MPD2    H212403   2.215   2.521   9.730  0.7116 -3.4910 -0.2300
  840MPD2    H312404   2.375   2.678   9.706 -0.0702 -0.0272  0.0505
  840MPD2     N12405   2.531   2.657  10.143 -0.1141  0.6068 -0.2514
  840MPD2    H512406   2.617   2.702  10.112  0.4853  0.0373  0.5920
  840MPD2    N112407   2.140   2.393   9.961  0.1852  0.5209 -0.0880
  840MPD2    H712408   2.073   2.396   9.885 -0.0787 -3.4193 -0.0453
  841MPD2     C12409   2.011   2.316  14.890  0.1756  0.2434 -0.2123
  841MPD2    C112410   1.898   2.394  14.882  0.6243  0.3094 -0.0007
  841MPD2    C212411   1.906   2.533  14.913 -0.7546 -0.4842  0.0692
  841MPD2    C312412   2.030   2.590  14.927 -0.2565 -0.5886 -1.3177
  841MPD2    C412413   2.144   2.509  14.944 -0.1863 -0.2398 -0.1703
  841MPD2    C512414   2.130   2.373  14.926 -1.1729 -0.9183  0.0932
  841MPD2     H12415   1.820   2.598  14.922  1.7698  3.0716 -1.1157
  841MPD2    H112416   2.244   2.548  14.954 -0.6735  0.8669  0.3851
  841MPD2    H212417   2.012   2.212  14.860 -3.5849 -0.5309  2.2315
  841MPD2    H312418   2.222   2.316  14.932 -0.1778  0.5108 -1.3789
  841MPD2     N12419   2.050   2.735  14.935  0.6384  0.5591  0.0711
  841MPD2    H512420   2.139   2.762  14.976  1.0713  1.5272 -1.5026
  841MPD2    N112421   1.782   2.336  14.848  0.5108 -0.0634  0.3237
  841MPD2    H712422   1.779   2.235  14.838 -1.4574  0.1398 -1.1558
  842MPD2     C12423   2.713   4.412  16.699  0.1603 -0.0706  0.0976
  842MPD2    C112424   2.612   4.320  16.705  0.3993  0.9584 -0.2521
  842MPD2    C212425   2.584   4.259  16.829  0.6663  0.3264  0.7311
  842MPD2    C312426   2.642   4.311  16.945 -0.7504  0.6041  0.7352
  842MPD2    C412427   2.753   4.395  16.936 -0.2458  0.3616  0.2371
  842MPD2    C512428   2.788   4.436  16.812 -0.9446  0.3576  0.9119
  842MPD2     H12429   2.492   4.202  16.840 -0.7147  2.2551 -0.5815
  842MPD2    H112430   2.813   4.417  17.024 -0.2127  0.8062  0.1078
  842MPD2    H212431   2.734   4.475  16.613  0.2187 -0.1008  0.0900
  842MPD2    H312432   2.877   4.496  16.799 -2.1058  1.7454 -0.5591
  842MPD2     N12433   2.617   4.254  17.076  0.0432 -0.0300 -0.1554
  842MPD2    H512434   2.671   4.289  17.154 -2.7725  2.2819  0.7372
  842MPD2    N112435   2.543   4.278  16.591  0.6163  0.4415 -0.0310
  842MPD2    H712436   2.569   4.321  16.503  0.8385 -1.6521 -0.9792
  843MPD2     C12437   4.668   0.037  17.736  0.5016 -0.2366 -0.0493
  843MPD2    C112438   4.691   0.035   0.125  0.1074  0.0607  0.2397
  843MPD2    C212439   0.043   0.132   0.172  0.1358 -0.1815  0.0315
  843MPD2    C312440   0.102   0.222   0.091 -0.1826 -0.5950 -0.6694
  843MPD2    C412441   0.065   0.230  17.704  0.2724  0.4150  0.1075
  843MPD2    C512442   4.723   0.133  17.659  0.1357 -0.6244 -0.0472
  843MPD2     H12443   0.065   0.133   0.278  0.8696 -1.7134 -0.0971
  843MPD2    H112444   0.102   0.303  17.634  0.3245  0.6466  0.3761
  843MPD2    H212445   4.606   4.701  17.685 -1.4910  0.6540  1.0950
  843MPD2    H312446   4.721   0.134  17.551  0.2932 -2.0848 -0.0712
  843MPD2     N12447   0.201   0.314   0.140 -0.4207 -0.1654  0.0210
  843MPD2    H512448   0.242   0.369   0.065  0.9128  1.0319  1.5872
  843MPD2    N112449   4.631   4.675   0.208  0.0893  0.1482  0.6020
  843MPD2    H712450   4.575   4.607   0.158  1.6867 -0.6248 -0.1406
  844MPD2     C12451   3.350   3.003  16.519  0.5224 -0.4518  0.4533
  844MPD2    C112452   3.324   3.085  16.410 -0.5828  0.3046  0.1629
  844MPD2    C212453   3.359   3.223  16.416 -0.0334  0.7781  0.5123
  844MPD2    C312454   3.445   3.270  16.514 -0.1302  0.9622  1.2055
  844MPD2    C412455   3.479   3.186  16.616  0.4553  0.3720 -0.3653
  844MPD2    C512456   3.435   3.058  16.620 -0.3978 -0.2667 -0.4708
  844MPD2     H12457   3.343   3.295  16.336  0.9523  0.6164  0.1700
  844MPD2    H112458   3.551   3.214  16.692  1.4151  0.0162 -1.1432
  844MPD2    H212459   3.318   2.900  16.524 -2.2941  0.3015 -1.9400
  844MPD2    H312460   3.480   3.003  16.701 -1.1538  0.1075  0.1981
  844MPD2     N12461   3.489   3.403  16.509  0.9115 -0.1613  0.2530
  844MPD2    H512462   3.463   3.465  16.433  0.4947 -0.5549  0.0766
  844MPD2    N112463   3.262   3.021  16.301  1.4436 -0.5953 -0.0001
  844MPD2    H712464   3.238   2.923  16.311  1.0499 -0.7777 -2.6167
  845MPD2     C12465   3.315   4.353  16.515 -0.0910  0.3903  0.1354
  845MPD2    C112466   3.407   4.330  16.613  0.9416  0.3989  1.0880
  845MPD2    C212467   3.480   4.212  16.618  0.1208  0.1549 -0.2738
  845MPD2    C312468   3.453   4.117  16.520 -0.3311 -0.0770  0.5793
  845MPD2    C412469   3.359   4.137  16.420  0.5083 -0.2746  0.5451
  845MPD2    C512470   3.295   4.259  16.418 -0.4242 -0.6758 -0.4768
  845MPD2     H12471   3.553   4.194  16.696 -1.6326  1.5516  1.6832
  845MPD2    H112472   3.342   4.067  16.340  0.2884  2.2916 -1.6633
  845MPD2    H212473   3.249   4.438  16.506 -2.0900 -1.0890  0.8941
  845MPD2    H312474   3.224   4.279  16.339 -0.0118 -1.7672 -1.1280
  845MPD2     N12475   3.533   4.002  16.526  0.0309 -0.5537 -0.6643
  845MPD2    H512476   3.594   4.000  16.607  1.3482  0.1326 -1.6322
  845MPD2    N112477   3.413   4.432  16.710  0.2521  0.4328 -0.5596
  845MPD2    H712478   3.344   4.505  16.699 -2.0617 -1.7264 -0.4732
  846MPD2     C12479   0.066   4.165  13.767  0.4757 -0.7066 -0.4927
  846MPD2    C112480   4.677   4.202  13.749  0.3560 -0.3530  0.4165
  846MPD2    C212481   4.595   4.221  13.860 -0.2154 -0.2163  0.3234
  846MPD2    C312482   4.640   4.194  13.988 -0.5378 -0.5447 -0.4781
  846MPD2    C412483   0.037   4.147  14.005 -0.2722 -0.4066  0.1934
  846MPD2    C512484   0.112   4.145  13.891 -0.1837 -0.2612 -0.4244
  846MPD2     H12485   4.491   4.246  13.841 -1.2565 -2.2368  3.3299
  846MPD2    H112486   0.086   4.115  14.097  1.5508 -0.7165 -0.8904
  846MPD2    H212487   0.141   4.164  13.689 -0.1143 -0.5395 -1.0726
  846MPD2    H312488   0.218   4.122  13.896  0.7704  3.7890 -1.8269
  846MPD2     N12489   4.557   4.216  14.101  0.3561 -0.1442 -0.1075
  846MPD2    H512490   4.461   4.243  14.083  0.8549  1.7949  0.1346
  846MPD2    N112491   4.623   4.236  13.623  0.7002  0.5293 -0.2015
  846MPD2    H712492   4.545   4.301  13.623 -1.5871 -2.1580 -1.1181
  847MPD2     C12493   0.077   0.838  14.434  0.3166  0.0115  0.3135
  847MPD2    C112494   0.103   0.776  14.549  0.3181 -0.5335 -0.3283
  847MPD2    C212495   0.218   0.703  14.573  0.4684 -0.2050  0.2651
  847MPD2    C312496   0.318   0.703  14.478 -0.3991  0.3848 -0.1265
  847MPD2    C412497   0.294   0.781  14.367  0.1296 -0.0731 -0.2093
  847MPD2    C512498   0.176   0.847  14.346 -0.2576  0.0423  0.1613
  847MPD2     H12499   0.232   0.660  14.672 -0.8538 -0.7378  0.2174
  847MPD2    H112500   0.365   0.813  14.292  0.1261 -0.4546 -0.3748
  847MPD2    H212501   4.722   0.893  14.418  1.2086  0.7584 -2.3119
  847MPD2    H312502   0.165   0.915  14.262  0.2486  1.8372  1.5579
  847MPD2     N12503   0.448   0.654  14.495 -0.5323 -0.2069 -0.3882
  847MPD2    H512504   0.515   0.686  14.427 -1.1514  0.9242 -0.4715
  847MPD2    N112505   0.011   0.801  14.655 -0.3961 -0.0683  0.4017
  847MPD2    H712506   0.022   0.750  14.743 -2.0946  1.3101  1.4111
  848MPD2     C12507   3.009   3.997  16.115  0.2803  0.1460  0.2783
  848MPD2    C112508   2.986   4.108  16.191  0.2455 -0.1592 -0.1080
  848MPD2    C212509   3.041   4.231  16.153  0.0800  0.6979  0.2183
  848MPD2    C312510   3.113   4.250  16.035 -0.9775 -0.6776 -0.8339
  848MPD2    C412511   3.117   4.136  15.952 -0.8109 -0.0554 -0.0190
  848MPD2    C512512   3.071   4.014  15.993 -0.2647 -0.9183 -0.0047
  848MPD2     H12513   3.026   4.313  16.223 -3.3522  0.4673 -0.2364
  848MPD2    H112514   3.169   4.145  15.857  0.3846 -1.6736  0.4898
  848MPD2    H212515   2.974   3.898  16.141 -0.2416  0.5866  1.2625
  848MPD2    H312516   3.075   3.932  15.922 -1.0884  0.5118 -1.7043
  848MPD2     N12517   3.181   4.370  15.997  0.3032 -0.1234 -0.0399
  848MPD2    H512518   3.211   4.371  15.900 -1.4893 -2.3835 -0.5937
  848MPD2    N112519   2.916   4.109  16.316  0.2943 -0.2372 -0.3712
  848MPD2    H712520   2.894   4.199  16.358  0.3273 -0.1867 -0.4616
  849MPD2     C12521   1.730   3.489  14.570 -0.4093 -0.1231 -0.7743
  849MPD2    C112522   1.795   3.400  14.492  0.5205  0.0886 -0.3267
  849MPD2    C212523   1.921   3.368  14.514 -0.0367 -0.6076  0.5710
  849MPD2    C312524   1.987   3.433  14.620 -0.0030  0.5658 -0.2797
  849MPD2    C412525   1.928   3.529  14.699  0.2207 -0.4289  0.1176
  849MPD2    C512526   1.794   3.556  14.674  0.1503 -0.1994  0.2032
  849MPD2     H12527   1.964   3.287  14.457 -0.5370 -0.5964  0.1795
  849MPD2    H112528   1.976   3.582  14.781 -0.4105  1.5864 -0.8018
  849MPD2    H212529   1.624   3.505  14.557 -0.6326 -0.6832  0.2830
  849MPD2    H312530   1.744   3.621  14.744 -1.4414 -0.7919 -0.3770
  849MPD2     N12531   2.116   3.408  14.648  0.4325  0.1537  0.2863
  849MPD2    H512532   2.161   3.459  14.723 -0.8441  1.0662  0.4195
  849MPD2    N112533   1.730   3.346  14.376  0.3199 -0.3174  0.2500
  849MPD2    H712534   1.779   3.275  14.323  1.7804  1.3173 -0.5719
  850MPD2     C12535   0.075   1.398  14.732  0.2150 -0.5682  0.4879
  850MPD2    C112536   0.103   1.494  14.832 -0.3866 -0.1129 -0.0427
  850MPD2    C212537   0.232   1.535  14.849 -0.7008 -0.5732 -0.4018
  850MPD2    C312538   0.339   1.480  14.781  1.3264  0.7754  0.2328
  850MPD2    C412539   0.309   1.384  14.684 -0.8312 -0.2453  0.5144
  850MPD2    C512540   0.182   1.346  14.657 -0.1167 -0.2353  0.4137
  850MPD2     H12541   0.246   1.607  14.929  0.7614 -0.1782 -1.0194
  850MPD2    H112542   0.378   1.321  14.629  0.2288  1.6078 -0.2562
  850MPD2    H212543   4.710   1.367  14.718  0.0233  1.0179 -1.6030
  850MPD2    H312544   0.168   1.274  14.577  2.1259 -0.2655  0.0732
  850MPD2     N12545   0.476   1.504  14.810  0.4342 -0.2522  0.2053
  850MPD2    H512546   0.549   1.465  14.751 -0.4012  1.4786 -1.9557
  850MPD2    N112547   4.725   1.551  14.896  1.0457 -0.2233 -1.0533
  850MPD2    H712548   4.638   1.515  14.858  0.7204  1.2752 -1.7272
  851MPD2     C12549   0.587   1.396  15.465 -0.5655 -0.8961  0.0641
  851MPD2    C112550   0.465   1.381  15.399 -0.5117  0.9157 -0.1510
  851MPD2    C212551   0.417   1.253  15.378 -0.2169 -0.0163  0.4185
  851MPD2    C312552   0.491   1.139  15.409 -0.4066  0.7304  0.6892
  851MPD2    C412553   0.610   1.160  15.467 -0.7814  0.0832 -0.5149
  851MPD2    C512554   0.656   1.287  15.496  0.7658 -0.1754  0.9763
  851MPD2     H12555   0.320   1.240  15.331 -0.3011 -1.4068  0.9709
  851MPD2    H112556   0.673   1.077  15.498 -0.1025  0.7362 -0.1488
  851MPD2    H212557   0.619   1.498  15.482 -0.9296 -1.2995  3.1429
  851MPD2    H312558   0.747   1.310  15.549 -0.2990  2.1902  1.8292
  851MPD2     N12559   0.442   1.020  15.372  0.0614  0.2975 -0.3983
  851MPD2    H512560   0.362   1.021  15.311  0.3384 -0.7093 -0.7818
  851MPD2    N112561   0.394   1.498  15.359  0.0745 -0.1124  0.2087
  851MPD2    H712562   0.443   1.587  15.350 -0.3590 -0.0713 -1.7292
  852MPD2     C12563   0.402   3.800  10.200  0.0085 -0.0763 -0.0989
  852MPD2    C112564   0.499   3.892  10.226 -0.1636 -0.2955 -0.3224
  852MPD2    C212565   0.530   3.997  10.139  0.8418  0.2516  0.4271
  852MPD2    C312566   0.450   4.012  10.029 -0.4597  1.0133 -0.0762
  852MPD2    C412567   0.351   3.912   9.996  0.5136 -0.1702 -0.6730
  852MPD2    C512568   0.334   3.811  10.087  0.7875  0.5788  0.4276
  852MPD2     H12569   0.614   4.058  10.171  0.5379 -0.6650  2.9826
  852MPD2    H112570   0.293   3.919   9.904  0.5288 -3.2596 -0.9171
  852MPD2    H212571   0.400   3.710  10.261 -0.2529  0.3924  0.5882
  852MPD2    H312572   0.257   3.739  10.062  1.4088  0.6601 -1.7897
  852MPD2     N12573   0.469   4.124   9.951  0.1386 -0.0834  0.0896
  852MPD2    H512574   0.534   4.191   9.991  0.2801  0.3712 -0.8823
  852MPD2    N112575   0.575   3.874  10.342  0.0829 -0.0133  0.2894
  852MPD2    H712576   0.659   3.930  10.353  1.2016 -1.9206  1.5595
  853MPD2     C12577   1.833   3.192  11.903 -0.1860  0.5908 -0.2632
  853MPD2    C112578   1.721   3.203  11.824  0.3879 -0.5101  0.5297
  853MPD2    C212579   1.742   3.188  11.692 -0.3370 -0.4790 -0.0427
  853MPD2    C312580   1.865   3.158  11.637 -0.0206  0.5277  0.8730
  853MPD2    C412581   1.974   3.147  11.721 -0.5728 -0.5233 -0.1481
  853MPD2    C512582   1.955   3.173  11.848  0.2442 -0.3635 -0.7999
  853MPD2     H12583   1.654   3.190  11.629  0.0349  0.7453 -0.5286
  853MPD2    H112584   2.077   3.135  11.691  0.0509  0.7483  1.4880
  853MPD2    H212585   1.820   3.207  12.010 -1.5447  1.2958 -0.5303
  853MPD2    H312586   2.049   3.168  11.901 -0.5900 -0.4175  0.6728
  853MPD2     N12587   1.885   3.155  11.495 -0.2955  0.3144  0.1631
  853MPD2    H512588   1.981   3.149  11.464 -0.7444 -1.1883 -0.9647
  853MPD2    N112589   1.596   3.216  11.893 -0.5390 -0.7426 -0.1004
  853MPD2    H712590   1.602   3.247  11.989 -0.0581  0.1267 -0.4008
  854MPD2     C12591   2.517   4.263  12.661 -0.6708 -0.6177 -0.3534
  854MPD2    C112592   2.646   4.246  12.711 -0.9602  0.3505  0.2630
  854MPD2    C212593   2.698   4.114  12.730 -1.2583 -0.0995 -0.1558
  854MPD2    C312594   2.627   4.002  12.680  0.3717 -0.6346 -0.5740
  854MPD2    C412595   2.505   4.023  12.614  0.0226 -0.1820  0.3057
  854MPD2    C512596   2.460   4.154  12.605  0.1124 -0.3297 -0.1434
  854MPD2     H12597   2.804   4.105  12.751 -0.6745  3.6293 -1.3392
  854MPD2    H112598   2.442   3.949  12.565  1.0391 -1.5478  1.0546
  854MPD2    H212599   2.470   4.360  12.655 -2.1838 -1.4423 -1.8129
  854MPD2    H312600   2.363   4.176  12.563 -0.6283 -0.8756  1.2862
  854MPD2     N12601   2.674   3.873  12.694 -0.0359  0.3353 -0.0076
  854MPD2    H512602   2.620   3.810  12.636 -1.5933 -0.8815  2.7600
  854MPD2    N112603   2.716   4.360  12.754  0.3537  0.2679 -0.1622
  854MPD2    H712604   2.661   4.445  12.767  0.7779  0.7647 -1.5991
  855MPD2     C12605   3.499   3.467  13.151  0.2069 -0.5520 -0.0131
  855MPD2    C112606   3.396   3.391  13.192  0.4182  0.1749  0.3988
  855MPD2    C212607   3.268   3.414  13.140 -0.9303  0.5783 -0.2810
  855MPD2    C312608   3.248   3.521  13.054 -0.0587 -0.4092  0.0634
  855MPD2    C412609   3.356   3.607  13.030 -0.1281 -0.4221  0.2279
  855MPD2    C512610   3.479   3.572  13.070 -0.6048  0.8385 -0.1942
  855MPD2     H12611   3.187   3.346  13.165  0.1557 -0.4682  0.4206
  855MPD2    H112612   3.350   3.690  12.960 -0.9453 -0.9045 -0.2814
  855MPD2    H212613   3.600   3.446  13.185  1.0175 -0.8407 -2.5882
  855MPD2    H312614   3.560   3.640  13.044 -0.2307 -0.0313 -1.3270
  855MPD2     N12615   3.129   3.549  12.980 -0.6249 -0.5793 -0.0818
  855MPD2    H512616   3.138   3.628  12.916  0.1260  0.9916  1.9719
  855MPD2    N112617   3.430   3.288  13.279 -1.0375 -0.5813  0.4112
  855MPD2    H712618   3.529   3.294  13.303 -0.5765 -1.1310 -1.4057
  856MPD2     C12619   1.084   4.564  14.020  0.1787  0.0900 -0.0132
  856MPD2    C112620   1.145   4.674  13.961  0.8798  0.6594  0.2865
  856MPD2    C212621   1.055   0.016  13.879  0.2903 -0.1211 -0.0620
  856MPD2    C312622   0.918   4.721  13.872 -0.6434 -0.3471  0.4651
  856MPD2    C412623   0.865   4.609  13.934 -0.6520  0.7209  0.5389
  856MPD2    C512624   0.949   4.537  14.010  0.0270  0.6227  0.2793
  856MPD2     H12625   1.094   0.097  13.818 -0.0024  2.6368  3.3800
  856MPD2    H112626   0.763   4.573  13.924  0.5663 -3.1727  2.4333
  856MPD2    H212627   1.136   4.491  14.081  0.3364  0.0747 -0.1656
  856MPD2    H312628   0.917   4.445  14.058 -0.4794  0.3223 -0.6192
  856MPD2     N12629   0.824   0.069  13.803 -0.2274  0.3662  0.0405
  856MPD2    H512630   0.726   0.044  13.802 -0.3470  0.8500 -0.1112
  856MPD2    N112631   1.283   4.699  13.966 -0.7554  0.1423  0.4229
  856MPD2    H712632   1.310   0.044  13.912  1.2422 -0.1698  0.9612
  857MPD2     C12633   1.991   2.107  12.767  0.4665  0.5530  0.2019
  857MPD2    C112634   2.125   2.068  12.757 -0.4094  0.4481  0.2348
  857MPD2    C212635   2.221   2.156  12.804  0.1586 -0.5287  0.4749
  857MPD2    C312636   2.189   2.285  12.858  0.3346 -0.1315 -0.6512
  857MPD2    C412637   2.053   2.319  12.868 -0.1711 -0.2196  0.0163
  857MPD2    C512638   1.964   2.233  12.816  0.1469 -0.2251 -0.5005
  857MPD2     H12639   2.326   2.130  12.798 -0.2737 -2.3885  0.8949
  857MPD2    H112640   2.010   2.414  12.895 -2.3480 -0.6617 -1.8647
  857MPD2    H212641   1.906   2.043  12.750  0.1758  1.4504 -1.7610
  857MPD2    H312642   1.858   2.256  12.816  0.0966 -0.4459  0.2883
  857MPD2     N12643   2.297   2.371  12.896  0.0453 -0.6175  0.4951
  857MPD2    H512644   2.387   2.326  12.914  1.3272  0.7457 -2.5312
  857MPD2    N112645   2.168   1.957  12.682  0.2986 -0.1365  0.5522
  857MPD2    H712646   2.269   1.955  12.678  0.2258  1.3979 -1.9707
  858MPD2     C12647   3.570   1.524  16.158  0.3955  0.0403 -0.3951
  858MPD2    C112648   3.599   1.408  16.231  0.6168  0.0115  0.1681
  858MPD2    C212649   3.609   1.416  16.369 -0.0342  0.1330 -0.6217
  858MPD2    C312650   3.574   1.535  16.436  0.1733 -0.9574  0.1460
  858MPD2    C412651   3.536   1.641  16.357  0.5406  0.4626 -0.7059
  858MPD2    C512652   3.547   1.642  16.219 -0.8231  0.1957  0.5766
  858MPD2     H12653   3.649   1.337  16.431 -0.9997  1.3125  1.4859
  858MPD2    H112654   3.516   1.740  16.399 -1.6971 -0.0160 -0.6466
  858MPD2    H212655   3.567   1.509  16.050  2.3852 -1.5304 -0.2331
  858MPD2    H312656   3.516   1.725  16.157 -1.8378  0.6348  1.6772
  858MPD2     N12657   3.580   1.552  16.574 -0.8502 -0.2879  0.9346
  858MPD2    H512658   3.563   1.647  16.608  0.5464  0.9799 -1.9228
  858MPD2    N112659   3.619   1.294  16.152  0.3773 -0.2291 -0.3437
  858MPD2    H712660   3.592   1.301  16.054  0.4461  0.5524 -0.3032
  859MPD2     C12661   2.207   3.671  15.770 -0.3576 -0.0648 -0.4301
  859MPD2    C112662   2.157   3.630  15.644 -0.1341 -0.1029  0.0262
  859MPD2    C212663   2.034   3.568  15.636  0.4685 -0.2127  0.1048
  859MPD2    C312664   1.968   3.538  15.760 -0.1753  0.3691  0.0793
  859MPD2    C412665   2.014   3.578  15.879  0.7609 -0.5310 -0.5661
  859MPD2    C512666   2.132   3.645  15.886  0.3330  0.3634  0.2257
  859MPD2     H12667   1.998   3.525  15.544 -0.4477  2.3253 -0.7139
  859MPD2    H112668   1.962   3.564  15.974 -0.7037 -0.0703 -1.2963
  859MPD2    H212669   2.294   3.735  15.771 -1.3685  1.3013  1.1251
  859MPD2    H312670   2.181   3.682  15.975  2.7186 -0.5881 -0.6940
  859MPD2     N12671   1.854   3.451  15.769  0.5194  0.3076 -0.1030
  859MPD2    H512672   1.843   3.420  15.864  0.7264 -1.0652 -0.5328
  859MPD2    N112673   2.232   3.666  15.530 -0.5114  0.3313  0.1732
  859MPD2    H712674   2.318   3.718  15.546 -0.5962 -0.2509  2.5152
  860MPD2     C12675   4.210   3.042  11.809  0.4182 -1.0528  0.6352
  860MPD2    C112676   4.225   3.084  11.939  0.1081  0.2667  0.7153
  860MPD2    C212677   4.118   3.078  12.028  0.2297  0.5609 -0.6251
  860MPD2    C312678   3.999   3.021  11.995  0.3028 -0.2055  0.1672
  860MPD2    C412679   3.988   2.974  11.867  1.2553 -0.3429 -0.0104
  860MPD2    C512680   4.092   2.988  11.778  0.1455  0.1428  0.0043
  860MPD2     H12681   4.129   3.109  12.132 -1.0024  0.4965 -0.4757
  860MPD2    H112682   3.907   2.916  11.823  1.3825  0.9601 -1.9358
  860MPD2    H212683   4.287   3.042  11.733  0.3216  0.0339  0.5455
  860MPD2    H312684   4.092   2.945  11.678 -0.4800 -0.7363  0.3838
  860MPD2     N12685   3.890   3.020  12.080  0.1295  0.1244  0.5981
  860MPD2    H512686   3.922   3.027  12.177  2.1869  2.6382 -0.2681
  860MPD2    N112687   4.340   3.158  11.984  0.2962 -0.2126 -0.8660
  860MPD2    H712688   4.342   3.175  12.083  1.2963 -0.2279 -0.8775
  861MPD2     C12689   3.580   1.579  10.753 -0.8755  0.1390  0.1833
  861MPD2    C112690   3.520   1.703  10.791  0.5224  0.0873 -0.0264
  861MPD2    C212691   3.432   1.761  10.698 -0.5091  0.0700 -0.0696
  861MPD2    C312692   3.423   1.719  10.566  0.0487 -0.5062  0.5598
  861MPD2    C412693   3.479   1.599  10.536  0.1050  0.0353 -0.4186
  861MPD2    C512694   3.559   1.536  10.624 -0.2902  0.2810 -0.1501
  861MPD2     H12695   3.385   1.851  10.736 -1.3628  0.2526 -1.5477
  861MPD2    H112696   3.448   1.550  10.444  0.0874 -1.9590  0.6516
  861MPD2    H212697   3.645   1.517  10.814  0.2802  0.8403 -0.3379
  861MPD2    H312698   3.608   1.445  10.591 -1.3051 -0.6820  0.9736
  861MPD2     N12699   3.323   1.769  10.477  0.4903 -0.1264  0.1486
  861MPD2    H512700   3.277   1.711  10.408 -0.3403  0.1327  0.4927
  861MPD2    N112701   3.525   1.756  10.924 -0.6307  0.4957 -0.3619
  861MPD2    H712702   3.473   1.840  10.949  0.2359  0.4856  1.4900
  862MPD2     C12703   3.025   1.749   9.794  0.0970 -1.0034 -0.2270
  862MPD2    C112704   3.058   1.690   9.916 -0.4955 -0.1439  0.1004
  862MPD2    C212705   3.025   1.561   9.942  0.0727  0.5577 -0.2888
  862MPD2    C312706   2.961   1.487   9.844 -0.6444 -0.2493 -0.0295
  862MPD2    C412707   2.948   1.543   9.716 -0.0047  0.0551 -0.1816
  862MPD2    C512708   2.981   1.675   9.693 -0.0975  0.1519  0.4512
  862MPD2     H12709   3.037   1.521  10.042  0.1797  0.8130 -0.1981
  862MPD2    H112710   2.907   1.484   9.635 -0.4969 -0.0286  0.1265
  862MPD2    H212711   3.047   1.850   9.761 -0.8792 -0.2800  1.3687
  862MPD2    H312712   2.970   1.724   9.598 -0.0544  0.3671  0.5563
  862MPD2     N12713   2.937   1.352   9.880 -0.3726 -0.7540 -0.1566
  862MPD2    H512714   2.958   1.329   9.977 -0.3353  0.9315  0.2427
  862MPD2    N112715   3.107   1.768  10.023  0.0717  0.0569  0.2119
  862MPD2    H712716   3.133   1.718  10.107 -0.6789  0.1704  0.5099
  863MPD2     C12717   1.803   0.024  16.651 -0.4900  0.3490  0.6855
  863MPD2    C112718   1.821   0.157  16.664 -0.5956  0.4048 -1.1206
  863MPD2    C212719   1.910   0.205  16.760 -0.1410  0.3974  0.9390
  863MPD2    C312720   1.970   0.117  16.847 -0.8864  0.0436 -0.4315
  863MPD2    C412721   1.951   4.716  16.829  0.5073 -0.6368  0.2505
  863MPD2    C512722   1.878   4.667  16.725  0.0155 -0.6548  0.1298
  863MPD2     H12723   1.915   0.312  16.781 -0.3918  0.5923  0.0242
  863MPD2    H112724   2.004   4.646  16.893 -1.8644 -3.6678 -1.0987
  863MPD2    H212725   1.735   4.721  16.575 -1.7347  3.2222  0.3048
  863MPD2    H312726   1.867   4.560  16.714  3.1966 -1.0016  0.3721
  863MPD2     N12727   2.048   0.161  16.949  0.4568  0.5738  0.7659
  863MPD2    H512728   2.078   0.093  17.018 -2.3023 -0.6099  0.8211
  863MPD2    N112729   1.738   0.241  16.594  0.5918  0.4766  0.1948
  863MPD2    H712730   1.679   0.185  16.533  1.7327 -3.2695  2.5472
  864MPD2     C12731   2.217   1.669  17.094  0.2918 -0.0888  0.3931
  864MPD2    C112732   2.229   1.566  17.001 -0.3369 -0.5717  0.0518
  864MPD2    C212733   2.311   1.591  16.893  0.5615  0.6414  0.8002
  864MPD2    C312734   2.394   1.702  16.885 -0.6837  0.0745  0.1343
  864MPD2    C412735   2.392   1.796  16.984 -0.4667  0.4861 -0.0948
  864MPD2    C512736   2.299   1.778  17.089  0.4533 -0.2979 -0.6716
  864MPD2     H12737   2.324   1.515  16.817  2.2413  1.4057  0.3161
  864MPD2    H112738   2.460   1.881  16.981 -0.6559  0.5844 -1.7069
  864MPD2    H212739   2.148   1.651  17.176 -0.2897  2.4530  0.4798
  864MPD2    H312740   2.285   1.860  17.158 -1.1287  0.6608 -2.1389
  864MPD2     N12741   2.487   1.723  16.779 -0.2861  0.7202  0.2957
  864MPD2    H512742   2.534   1.813  16.781 -0.5978  0.8852  0.1033
  864MPD2    N112743   2.133   1.461  17.008 -0.6058 -0.1757  0.0645
  864MPD2    H712744   2.054   1.460  17.071 -0.2613 -2.1365  0.4512
  865MPD2     C12745   2.777   2.105  16.243 -0.2298  0.2240 -0.7064
  865MPD2    C112746   2.729   1.996  16.309  0.6084 -0.1329 -0.2570
  865MPD2    C212747   2.761   1.982  16.446  0.6506 -0.1563 -0.7174
  865MPD2    C312748   2.839   2.080  16.512 -0.1696 -0.6285  0.4057
  865MPD2    C412749   2.877   2.191  16.442 -0.4105  0.2546 -0.4523
  865MPD2    C512750   2.847   2.200  16.306  0.1266 -0.9730  0.2576
  865MPD2     H12751   2.720   1.892  16.490  0.3088 -0.6605 -2.0414
  865MPD2    H112752   2.946   2.269  16.471  0.4398 -1.6039  2.4476
  865MPD2    H212753   2.752   2.119  16.139 -0.3361 -1.7609 -0.9540
  865MPD2    H312754   2.891   2.284  16.254  0.3408 -2.3352 -1.7623
  865MPD2     N12755   2.893   2.068  16.645 -0.0163  0.3477  0.5746
  865MPD2    H512756   2.945   2.147  16.681  1.1593  0.1809 -0.7817
  865MPD2    N112757   2.659   1.901  16.233 -0.3163  0.5137  0.2872
  865MPD2    H712758   2.643   1.927  16.137 -2.0234  0.2735  0.5084
  866MPD2     C12759   4.190   2.540  10.882 -0.3739 -0.2972 -0.6455
  866MPD2    C112760   4.154   2.403  10.890 -0.3814 -0.2404 -0.5889
  866MPD2    C212761   4.018   2.373  10.854  0.1249 -0.0991 -0.0175
  866MPD2    C312762   3.926   2.476  10.844 -0.5722  0.0773  0.0329
  866MPD2    C412763   3.964   2.610  10.849 -0.7085 -0.1476  0.3225
  866MPD2    C512764   4.100   2.642  10.867 -0.1823 -0.2157 -0.1479
  866MPD2     H12765   3.993   2.267  10.862  2.8767 -0.7750 -0.4738
  866MPD2    H112766   3.897   2.695  10.852 -1.5704 -0.7822 -0.9256
  866MPD2    H212767   4.293   2.566  10.905 -0.3799 -0.8075 -0.0180
  866MPD2    H312768   4.137   2.742  10.889 -0.0796 -0.0536 -1.0889
  866MPD2     N12769   3.785   2.456  10.826  0.5261  0.0751  0.6981
  866MPD2    H512770   3.733   2.534  10.789  1.3628 -0.4786 -1.6505
  866MPD2    N112771   4.252   2.307  10.930  0.2785 -0.2424 -0.6248
  866MPD2    H712772   4.342   2.350  10.953  0.1466  0.3484 -1.2008
  867MPD2     C12773   0.993   1.421  16.450 -0.1095  1.3044  0.1201
  867MPD2    C112774   1.075   1.439  16.560  0.2402  0.5105  0.2161
  867MPD2    C212775   1.072   1.561  16.628  1.0665  0.4452  0.5509
  867MPD2    C312776   0.983   1.659  16.583  0.2706  0.0515  0.4798
  867MPD2    C412777   0.903   1.637  16.471 -1.0561  0.3357  0.0236
  867MPD2    C512778   0.909   1.516  16.410 -0.2303 -0.1668 -0.0247
  867MPD2     H12779   1.132   1.584  16.715 -1.5750  0.6567  2.3164
  867MPD2    H112780   0.838   1.717  16.438  1.1155  1.3614 -1.7311
  867MPD2    H212781   0.993   1.326  16.398  0.9792  1.6252 -0.4821
  867MPD2    H312782   0.839   1.495  16.330  0.4912 -0.5792 -0.5364
  867MPD2     N12783   0.983   1.793  16.639 -0.5384  0.2174  0.6796
  867MPD2    H512784   0.948   1.871  16.584 -1.0426  0.4287  1.3045
  867MPD2    N112785   1.159   1.328  16.602 -0.0620 -0.8111  0.2254
  867MPD2    H712786   1.166   1.246  16.542  1.6933 -1.2603  1.0584
  868MPD2     C12787   2.792   0.596  13.246  0.0375 -0.3078  0.2684
  868MPD2    C112788   2.885   0.527  13.316 -0.1357 -0.3352 -0.5062
  868MPD2    C212789   2.853   0.443  13.424  0.4715  0.2831  0.8048
  868MPD2    C312790   2.717   0.421  13.448  0.5016 -0.1783  0.0469
  868MPD2    C412791   2.622   0.495  13.381  0.4613 -0.7252  0.3531
  868MPD2    C512792   2.660   0.583  13.282 -0.0002 -0.1281 -0.2830
  868MPD2     H12793   2.928   0.391  13.482 -0.4258 -0.1762  1.5455
  868MPD2    H112794   2.517   0.502  13.404  0.8453  0.9761  1.5511
  868MPD2    H212795   2.822   0.661  13.164  3.5887 -0.7931  1.1671
  868MPD2    H312796   2.582   0.632  13.225 -0.5194 -2.8961 -1.9319
  868MPD2     N12797   2.689   0.326  13.556  0.1527  0.1371 -0.2182
  868MPD2    H512798   2.766   0.315  13.621  1.5611 -0.0503 -1.9198
  868MPD2    N112799   3.022   0.553  13.274  0.0130 -0.6189 -0.2302
  868MPD2    H712800   3.041   0.632  13.214  0.7542 -0.9108 -0.3792
  869MPD2     C12801   4.341   3.263   0.643  0.0088  0.0491 -1.0387
  869MPD2    C112802   4.234   3.339   0.683  0.0686 -0.2834  0.6212
  869MPD2    C212803   4.252   3.440   0.782 -0.2167 -0.4148  0.2685
  869MPD2    C312804   4.364   3.443   0.859 -0.1802  0.6559 -0.0746
  869MPD2    C412805   4.467   3.361   0.827 -0.0015  0.6110  0.2497
  869MPD2    C512806   4.454   3.274   0.717  0.0594 -0.0325  0.3860
  869MPD2     H12807   4.166   3.502   0.801 -1.7241 -2.3202 -0.3288
  869MPD2    H112808   4.558   3.351   0.885  1.0855  0.8164 -1.4237
  869MPD2    H212809   4.334   3.194   0.560 -1.1180 -0.6958 -0.3298
  869MPD2    H312810   4.538   3.215   0.683  1.1494  1.8252 -0.1380
  869MPD2     N12811   4.385   3.542   0.964  0.1045  0.1263 -0.3039
  869MPD2    H512812   4.479   3.560   0.999  0.4516 -2.3609  0.0576
  869MPD2    N112813   4.109   3.330   0.612  0.5141 -0.0300 -0.7316
  869MPD2    H712814   4.116   3.280   0.524 -0.7105 -2.6965  0.6972
  870MPD2     C12815   4.381   2.643   1.397  0.1733  0.2988  0.1765
  870MPD2    C112816   4.315   2.571   1.303 -0.2601  0.6106 -0.1491
  870MPD2    C212817   4.225   2.639   1.226  0.4920 -0.5093  0.6247
  870MPD2    C312818   4.174   2.762   1.253 -0.8988  0.1729 -0.4270
  870MPD2    C412819   4.231   2.828   1.362  0.1919 -0.1737  0.6649
  870MPD2    C512820   4.329   2.765   1.434  0.0709  0.3672 -0.6616
  870MPD2     H12821   4.171   2.587   1.148  0.0895 -0.4229  0.8499
  870MPD2    H112822   4.208   2.932   1.382 -1.6330 -0.3283 -0.6841
  870MPD2    H212823   4.460   2.591   1.449  0.4051  0.9773  0.5078
  870MPD2    H312824   4.383   2.827   1.504 -0.0253  0.3495 -0.5722
  870MPD2     N12825   4.058   2.803   1.183 -0.4942  0.5210  0.3243
  870MPD2    H512826   4.022   2.738   1.115 -0.6450  0.0737  0.8317
  870MPD2    N112827   4.352   2.438   1.286  0.3376  0.3481  0.0935
  870MPD2    H712828   4.426   2.410   1.350  0.1967 -0.8597 -0.2669
  871MPD2     C12829   0.164   1.690  16.151  0.0571 -0.4053  1.0246
  871MPD2    C112830   0.143   1.615  16.266  0.0524 -0.1902 -0.8097
  871MPD2    C212831   0.167   1.482  16.259 -0.0918 -0.8716 -0.4977
  871MPD2    C312832   0.177   1.417  16.135  0.3190  0.1075  0.0687
  871MPD2    C412833   0.193   1.494  16.020  0.2969 -0.6768 -0.1769
  871MPD2    C512834   0.185   1.627  16.031 -0.0477 -0.0608 -0.8145
  871MPD2     H12835   0.157   1.419  16.347 -0.7824  0.0807  0.1027
  871MPD2    H112836   0.200   1.451  15.921  0.3556  0.0588 -0.4973
  871MPD2    H212837   0.165   1.798  16.152 -0.7264 -0.3476 -2.3352
  871MPD2    H312838   0.189   1.690  15.943  0.5862  0.7354 -0.2089
  871MPD2     N12839   0.169   1.273  16.128  0.6408 -0.2450 -0.0728
  871MPD2    H512840   0.177   1.228  16.038  2.8236 -0.1993  0.0816
  871MPD2    N112841   0.114   1.685  16.387  0.2625  0.7226  0.6556
  871MPD2    H712842   0.100   1.785  16.383 -0.0090  0.5590 -2.4319
  872MPD2     C12843   1.071   3.815  13.531  0.1361 -0.1311  0.1757
  872MPD2    C112844   1.151   3.887  13.613 -0.0083  1.0597 -0.4795
  872MPD2    C212845   1.118   3.890  13.753  0.3730 -0.0487 -0.3025
  872MPD2    C312846   1.022   3.807  13.800  0.4782  0.0014  0.1599
  872MPD2    C412847   0.938   3.739  13.713 -1.2997  0.3688  0.3610
  872MPD2    C512848   0.961   3.749  13.581  0.5563 -0.1304 -0.0358
  872MPD2     H12849   1.173   3.959  13.815  0.1858  1.2578 -1.5947
  872MPD2    H112850   0.862   3.670  13.748 -1.9890  1.0518  0.2047
  872MPD2    H212851   1.094   3.801  13.426  0.4472 -2.6568  0.5836
  872MPD2    H312852   0.914   3.687  13.506  0.2378  1.4098 -1.1155
  872MPD2     N12853   0.997   3.805  13.940  0.1807 -1.0068 -0.0059
  872MPD2    H512854   0.912   3.755  13.964  0.3158 -2.0897 -1.8421
  872MPD2    N112855   1.248   3.973  13.568 -0.4331 -0.0156 -0.3430
  872MPD2    H712856   1.267   4.049  13.633 -1.1659 -0.2391  0.1342
  873MPD2     C12857   3.049   4.514   0.829  0.2491  0.0857 -0.4905
  873MPD2    C112858   2.961   4.553   0.928  1.0180  0.1894 -0.4562
  873MPD2    C212859   2.864   4.463   0.963 -0.0670  0.9892 -0.6518
  873MPD2    C312860   2.851   4.338   0.904  0.0982  0.6995  0.2477
  873MPD2    C412861   2.942   4.308   0.810 -0.0848 -0.2629  0.8113
  873MPD2    C512862   3.041   4.392   0.770 -0.5301 -0.2817  0.4072
  873MPD2     H12863   2.798   4.494   1.043  0.4475 -0.2487  0.2582
  873MPD2    H112864   2.954   4.205   0.779 -0.8535  0.3930 -1.6578
  873MPD2    H212865   3.129   4.581   0.799 -0.7743  0.5413 -2.1744
  873MPD2    H312866   3.110   4.370   0.690  0.9040  4.1148  0.4363
  873MPD2     N12867   2.772   4.238   0.952 -0.4118  0.2866  0.1167
  873MPD2    H512868   2.787   4.150   0.903 -1.8735 -0.1975  0.5199
  873MPD2    N112869   2.976   4.688   0.987 -0.1568  0.6563 -0.3051
  873MPD2    H712870   3.059   0.005   0.962  0.9277 -1.4655 -1.2203
  874MPD2     C12871   2.556   4.398  15.790  0.3293 -0.4567  0.0198
  874MPD2    C112872   2.599   4.399  15.919  0.0514 -0.3145  0.0587
  874MPD2    C212873   2.718   4.466  15.951  0.3260 -0.4905 -0.5249
  874MPD2    C312874   2.779   4.544  15.849 -0.0568  0.9513  0.3624
  874MPD2    C412875   2.722   4.552  15.723  0.3278 -0.4743  0.0688
  874MPD2    C512876   2.619   4.476  15.699 -0.5625 -0.1360  1.0297
  874MPD2     H12877   2.771   4.461  16.045  2.1427 -2.6154 -1.6757
  874MPD2    H112878   2.755   4.625  15.649 -3.0910  1.1531  0.1633
  874MPD2    H212879   2.462   4.353  15.760 -0.8474  0.0977  2.8850
  874MPD2    H312880   2.568   4.476  15.603  0.3755 -3.5779  0.5325
  874MPD2     N12881   2.886   4.628  15.901 -0.4253  0.4613 -0.2970
  874MPD2    H512882   2.913   4.616  15.998 -0.0023  4.0767  0.0522
  874MPD2    N112883   2.535   4.314  16.016 -0.2042  0.1299 -0.0340
  874MPD2    H712884   2.448   4.267  15.992 -0.7386  2.3246 -2.5074
  875MPD2     C12885   3.551   2.191  14.368 -0.7538  0.7375  0.9039
  875MPD2    C112886   3.466   2.269  14.440 -0.3404 -0.7157 -0.0733
  875MPD2    C212887   3.517   2.361  14.532 -0.1824  1.1267 -0.2737
  875MPD2    C312888   3.652   2.355  14.562 -0.5914  0.2254 -1.3831
  875MPD2    C412889   3.738   2.277  14.488 -0.1291 -0.1952  0.2543
  875MPD2    C512890   3.684   2.203  14.391  0.0894  0.9443  0.3113
  875MPD2     H12891   3.443   2.422  14.584 -1.0266 -1.2959  1.3272
  875MPD2    H112892   3.836   2.244  14.517 -0.7597 -0.4001  2.1102
  875MPD2    H212893   3.523   2.134  14.281  0.0142  1.6947  0.0208
  875MPD2    H312894   3.753   2.136  14.342 -0.5857  0.8622 -0.5306
  875MPD2     N12895   3.708   2.420  14.670  0.1391 -0.2186  0.4056
  875MPD2    H512896   3.807   2.407  14.688 -0.0126  0.1017  1.4629
  875MPD2    N112897   3.329   2.268  14.424  0.2562  0.2278 -0.3266
  875MPD2    H712898   3.282   2.340  14.477 -0.1217 -0.0278 -0.3206
  876MPD2     C12899   2.464   3.921  16.075  0.4247 -0.4634 -0.1343
  876MPD2    C112900   2.586   3.910  16.018 -0.1001  0.2344  0.2493
  876MPD2    C212901   2.668   3.817  16.083 -0.6409  0.3846  0.5833
  876MPD2    C312902   2.631   3.748  16.201  0.1896 -0.6083 -0.1877
  876MPD2    C412903   2.511   3.771  16.259 -0.3465  1.0962 -0.3732
  876MPD2    C512904   2.427   3.857  16.192  0.5292 -0.5780  0.0118
  876MPD2     H12905   2.765   3.784  16.048 -1.7639 -1.8430 -0.4267
  876MPD2    H112906   2.493   3.736  16.360  0.6810  2.9413  0.4646
  876MPD2    H212907   2.390   3.978  16.021  0.3220 -0.7715 -0.3200
  876MPD2    H312908   2.331   3.887  16.233  0.2989 -1.9540  0.4592
  876MPD2     N12909   2.719   3.651  16.249  0.0396  0.0724  0.5872
  876MPD2    H512910   2.809   3.636  16.204 -1.3979 -1.6845 -1.6626
  876MPD2    N112911   2.621   3.972  15.897  0.1258 -0.2618 -0.1645
  876MPD2    H712912   2.555   4.040  15.861 -0.6469 -0.3492  1.0807
  877MPD2     C12913   2.374   4.174  15.259 -0.0612 -0.2370 -0.4776
  877MPD2    C112914   2.509   4.198  15.240 -0.0702  0.3249 -0.1813
  877MPD2    C212915   2.565   4.204  15.110 -0.3695  0.4225  0.1302
  877MPD2    C312916   2.494   4.181  14.994 -0.4566  0.3250 -0.2914
  877MPD2    C412917   2.357   4.147  15.018 -0.3400  0.6004  0.4977
  877MPD2    C512918   2.300   4.147  15.144 -0.3067 -0.0248  0.0149
  877MPD2     H12919   2.672   4.220  15.108 -0.5138  1.0929 -1.7109
  877MPD2    H112920   2.294   4.115  14.935 -0.5704  1.3543  0.3835
  877MPD2    H212921   2.323   4.170  15.354 -2.7121  0.1923 -1.8528
  877MPD2    H312922   2.199   4.114  15.163 -1.0130  1.6205 -0.8889
  877MPD2     N12923   2.547   4.202  14.868 -0.0856 -0.0826  0.0105
  877MPD2    H512924   2.496   4.169  14.787 -1.5528 -1.5851  1.5510
  877MPD2    N112925   2.601   4.212  15.348 -0.0768 -0.4858 -0.5775
  877MPD2    H712926   2.699   4.190  15.335  0.4612  0.6423  1.5867
  878MPD2     C12927   2.045   3.672  13.534  0.2905  0.0894 -0.7207
  878MPD2    C112928   2.032   3.540  13.500  0.0932  0.1791 -0.4380
  878MPD2    C212929   1.960   3.450  13.578 -0.8103  0.5408  0.0476
  878MPD2    C312930   1.895   3.498  13.700 -0.4392  0.0851  0.6695
  878MPD2    C412931   1.902   3.635  13.724  0.8186 -0.1468 -0.4380
  878MPD2    C512932   1.968   3.717  13.635  0.0924  0.4268 -0.9372
  878MPD2     H12933   1.951   3.345  13.551  0.5116  0.4733 -0.1407
  878MPD2    H112934   1.839   3.688  13.795  1.2789  1.3615 -1.1639
  878MPD2    H212935   2.101   3.747  13.479 -0.2421  1.6875  0.9295
  878MPD2    H312936   1.968   3.822  13.661  0.6114  0.3062 -0.4605
  878MPD2     N12937   1.823   3.402  13.781  0.2161  0.4850 -1.0575
  878MPD2    H512938   1.799   3.307  13.751 -1.6492  0.7607 -0.4495
  878MPD2    N112939   2.098   3.496  13.386 -0.4196 -0.1717  0.4371
  878MPD2    H712940   2.168   3.563  13.356 -1.5988  1.2209  0.7935
  879MPD2     C12941   2.470   0.565  16.774 -0.6891  0.4388 -0.8926
  879MPD2    C112942   2.477   0.469  16.872 -0.1884 -0.0112 -0.2150
  879MPD2    C212943   2.439   0.339  16.842  0.5407  0.4652  0.8202
  879MPD2    C312944   2.381   0.309  16.725 -0.5364 -0.1798  0.3340
  879MPD2    C412945   2.357   0.411  16.636  0.5005 -0.4114 -0.4477
  879MPD2    C512946   2.408   0.536  16.651 -0.0104 -0.3229  0.3220
  879MPD2     H12947   2.446   0.267  16.923 -0.0930  1.4793  1.7767
  879MPD2    H112948   2.300   0.390  16.547 -1.4998 -0.3521  0.8215
  879MPD2    H212949   2.500   0.668  16.788 -2.7419  1.0795 -1.1054
  879MPD2    H312950   2.394   0.611  16.575 -0.1761 -0.9632 -0.2716
  879MPD2     N12951   2.342   0.174  16.688  0.1363  0.1109  0.1435
  879MPD2    H512952   2.293   0.160  16.600 -0.7184  1.1231  0.4619
  879MPD2    N112953   2.554   0.496  16.985  0.0179 -0.1911 -0.8005
  879MPD2    H712954   2.596   0.587  16.997  0.3671 -0.5940  0.9589
  880MPD2     C12955   3.925   1.948  17.568  0.1617  0.4425 -0.6293
  880MPD2    C112956   3.994   2.002  17.675 -0.7916  0.1412  0.0861
  880MPD2    C212957   4.081   1.921  17.743 -0.3921 -0.3312  0.1720
  880MPD2    C312958   4.116   1.797  17.699 -0.2356 -0.2543 -0.4857
  880MPD2    C412959   4.066   1.756  17.579  0.2711 -0.0524  0.0660
  880MPD2    C512960   3.968   1.827  17.513  0.3680  0.0832  0.4909
  880MPD2     H12961   4.134   1.952   0.087  0.0721 -0.8636  0.0829
  880MPD2    H112962   4.117   1.677  17.526 -0.6359  0.3710 -1.4255
  880MPD2    H212963   3.851   2.002  17.511  0.7853  1.8497 -0.0869
  880MPD2    H312964   3.907   1.791  17.431 -1.0437  0.3375  1.4309
  880MPD2     N12965   4.212   1.728   0.031 -0.2870 -0.2345  0.2890
  880MPD2    H512966   4.252   1.785   0.104  0.0200  0.8433 -0.7165
  880MPD2    N112967   3.953   2.128  17.718  0.0736 -0.5886  0.4491
  880MPD2    H712968   3.899   2.184  17.653  1.2813 -2.3576 -2.0872
  881MPD2     C12969   3.844   3.035  17.355  0.8992  0.5896  0.2810
  881MPD2    C112970   3.934   2.933  17.334  0.4459 -0.3969 -0.1540
  881MPD2    C212971   3.928   2.832  17.425  0.7258  0.0107 -0.0257
  881MPD2    C312972   3.838   2.832  17.537  0.2531 -0.6316  0.0904
  881MPD2    C412973   3.746   2.939  17.552 -0.3803  0.6151 -0.2066
  881MPD2    C512974   3.757   3.041  17.462  0.8222 -0.2355  0.3520
  881MPD2     H12975   3.992   2.745  17.419  2.4461  1.2031  0.9676
  881MPD2    H112976   3.683   2.940  17.640  0.0147 -1.2393  0.1025
  881MPD2    H212977   3.841   3.118  17.284  1.0701  1.1265  0.9016
  881MPD2    H312978   3.698   3.131  17.478 -0.0491 -1.0906  1.9155
  881MPD2     N12979   3.831   2.731  17.633 -0.1641  0.0642 -0.2817
  881MPD2    H512980   3.762   2.732  17.707 -0.0237 -1.1079 -0.1361
  881MPD2    N112981   4.004   2.911  17.210 -0.5290  0.3833  0.1673
  881MPD2    H712982   4.036   2.816  17.197  0.3381  0.7901 -0.6584
  882MPD2     C12983   2.627   4.253  14.005 -0.2286 -0.8292  0.2004
  882MPD2    C112984   2.555   4.263  14.124 -0.5394  1.1444 -0.3721
  882MPD2    C212985   2.417   4.251  14.115  0.4678 -0.4463 -0.1512
  882MPD2    C312986   2.357   4.249  13.991 -0.0963  0.0865 -0.7868
  882MPD2    C412987   2.432   4.253  13.877  0.2461  0.2968  0.1547
  882MPD2    C512988   2.561   4.249  13.886 -0.4263 -0.1171  0.8412
  882MPD2     H12989   2.361   4.253  14.208 -0.0233 -0.8200 -0.4368
  882MPD2    H112990   2.391   4.242  13.777 -0.2470 -1.5508  0.5643
  882MPD2    H212991   2.735   4.249  14.001 -0.2555  0.3460 -1.7277
  882MPD2    H312992   2.625   4.250  13.799 -0.0438  0.5527  1.1319
  882MPD2     N12993   2.211   4.240  13.972  0.6312  0.0168  0.1093
  882MPD2    H512994   2.178   4.229  13.877  1.0632  2.1773 -0.2858
  882MPD2    N112995   2.620   4.258  14.248  0.7195 -0.0374 -0.0556
  882MPD2    H712996   2.719   4.239  14.245  1.0305  0.8662  4.2156
  883MPD2     C12997   4.547   3.920  15.729 -0.2340  0.2862 -0.5550
  883MPD2    C112998   4.627   4.005  15.655  0.4199  0.0014 -0.0405
  883MPD2    C212999   0.012   4.056  15.712  0.1248 -0.1587 -0.6388
  883MPD2    C313000   0.045   4.037  15.846  0.8307 -0.2804 -0.4940
  883MPD2    C413001   4.703   3.942  15.907  0.5107  0.3328  0.1124
  883MPD2    C513002   4.590   3.891  15.853 -0.0791  0.1300  0.0604
  883MPD2     H13003   0.066   4.127  15.650 -0.4642 -1.4912 -2.6876
  883MPD2    H113004   4.727   3.891  15.999 -2.6406 -0.5065  0.4750
  883MPD2    H213005   4.448   3.886  15.701  0.1753 -2.2412  1.0083
  883MPD2    H313006   4.527   3.823  15.909 -0.5289  0.8026  0.3816
  883MPD2     N13007   0.151   4.108  15.909 -0.3358  0.3365 -0.0836
  883MPD2    H513008   0.214   4.161  15.850 -1.4358  0.8142 -0.8300
  883MPD2    N113009   4.600   4.041  15.519  0.1563  0.0298  0.1475
  883MPD2    H713010   4.675   4.093  15.476 -0.1206  0.0840 -0.2632
  884MPD2     C13011   1.697   4.673  15.124  0.2472 -0.1878  0.1997
  884MPD2    C113012   1.644   4.695  15.002  0.4136  1.0585 -0.3323
  884MPD2    C213013   1.508   4.737  14.983 -0.0548  0.4623 -0.3899
  884MPD2    C313014   1.434   0.035  15.088  0.5934  0.3339 -0.8238
  884MPD2    C413015   1.491   0.026  15.213  0.3806 -0.0322  0.4985
  884MPD2    C513016   1.616   4.707  15.231  0.0791 -0.1663 -0.4854
  884MPD2     H13017   1.470   4.736  14.882  2.1718 -1.0054 -1.2202
  884MPD2    H113018   1.437   0.055  15.302  1.1750  0.3414  0.8574
  884MPD2    H213019   1.798   4.639  15.143 -0.0706 -1.9841 -1.2780
  884MPD2    H313020   1.657   4.698  15.330  0.1614  1.2821 -0.3841
  884MPD2     N13021   1.301   0.073  15.071 -0.2384  0.2103  0.1726
  884MPD2    H513022   1.278   0.090  14.973  2.1400 -0.8471 -0.5617
  884MPD2    N113023   1.729   4.673  14.892 -0.3724  0.0571  0.3346
  884MPD2    H713024   1.683   4.701  14.806  1.8952  1.1458 -0.5206
  885MPD2     C13025   0.017   0.957   0.600 -0.6214 -0.1599  0.0668
  885MPD2    C113026   4.711   0.831   0.564 -0.0441 -0.2530 -0.7711
  885MPD2    C213027   4.730   0.792   0.435 -0.5364 -0.1745  0.6320
  885MPD2    C313028   0.045   0.878   0.344 -0.8950  0.0740  0.3008
  885MPD2    C413029   0.088   1.002   0.383  0.1131 -0.4823 -0.0366
  885MPD2    C513030   0.074   1.041   0.507  0.1644 -0.0709 -0.0187
  885MPD2     H13031   4.688   0.697   0.404 -2.6022  0.8817  0.2143
  885MPD2    H113032   0.136   1.070   0.312 -1.5047  0.3580 -0.3237
  885MPD2    H213033   0.017   0.991   0.703 -0.3942  1.4297 -0.4533
  885MPD2    H313034   0.103   1.144   0.523  0.5865 -0.0482 -0.9527
  885MPD2     N13035   0.051   0.833   0.209 -0.5196  0.0434 -0.6148
  885MPD2    H513036   0.019   0.737   0.199 -2.0106  0.4993 -0.2618
  885MPD2    N113037   4.666   0.746   0.664  0.5920  0.3977  0.1823
  885MPD2    H713038   4.656   0.777   0.760 -0.8823 -0.3579  0.2736
  886MPD2     C13039   1.083   3.849  15.657 -0.1098 -0.3941  0.0350
  886MPD2    C113040   1.214   3.823  15.615 -0.3955 -0.6545 -0.4656
  886MPD2    C213041   1.253   3.859  15.488  0.3140 -0.2132  0.7504
  886MPD2    C313042   1.181   3.949  15.421  0.4129 -0.9107  0.3864
  886MPD2    C413043   1.061   3.999  15.473 -0.9554 -0.2894  0.6771
  886MPD2    C513044   1.014   3.942  15.582  0.1296  0.1131 -0.1102
  886MPD2     H13045   1.342   3.817  15.443  0.2490 -2.4725  2.7283
  886MPD2    H113046   0.993   4.070  15.426  0.4592 -0.0524 -1.0302
  886MPD2    H213047   1.034   3.835  15.753 -1.6602 -2.0611 -0.9957
  886MPD2    H313048   0.926   3.978  15.633  0.5632  1.7300 -0.4906
  886MPD2     N13049   1.233   3.975  15.294  0.1862  0.2898  0.3817
  886MPD2    H513050   1.322   3.930  15.277 -0.0281 -0.0287  0.1121
  886MPD2    N113051   1.291   3.738  15.689 -0.4371  0.0673  0.5849
  886MPD2    H713052   1.390   3.731  15.666 -0.0662  4.1127  0.8398
  887MPD2     C13053   1.912   3.830  16.046 -0.2418  0.1341  0.2634
  887MPD2    C113054   1.819   3.843  15.940 -0.8398  0.1936  0.1631
  887MPD2    C213055   1.831   3.946  15.854  0.1101  1.0073 -0.1224
  887MPD2    C313056   1.941   4.037  15.867 -0.7886  0.3198 -0.0008
  887MPD2    C413057   2.036   4.024  15.969 -0.7713  0.2794  0.6718
  887MPD2    C513058   2.016   3.918  16.058  0.1306  0.2249 -0.5423
  887MPD2     H13059   1.753   3.967  15.782 -1.3174 -1.0219  0.8438
  887MPD2    H113060   2.118   4.094  15.985 -0.4073  0.1175 -0.4438
  887MPD2    H213061   1.908   3.764  16.132 -1.0106 -0.2182 -0.0366
  887MPD2    H313062   2.080   3.902  16.144  0.7250 -3.3244 -1.6778
  887MPD2     N13063   1.948   4.146  15.780 -0.3393 -0.7966  0.2431
  887MPD2    H513064   1.891   4.134  15.696  1.9417  0.2746 -1.4463
  887MPD2    N113065   1.708   3.759  15.913  0.4798  0.0099  0.4978
  887MPD2    H713066   1.650   3.784  15.834  1.1596  0.0319  0.0142
  888MPD2     C13067   3.360   3.093  14.868 -0.1671  0.3797  0.1394
  888MPD2    C113068   3.414   3.134  14.986 -0.1892 -0.0575 -0.4251
  888MPD2    C213069   3.451   3.267  15.000  0.6676 -0.2920  0.1026
  888MPD2    C313070   3.437   3.356  14.898  0.1157  0.0453  0.5619
  888MPD2    C413071   3.369   3.309  14.782 -0.4662  0.1250  0.6106
  888MPD2    C513072   3.340   3.180  14.767 -0.0414  0.1965  0.1991
  888MPD2     H13073   3.488   3.301  15.096  0.3407 -0.8066  0.4094
  888MPD2    H113074   3.347   3.367  14.693 -2.7149 -0.6210  0.6809
  888MPD2    H213075   3.350   2.986  14.850  0.6013 -0.1041  2.5192
  888MPD2    H313076   3.295   3.165  14.670  1.4426  0.2441 -0.4894
  888MPD2     N13077   3.487   3.494  14.911 -0.0909 -0.3864 -0.1716
  888MPD2    H513078   3.525   3.523  15.000 -3.3253 -1.1013  1.4463
  888MPD2    N113079   3.442   3.047  15.090 -0.3511 -0.3228 -0.0589
  888MPD2    H713080   3.500   3.085  15.165 -3.7907  0.7894  2.0287
  889MPD2     C13081   2.476   3.179  12.750  0.1929  0.3991 -1.0131
  889MPD2    C113082   2.553   3.144  12.859  0.4234 -0.5782  0.1520
  889MPD2    C213083   2.579   3.241  12.964  0.6019  0.0029 -1.1214
  889MPD2    C313084   2.534   3.373  12.944 -0.2645 -0.6872 -0.8114
  889MPD2    C413085   2.469   3.412  12.822  0.4093 -0.1696 -0.3273
  889MPD2    C513086   2.433   3.307  12.741  0.4384 -0.4430 -0.1485
  889MPD2     H13087   2.613   3.221  13.065  0.6863  0.3875 -1.0754
  889MPD2    H113088   2.439   3.516  12.813 -2.3219 -0.9605 -0.4618
  889MPD2    H213089   2.436   3.109  12.678  0.1865 -1.3972  0.7419
  889MPD2    H313090   2.380   3.338  12.652 -0.3716  0.0571  0.5164
  889MPD2     N13091   2.569   3.467  13.044 -0.2620 -0.1533  0.0973
  889MPD2    H513092   2.638   3.451  13.117  0.2932  2.3646  0.1072
  889MPD2    N113093   2.557   3.009  12.896 -0.1327 -0.3426  0.6035
  889MPD2    H713094   2.593   2.984  12.987  0.4476  2.5256  1.1558
  890MPD2     C13095   2.229   0.332  14.345  0.1306 -0.9288 -0.0840
  890MPD2    C113096   2.314   0.390  14.442 -0.1440  0.4097  0.3605
  890MPD2    C213097   2.416   0.313  14.485  0.3025 -0.1275 -0.6326
  890MPD2    C313098   2.428   0.180  14.444 -0.0217  0.1328 -0.6850
  890MPD2    C413099   2.349   0.132  14.341 -0.4335 -0.5594  0.5818
  890MPD2    C513100   2.247   0.202  14.300  0.2973  0.2795  0.0973
  890MPD2     H13101   2.486   0.346  14.561 -1.6969  0.6897  0.8614
  890MPD2    H113102   2.363   0.029  14.308  0.5401  0.3461 -1.8333
  890MPD2    H213103   2.138   0.383  14.315 -0.3037 -1.4379  0.3518
  890MPD2    H313104   2.190   0.163  14.216  0.7478  0.2461 -0.1940
  890MPD2     N13105   2.522   0.095  14.512 -0.1232 -0.6900  1.0239
  890MPD2    H513106   2.579   0.131  14.587  0.8346  0.2371 -0.1465
  890MPD2    N113107   2.281   0.518  14.487  0.4423  0.2682  0.0798
  890MPD2    H713108   2.186   0.550  14.472 -0.0241 -0.1839  2.0701
  891MPD2     C13109   0.782   3.464  16.409 -0.0819  0.4181 -0.3422
  891MPD2    C113110   0.726   3.569  16.469  0.3413 -0.1829  0.8583
  891MPD2    C213111   0.787   3.619  16.589 -0.9459  0.5007  0.7490
  891MPD2    C313112   0.905   3.560  16.636  0.4666 -0.6882 -0.3722
  891MPD2    C413113   0.960   3.449  16.576  0.5335 -0.1525  0.1641
  891MPD2    C513114   0.898   3.412  16.462 -0.2214  0.6952  0.2078
  891MPD2     H13115   0.749   3.709  16.637  1.8121  1.1767  1.6340
  891MPD2    H113116   1.052   3.398  16.600  0.6438 -0.1176 -0.1894
  891MPD2    H213117   0.748   3.422  16.315  1.0149 -2.2058  0.4419
  891MPD2    H313118   0.946   3.328  16.413 -1.7705 -0.2326  0.2988
  891MPD2     N13119   0.968   3.630  16.741  0.6960  0.2219 -0.0242
  891MPD2    H513120   0.927   3.717  16.774  1.7803 -0.2599  2.5756
  891MPD2    N113121   0.611   3.627  16.416  0.3779 -0.5893  0.6135
  891MPD2    H713122   0.563   3.580  16.339  0.5680 -1.3445  0.9585
  892MPD2     C13123   1.598   4.353  14.719 -0.0159 -0.7801  0.8593
  892MPD2    C113124   1.509   4.360  14.614  0.5204  0.4393 -0.8319
  892MPD2    C213125   1.559   4.330  14.488  0.8200  0.5608 -0.5172
  892MPD2    C313126   1.687   4.293  14.469 -0.7378  0.2772  0.0983
  892MPD2    C413127   1.771   4.275  14.576  0.2933 -0.5306 -0.4490
  892MPD2    C513128   1.721   4.303  14.698  0.1526 -0.7251 -0.0805
  892MPD2     H13129   1.489   4.326  14.405 -0.5239  1.7465  0.5542
  892MPD2    H113130   1.876   4.250  14.574  0.1483 -1.3405  2.5635
  892MPD2    H213131   1.576   4.373  14.824  0.0917 -1.1231  0.9477
  892MPD2    H313132   1.787   4.303  14.784  0.5754 -2.0998 -0.4161
  892MPD2     N13133   1.746   4.272  14.338 -0.5025  0.1845  0.3413
  892MPD2    H513134   1.837   4.227  14.338 -1.1060 -1.0152 -1.0023
  892MPD2    N113135   1.372   4.394  14.627 -0.7560  0.0907  0.0257
  892MPD2    H713136   1.312   4.394  14.545  0.4481  2.7630 -0.8449
  893MPD2     C13137   3.234   4.309   1.703 -1.0028  0.3453  0.1447
  893MPD2    C113138   3.296   4.292   1.579 -0.2450  0.5010  0.0134
  893MPD2    C213139   3.343   4.407   1.506  0.0381  0.3835  0.0805
  893MPD2    C313140   3.341   4.526   1.569 -0.0182  0.1848 -0.5005
  893MPD2    C413141   3.279   4.542   1.693  0.5817 -0.6515 -0.3978
  893MPD2    C513142   3.216   4.432   1.758 -0.4951 -0.0397 -0.3865
  893MPD2     H13143   3.401   4.396   1.416  1.0688 -2.2249  1.0537
  893MPD2    H113144   3.259   4.641   1.733  0.5228 -0.7087 -0.2860
  893MPD2    H213145   3.211   4.221   1.761 -0.5355  1.2744  1.7534
  893MPD2    H313146   3.159   4.452   1.848 -1.6430  1.2822 -1.4115
  893MPD2     N13147   3.403   4.643   1.508 -0.4226 -0.4936  0.2312
  893MPD2    H513148   3.381   4.729   1.558 -0.8964  0.1459 -1.1007
  893MPD2    N113149   3.311   4.154   1.538 -0.2030 -0.1169 -0.0389
  893MPD2    H713150   3.270   4.079   1.593 -1.1535  0.1307 -0.4109
  894MPD2     C13151   1.261   0.407   1.205  0.0866 -0.2473 -0.0150
  894MPD2    C113152   1.196   0.522   1.237 -0.3554 -0.6196  0.4359
  894MPD2    C213153   1.251   0.642   1.189  0.4142 -0.0904  0.1111
  894MPD2    C313154   1.374   0.644   1.127  0.1141  0.2469  0.2286
  894MPD2    C413155   1.441   0.530   1.107 -0.5342  0.3922 -0.3565
  894MPD2    C513156   1.385   0.407   1.142 -0.0238  0.8820  0.0225
  894MPD2     H13157   1.205   0.736   1.215  1.9966  0.4731  0.8610
  894MPD2    H113158   1.545   0.517   1.077 -0.9146 -0.2842 -1.3868
  894MPD2    H213159   1.230   0.311   1.245 -2.9511 -0.1875 -2.2230
  894MPD2    H313160   1.438   0.312   1.136 -0.8275  0.5270 -1.4716
  894MPD2     N13161   1.417   0.773   1.090 -0.2991 -0.6804 -0.4695
  894MPD2    H513162   1.370   0.858   1.117  1.0607 -0.0098 -0.2056
  894MPD2    N113163   1.073   0.516   1.308  0.0528  0.7330 -0.4695
  894MPD2    H713164   1.019   0.599   1.329 -2.2267 -0.0964 -3.0028
  895MPD2     C13165   0.980   3.129  13.346  0.8954  0.6062 -0.7770
  895MPD2    C113166   0.862   3.087  13.298  0.2832 -1.0669  0.4815
  895MPD2    C213167   0.833   2.956  13.291  0.1579  0.4073  0.5519
  895MPD2    C313168   0.928   2.858  13.332  0.7811 -0.0765  0.0504
  895MPD2    C413169   1.046   2.901  13.397  0.6232  0.1882 -0.1343
  895MPD2    C513170   1.069   3.037  13.394  0.6008 -0.3074  0.3917
  895MPD2     H13171   0.750   2.927  13.228  0.5910 -1.9443  1.0719
  895MPD2    H113172   1.123   2.834  13.433  0.8095  0.0428 -0.7920
  895MPD2    H213173   1.014   3.232  13.340 -1.0115  1.3132  0.5118
  895MPD2    H313174   1.159   3.071  13.444  1.1045 -0.3393 -0.4918
  895MPD2     N13175   0.894   2.729  13.284 -0.3883  0.4751  0.8174
  895MPD2    H513176   0.811   2.706  13.231  0.5532  0.6954 -0.7615
  895MPD2    N113177   0.762   3.172  13.241 -0.0100  0.0338 -0.5752
  895MPD2    H713178   0.680   3.132  13.197  1.6767 -2.2063 -1.6499
  896MPD2     C13179   3.414   2.483   0.688 -0.0300  0.6021 -0.0587
  896MPD2    C113180   3.390   2.355   0.644 -0.3470 -0.0701  0.2187
  896MPD2    C213181   3.261   2.302   0.660 -0.5202  0.9789  0.0477
  896MPD2    C313182   3.166   2.366   0.738  0.5685 -0.6323 -0.1238
  896MPD2    C413183   3.198   2.492   0.795 -0.4307 -0.0537  0.7099
  896MPD2    C513184   3.321   2.548   0.763 -0.1940 -0.0444 -0.2652
  896MPD2     H13185   3.237   2.201   0.630 -0.4203  1.1279 -0.5388
  896MPD2    H113186   3.121   2.542   0.852 -0.8149  0.9012 -0.6554
  896MPD2    H213187   3.512   2.528   0.672 -0.1705  0.9983  0.1982
  896MPD2    H313188   3.349   2.644   0.805  0.5459  0.1842 -1.2747
  896MPD2     N13189   3.036   2.304   0.764 -0.2050  0.0908 -0.4515
  896MPD2    H513190   3.024   2.213   0.721 -0.1201 -0.2381  0.2208
  896MPD2    N113191   3.495   2.289   0.581  0.6893  0.0656  0.6202
  896MPD2    H713192   3.580   2.345   0.574  0.5706  0.3473  1.4657
  897MPD2     C13193   4.267   2.971  10.775 -0.1887 -0.0459 -0.4629
  897MPD2    C113194   4.185   2.943  10.672  0.3500 -0.3070  0.1537
  897MPD2    C213195   4.050   2.962  10.689 -0.8927  0.5189  0.5817
  897MPD2    C313196   3.997   3.012  10.804 -0.3984  0.8086  0.1056
  897MPD2    C413197   4.082   3.034  10.911  0.1558  0.1962 -0.5140
  897MPD2    C513198   4.220   3.031  10.887  0.4383  0.0943  0.0664
  897MPD2     H13199   3.976   2.926  10.617  1.0903 -1.1736 -0.6196
  897MPD2    H113200   4.039   3.071  11.003 -1.0147 -1.1889 -0.5024
  897MPD2    H213201   4.371   2.952  10.751 -0.2549 -1.5496  0.3985
  897MPD2    H313202   4.296   3.056  10.959 -2.0462  0.1409  2.6969
  897MPD2     N13203   3.858   3.023  10.811 -0.0752 -0.1054  0.0534
  897MPD2    H513204   3.806   2.993  10.729 -1.9616  0.8408  0.9279
  897MPD2    N113205   4.246   2.904  10.550 -0.2624  0.3028  0.1246
  897MPD2    H713206   4.346   2.898  10.541 -0.3046 -0.8746  0.4270
  898MPD2     C13207   0.933   3.662  17.305  0.5068 -0.1482  0.5587
  898MPD2    C113208   1.067   3.663  17.345 -0.2265 -0.0487  0.3986
  898MPD2    C213209   1.118   3.774  17.413 -0.5257  0.7399 -0.1368
  898MPD2    C313210   1.043   3.884  17.425 -1.2483 -0.2461  0.2977
  898MPD2    C413211   0.908   3.879  17.386 -0.1867  0.6127 -0.2767
  898MPD2    C513212   0.861   3.775  17.316 -0.2915 -0.2983 -0.3227
  898MPD2     H13213   1.220   3.772  17.448 -0.4982  0.2143 -0.2422
  898MPD2    H113214   0.842   3.964  17.379 -1.1741 -0.0264  1.2314
  898MPD2    H213215   0.891   3.574  17.258 -1.0196  2.1168 -2.2961
  898MPD2    H313216   0.763   3.771  17.268 -0.1812  4.1842 -0.9079
  898MPD2     N13217   1.112   3.997  17.471  0.5100  0.2354 -0.1672
  898MPD2    H513218   1.213   3.991  17.474  0.6513  2.0282 -1.3423
  898MPD2    N113219   1.157   3.550  17.337  0.3707  0.5270 -0.1060
  898MPD2    H713220   1.244   3.557  17.388  1.1417  0.2939 -1.3754
  899MPD2     C13221   1.992   4.571  17.483 -0.5803 -0.0474 -0.6277
  899MPD2    C113222   2.003   4.699  17.523 -0.1686  0.3948  0.3318
  899MPD2    C213223   1.966   0.001  17.649  0.1634 -0.3780 -0.1336
  899MPD2    C313224   1.930   4.640  17.744  0.5515  0.7574 -0.0145
  899MPD2    C413225   1.905   4.511  17.698  0.1012 -0.4891  0.1013
  899MPD2    C513226   1.942   4.481  17.571 -0.1656  0.3934 -0.5651
  899MPD2     H13227   1.971   0.101  17.689  2.1045 -1.0673  1.3216
  899MPD2    H113228   1.850   4.436   0.008 -0.2586 -0.4808 -0.2401
  899MPD2    H213229   2.004   4.540  17.380  1.1146  0.1986 -0.5028
  899MPD2    H313230   1.918   4.385  17.528 -0.0355 -0.3925  1.0966
  899MPD2     N13231   1.899   4.672   0.130 -0.6484 -0.3887  0.1802
  899MPD2    H513232   1.899   0.036   0.145  0.3742 -0.2775 -0.5823
  899MPD2    N113233   2.053   0.044  17.421 -0.0845  0.7572  0.2553
  899MPD2    H713234   2.062   0.008  17.327 -1.4469 -3.3148  1.6527
  900MPD2     C13235   1.677   0.856  12.123  0.2556 -0.2661 -0.4835
  900MPD2    C113236   1.580   0.778  12.066  0.2412  0.2491 -0.4160
  900MPD2    C213237   1.454   0.836  12.039 -0.2678  0.7591 -0.0637
  900MPD2    C313238   1.422   0.970  12.077  0.1711 -0.0241  0.4290
  900MPD2    C413239   1.520   1.042  12.141  0.4804  0.4546 -0.6733
  900MPD2    C513240   1.641   0.985  12.164 -0.5631 -0.6060  0.2747
  900MPD2     H13241   1.378   0.779  11.987 -1.9188 -0.2259  3.3901
  900MPD2    H113242   1.502   1.141  12.181  0.0347 -0.7967  2.2513
  900MPD2    H213243   1.774   0.815  12.150  0.9763  1.7905  0.0332
  900MPD2    H313244   1.716   1.046  12.213  1.0469 -1.0072 -1.7012
  900MPD2     N13245   1.291   1.019  12.053  0.6279 -0.2865  0.5706
  900MPD2    H513246   1.226   0.948  12.020 -0.3378  1.2989 -0.9667
  900MPD2    N113247   1.620   0.646  12.034 -0.2581  0.2188 -0.3046
  900MPD2    H713248   1.717   0.619  12.042 -0.6373 -1.1689 -0.4518
  901MPD2     C13249   1.440   4.470  12.332  0.2523 -0.3711  0.2676
  901MPD2    C113250   1.535   4.426  12.236 -0.7003 -0.5436 -0.0257
  901MPD2    C213251   1.577   4.518  12.138 -0.2192  0.8305 -0.9670
  901MPD2    C313252   1.525   4.648  12.138 -0.8317 -0.0346 -0.1685
  901MPD2    C413253   1.438   4.689  12.238 -0.0680 -0.0338  0.1219
  901MPD2    C513254   1.397   4.600  12.330 -0.1397 -0.2901 -0.1086
  901MPD2     H13255   1.639   4.481  12.057  1.8759  0.4313  0.8314
  901MPD2    H113256   1.396   0.052  12.236 -0.4928 -0.1828  1.9021
  901MPD2    H213257   1.406   4.399  12.407  4.2729 -3.0199 -0.3849
  901MPD2    H313258   1.333   4.633  12.411 -0.4430 -1.9492  0.3258
  901MPD2     N13259   1.571   0.005  12.042 -0.3153 -0.3640 -0.8788
  901MPD2    H513260   1.631   4.702  11.970  0.4704 -1.2962  0.2951
  901MPD2    N113261   1.571   4.291  12.237  0.4508  0.0832  0.5254
  901MPD2    H713262   1.615   4.243  12.159  2.1464  3.3728 -0.5499
  902MPD2     C13263   0.906   3.611  12.946 -0.3564  0.0564 -0.1717
  902MPD2    C113264   0.806   3.570  12.856 -0.4861 -0.1084 -0.0779
  902MPD2    C213265   0.781   3.443  12.838  0.0272  0.2318 -0.0923
  902MPD2    C313266   0.859   3.347  12.897 -0.4377 -0.8581 -0.0400
  902MPD2    C413267   0.960   3.379  12.980 -0.1304 -0.5433  0.3917
  902MPD2    C513268   0.987   3.510  12.998  1.0552 -0.2790  0.9273
  902MPD2     H13269   0.708   3.424  12.761 -0.6447  1.3198  0.2836
  902MPD2    H113270   1.028   3.307  13.025 -1.1102 -0.9737  1.1940
  902MPD2    H213271   0.919   3.713  12.979 -1.5500  1.2062 -3.2673
  902MPD2    H313272   1.069   3.537  13.063  2.8579 -3.3539 -0.0859
  902MPD2     N13273   0.841   3.212  12.861 -0.1240  0.1019 -0.4537
  902MPD2    H513274   0.915   3.148  12.889 -1.1223 -0.7324  0.2699
  902MPD2    N113275   0.747   3.671  12.777  0.4075  0.0512 -0.1663
  902MPD2    H713276   0.808   3.752  12.772  0.1547  0.1698 -1.1588
  903MPD2     C13277   0.673   3.044  12.016  0.4310  0.0346  0.7937
  903MPD2    C113278   0.615   3.048  12.143  0.7163  0.8881  0.9863
  903MPD2    C213279   0.476   3.073  12.148 -0.4341  0.9226  0.1292
  903MPD2    C313280   0.400   3.113  12.038 -0.4751  0.8848  0.2158
  903MPD2    C413281   0.469   3.114  11.919  0.0673 -0.6540  0.4141
  903MPD2    C513282   0.602   3.079  11.907 -0.3613  0.5283  0.1681
  903MPD2     H13283   0.433   3.074  12.247 -0.3591 -1.7950  0.1809
  903MPD2    H113284   0.426   3.140  11.823  1.0791 -1.0548 -0.1528
  903MPD2    H213285   0.771   2.999  12.004  0.6440  0.5511  0.5926
  903MPD2    H313286   0.645   3.077  11.807  0.8135 -0.3176  0.7007
  903MPD2     N13287   0.266   3.152  12.060  0.6651  0.1462 -0.4339
  903MPD2    H513288   0.223   3.121  12.147 -0.0685  0.8560 -0.5457
  903MPD2    N113289   0.698   3.022  12.250  0.3853 -0.2332 -0.0330
  903MPD2    H713290   0.798   3.025  12.233  0.6868  1.5539  2.1977
  904MPD2     C13291   0.659   2.407  13.983  0.2333 -0.4233 -0.1685
  904MPD2    C113292   0.691   2.525  13.920 -0.5356  0.6605  0.1841
  904MPD2    C213293   0.818   2.580  13.927 -0.1888  0.1982  0.3980
  904MPD2    C313294   0.917   2.509  13.992  0.2524 -0.7274  0.2549
  904MPD2    C413295   0.886   2.385  14.046 -0.8345 -0.8043 -0.7937
  904MPD2    C513296   0.756   2.330  14.042  0.7820 -0.4254  0.4894
  904MPD2     H13297   0.842   2.673  13.876  0.3302  0.3405  0.8979
  904MPD2    H113298   0.968   2.327  14.088 -1.7987 -1.4263  0.2431
  904MPD2    H213299   0.560   2.363  13.982 -0.2594  0.6744  0.3952
  904MPD2    H313300   0.735   2.236  14.093 -0.2557 -0.6748 -0.4058
  904MPD2     N13301   1.039   2.583  14.028 -0.5120 -0.0192 -0.5394
  904MPD2    H513302   1.052   2.677  13.992  0.9285  0.3081  0.8214
  904MPD2    N113303   0.597   2.606  13.845  0.6087 -0.6558 -0.2568
  904MPD2    H713304   0.628   2.683  13.785  0.8098 -0.2203  0.4011
  905MPD2     C13305   0.233   2.650  13.061 -0.1282  0.2345 -0.5124
  905MPD2    C113306   0.276   2.560  13.156  0.8294  0.5900 -0.9504
  905MPD2    C213307   0.381   2.479  13.133  1.1565  0.1297 -0.2659
  905MPD2    C313308   0.467   2.507  13.021  0.1227  0.0932 -0.0357
  905MPD2    C413309   0.419   2.596  12.926  0.6230  0.3771 -0.3189
  905MPD2    C513310   0.306   2.664  12.950 -0.6307 -0.7899  0.0176
  905MPD2     H13311   0.409   2.400  13.203  0.6177 -0.9250 -1.2364
  905MPD2    H113312   0.469   2.627  12.835  0.7306 -0.0545 -0.4069
  905MPD2    H213313   0.157   2.726  13.077 -0.8609 -0.4170 -0.9238
  905MPD2    H313314   0.276   2.737  12.876 -1.2875 -0.3401  0.7230
  905MPD2     N13315   0.599   2.461  13.019  0.5037  0.1271  0.2373
  905MPD2    H513316   0.652   2.499  12.941  2.6962  1.5660  2.4132
  905MPD2    N113317   0.224   2.587  13.284 -0.2450  0.2046  0.1595
  905MPD2    H713318   0.147   2.653  13.291 -0.2118  0.3208 -0.5695
  906MPD2     C13319   2.758   2.545  11.003 -0.7480  0.0569  0.2328
  906MPD2    C113320   2.736   2.476  10.883 -0.4400  0.0966  0.4781
  906MPD2    C213321   2.714   2.338  10.894 -0.3158 -0.2262  0.8227
  906MPD2    C313322   2.708   2.267  11.021 -0.1256  0.1830 -0.3712
  906MPD2    C413323   2.734   2.341  11.132 -0.0986 -1.2210 -0.2246
  906MPD2    C513324   2.766   2.472  11.118 -0.1033  0.2718 -0.5134
  906MPD2     H13325   2.697   2.283  10.801 -0.1309 -2.5644  2.1738
  906MPD2    H113326   2.722   2.298  11.231  1.7276  1.7199  1.2750
  906MPD2    H213327   2.764   2.653  11.014  3.1901 -0.1332  0.0840
  906MPD2    H313328   2.791   2.533  11.204 -0.9075  1.5090 -1.1492
  906MPD2     N13329   2.665   2.131  11.028 -0.1847  0.0936  0.4242
  906MPD2    H513330   2.634   2.093  11.117 -0.8550 -0.9588 -0.2442
  906MPD2    N113331   2.709   2.539  10.759  0.1542  0.3764 -0.2539
  906MPD2    H713332   2.690   2.479  10.680 -3.1528  0.4393  0.4970
  907MPD2     C13333   1.492   2.567  15.787 -0.7511  0.8211  0.2447
  907MPD2    C113334   1.486   2.428  15.780  0.4707  0.6358 -0.5730
  907MPD2    C213335   1.543   2.353  15.883 -0.2861  0.2589 -0.0982
  907MPD2    C313336   1.604   2.415  15.991 -0.2408  0.2388  0.0772
  907MPD2    C413337   1.612   2.548  15.999  0.1414 -0.2837  0.3095
  907MPD2    C513338   1.555   2.623  15.893 -0.9249 -0.0723  0.8773
  907MPD2     H13339   1.533   2.245  15.881 -4.0826  0.5780  0.8242
  907MPD2    H113340   1.640   2.608  16.085  1.9184 -0.2876 -0.2654
  907MPD2    H213341   1.459   2.624  15.701  4.5902  0.1816 -2.2204
  907MPD2    H313342   1.559   2.730  15.909 -0.9283 -0.0508  0.7282
  907MPD2     N13343   1.646   2.328  16.098 -0.7726  0.1028  0.3498
  907MPD2    H513344   1.628   2.228  16.087 -0.5013  0.1325 -0.4295
  907MPD2    N113345   1.431   2.352  15.669  0.3675 -0.0047 -0.1880
  907MPD2    H713346   1.445   2.252  15.673 -2.8664 -0.5180 -1.5254
  908MPD2     C13347   4.336   2.463   9.547 -0.4028  0.5231 -0.6355
  908MPD2    C113348   4.443   2.544   9.567  0.7251 -0.7083 -0.9280
  908MPD2    C213349   4.457   2.617   9.677 -0.1234  0.3703  0.0807
  908MPD2    C313350   4.369   2.600   9.784  0.2328 -0.4628 -0.5772
  908MPD2    C413351   4.263   2.514   9.766  0.3089 -0.2743  0.7170
  908MPD2    C513352   4.243   2.456   9.645 -0.1468 -0.1819  0.7035
  908MPD2     H13353   4.548   2.674   9.688  0.9833 -1.4003  0.2218
  908MPD2    H113354   4.188   2.493   9.841 -1.4332 -1.4264 -1.3552
  908MPD2    H213355   4.341   2.397   9.460 -2.7037  1.9927 -1.8676
  908MPD2    H313356   4.158   2.389   9.642 -1.4472  1.4735  0.6982
  908MPD2     N13357   4.391   2.673   9.904 -0.3371 -0.1744 -0.0256
  908MPD2    H513358   4.474   2.729   9.920 -2.4783  2.0277  3.1337
  908MPD2    N113359   4.535   2.551   9.461  0.5690 -0.7113 -0.1240
  908MPD2    H713360   4.511   2.495   9.380 -0.4406 -0.9012  0.3136
  909MPD2     C13361   4.558   0.777  12.161  0.5017  0.3709 -0.3140
  909MPD2    C113362   4.594   0.913  12.135 -0.0159  0.2480  0.4229
  909MPD2    C213363   4.497   1.006  12.161 -0.7637 -0.8374 -0.1685
  909MPD2    C313364   4.369   0.979  12.198  0.2771 -0.2242  0.4282
  909MPD2    C413365   4.335   0.845  12.221  0.3685  0.0352  0.4084
  909MPD2    C513366   4.429   0.746  12.203  0.1526  0.9644  0.1275
  909MPD2     H13367   4.531   1.108  12.149  0.3357 -1.1350  0.4079
  909MPD2    H113368   4.238   0.806  12.250 -0.2792  1.2576 -0.1125
  909MPD2    H213369   4.619   0.692  12.133 -1.3780 -1.3199  0.7638
  909MPD2    H313370   4.397   0.643  12.218  0.1945  0.9509  0.1242
  909MPD2     N13371   4.282   1.084  12.228 -0.5104 -0.0556  0.5348
  909MPD2    H513372   4.313   1.180  12.216 -0.1336 -0.0734  1.4033
  909MPD2    N113373   4.711   0.965  12.066  1.4931  0.1200 -0.4989
  909MPD2    H713374   4.704   1.064  12.044 -2.2916 -0.0791 -0.2022
  910MPD2     C13375   0.681   2.838  15.542 -0.6756 -0.4920 -0.3941
  910MPD2    C113376   0.805   2.794  15.509 -0.6983  0.6967 -0.1541
  910MPD2    C213377   0.873   2.853  15.405 -0.6170 -0.3127  0.2514
  910MPD2    C313378   0.805   2.952  15.325  0.0134 -0.5185 -0.5416
  910MPD2    C413379   0.675   2.985  15.358  0.9608 -0.2142  0.0088
  910MPD2    C513380   0.619   2.931  15.470  0.7483  0.3225  0.5184
  910MPD2     H13381   0.975   2.826  15.378 -0.5965  0.1525 -0.1239
  910MPD2    H113382   0.629   3.064  15.301  0.8109 -0.5728 -0.3667
  910MPD2    H213383   0.623   2.795  15.624  0.5132 -2.6831 -0.6923
  910MPD2    H313384   0.518   2.958  15.501 -0.4065 -1.9311 -1.2725
  910MPD2     N13385   0.861   3.026  15.217  0.1896  0.0537 -0.6178
  910MPD2    H513386   0.811   3.100  15.169 -1.1807 -1.0730 -0.9018
  910MPD2    N113387   0.874   2.711  15.587  0.4163  0.3139 -0.7982
  910MPD2    H713388   0.966   2.695  15.547  0.7256  1.2887 -0.4742
  911MPD2     C13389   3.652   3.369  16.225 -0.1467  0.0408 -0.4375
  911MPD2    C113390   3.752   3.459  16.221  0.5475  0.5472  0.2980
  911MPD2    C213391   3.735   3.559  16.134  0.5635 -0.0072 -0.6725
  911MPD2    C313392   3.622   3.580  16.056 -0.3937  0.0333 -0.5026
  911MPD2    C413393   3.519   3.484  16.065 -0.2265  0.0048  0.0285
  911MPD2    C513394   3.543   3.375  16.150 -0.2715 -0.4554 -0.4108
  911MPD2     H13395   3.819   3.626  16.137 -0.0603  0.7684 -0.3874
  911MPD2    H113396   3.435   3.477  15.997  0.4340 -1.4183 -0.6513
  911MPD2    H213397   3.661   3.284  16.291  1.2086 -0.4662 -1.2585
  911MPD2    H313398   3.464   3.304  16.170 -1.4205  1.1203  0.7304
  911MPD2     N13399   3.605   3.671  15.950 -0.6917  0.7349  0.4320
  911MPD2    H513400   3.523   3.656  15.891  0.8767 -0.6766 -1.3624
  911MPD2    N113401   3.858   3.427  16.306 -0.3575  0.1697 -0.0308
  911MPD2    H713402   3.871   3.333  16.340  0.4398 -0.2018 -1.3889
  912MPD2     C13403   3.304   3.365  15.381 -0.2641 -0.5234 -0.2507
  912MPD2    C113404   3.330   3.409  15.508 -0.2470 -0.2639 -0.0213
  912MPD2    C213405   3.314   3.327  15.615  0.4309  0.1228 -0.2725
  912MPD2    C313406   3.277   3.198  15.599  0.3885 -0.0715  0.1486
  912MPD2    C413407   3.245   3.155  15.475 -0.2008 -0.0058 -0.0208
  912MPD2    C513408   3.260   3.234  15.368  0.3833 -0.3375 -0.5351
  912MPD2     H13409   3.335   3.368  15.713  0.3894  2.5480 -1.2835
  912MPD2    H113410   3.220   3.051  15.455 -0.2711  0.3669 -1.9125
  912MPD2    H213411   3.312   3.426  15.292  1.2303 -0.0489  0.2246
  912MPD2    H313412   3.255   3.197  15.266 -1.2092 -0.8151 -0.2728
  912MPD2     N13413   3.272   3.118  15.718  0.5943 -0.0759  0.6256
  912MPD2    H513414   3.303   3.162  15.805  0.9329  3.4518 -1.2698
  912MPD2    N113415   3.388   3.533  15.521  0.0547  0.1881 -0.0042
  912MPD2    H713416   3.398   3.595  15.442 -1.3922  0.7593  0.2465
  913MPD2     C13417   4.132   3.869  10.908 -0.1519 -0.3091  0.6151
  913MPD2    C113418   4.086   3.995  10.960 -0.7374  0.1901 -0.3423
  913MPD2    C213419   4.081   4.099  10.865  0.4311 -0.8072 -0.1299
  913MPD2    C313420   4.113   4.076  10.732  0.7335 -0.2429 -0.6560
  913MPD2    C413421   4.153   3.951  10.688  0.1936 -0.2292  0.2793
  913MPD2    C513422   4.153   3.849  10.778  1.1684 -0.0153 -0.0786
  913MPD2     H13423   4.058   4.200  10.899 -4.7680 -3.1562  3.4584
  913MPD2    H113424   4.180   3.936  10.584  1.3988  0.0486  0.5533
  913MPD2    H213425   4.145   3.781  10.970  0.0089 -0.3050  0.5873
  913MPD2    H313426   4.182   3.750  10.746  0.2321 -0.4790  0.5400
  913MPD2     N13427   4.093   4.183  10.638  0.2585 -0.0427 -0.5248
  913MPD2    H513428   4.116   4.163  10.541  2.3843 -0.1692  0.0030
  913MPD2    N113429   4.057   4.000  11.096 -0.1568 -0.2172  0.4402
  913MPD2    H713430   4.061   3.909  11.140 -2.1800 -1.0527 -1.1272
  914MPD2     C13431   1.522   3.829  11.575 -0.3262 -0.2179  0.6628
  914MPD2    C113432   1.592   3.942  11.612  0.1747  0.0356  1.0311
  914MPD2    C213433   1.613   3.966  11.743  0.1344  0.1466 -0.2390
  914MPD2    C313434   1.570   3.877  11.840  0.0767  0.0417  0.8250
  914MPD2    C413435   1.521   3.753  11.797 -0.9084  0.6666  0.2357
  914MPD2    C513436   1.494   3.731  11.664 -0.2773  0.0110  0.5918
  914MPD2     H13437   1.674   4.050  11.773  2.2105 -1.0005 -1.1895
  914MPD2    H113438   1.507   3.675  11.871 -3.0140  0.1638 -0.6898
  914MPD2    H213439   1.510   3.799  11.472 -3.0218  1.8257  0.3785
  914MPD2    H313440   1.441   3.642  11.631  0.8285 -0.1852 -0.6713
  914MPD2     N13441   1.600   3.904  11.970 -0.1715 -0.9052 -0.8708
  914MPD2    H513442   1.631   4.000  11.985 -1.4497 -0.6975  0.4073
  914MPD2    N113443   1.609   4.033  11.504 -0.3384 -0.1140  0.1974
  914MPD2    H713444   1.597   3.995  11.410  2.7287 -1.6840  0.4351
  915MPD2     C13445   4.439   4.642  15.938 -0.2227  0.0396 -0.0369
  915MPD2    C113446   4.376   4.730  15.854  0.4677  0.9993 -0.6618
  915MPD2    C213447   4.319   0.108  15.906  0.1811  0.9365  0.5981
  915MPD2    C313448   4.341   0.135  16.041 -0.4080  0.2792 -0.0697
  915MPD2    C413449   4.425   0.059  16.108  0.0398  0.5545 -0.1909
  915MPD2    C513450   4.469   4.675  16.063  0.1633  0.2972  0.0740
  915MPD2     H13451   4.259   0.174  15.845 -0.7663  0.4995  1.0489
  915MPD2    H113452   4.457   0.101  16.203 -1.5822  2.4045 -0.4713
  915MPD2    H213453   4.472   4.547  15.899  0.5830  0.3995 -0.2374
  915MPD2    H313454   4.528   4.606  16.122  1.3914  0.5499 -0.8677
  915MPD2     N13455   4.279   0.248  16.101 -0.0543  0.0590 -0.3324
  915MPD2    H513456   4.211   0.300  16.046 -0.1841 -0.2987 -0.5081
  915MPD2    N113457   4.357   4.680  15.725 -0.7361 -0.6226  0.5535
  915MPD2    H713458   4.367   4.580  15.709 -0.2382 -0.5690  0.5557
  916MPD2     C13459   2.984   3.439  15.748 -0.6759 -0.1677 -0.6769
  916MPD2    C113460   2.939   3.326  15.812  0.2740  0.1274  0.1678
  916MPD2    C213461   2.922   3.202  15.740 -0.3953  0.2309 -0.6951
  916MPD2    C313462   2.927   3.198  15.593 -0.7656 -1.0677 -0.1903
  916MPD2    C413463   2.960   3.323  15.536 -0.6100  0.1896 -0.0933
  916MPD2    C513464   2.983   3.432  15.616  0.2062 -0.0055  0.0025
  916MPD2     H13465   2.901   3.114  15.799  2.1404 -1.1439 -1.8961
  916MPD2    H113466   2.972   3.353  15.432 -0.8391  0.6346  0.0090
  916MPD2    H213467   2.993   3.535  15.797 -2.7178 -1.2032  1.7317
  916MPD2    H313468   3.011   3.526  15.571 -2.2365  1.9101  2.4922
  916MPD2     N13469   2.907   3.079  15.522  0.2118 -0.0852 -0.5876
  916MPD2    H513470   2.894   2.990  15.570 -1.1308 -1.5162 -3.6366
  916MPD2    N113471   2.922   3.338  15.950 -0.3889  0.7575 -0.1854
  916MPD2    H713472   2.942   3.430  15.988 -0.5190  0.3261  0.9342
  917MPD2     C13473   3.052   0.209  10.941  0.3161 -0.5601  0.2257
  917MPD2    C113474   3.075   0.292  11.047 -0.1774  0.4147  1.2595
  917MPD2    C213475   3.133   0.419  11.034  0.2908  0.1510  0.0482
  917MPD2    C313476   3.154   0.468  10.907  0.4649  0.6339  0.2271
  917MPD2    C413477   3.125   0.381  10.801  0.1202  0.1861 -0.4482
  917MPD2    C513478   3.076   0.253  10.814 -0.4457 -0.1516 -0.0409
  917MPD2     H13479   3.147   0.482  11.121  0.5868  0.0870  0.0484
  917MPD2    H113480   3.122   0.419  10.699 -0.8223 -0.8292 -0.7858
  917MPD2    H213481   3.021   0.107  10.960  1.5450 -0.6460  1.7894
  917MPD2    H313482   3.063   0.189  10.728 -0.5103 -0.6059  0.3038
  917MPD2     N13483   3.202   0.598  10.877 -0.4874  0.1096  0.1996
  917MPD2    H513484   3.189   0.625  10.780 -0.9281 -0.5441  0.0761
  917MPD2    N113485   3.058   0.234  11.173  0.1817  0.7149 -0.1545
  917MPD2    H713486   3.024   0.138  11.171 -0.8041  1.0392  1.4897
  918MPD2     C13487   3.276   0.351  12.109  0.1228 -0.2045  0.1672
  918MPD2    C113488   3.247   0.456  12.027 -0.4456 -0.6159  0.2761
  918MPD2    C213489   3.149   0.441  11.932 -0.6613  0.0039  0.4816
  918MPD2    C313490   3.077   0.323  11.914  0.2390  0.2122 -0.1757
  918MPD2    C413491   3.103   0.216  12.009 -0.6559 -0.0964 -0.5696
  918MPD2    C513492   3.201   0.234  12.098 -0.3941 -0.4615  0.1862
  918MPD2     H13493   3.126   0.527  11.869  0.0746 -1.4411 -1.7758
  918MPD2    H113494   3.056   0.118  12.002 -2.0811  0.4911  0.8119
  918MPD2    H213495   3.348   0.355  12.190  0.5899  1.6372 -0.3422
  918MPD2    H313496   3.228   0.152  12.163  0.3999  0.1787  0.6644
  918MPD2     N13497   2.995   0.306  11.797 -0.5453 -0.2750  0.4976
  918MPD2    H513498   2.991   0.379  11.728  0.4498 -2.5644 -1.9645
  918MPD2    N113499   3.304   0.578  12.067  0.5063 -0.2665 -0.0059
  918MPD2    H713500   3.381   0.571  12.133 -1.6791  1.5357  2.7217
  919MPD2     C13501   3.570   3.854  11.423 -0.3917 -0.5356 -0.3269
  919MPD2    C113502   3.676   3.780  11.377 -0.2022 -0.4033  0.6032
  919MPD2    C213503   3.720   3.807  11.244  0.9570  0.0940 -0.2917
  919MPD2    C313504   3.659   3.893  11.159 -0.9079  0.7886 -0.7216
  919MPD2    C413505   3.558   3.969  11.214  0.0473  0.2870 -0.0797
  919MPD2    C513506   3.512   3.945  11.339 -0.8363  0.7596 -0.2296
  919MPD2     H13507   3.796   3.739  11.207  1.2955 -0.5090  1.4695
  919MPD2    H113508   3.513   4.048  11.155 -0.3501  0.8039  0.9110
  919MPD2    H213509   3.537   3.853  11.526  0.2112  0.0622 -0.1292
  919MPD2    H313510   3.429   3.992  11.391 -2.7568 -2.1061 -0.6526
  919MPD2     N13511   3.695   3.902  11.015  0.8445  0.0075  0.1726
  919MPD2    H513512   3.638   3.965  10.960 -0.8904  1.3955  3.5420
  919MPD2    N113513   3.741   3.687  11.463  0.1843 -0.1265 -0.3004
  919MPD2    H713514   3.698   3.687  11.555  1.8661  0.0544  0.5028
  920MPD2     C13515   3.510   4.423  10.207 -0.1079 -0.4796  0.0371
  920MPD2    C113516   3.487   4.296  10.171  0.3829 -0.3756  0.1888
  920MPD2    C213517   3.524   4.193  10.258  0.0661 -0.0934  0.8596
  920MPD2    C313518   3.592   4.223  10.376  0.0917 -0.0923 -0.2820
  920MPD2    C413519   3.615   4.355  10.413  0.1033  0.2489  0.2815
  920MPD2    C513520   3.562   4.455  10.338 -0.1724  1.1923  0.1790
  920MPD2     H13521   3.511   4.087  10.237  1.6580  0.0424 -0.8311
  920MPD2    H113522   3.660   4.390  10.506 -0.1719  3.4089 -0.7930
  920MPD2    H213523   3.480   4.510  10.149 -1.1573 -1.7303 -1.2795
  920MPD2    H313524   3.566   4.555  10.379 -3.3771  0.7785  1.5031
  920MPD2     N13525   3.637   4.112  10.451 -0.0119  0.3155  0.1920
  920MPD2    H513526   3.612   4.026  10.403  1.2585  0.5924 -0.9787
  920MPD2    N113527   3.431   4.256  10.049 -0.3745  0.3120 -0.2186
  920MPD2    H713528   3.418   4.156  10.039  1.4920 -0.0963  1.6081
  921MPD2     C13529   4.646   3.866  16.751 -0.2305  0.6353 -0.2741
  921MPD2    C113530   4.671   3.782  16.640  0.3152 -0.2764  0.2773
  921MPD2    C213531   4.571   3.691  16.613 -0.6080 -0.3526  0.5505
  921MPD2    C313532   4.453   3.689  16.684 -0.3640 -0.1989  0.3877
  921MPD2    C413533   4.440   3.764  16.794 -0.6807 -1.1604  0.6794
  921MPD2    C513534   4.530   3.858  16.822 -0.0471 -0.3288 -0.0501
  921MPD2     H13535   4.587   3.619  16.533  0.4388  0.0450  0.3909
  921MPD2    H113536   4.353   3.753  16.857  0.6695 -2.4750  2.3304
  921MPD2    H213537   4.721   3.937  16.784  0.1514  0.0637  0.0842
  921MPD2    H313538   4.501   3.919  16.907  0.7438  0.2424 -0.1859
  921MPD2     N13539   4.349   3.600  16.655 -0.3560  0.4941  0.2909
  921MPD2    H513540   4.268   3.603  16.717 -0.6444 -0.2764 -0.0524
  921MPD2    N113541   0.049   3.804  16.559 -0.1883  0.2883  0.5110
  921MPD2    H713542   0.119   3.866  16.597  0.1662 -0.8108  1.6297
  922MPD2     C13543   0.697   1.536  16.741  0.2367  0.4703  0.0014
  922MPD2    C113544   0.650   1.572  16.873 -0.1766 -0.1543  0.4073
  922MPD2    C213545   0.627   1.471  16.966  0.2431 -0.0085  0.6051
  922MPD2    C313546   0.654   1.342  16.932 -0.3442  1.2782  0.4139
  922MPD2    C413547   0.708   1.312  16.809 -0.1483 -0.4290  0.2675
  922MPD2    C513548   0.725   1.405  16.712 -0.0902 -0.7250 -0.4142
  922MPD2     H13549   0.581   1.489  17.063 -0.6214 -1.1687  0.4061
  922MPD2    H113550   0.743   1.212  16.784  0.2638 -0.3488  0.5161
  922MPD2    H213551   0.703   1.612  16.664 -0.4823  0.4854 -0.0358
  922MPD2    H313552   0.778   1.383  16.620  3.3703  0.9414  1.1946
  922MPD2     N13553   0.618   1.251  17.027 -0.4994 -0.1029 -0.4930
  922MPD2    H513554   0.583   1.291  17.114 -2.9261 -1.0413 -1.0488
  922MPD2    N113555   0.610   1.695  16.918  0.7975 -0.5565  0.3134
  922MPD2    H713556   0.562   1.707  17.006  0.6445 -1.6904  0.3865
  923MPD2     C13557   0.569   2.854   8.677 -0.3542  0.0223 -0.5615
  923MPD2    C113558   0.634   2.974   8.702 -0.4336  0.2811  0.3720
  923MPD2    C213559   0.770   2.971   8.716  0.1021 -0.1212  0.1058
  923MPD2    C313560   0.837   2.851   8.747  0.2578  0.6916 -0.3684
  923MPD2    C413561   0.768   2.736   8.750  0.1668  0.2754 -0.3857
  923MPD2    C513562   0.639   2.733   8.706  0.1846 -0.3295 -0.2092
  923MPD2     H13563   0.832   3.061   8.717  1.6824 -1.2027 -0.1602
  923MPD2    H113564   0.817   2.644   8.779  1.8760  1.3535  0.0949
  923MPD2    H213565   0.464   2.841   8.651 -0.2110 -0.4890 -0.9059
  923MPD2    H313566   0.577   2.644   8.708 -0.1140 -0.1451 -1.0764
  923MPD2     N13567   0.973   2.862   8.791  0.5586  0.0578 -0.4117
  923MPD2    H513568   1.015   2.954   8.781 -0.5748  0.4256 -1.8563
  923MPD2    N113569   0.560   3.092   8.717 -0.1602  0.3226  0.1284
  923MPD2    H713570   0.460   3.086   8.701  0.0255  1.7926 -1.5847
  924MPD2     C13571   1.718   1.568  15.939 -0.3483 -1.3985  0.6637
  924MPD2    C113572   1.692   1.572  16.074  0.2699 -0.0341  0.2796
  924MPD2    C213573   1.719   1.685  16.146 -0.4790  0.3149  0.3868
  924MPD2    C313574   1.787   1.788  16.093  0.1854 -0.2095 -0.5335
  924MPD2    C413575   1.815   1.786  15.956 -0.1936  0.9956 -0.1581
  924MPD2    C513576   1.778   1.678  15.879  0.2211 -0.3928  0.0047
  924MPD2     H13577   1.693   1.678  16.252 -0.9157  0.9128  0.3232
  924MPD2    H113578   1.854   1.871  15.900 -0.7006  2.2409  1.3909
  924MPD2    H213579   1.682   1.491  15.872 -0.4869 -0.2434 -0.5821
  924MPD2    H313580   1.793   1.684  15.772  2.5931 -0.6381  0.3101
  924MPD2     N13581   1.818   1.904  16.157  0.3486 -0.0948  0.0752
  924MPD2    H513582   1.852   1.982  16.102 -0.6561  0.2469 -0.0740
  924MPD2    N113583   1.611   1.465  16.129  0.6811 -0.1300 -0.0429
  924MPD2    H713584   1.569   1.407  16.057 -1.7886 -1.7374  2.7142
  925MPD2     C13585   1.284   3.733  14.778  0.0802 -0.0556  0.0236
  925MPD2    C113586   1.151   3.755  14.755 -0.0010  0.3019 -0.5508
  925MPD2    C213587   1.067   3.733  14.865 -0.2080 -0.2003 -0.5742
  925MPD2    C313588   1.112   3.714  14.997  0.3151  0.2081  0.4091
  925MPD2    C413589   1.245   3.699  15.008 -0.0888 -0.4894  0.5898
  925MPD2    C513590   1.330   3.713  14.900 -0.3753 -0.3016 -0.1701
  925MPD2     H13591   0.962   3.737  14.839 -0.9317 -0.1736  2.2611
  925MPD2    H113592   1.284   3.689  15.109 -4.1619 -2.7846  1.9158
  925MPD2    H213593   1.359   3.749  14.702 -0.9187  1.5132 -0.6350
  925MPD2    H313594   1.437   3.710  14.916 -0.5434  0.8927  1.2092
  925MPD2     N13595   1.026   3.707  15.108 -0.0136  0.5388  0.0187
  925MPD2    H513596   1.074   3.686  15.195  1.8071  0.6668 -0.9751
  925MPD2    N113597   1.096   3.773  14.625 -0.6165 -0.1644 -0.2552
  925MPD2    H713598   0.995   3.784  14.622 -0.7315 -1.3371 -0.9530
  926MPD2     C13599   3.946   2.133  13.105  0.5965  0.6278 -0.6932
  926MPD2    C113600   3.816   2.175  13.087 -0.4403  0.5496  0.0921
  926MPD2    C213601   3.796   2.259  12.977  0.6985 -0.0027  0.0863
  926MPD2    C313602   3.898   2.298  12.893 -0.9321  0.2704 -0.0412
  926MPD2    C413603   4.022   2.253  12.914 -0.1407 -0.1638  0.2756
  926MPD2    C513604   4.040   2.160  13.016  0.4378  0.0699  0.8349
  926MPD2     H13605   3.695   2.293  12.958  0.6644 -0.0691  0.1481
  926MPD2    H113606   4.107   2.274  12.850 -1.1492 -0.1823 -1.0597
  926MPD2    H213607   3.985   2.069  13.184 -0.8651 -1.4266 -1.6153
  926MPD2    H313608   4.138   2.114  13.021 -0.3351 -1.7375 -0.6286
  926MPD2     N13609   3.875   2.392  12.790  0.1555  0.0051 -0.0757
  926MPD2    H513610   3.953   2.404  12.726 -0.6828  0.8582 -0.9395
  926MPD2    N113611   3.715   2.163  13.182  0.1657 -0.5587  0.4828
  926MPD2    H713612   3.631   2.212  13.155  0.5711  0.6293  1.3422
  927MPD2     C13613   4.542   4.559  17.422  0.4612 -0.5119 -0.1359
  927MPD2    C113614   4.500   4.696  17.395  0.4475  0.4650 -0.1899
  927MPD2    C213615   4.547   0.022  17.284  0.5734 -0.4293  0.2495
  927MPD2    C313616   4.616   4.688  17.184  0.3764 -0.8151  0.6596
  927MPD2    C413617   4.648   4.554  17.205 -0.0519 -0.3099  0.4696
  927MPD2    C513618   4.617   4.498  17.323  0.1250  0.4499 -0.7102
  927MPD2     H13619   4.519   0.125  17.262 -2.5294 -1.2895  0.2069
  927MPD2    H113620   4.710   4.500  17.134 -0.1904 -2.9864  2.3827
  927MPD2    H213621   4.491   4.504  17.500  0.9255 -1.5758 -0.5787
  927MPD2    H313622   4.659   4.400  17.339  1.3043  1.3194  1.4704
  927MPD2     N13623   4.645   0.016  17.058  0.2920 -0.0434 -0.7011
  927MPD2    H513624   4.610   0.112  17.050  1.8390  0.6538  0.9618
  927MPD2    N113625   4.411   0.020  17.491 -0.1297 -0.8463  0.3380
  927MPD2    H713626   4.396   4.713  17.582  0.5131 -0.9740  0.3801
  928MPD2     C13627   1.427   3.471   0.775 -0.5562  0.1787 -1.3414
  928MPD2    C113628   1.482   3.597   0.791 -0.3759 -0.2662  0.3175
  928MPD2    C213629   1.617   3.614   0.746  0.7781 -0.0298  0.5474
  928MPD2    C313630   1.681   3.520   0.668  0.2750  0.0888 -0.3799
  928MPD2    C413631   1.617   3.396   0.657  0.6877  0.0609 -0.2879
  928MPD2    C513632   1.500   3.371   0.715  0.1375  0.7665 -0.3456
  928MPD2     H13633   1.662   3.709   0.772  0.9678  0.2006 -0.6179
  928MPD2    H113634   1.662   3.312   0.605  0.5322  0.3126 -0.8337
  928MPD2    H213635   1.337   3.451   0.832  0.2451 -1.7134 -0.7186
  928MPD2    H313636   1.458   3.272   0.708  2.7153 -0.3696  0.2611
  928MPD2     N13637   1.814   3.531   0.627  0.1854  0.8312 -0.0855
  928MPD2    H513638   1.857   3.451   0.583 -3.2427  0.9417 -3.5329
  928MPD2    N113639   1.403   3.701   0.852 -0.0128  0.4938  0.0940
  928MPD2    H713640   1.305   3.678   0.865 -0.7749  2.9478 -1.4005
  929MPD2     C13641   0.983   2.466   9.440  0.2863 -0.4128  0.1951
  929MPD2    C113642   0.950   2.379   9.541  0.2558 -0.4101 -0.4270
  929MPD2    C213643   0.835   2.297   9.534  0.4955  0.3215  0.6164
  929MPD2    C313644   0.743   2.335   9.440 -0.6148 -0.0817  0.3809
  929MPD2    C413645   0.777   2.416   9.335 -0.7284 -0.1320  0.3461
  929MPD2    C513646   0.900   2.475   9.333 -0.2870 -0.1566  0.1684
  929MPD2     H13647   0.811   2.229   9.614  0.1149  1.7457  1.7126
  929MPD2    H113648   0.714   2.434   9.249 -0.7717  0.8879  0.5947
  929MPD2    H213649   1.080   2.514   9.430  0.7944 -0.8403  3.0774
  929MPD2    H313650   0.923   2.531   9.243  4.1728 -2.0736  0.0802
  929MPD2     N13651   0.609   2.287   9.436 -0.5445  0.6057  0.3046
  929MPD2    H513652   0.552   2.304   9.353 -0.6786 -1.6073 -0.0677
  929MPD2    N113653   1.044   2.370   9.638 -0.3534 -0.3726  0.3770
  929MPD2    H713654   1.122   2.435   9.631 -0.1449 -0.6516  0.1160
  930MPD2     C13655   3.131   0.722  14.331 -0.4845  0.4088 -0.2202
  930MPD2    C113656   3.256   0.650  14.337 -0.1255 -0.7514  0.5404
  930MPD2    C213657   3.265   0.532  14.272  0.1334 -0.1195 -0.9908
  930MPD2    C313658   3.150   0.465  14.221  0.3716  0.7445 -0.3807
  930MPD2    C413659   3.030   0.530  14.228  0.1876 -0.7986  0.2304
  930MPD2    C513660   3.022   0.654  14.288 -0.0364 -0.5488  0.1132
  930MPD2     H13661   3.363   0.486  14.267  0.0581 -0.4945  1.1821
  930MPD2    H113662   2.937   0.491  14.190  1.3085 -1.6259 -1.6959
  930MPD2    H213663   3.124   0.828  14.351 -0.3456  0.2522  0.6529
  930MPD2    H313664   2.930   0.711  14.292 -0.7330 -1.6758  0.2083
  930MPD2     N13665   3.158   0.345  14.150 -0.3434 -0.7636 -0.1601
  930MPD2    H513666   3.071   0.303  14.116 -0.3379 -0.9421  0.0495
  930MPD2    N113667   3.361   0.717  14.396  0.6786  0.6221  1.0995
  930MPD2    H713668   3.348   0.815  14.418 -4.4279 -0.0978  1.2916
  931MPD2     C13669   4.497   0.233   0.372 -0.8322 -0.5932 -0.0540
  931MPD2    C113670   4.385   0.156   0.350 -0.0415 -0.2129 -0.1386
  931MPD2    C213671   4.328   0.080   0.459  0.4998 -0.4881  0.0834
  931MPD2    C313672   4.375   0.107   0.588 -0.3129 -0.1116  0.7584
  931MPD2    C413673   4.488   0.186   0.605 -0.4296 -0.4254 -0.4238
  931MPD2    C513674   4.553   0.241   0.500 -0.1359  0.7908 -0.5679
  931MPD2     H13675   4.235   0.026   0.446 -0.7915  2.2289 -1.7572
  931MPD2    H113676   4.525   0.208   0.705 -0.2830  0.3739 -0.6585
  931MPD2    H213677   4.550   0.287   0.295 -0.1830 -0.4876  0.4654
  931MPD2    H313678   4.645   0.297   0.512  1.6047 -2.0260 -0.5955
  931MPD2     N13679   4.316   0.057   0.697  0.0010 -0.6503  0.5331
  931MPD2    H513680   4.344   0.110   0.779  3.3848  0.5504 -1.4359
  931MPD2    N113681   4.326   0.170   0.222  0.5331  0.7003 -0.1897
  931MPD2    H713682   4.384   0.221   0.157 -0.4719 -1.0598 -2.4616
  932MPD2     C13683   1.253   3.071  11.151  0.5413 -0.5178  1.3005
  932MPD2    C113684   1.264   3.164  11.252  0.1005 -0.5873  0.0028
  932MPD2    C213685   1.356   3.144  11.358  0.3164  0.1929  0.3791
  932MPD2    C313686   1.428   3.024  11.364  0.3951 -0.5628  0.0134
  932MPD2    C413687   1.424   2.939  11.255 -0.2627 -0.3271 -0.3304
  932MPD2    C513688   1.339   2.965  11.155 -0.1986  1.0579  0.0201
  932MPD2     H13689   1.378   3.226  11.425 -0.6414 -1.3987  2.6139
  932MPD2    H113690   1.479   2.846  11.249  1.3699  0.5721  0.6279
  932MPD2    H213691   1.196   3.086  11.060  2.0428  1.4905  0.6898
  932MPD2    H313692   1.343   2.905  11.065 -0.6792  0.7764  0.1870
  932MPD2     N13693   1.498   2.993  11.488 -0.5447 -0.3774 -0.3192
  932MPD2    H513694   1.480   3.050  11.571  1.5893 -0.8804  0.4799
  932MPD2    N113695   1.204   3.294  11.239  0.2140  0.0899 -0.3044
  932MPD2    H713696   1.227   3.362  11.310 -3.2894 -0.0831  0.9817
  933MPD2     C13697   0.659   4.100   0.816  0.1810 -0.6178 -0.5895
  933MPD2    C113698   0.781   4.070   0.757 -0.2224 -0.3510  0.7526
  933MPD2    C213699   0.793   4.068   0.618  0.3918  0.5456  0.6240
  933MPD2    C313700   0.688   4.089   0.538 -0.1236  0.1255  0.1002
  933MPD2    C413701   0.567   4.134   0.600 -0.6471  0.0549 -0.2989
  933MPD2    C513702   0.554   4.134   0.738  0.1261 -0.5486  0.4100
  933MPD2     H13703   0.889   4.066   0.567 -0.4768  0.2600 -0.9917
  933MPD2    H113704   0.480   4.176   0.549 -1.3988 -1.7130 -0.4569
  933MPD2    H213705   0.655   4.122   0.922 -1.3740 -2.4268 -0.2567
  933MPD2    H313706   0.469   4.188   0.780  0.3439 -0.7850  1.1457
  933MPD2     N13707   0.708   4.074   0.398  0.3796 -0.0213 -0.3401
  933MPD2    H513708   0.791   4.028   0.360  0.4523  0.6144 -0.9481
  933MPD2    N113709   0.892   4.052   0.839  0.1328  0.1136 -0.2077
  933MPD2    H713710   0.885   4.079   0.936 -1.1741 -1.5956  0.1775
  934MPD2     C13711   2.966   1.673   1.041  0.4229  0.3651  0.3735
  934MPD2    C113712   3.044   1.580   0.975 -0.3532 -0.0558 -0.1400
  934MPD2    C213713   2.983   1.464   0.933  0.0847 -0.1203  0.5489
  934MPD2    C313714   2.856   1.428   0.970 -0.2157  0.3721 -0.8859
  934MPD2    C413715   2.786   1.515   1.053  0.2171  0.8083 -0.4884
  934MPD2    C513716   2.836   1.641   1.069  0.1504  0.5273  0.2628
  934MPD2     H13717   3.039   1.395   0.871 -1.7344  0.5742 -1.8771
  934MPD2    H113718   2.687   1.486   1.085  1.3432 -1.0884  1.2646
  934MPD2    H213719   3.002   1.771   1.069  2.2911  0.2231 -1.5056
  934MPD2    H313720   2.784   1.711   1.133 -0.9685  0.4484 -0.5531
  934MPD2     N13721   2.798   1.301   0.941 -0.4232  0.2978 -0.5958
  934MPD2    H513722   2.702   1.290   0.969 -0.6169 -0.5292 -1.5433
  934MPD2    N113723   3.181   1.608   0.931  0.0299  0.2538  0.5520
  934MPD2    H713724   3.219   1.525   0.888 -0.6988  0.6835 -0.9111
  935MPD2     C13725   3.046   0.320   0.747 -0.0117  0.2011  0.5539
  935MPD2    C113726   2.910   0.329   0.767 -0.2577 -0.0003  0.0860
  935MPD2    C213727   2.853   0.456   0.792 -0.3741 -0.8977  0.2398
  935MPD2    C313728   2.935   0.566   0.799  0.1752 -0.3284  0.2101
  935MPD2    C413729   3.077   0.557   0.775  0.3415 -1.0223  0.6895
  935MPD2    C513730   3.132   0.429   0.749 -0.0225 -0.3478 -0.1144
  935MPD2     H13731   2.746   0.454   0.806 -0.6149  0.0034 -1.4566
  935MPD2    H113732   3.137   0.647   0.768 -0.3317 -0.6159  0.0620
  935MPD2    H213733   3.104   0.232   0.725 -0.7148 -0.4349  1.2683
  935MPD2    H313734   3.237   0.412   0.731 -0.0390  1.7296 -2.1078
  935MPD2     N13735   2.893   0.695   0.815  0.1040 -0.1816  0.2494
  935MPD2    H513736   2.963   0.768   0.818 -0.6032  0.4579  1.0378
  935MPD2    N113737   2.819   0.224   0.760  0.3258 -0.2054 -0.0319
  935MPD2    H713738   2.719   0.234   0.777 -0.0269 -1.5491 -1.3887
  936MPD2     C13739   0.716   2.327  12.187  0.4738  0.0609  0.3289
  936MPD2    C113740   0.800   2.228  12.234 -1.3836 -0.1369  0.3098
  936MPD2    C213741   0.912   2.195  12.168  0.3843  0.0351 -0.3282
  936MPD2    C313742   0.953   2.260  12.055 -0.7993 -0.5172  0.5231
  936MPD2    C413743   0.886   2.372  12.014  0.1041  0.0804 -0.6068
  936MPD2    C513744   0.768   2.405  12.083  0.4538 -0.2747  0.1540
  936MPD2     H13745   0.975   2.119  12.215  3.3637  1.6141 -1.7582
  936MPD2    H113746   0.916   2.415  11.920 -2.2360 -0.2808 -1.5316
  936MPD2    H213747   0.621   2.359  12.229  0.3745  0.7838 -0.4327
  936MPD2    H313748   0.706   2.486  12.049  2.1631  1.3574  0.9318
  936MPD2     N13749   1.055   2.197  11.984  0.2614  0.1646 -0.4649
  936MPD2    H513750   1.097   2.118  12.032 -2.2559 -0.4504  0.7519
  936MPD2    N113751   0.781   2.153  12.351  0.1747 -0.1532  0.1295
  936MPD2    H713752   0.853   2.091  12.386  0.5847  0.1776 -0.1281
  937MPD2     C13753   4.116   2.985  11.344 -0.3056 -0.0717 -0.0766
  937MPD2    C113754   4.170   3.084  11.425 -1.1873  0.0182 -0.0725
  937MPD2    C213755   4.297   3.132  11.396 -0.7220  0.3593  0.0838
  937MPD2    C313756   4.373   3.062  11.304  0.0592 -0.1066  0.5900
  937MPD2    C413757   4.325   2.950  11.239  0.2682  0.2186  0.2774
  937MPD2    C513758   4.199   2.909  11.259  0.6925 -0.4254 -0.7426
  937MPD2     H13759   4.329   3.210  11.464 -0.1303  0.4995 -0.3606
  937MPD2    H113760   4.386   2.894  11.170 -2.0434 -1.9758  0.0292
  937MPD2    H213761   4.017   2.946  11.359 -0.6893  0.1160 -2.1615
  937MPD2    H313762   4.156   2.835  11.191 -1.8617  0.8462 -0.5197
  937MPD2     N13763   4.499   3.114  11.274  0.2282  0.5306  0.3686
  937MPD2    H513764   4.523   3.195  11.331  1.6646  0.7977 -0.6343
  937MPD2    N113765   4.083   3.171  11.501  0.0302  0.0368  0.7229
  937MPD2    H713766   4.129   3.252  11.541  1.2048  0.1119 -0.8173
  938MPD2     C13767   1.993   0.915   0.462  0.0400 -0.4046  0.1186
  938MPD2    C113768   1.883   0.998   0.493 -0.6835  0.2872 -0.0027
  938MPD2    C213769   1.768   0.942   0.549  0.8591  0.4042  0.2396
  938MPD2    C313770   1.779   0.809   0.581 -0.2222  0.5061 -0.3048
  938MPD2    C413771   1.878   0.726   0.547 -0.6934  0.0985 -0.1128
  938MPD2    C513772   1.994   0.784   0.502  0.1057  0.3550 -0.1309
  938MPD2     H13773   1.682   1.003   0.573  0.3332 -1.0459  2.0007
  938MPD2    H113774   1.875   0.620   0.569 -1.9099  0.3713  1.0746
  938MPD2    H213775   2.081   0.947   0.408 -0.4166 -1.0546 -1.0233
  938MPD2    H313776   2.082   0.724   0.482 -0.2652 -0.1532 -0.2404
  938MPD2     N13777   1.665   0.740   0.629  0.2425 -0.2762  0.0928
  938MPD2    H513778   1.688   0.656   0.681 -1.4758  0.2961  1.7851
  938MPD2    N113779   1.884   1.137   0.478 -0.2609 -0.0499 -0.0840
  938MPD2    H713780   1.802   1.190   0.507 -0.9483 -1.3718  0.3642
  939MPD2     C13781   3.030   1.433   0.482 -0.7517  0.7963 -0.4638
  939MPD2    C113782   3.062   1.499   0.360  0.0963  0.5266 -0.6234
  939MPD2    C213783   3.048   1.427   0.243  0.4367  0.8515  0.1147
  939MPD2    C313784   3.011   1.294   0.242  0.1867  0.6800 -0.2588
  939MPD2    C413785   2.967   1.235   0.362 -0.8240  0.1387 -0.3159
  939MPD2    C513786   2.976   1.308   0.482  0.8483  0.2006  0.2370
  939MPD2     H13787   3.075   1.474   0.149 -1.9701 -0.1657 -1.0894
  939MPD2    H113788   2.928   1.134   0.363 -1.6386  0.4691  0.5769
  939MPD2    H213789   3.040   1.485   0.577 -0.5094  0.3373 -0.2377
  939MPD2    H313790   2.960   1.269   0.582 -1.0171  1.1276  0.3008
  939MPD2     N13791   3.011   1.232   0.116 -0.0179  0.4072 -0.1373
  939MPD2    H513792   3.037   1.284   0.032  2.7383  0.6417  0.8783
  939MPD2    N113793   3.089   1.639   0.367  0.0345 -0.0019  0.3135
  939MPD2    H713794   3.099   1.682   0.458  0.8311  1.3195 -0.4048
  940MPD2     C13795   1.760   2.008  13.390 -0.0021 -0.9205  0.0034
  940MPD2    C113796   1.623   1.977  13.382 -0.1416 -0.7944  0.9511
  940MPD2    C213797   1.582   1.864  13.322 -0.6873 -0.4419 -0.1536
  940MPD2    C313798   1.670   1.783  13.249  0.2637 -0.5261  0.4553
  940MPD2    C413799   1.802   1.818  13.260  0.3535  0.2867  0.2826
  940MPD2    C513800   1.846   1.926  13.328  0.1134  0.1802 -0.0157
  940MPD2     H13801   1.477   1.838  13.320 -0.5887 -0.6244 -2.8770
  940MPD2    H113802   1.874   1.745  13.224  0.1565  0.6643 -0.8674
  940MPD2    H213803   1.798   2.106  13.416 -1.0486 -0.0475 -1.7224
  940MPD2    H313804   1.953   1.945  13.333 -0.0116  1.2773 -1.4127
  940MPD2     N13805   1.624   1.671  13.158  0.5817  0.0166 -0.1646
  940MPD2    H513806   1.690   1.628  13.094  0.0632  0.3882 -0.9427
  940MPD2    N113807   1.516   2.061  13.424  0.4406  0.2436 -0.6886
  940MPD2    H713808   1.421   2.026  13.418 -0.4620  2.5752 -0.2119
  941MPD2     C13809   0.618   1.268   9.797  0.1553  0.0489 -0.0130
  941MPD2    C113810   0.732   1.238   9.866 -0.7545 -0.4992  0.7283
  941MPD2    C213811   0.730   1.149   9.978  0.0471  0.4406  0.6475
  941MPD2    C313812   0.612   1.090  10.020 -0.1942 -0.0014  0.1594
  941MPD2    C413813   0.502   1.119   9.944  0.1569  0.8211  0.5983
  941MPD2    C513814   0.499   1.205   9.836  0.0714 -0.9312 -0.1053
  941MPD2     H13815   0.829   1.144  10.024 -0.1796 -1.0545  0.9806
  941MPD2    H113816   0.408   1.069   9.965  1.8938 -2.1708  1.0671
  941MPD2    H213817   0.614   1.315   9.700  0.3020 -3.9224 -1.9441
  941MPD2    H313818   0.409   1.223   9.778  0.1260 -1.4134 -0.3388
  941MPD2     N13819   0.606   0.998  10.133 -0.1253  0.1371  0.8544
  941MPD2    H513820   0.518   0.957  10.160 -1.7355  1.8050 -1.8569
  941MPD2    N113821   0.852   1.298   9.840 -0.7745  0.2005  0.0099
  941MPD2    H713822   0.928   1.269   9.901 -1.1896 -1.2823 -0.1762
  942MPD2     C13823   0.041   3.361   9.083 -0.6671  0.7539  0.2816
  942MPD2    C113824   0.152   3.362   9.165  0.4935  0.5543  0.4491
  942MPD2    C213825   0.248   3.269   9.153 -0.0720  0.1562 -0.9511
  942MPD2    C313826   0.227   3.160   9.067 -0.0624 -0.4127 -0.2248
  942MPD2    C413827   0.110   3.151   9.000 -0.2224  0.0715  0.0994
  942MPD2    C513828   0.025   3.260   8.999  0.0259 -0.1537 -0.1157
  942MPD2     H13829   0.341   3.280   9.208 -0.4538 -0.0631 -0.2586
  942MPD2    H113830   0.084   3.068   8.935 -0.3210  0.0746  0.1355
  942MPD2    H213831   4.704   3.441   9.085 -0.8959  0.5431  0.2648
  942MPD2    H313832   4.671   3.247   8.942  0.0733 -1.3695  0.0991
  942MPD2     N13833   0.328   3.065   9.038 -1.0241  0.4362 -0.1871
  942MPD2    H513834   0.297   2.990   8.977 -0.5540 -0.1079  0.2529
  942MPD2    N113835   0.169   3.468   9.255 -0.9309  0.2014  0.0003
  942MPD2    H713836   0.251   3.460   9.315 -0.5092  1.3281 -0.4259
  943MPD2     C13837   0.021   1.091  10.367  0.4968  0.3753  0.5283
  943MPD2    C113838   4.699   0.981  10.419  0.5695 -1.2958  0.0352
  943MPD2    C213839   4.681   0.975  10.559 -0.7844 -0.0583 -0.3265
  943MPD2    C313840   4.722   1.079  10.642 -0.4047 -0.0836 -0.1061
  943MPD2    C413841   0.047   1.185  10.583  0.7058 -0.2235  0.0750
  943MPD2    C513842   0.068   1.189  10.448 -0.1810  0.0469 -0.7086
  943MPD2     H13843   4.635   0.883  10.594  0.8033  0.1728  2.4229
  943MPD2    H113844   0.089   1.268  10.638 -0.2759 -0.3545  1.0156
  943MPD2    H213845   0.018   1.104  10.259 -3.6164 -0.6610  0.4950
  943MPD2    H313846   0.129   1.271  10.413  0.9234 -0.4263  0.0863
  943MPD2     N13847   4.704   1.070  10.787  0.0140  0.3309  0.5340
  943MPD2    H513848   4.710   1.155  10.842 -3.3158 -0.1580  1.6411
  943MPD2    N113849   4.644   0.886  10.329  0.0209  0.2404 -0.0631
  943MPD2    H713850   4.651   0.920  10.234  0.8164  1.3204  0.3705
  944MPD2     C13851   4.478   0.386  11.631  0.1641 -0.8562  0.4488
  944MPD2    C113852   4.357   0.437  11.611  0.2716 -0.8350  0.0351
  944MPD2    C213853   4.332   0.568  11.659 -0.3654 -0.9998 -0.5526
  944MPD2    C313854   4.435   0.652  11.700  0.4526 -0.0802 -0.4570
  944MPD2    C413855   4.562   0.598  11.708 -0.1224 -0.3402 -0.4227
  944MPD2    C513856   4.579   0.460  11.687  0.0423 -0.0284 -0.1905
  944MPD2     H13857   4.231   0.606  11.662  0.4013  0.8378  1.8858
  944MPD2    H113858   4.643   0.657  11.749  0.0160 -0.4986 -0.4707
  944MPD2    H213859   4.500   0.284  11.602  0.6961 -0.2145 -1.4537
  944MPD2    H313860   4.676   0.416  11.707 -1.2871 -3.0582 -0.5081
  944MPD2     N13861   4.407   0.789  11.725 -0.5819 -1.2670 -0.0716
  944MPD2    H513862   4.315   0.832  11.717 -0.5865 -1.1296  0.7776
  944MPD2    N113863   4.257   0.352  11.568  0.3269  0.0828  0.0231
  944MPD2    H713864   4.287   0.260  11.538  2.7082  0.5133  1.0886
    1TMC1    C113865   3.019   1.065  14.653 -0.7329 -0.2281 -0.0581
    1TMC1    C213866   2.891   1.019  14.651 -0.0574 -0.2702 -0.0168
    1TMC1    C313867   2.868   0.892  14.688 -0.4928  0.1082  0.2258
    1TMC1    C413868   3.119   0.981  14.675  0.6944 -0.2715  0.1048
    1TMC1    C513869   3.094   0.845  14.683  0.7803 -0.3592  0.9681
    1TMC1    C613870   2.965   0.801  14.691  0.1580  0.2844  0.1065
    1TMC1     C13871   3.048   1.208  14.655 -0.3920 -0.4181  0.2998
    1TMC1     O13872   3.157   1.235  14.702 -0.0115 -0.6186 -0.1102
    1TMC1     H13873   2.811   1.092  14.644  0.7358  0.6113  0.2080
    1TMC1    H113874   3.219   1.021  14.689  1.2662 -1.3466 -0.9038
    1TMC1    H213875   2.949   0.701  14.728  0.3451  0.0182 -0.5334
    1TMC1    C713876   3.203   0.750  14.681  0.0113 -0.6517 -0.1075
    1TMC1    C813877   2.739   0.834  14.663 -0.1438 -0.0778 -0.7553
    1TMC1    O113878   3.317   0.781  14.692  0.6062 -0.5370  0.4610
    1TMC1    O213879   2.726   0.727  14.715  0.1853 -0.1522 -0.6261
    1TMC1    O313880   3.154   0.630  14.686 -0.1010 -0.2677  0.4404
    1TMC1    H313881   3.230   0.567  14.690 -0.4294 -0.7702 -1.1667
    1TMC1    O513882   2.713   0.872  14.532 -0.2531  0.0089  0.1628
    1TMC1    H513883   2.765   0.948  14.498  1.5923 -1.0516  0.6366
    2MPD2     C13884   2.920   1.693  14.733  1.1559 -1.2608  0.1535
    2MPD2    C113885   2.838   1.643  14.632 -0.0389  0.1735  0.0392
    2MPD2    C213886   2.840   1.512  14.609 -0.3082 -0.1563  0.2328
    2MPD2    C313887   2.931   1.429  14.666 -0.0670  0.7310 -0.3639
    2MPD2    C413888   3.025   1.485  14.756  0.4545  0.1367 -0.0509
    2MPD2    C513889   3.011   1.619  14.790  0.2230 -0.5816 -0.2461
    2MPD2     H13890   2.778   1.463  14.535  0.8742  0.3976 -1.1143
    2MPD2    H113891   3.103   1.423  14.797 -0.2672  0.9416  2.5413
    2MPD2    H213892   2.924   1.798  14.760 -1.1088 -0.5707 -2.1442
    2MPD2    H313893   3.082   1.665  14.857 -0.8968  0.0630  0.4976
    2MPD2     N13894   2.939   1.291  14.634  0.0385  0.6001 -0.6250
    2MPD2    H513895   2.852   1.259  14.593 -0.8164  0.1577  1.5319
    2MPD2    N113896   2.741   1.737  14.577 -0.7052 -0.3940 -0.3063
    2MPD2    H713897   2.741   1.831  14.615  0.3379 -1.4326  2.2344
    3TMC2    C113898   2.592   1.836  14.424 -0.4690 -0.0566 -0.3164
    3TMC2    C213899   2.639   1.957  14.468 -0.4788 -1.0808  0.1565
    3TMC2    C313900   2.592   2.072  14.413 -0.1475 -0.5550 -0.0899
    3TMC2    C413901   2.506   1.830  14.318  0.6269 -0.2529 -0.0832
    3TMC2    C513902   2.465   1.948  14.259  0.1249 -0.3539  0.1402
    3TMC2    C613903   2.508   2.067  14.312 -0.4819 -0.4918  0.5973
    3TMC2     C13904   2.661   1.715  14.471  0.1349  0.2512  0.0931
    3TMC2     O13905   2.659   1.615  14.397 -0.2310  0.2364  0.2524
    3TMC2     H13906   2.720   1.972  14.538 -0.4862 -1.4430  0.2468
    3TMC2    H113907   2.471   1.733  14.283 -1.6414  0.2361  0.8472
    3TMC2    H213908   2.460   2.160  14.285  2.6210  1.7202  2.6882
    3TMC2    C713909   2.405   1.935  14.126  0.6006 -0.3436 -0.4051
    3TMC2    C813910   2.685   2.183  14.428  0.5900 -0.4155 -0.1731
    3TMC2    O113911   2.341   1.832  14.105  0.2376 -0.2378 -0.5951
    3TMC2    O213912   2.789   2.172  14.490 -0.3269 -0.3263  0.0440
    3TMC2    O513913   2.626   2.301  14.407 -0.2942 -0.1596 -0.2308
    3TMC2    H513914   2.556   2.313  14.340  0.2230  0.8934 -0.5855
    4TMC2    C113915   2.260   2.749  13.634 -0.5333 -0.8473 -0.1877
    4TMC2    C213916   2.350   2.833  13.685 -0.1900  0.6862 -0.5577
    4TMC2    C313917   2.474   2.786  13.720  0.6616 -0.3889 -0.1241
    4TMC2    C413918   2.288   2.620  13.611  0.0571 -0.4490  0.4675
    4TMC2    C513919   2.413   2.575  13.640 -0.0078 -0.0066  0.0322
    4TMC2    C613920   2.508   2.656  13.690 -0.5133 -0.6324  0.5844
    4TMC2     C13921   2.143   2.817  13.572  0.1165  0.3023 -0.2085
    4TMC2     O13922   2.133   2.937  13.590  0.0935 -0.1025  0.0529
    4TMC2     H13923   2.327   2.938  13.694  0.0473  0.7313 -0.4729
    4TMC2    H113924   2.205   2.551  13.596 -0.8025  0.5596  0.6328
    4TMC2    H213925   2.611   2.629  13.712 -0.4184 -1.4231 -0.8444
    4TMC2    C713926   2.437   2.428  13.679 -0.3933  0.4045 -0.2523
    4TMC2    C813927   2.536   2.835  13.840 -0.4474 -0.2700  0.0713
    4TMC2    O113928   2.542   2.395  13.737 -0.7541  0.0127 -0.5646
    4TMC2    O213929   2.584   2.761  13.924  0.0126 -0.7309 -0.1106
    4TMC2    O513930   2.518   2.969  13.846 -0.6910 -0.2129  0.2351
    4TMC2    H513931   2.488   3.009  13.762  0.7737 -1.1968 -0.7536
    5MPD2     C13932   1.712   2.806  13.295  0.1032 -0.1504 -0.4752
    5MPD2    C113933   1.767   2.678  13.302 -0.1591  0.2226 -0.2122
    5MPD2    C213934   1.888   2.654  13.364  0.2026 -0.4204 -0.5057
    5MPD2    C313935   1.952   2.764  13.416  0.6456 -0.4407  0.0387
    5MPD2    C413936   1.909   2.893  13.389  0.3056  0.8245  0.0225
    5MPD2    C513937   1.789   2.912  13.332 -0.2525 -0.7885  0.7909
    5MPD2     H13938   1.921   2.555  13.395  1.1174  0.4609  1.3552
    5MPD2    H113939   1.953   2.985  13.425  2.3395 -0.9030  2.0114
    5MPD2    H213940   1.625   2.830  13.236 -0.5586  1.7013  1.2258
    5MPD2    H313941   1.745   3.010  13.327 -0.6305 -1.0346 -0.5929
    5MPD2     N13942   2.061   2.730  13.497 -0.4517 -0.5248 -0.1866
    5MPD2    H513943   2.084   2.632  13.484 -0.3934 -0.3667 -1.2274
    5MPD2    N113944   1.710   2.565  13.236  0.1637 -0.0163  0.0656
    5MPD2    H713945   1.634   2.576  13.169  0.2746 -2.9993 -0.5580
    6MPD1     C13946   0.989   2.761  11.610 -0.6910 -0.2162  0.4829
    6MPD1    C113947   1.118   2.730  11.630 -0.6597 -0.4595  0.1763
    6MPD1    C213948   1.158   2.682  11.754 -0.8000 -0.1856 -0.1427
    6MPD1    C313949   1.066   2.654  11.861  0.5669 -0.2450 -0.5575
    6MPD1    C413950   0.938   2.692  11.840 -0.1973  0.9361  0.7217
    6MPD1    C513951   0.908   2.746  11.717  0.2562  0.1216 -0.0606
    6MPD1     H13952   1.260   2.647  11.769 -1.5367 -1.6601  1.4454
    6MPD1    H113953   0.860   2.684  11.916 -0.1478 -0.1829  0.6576
    6MPD1    H213954   0.948   2.814  11.525 -0.1678 -3.9497 -2.1050
    6MPD1    H313955   0.806   2.781  11.703  0.4885  0.3410 -1.2005
    6MPD1     N13956   1.099   2.597  11.986 -0.2676  0.1674 -0.2162
    6MPD1    H513957   1.022   2.591  12.052  0.9476 -1.6375  1.0626
    6MPD1    N113958   1.217   2.783  11.541 -0.0120 -0.4487 -0.2689
    6MPD1    H613959   1.192   2.780  11.443  0.4750 -0.9688 -0.3779
    6MPD1    H713960   1.294   2.717  11.551  0.6892  0.2767 -0.8483
    7MPD2     C13961   1.057   2.647  12.756  0.2755 -0.2951  0.4341
    7MPD2    C113962   1.137   2.542  12.716  0.5805 -0.4632  0.3018
    7MPD2    C213963   1.214   2.478  12.819 -0.0610 -0.6784  0.5372
    7MPD2    C313964   1.210   2.513  12.954 -0.5324 -0.4376 -0.1515
    7MPD2    C413965   1.128   2.620  12.988  0.3444  0.4869  0.2677
    7MPD2    C513966   1.052   2.688  12.890  0.1454 -0.3854 -0.4592
    7MPD2     H13967   1.287   2.405  12.786  1.7689 -0.1378  3.4599
    7MPD2    H113968   1.131   2.679  13.079  1.3143  0.5905  0.1667
    7MPD2    H213969   1.004   2.702  12.679  1.6934  0.8251  0.2485
    7MPD2    H313970   1.000   2.777  12.922 -0.8506 -0.7441 -1.0785
    7MPD2     N13971   1.285   2.442  13.054 -0.3428  0.2604  0.0775
    7MPD2    H513972   1.293   2.480  13.148 -0.5934  0.4846  0.0059
    7MPD2    N113973   1.142   2.491  12.584  0.0902 -0.1967  0.0838
    7MPD2    H713974   1.214   2.420  12.579  2.6696  2.3373  1.0401
    8TMC3    C113975   1.446   2.271  13.132  0.0126  0.0230 -0.2954
    8TMC3    C213976   1.538   2.368  13.174  0.4552 -0.6418 -0.5370
    8TMC3    C313977   1.672   2.354  13.143  0.4403  0.1564  0.0455
    8TMC3    C413978   1.501   2.150  13.093  0.3446  0.1683 -0.1690
    8TMC3    C513979   1.633   2.138  13.065  0.4442 -0.2135  0.3280
    8TMC3    C613980   1.722   2.236  13.094  0.7585 -0.1405  0.3545
    8TMC3     C13981   1.349   2.320  13.032 -0.9196  0.3153  0.6992
    8TMC3     O13982   1.324   2.242  12.938 -0.3536  0.1005  0.1049
    8TMC3     H13983   1.497   2.439  13.245  2.3307 -0.2677  0.1682
    8TMC3    H113984   1.438   2.072  13.051  0.8988  0.4838 -1.5778
    8TMC3    H213985   1.828   2.229  13.074  0.8450  0.2106  0.6906
    8TMC3    C713986   1.665   2.057  12.955  0.1551  0.1951  0.4062
    8TMC3    C813987   1.766   2.438  13.214 -0.0627  0.1558 -0.2027
    8TMC3    O113988   1.770   1.988  12.952 -0.1376  0.1175  0.0701
    8TMC3    O213989   1.878   2.394  13.245 -0.1262  0.1460  0.0089
    9TMC3    C113990   1.227   2.481  12.146  0.3800 -0.1919 -0.2728
    9TMC3    C213991   1.306   2.372  12.154  0.2959  0.1099 -0.1236
    9TMC3    C313992   1.291   2.292  12.264 -0.2442  0.8746  0.1509
    9TMC3    C413993   1.142   2.529  12.241 -0.3215 -0.2049 -0.3899
    9TMC3    C513994   1.142   2.459  12.354  0.0904  0.0225 -0.5511
    9TMC3    C613995   1.205   2.339  12.367  0.3166 -0.0133 -0.3091
    9TMC3     C13996   1.226   2.542  12.014  0.3509 -0.8108 -0.0595
    9TMC3     O13997   1.324   2.522  11.947  0.2426 -0.3378 -0.5872
    9TMC3     H13998   1.360   2.335  12.068 -1.2088 -1.7818 -0.2674
    9TMC3    H113999   1.107   2.631  12.235  0.1698 -0.0524 -0.7101
    9TMC3    H214000   1.187   2.281  12.457  0.2129  3.1543  1.7045
    9TMC3    C714001   1.086   2.535  12.468 -0.1943 -0.5979  0.3914
    9TMC3    C814002   1.387   2.184  12.295 -0.1732 -0.3546  0.1949
    9TMC3    O114003   0.992   2.612  12.462  0.0144 -0.8171  0.3416
    9TMC3    O214004   1.467   2.144  12.211  0.1597 -0.0141  0.4667
   10MPD2     C14005   1.649   1.946  12.683  0.1244 -0.1743  0.7652
   10MPD2    C114006   1.592   2.061  12.727  0.2490  0.3647  0.3861
   10MPD2    C214007   1.504   2.132  12.639  0.2215 -0.1260 -1.0642
   10MPD2    C314008   1.482   2.094  12.511  0.5100 -0.0798 -0.4955
   10MPD2    C414009   1.541   1.976  12.463  0.1145  0.0257 -1.0158
   10MPD2    C514010   1.629   1.915  12.552 -0.1096  0.6131  0.1685
   10MPD2     H14011   1.453   2.221  12.675  2.2942  0.4949  0.3561
   10MPD2    H114012   1.532   1.941  12.361 -1.2588 -1.1140 -0.5090
   10MPD2    H214013   1.716   1.886  12.743  1.6814  0.9834  0.1873
   10MPD2    H314014   1.695   1.841  12.510 -0.0186  0.8819 -0.1596
   10MPD2     N14015   1.397   2.176  12.431 -0.5419 -0.2017 -0.1083
   10MPD2    H514016   1.347   2.250  12.481  1.0483 -0.7307  2.2604
   10MPD2    N114017   1.584   2.100  12.852  0.2319  0.2025 -0.5610
   10MPD2    H714018   1.513   2.169  12.876  0.6813 -0.0184  1.4586
   11MPD2     C14019   2.284   1.970  13.859 -0.3406  0.5131 -0.1801
   11MPD2    C114020   2.356   2.068  13.918  0.2553 -0.1288  0.6158
   11MPD2    C214021   2.382   2.187  13.856 -0.0281  0.1961 -0.5670
   11MPD2    C314022   2.318   2.214  13.736 -0.1396 -0.2523  0.5613
   11MPD2    C414023   2.238   2.122  13.675  0.4115  0.6496 -0.1210
   11MPD2    C514024   2.235   1.998  13.734 -0.7416 -0.5940  0.2840
   11MPD2     H14025   2.439   2.261  13.910 -0.6305  1.3703 -1.5409
   11MPD2    H114026   2.188   2.142  13.581  0.4613  0.7367 -0.1285
   11MPD2    H214027   2.261   1.872  13.899 -2.1076  0.4701 -1.2993
   11MPD2    H314028   2.181   1.918  13.686  0.2650 -0.6537 -0.7483
   11MPD2     N14029   2.327   2.346  13.673  0.0047  0.3872  0.1013
   11MPD2    H514030   2.248   2.367  13.613 -0.7075  0.3964  1.0261
   11MPD2    N114031   2.416   2.050  14.047  0.4488 -0.1881  0.0518
   11MPD2    H714032   2.471   2.131  14.072 -1.7719  1.4629 -0.4440
    1MPD1     C14033   1.601   4.378  17.452  0.8248  0.1696 -0.0810
    1MPD1    C114034   1.542   4.427  17.333 -0.0589  0.1320  0.1536
    1MPD1    C214035   1.547   4.366  17.212  0.3079 -0.3839  0.2132
    1MPD1    C314036   1.610   4.244  17.206 -0.8400  0.0712 -0.0250
    1MPD1    C414037   1.676   4.200  17.321  0.9413  0.5645 -0.2807
    1MPD1    C514038   1.674   4.258  17.445 -0.0491 -0.1294 -0.0508
    1MPD1     H14039   1.495   4.410  17.129 -0.2344  1.1815  1.3980
    1MPD1    H114040   1.728   4.105  17.318 -0.0306  0.0559 -1.3966
    1MPD1    H214041   1.601   4.434  17.545 -0.0460 -0.1663  0.1155
    1MPD1    H314042   1.732   4.210  17.523  2.3089 -0.7462 -2.1683
    1MPD1     N14043   1.620   4.163  17.091  0.3394  0.1461  0.5293
    1MPD1    H514044   1.663   4.073  17.103  1.1718  0.5888  0.8631
    1MPD1    N114045   1.488   4.557  17.347  0.5717  0.2829  0.0796
    1MPD1    H614046   1.419   4.579  17.275  1.2808 -2.1666 -1.3521
    1MPD1    H714047   1.437   4.564  17.434 -0.9713  0.2399 -0.8104
    2MPD1     C14048   2.059   3.411  16.663  0.3692  0.1940  1.0796
    2MPD1    C114049   1.939   3.405  16.600  0.1233 -0.2811 -0.0805
    2MPD1    C214050   1.842   3.500  16.627  0.9966 -0.0500  0.6125
    2MPD1    C314051   1.868   3.602  16.716 -0.0473  0.5934  0.0269
    2MPD1    C414052   1.982   3.595  16.798 -0.2892 -0.1395 -0.3310
    2MPD1    C514053   2.077   3.504  16.765  0.0881  0.2285  0.2451
    2MPD1     H14054   1.745   3.495  16.578  0.8258  1.2610  0.8182
    2MPD1    H114055   1.995   3.655  16.887  0.4953 -0.5582 -0.1653
    2MPD1    H214056   2.148   3.359  16.630 -1.0295 -0.0918 -2.2889
    2MPD1    H314057   2.169   3.490  16.821  0.6599 -2.2333 -1.2880
    2MPD1     N14058   1.759   3.685  16.737  0.0604  0.2254  0.1039
    2MPD1    H514059   1.670   3.665  16.692 -0.7858  0.9320  1.4985
    2MPD1    N114060   1.928   3.313  16.495  0.1097 -0.4394  0.6585
    2MPD1    H614061   1.828   3.300  16.484  0.0087  0.5053  0.4734
    2MPD1    H714062   1.964   3.221  16.521 -0.8499 -0.7576  0.8321
    3TMC3    C114063   1.644   3.873  16.816  0.4307  0.3851 -0.0249
    3TMC3    C214064   1.533   3.841  16.739  0.0038  0.0351 -0.0187
    3TMC3    C314065   1.420   3.910  16.757  0.4936 -0.6092  0.0739
    3TMC3    C414066   1.653   3.986  16.897  0.9961 -0.1914 -0.2077
    3TMC3    C514067   1.549   4.073  16.882  0.4267  0.9520  0.2891
    3TMC3    C614068   1.429   4.030  16.823 -0.2280 -0.0211 -0.0159
    3TMC3     C14069   1.762   3.791  16.815 -0.1038 -0.1401 -0.7704
    3TMC3     O14070   1.862   3.833  16.871 -0.2883  0.2202  0.3741
    3TMC3     H14071   1.529   3.765  16.662  1.1029  1.7406 -1.7712
    3TMC3    H114072   1.746   4.022  16.939 -0.3603 -0.1185  2.7302
    3TMC3    H214073   1.341   4.093  16.831 -0.2823 -0.3068  1.5919
    3TMC3    C714074   1.537   4.177  16.983 -0.6099  0.3487 -0.4810
    3TMC3    C814075   1.307   3.873  16.678  0.3311 -0.0673 -0.5087
    3TMC3    O114076   1.436   4.245  16.981 -0.2585 -0.3682 -0.3200
    3TMC3    O214077   1.297   3.751  16.652 -0.1926 -0.1846  0.3975
    4MPD1     C14078   0.956   3.981  16.318  0.4964  0.3403  0.0957
    4MPD1    C114079   0.998   3.859  16.365 -0.2307 -0.0083  0.3745
    4MPD1    C214080   1.099   3.852  16.454  0.0111 -0.0449  0.1600
    4MPD1    C314081   1.157   3.970  16.502  0.0629  0.3629 -0.1087
    4MPD1    C414082   1.127   4.092  16.435 -0.0820 -0.1917 -0.0717
    4MPD1    C514083   1.026   4.092  16.344 -1.1160  0.7206 -0.2319
    4MPD1     H14084   1.134   3.755  16.488  0.5099 -1.2405 -3.7402
    4MPD1    H114085   1.183   4.179  16.466 -3.0211  1.5258  0.3528
    4MPD1    H214086   0.878   3.991  16.244  1.4587 -4.9167 -1.5584
    4MPD1    H314087   1.006   4.187  16.297  0.5050  0.3696 -1.6145
    4MPD1     N14088   1.248   3.979  16.612  0.3398  0.5316  1.0837
    4MPD1    H514089   1.291   4.068  16.635 -2.8011  1.8996  1.6179
    4MPD1    N114090   0.933   3.744  16.323  0.0961 -0.1085 -0.8691
    4MPD1    H614091   0.833   3.754  16.336  0.0348 -0.0533 -1.4026
    4MPD1    H714092   0.966   3.669  16.384 -0.2476  2.0117  1.8962
    1TCq1    O114093   1.253   1.295  11.618  0.3976  0.1033 -1.2720
    1TCq1    C114094   1.346   1.255  11.703  0.2593  0.0846 -0.1891
    1TCq1    O214095   1.409   1.327  11.781  0.1337  0.1086  0.1555
    1TCq1    C214096   1.371   1.116  11.679 -0.3711  0.4773 -0.0739
    1TCq1    C314097   1.264   1.026  11.667 -0.3417  0.0175 -0.1570
    1TCq1    C414098   1.287   0.893  11.653  0.5540 -0.4779 -0.1837
    1TCq1    C514099   1.413   0.848  11.664 -0.1555  0.1548  0.3234
    1TCq1    C614100   1.511   0.933  11.704 -0.0693  0.0397 -0.6080
    1TCq1    C714101   1.495   1.066  11.711 -0.0273 -0.7202  0.2548
    1TCq1    C814102   1.648   0.876  11.719 -0.2210 -0.2924  0.6710
    1TCq1    O414103   1.664   0.756  11.730  0.7340  0.0421  0.3558
    1TCq1    C914104   1.190   0.797  11.603 -1.1910 -0.4563  0.7755
    1TCq1    O514105   1.073   0.832  11.640 -0.3100  0.2743  0.4355
    1TCq1    O614106   1.226   0.682  11.576 -0.1301  0.4040  0.0805
    1TCq1    H114107   1.267   1.266  11.525  1.2324 -2.0551 -0.4757
    1TCq1    H214108   1.164   1.061  11.642 -0.9625 -0.5941  1.4713
    1TCq1    H314109   1.442   0.745  11.647  0.9440  0.6393 -0.7439
    1TCq1    H414110   1.566   1.140  11.745 -0.7319  0.1663 -0.1944
    2MPD1     C14111   2.156   0.968  11.774  0.0993  0.0360  0.2981
    2MPD1    C114112   2.099   1.075  11.706  0.4222 -0.5942 -0.5762
    2MPD1    C214113   1.960   1.078  11.698  0.1767  1.0947  0.6311
    2MPD1    C314114   1.882   0.968  11.722  0.1183  0.4125  0.5792
    2MPD1    C414115   1.948   0.855  11.779  0.0869  0.2005  0.4752
    2MPD1    C514116   2.083   0.856  11.807 -0.4328  0.0004  0.0702
    2MPD1     H14117   1.909   1.162  11.653  0.5913  1.8269  1.5328
    2MPD1    H114118   1.887   0.771  11.810  0.3092 -0.0646  0.1868
    2MPD1    H214119   2.263   0.970  11.793  0.2793 -0.5540 -0.6432
    2MPD1    H314120   2.130   0.771  11.855  2.1588  1.9004  0.9072
    2MPD1     N14121   1.740   0.976  11.712 -0.5107 -0.3551 -0.0399
    2MPD1    H514122   1.714   1.073  11.696 -0.9765 -0.1301  2.0041
    2MPD1    N114123   2.175   1.196  11.681  0.2364 -0.6380 -0.0097
    2MPD1    H614124   2.272   1.178  11.658  0.2791 -0.2894 -0.0963
    2MPD1    H714125   2.132   1.255  11.610  0.0894 -0.7764 -0.0357
    1TMC1    C114126   2.953   4.304   1.319  0.9246  0.3410  0.3862
    1TMC1    C214127   3.031   4.401   1.258 -0.7057  0.2922  0.1130
    1TMC1    C314128   3.066   4.506   1.339 -0.4776 -0.6732 -0.1877
    1TMC1    C414129   2.914   4.312   1.451 -0.2302  0.3050 -0.4400
    1TMC1    C514130   2.938   4.428   1.523 -0.8695 -0.0554  0.5262
    1TMC1    C614131   3.017   4.522   1.467  0.2294  0.4335 -0.4908
    1TMC1     C14132   2.960   4.165   1.292 -0.4005  0.1867 -0.3457
    1TMC1     O14133   2.899   4.082   1.355 -0.4661  0.0226  0.1573
    1TMC1     H14134   3.054   4.401   1.152 -0.7227 -2.2486  0.1185
    1TMC1    H114135   2.845   4.242   1.495 -1.7802 -0.5704 -4.2703
    1TMC1    H214136   3.036   4.613   1.522 -0.8465 -1.3197  2.7755
    1TMC1    C714137   2.871   4.450   1.647  0.1917  0.2561 -0.5512
    1TMC1    C814138   3.148   4.618   1.289  0.1754 -0.0486 -0.5575
    1TMC1    O114139   2.924   4.515   1.734  0.5679  0.1917 -0.6886
    1TMC1    O214140   3.144   4.731   1.340 -0.3990  0.2922 -0.0248
    1TMC1    O314141   2.748   4.481   1.593  0.3913  0.6586 -0.2081
    1TMC1    H314142   2.729   4.460   1.499 -2.8714  1.6674  0.2321
    1TMC1    O514143   3.244   4.572   1.200  0.7211  0.1292  0.5199
    1TMC1    H514144   3.256   4.474   1.199  2.7819  0.3771  2.3857
    2MPD1     C14145   3.053   3.795   0.952  0.7821 -0.2197  0.2842
    2MPD1    C114146   3.085   3.917   0.901 -0.1872 -0.6900 -0.5707
    2MPD1    C214147   3.065   4.033   0.976  0.4815 -0.0932 -0.1867
    2MPD1    C314148   3.033   4.027   1.106 -0.2443  0.5945 -0.2989
    2MPD1    C414149   3.011   3.899   1.163 -0.5835 -0.3392  0.5083
    2MPD1    C514150   3.020   3.789   1.085 -1.0373  0.1097  0.1205
    2MPD1     H14151   3.083   4.132   0.936  0.4614 -0.3071 -0.7265
    2MPD1    H114152   2.979   3.880   1.265  2.4559 -1.9144  1.1786
    2MPD1    H214153   3.050   3.705   0.892 -1.0858  0.1147 -0.1163
    2MPD1    H314154   2.998   3.687   1.115  0.7191 -0.2141  0.3016
    2MPD1     N14155   3.015   4.149   1.169 -0.4920  0.4889  0.2049
    2MPD1    H514156   3.042   4.232   1.117 -0.1483 -0.2548 -0.7974
    2MPD1    N114157   3.104   3.934   0.767  0.0021 -0.3874  0.3053
    2MPD1    H614158   3.143   4.023   0.737  0.2550 -0.1918  1.1945
    2MPD1    H714159   3.156   3.860   0.720  0.9473  0.2056  0.4167
    1MPD1     C14160   2.574   2.474  11.921  0.5567  0.2337 -0.1370
    1MPD1    C114161   2.511   2.585  11.964  0.3918 -0.5978 -0.0447
    1MPD1    C214162   2.574   2.705  11.939  0.0676 -0.3164  0.9793
    1MPD1    C314163   2.696   2.715  11.867 -0.2182 -0.9065  0.0819
    1MPD1    C414164   2.749   2.598  11.819 -0.1530 -0.4113 -0.3958
    1MPD1    C514165   2.694   2.481  11.861 -0.2589 -0.5107  0.6727
    1MPD1     H14166   2.536   2.793  11.990 -0.9854  1.0475 -2.1610
    1MPD1    H114167   2.841   2.592  11.763 -0.5543  0.2781 -1.1330
    1MPD1    H214168   2.536   2.375  11.943  1.1019  0.1501  0.4628
    1MPD1    H314169   2.741   2.393  11.819  0.9336  1.2488 -1.7169
    1MPD1     N14170   2.754   2.840  11.857  0.2936 -0.2923 -0.4042
    1MPD1    H514171   2.707   2.913  11.910 -2.5318 -3.0599  0.8954
    1MPD1    N114172   2.399   2.575  12.047  0.1773 -0.2418 -0.2624
    1MPD1    H614173   2.340   2.505  12.003  0.9997 -1.5954  0.7753
    1MPD1    H714174   2.345   2.661  12.049  1.8253  0.7826  0.6928
    2MPD1     C14175   4.520   3.468  10.147 -0.4568 -0.4336  0.6633
    2MPD1    C114176   4.450   3.407  10.041 -0.3181 -0.4165 -0.6624
    2MPD1    C214177   4.341   3.333  10.070  0.1895  0.0126 -0.5841
    2MPD1    C314178   4.306   3.310  10.207 -0.1135  0.2282 -0.2289
    2MPD1    C414179   4.381   3.364  10.313 -0.4739 -0.4193  0.1900
    2MPD1    C514180   4.488   3.439  10.278 -0.5350  0.3373 -0.2970
    2MPD1     H14181   4.288   3.298   9.981  1.9725 -0.7623 -1.3605
    2MPD1    H114182   4.349   3.370  10.417  1.2834  1.0869  0.6363
    2MPD1    H214183   4.594   3.545  10.134  0.6691 -1.7219 -0.5761
    2MPD1    H314184   4.562   3.464  10.353 -0.3270  1.2302 -0.7909
    2MPD1     N14185   4.187   3.246  10.239  0.2128 -1.5305 -0.4010
    2MPD1    H514186   4.164   3.237  10.338  2.2649  2.8221  0.4552
    2MPD1    N114187   4.496   3.434   9.909 -0.2177  0.6877 -0.2465
    2MPD1    H614188   4.429   3.416   9.834  0.3134 -0.7693 -0.3772
    2MPD1    H714189   4.543   3.522   9.891  1.5186 -0.2419 -0.2865
    3MPD1     C14190   3.175   3.101   9.897 -0.4603  0.1419  0.1703
    3MPD1    C114191   3.169   3.090  10.035 -0.1411 -0.7164 -0.0443
    3MPD1    C214192   3.292   3.098  10.105 -0.1616 -0.0374  1.0077
    3MPD1    C314193   3.414   3.086  10.036 -0.3610  0.4584 -0.4298
    3MPD1    C414194   3.414   3.086   9.897  0.6370 -0.2089 -0.2207
    3MPD1    C514195   3.293   3.096   9.830  0.3964 -1.0277  0.9223
    3MPD1     H14196   3.288   3.105  10.213 -0.1287  0.7555  0.9586
    3MPD1    H114197   3.505   3.079   9.839  0.1267  0.3511 -1.0947
    3MPD1    H214198   3.086   3.105   9.835  0.5308  0.9691 -1.2101
    3MPD1    H314199   3.296   3.083   9.722 -0.8850  0.6186  0.6842
    3MPD1     N14200   3.523   3.070  10.127  0.3841 -0.6269  0.0804
    3MPD1    H514201   3.509   3.055  10.226  0.6794  0.4175  0.2820
    3MPD1    N114202   3.042   3.111  10.101  0.2357 -0.6546  0.1324
    3MPD1    H614203   3.019   3.056  10.184  2.6609 -2.8697 -0.6753
    3MPD1    H714204   2.970   3.088  10.033 -0.2025  1.3258 -0.0692
    4MPD2     C14205   2.762   3.389  11.384  0.2541  0.2920  0.2355
    4MPD2    C114206   2.871   3.409  11.468  0.9770 -0.3913 -0.3352
    4MPD2    C214207   2.986   3.471  11.418 -0.6242  0.5475  0.0466
    4MPD2    C314208   2.991   3.507  11.291  0.0915 -0.1587  0.1708
    4MPD2    C414209   2.883   3.486  11.208 -0.0803 -0.6747  0.0500
    4MPD2    C514210   2.766   3.437  11.250  0.5101 -0.5017 -0.5442
    4MPD2     H14211   3.072   3.491  11.481 -0.7269  0.8877  0.0766
    4MPD2    H114212   2.879   3.512  11.103 -1.5605  2.9078  1.0120
    4MPD2    H214213   2.667   3.348  11.416 -0.5441  2.2459  0.3555
    4MPD2    H314214   2.683   3.432  11.181  0.2080  0.2558 -0.2331
    4MPD2     N14215   3.111   3.565  11.247 -0.0042 -0.1029  0.2713
    4MPD2    H514216   3.189   3.557  11.312  1.0588 -0.1749 -0.9948
    4MPD2    N114217   2.878   3.351  11.599 -0.3698 -0.2873  0.1178
    4MPD2    H714218   2.968   3.343  11.644 -0.7170  0.5700  0.9789
    5TMC3    C114219   2.826   3.226  11.777 -0.5905 -0.0137  0.9435
    5TMC3    C214220   2.793   3.098  11.791  0.5525  0.1713 -0.1541
    5TMC3    C314221   2.899   3.016  11.816  0.1684 -0.6731 -0.6735
    5TMC3    C414222   2.943   3.272  11.814  0.5240 -0.2887 -0.7420
    5TMC3    C514223   3.055   3.196  11.839 -0.2815  0.2221  0.2629
    5TMC3    C614224   3.030   3.059  11.829  0.6246  0.5102 -0.3438
    5TMC3     C14225   2.775   3.285  11.658 -0.1087  0.4834 -0.0857
    5TMC3     O14226   2.656   3.268  11.624  0.3764  0.0661  0.6294
    5TMC3     H14227   2.701   3.061  11.746  1.5517 -1.5271 -0.8204
    5TMC3    H114228   2.958   3.379  11.827  0.0199 -0.0690 -1.9006
    5TMC3    H214229   3.096   2.973  11.829  1.0069  0.8039 -0.5168
    5TMC3    C714230   3.172   3.254  11.780  0.1425 -0.0122 -0.3115
    5TMC3    C814231   2.877   2.874  11.803  0.4697  0.1412 -0.5266
    5TMC3    O114232   3.146   3.355  11.719  0.4781  0.0266  0.1112
    5TMC3    O214233   2.965   2.806  11.749 -0.0067  0.0227  0.1364
    6TMC3    C114234   3.975   3.167  10.217  0.3078  0.6493  0.1197
    6TMC3    C214235   3.883   3.081  10.154 -0.1534  0.8978 -0.0873
    6TMC3    C314236   3.754   3.090  10.194  0.4834  0.5845  0.5353
    6TMC3    C414237   3.933   3.255  10.305 -0.5209 -0.3842 -0.1401
    6TMC3    C514238   3.808   3.250  10.352  0.8581  0.1492 -0.3945
    6TMC3    C614239   3.712   3.172  10.293 -0.8304 -0.2392  0.0568
    6TMC3     C14240   4.100   3.186  10.151  0.3050 -0.5285 -0.0958
    6TMC3     O14241   4.106   3.171  10.030 -1.0338  0.0145  0.1338
    6TMC3     H14242   3.897   3.041  10.055 -0.1991  2.9064 -0.8976
    6TMC3    H114243   3.992   3.337  10.345 -1.4275 -0.5524  1.5380
    6TMC3    H214244   3.607   3.169  10.320 -0.4774 -1.5392  1.3043
    6TMC3    C714245   3.761   3.304  10.481 -0.2305  0.0049 -0.5025
    6TMC3    C814246   3.652   3.072  10.091  0.8467 -0.5714  0.8083
    6TMC3    O114247   3.641   3.318  10.491  0.2869 -0.3449  0.8561
    6TMC3    O214248   3.701   3.075   9.980 -0.7560 -0.6731 -0.7269
    7MPD2     C14249   3.584   3.182  11.475  0.6494 -0.4637 -0.1668
    7MPD2    C114250   3.494   3.290  11.479  0.0566 -0.3335  0.4362
    7MPD2    C214251   3.398   3.288  11.587 -0.0114 -0.5272 -0.4715
    7MPD2    C314252   3.382   3.189  11.680 -0.3555 -0.7779 -0.6534
    7MPD2    C414253   3.477   3.088  11.679  0.0198  0.7793  0.3130
    7MPD2    C514254   3.566   3.081  11.570 -0.0040  0.1592  1.0274
    7MPD2     H14255   3.322   3.365  11.596  1.1403  0.5529  0.0422
    7MPD2    H114256   3.467   2.998  11.738  0.2404 -0.4632 -1.5647
    7MPD2    H214257   3.652   3.162  11.393  0.0029  0.7706 -1.0001
    7MPD2    H314258   3.628   2.994  11.556 -1.5233 -0.6085 -1.0368
    7MPD2     N14259   3.283   3.175  11.777  0.8927 -0.5783 -0.3761
    7MPD2    H514260   3.275   3.099  11.843  0.8415 -0.4730 -0.2605
    7MPD2    N114261   3.503   3.395  11.384 -0.3288 -0.7214  0.2932
    7MPD2    H714262   3.569   3.375  11.310 -0.0845  2.6228 -0.3616
    8TMC3    C114263   3.438   3.595  11.272 -0.4085 -0.8626  0.0199
    8TMC3    C214264   3.509   3.543  11.165  0.2457  0.2684  0.4086
    8TMC3    C314265   3.458   3.577  11.043 -0.2752  0.6595 -0.3176
    8TMC3    C414266   3.324   3.669  11.246 -1.0951 -0.5521  0.5233
    8TMC3    C514267   3.267   3.677  11.127  0.4950  0.2450  0.2818
    8TMC3    C614268   3.341   3.643  11.015  0.3291 -0.0335  0.3039
    8TMC3     C14269   3.427   3.513  11.390 -0.4189 -0.0391 -0.7958
    8TMC3     O14270   3.333   3.544  11.467 -0.2501 -0.2181  0.5109
    8TMC3     H14271   3.587   3.470  11.185 -1.8419 -2.4765 -1.4280
    8TMC3    H114272   3.281   3.724  11.329 -0.8780  0.5589 -0.0899
    8TMC3    H214273   3.302   3.645  10.914 -1.1180 -0.8397  0.8405
    8TMC3    C714274   3.134   3.613  11.121  0.4040  0.7715 -0.5735
    8TMC3    C814275   3.538   3.535  10.930  0.0149  0.1099  0.4141
    8TMC3    O114276   3.060   3.631  11.026  0.1775  0.0694  0.1482
    8TMC3    O214277   3.481   3.508  10.824 -0.5733  0.2965 -0.2473
    9MPD2     C14278   3.888   3.443  10.958 -0.0534  0.2950  0.1137
    9MPD2    C114279   3.772   3.464  10.893  0.1667 -0.6260  0.1953
    9MPD2    C214280   3.756   3.430  10.754 -0.5812  0.5082 -0.3122
    9MPD2    C314281   3.867   3.376  10.697  0.4139 -0.9934 -0.4068
    9MPD2    C414282   3.989   3.369  10.764 -0.5088 -0.8026  0.5394
    9MPD2    C514283   4.000   3.400  10.894 -0.8091 -0.6957  0.2561
    9MPD2     H14284   3.665   3.449  10.698 -2.1922 -1.7311  1.5151
    9MPD2    H114285   4.080   3.326  10.721 -1.4006 -1.3729 -0.7965
    9MPD2    H214286   3.901   3.477  11.061  1.0925  2.2456 -0.6731
    9MPD2    H314287   4.090   3.377  10.950 -0.6568 -0.9869 -0.1065
    9MPD2     N14288   3.873   3.324  10.562  0.0745  1.0204 -0.0301
    9MPD2    H514289   3.966   3.295  10.533 -1.0688 -1.4404 -1.2078
    9MPD2    N114290   3.672   3.511  10.976  0.1975 -0.2821 -0.1640
    9MPD2    H714291   3.704   3.538  11.069  0.2781 -0.8764 -0.0204
    1MPD1     C14292   3.179   3.393  16.763  0.4587  0.1842  1.0317
    1MPD1    C114293   3.196   3.304  16.865  0.2045 -0.2464  0.4857
    1MPD1    C214294   3.159   3.168  16.862 -0.3603  0.1765 -0.0946
    1MPD1    C314295   3.092   3.126  16.744 -0.1578  0.0750 -0.4490
    1MPD1    C414296   3.068   3.214  16.646 -0.2549  0.1240  0.4142
    1MPD1    C514297   3.114   3.344  16.659  0.5743 -0.0004 -0.6279
    1MPD1     H14298   3.166   3.101  16.947  0.4123  0.9958  0.4820
    1MPD1    H114299   3.035   3.171  16.552  0.6042  0.7255 -0.1697
    1MPD1    H214300   3.219   3.493  16.755  1.1198 -0.3236 -1.9020
    1MPD1    H314301   3.115   3.416  16.578 -0.0304 -1.1730 -1.6595
    1MPD1     N14302   3.055   2.995  16.718 -0.3807 -0.1080 -0.0636
    1MPD1    H514303   3.010   2.981  16.628 -1.2789 -0.2582  0.4109
    1MPD1    N114304   3.262   3.348  16.982 -0.3065  0.2128  0.3510
    1MPD1    H614305   3.284   3.270  17.043 -1.4354  1.2900  2.1438
    1MPD1    H714306   3.349   3.396  16.958  0.3111 -2.2572 -2.4070
    2TMC2    C114307   2.946   2.629  16.568 -0.1679 -0.5085  0.5574
    2TMC2    C214308   2.929   2.518  16.643 -0.1180 -0.0870 -0.1916
    2TMC2    C314309   2.962   2.526  16.777  0.0030 -0.3307  0.1282
    2TMC2    C414310   2.989   2.751  16.619 -0.4402 -0.1842 -0.6310
    2TMC2    C514311   3.017   2.759  16.753  0.6682 -0.0007 -0.0604
    2TMC2    C614312   3.008   2.646  16.832  0.5935  0.2612  0.1507
    2TMC2     C14313   2.942   2.626  16.425 -0.4357 -0.8801  0.1933
    2TMC2     O14314   3.029   2.692  16.368  0.3146  0.0366 -0.2466
    2TMC2     H14315   2.882   2.428  16.605  0.9854 -1.0514  0.7179
    2TMC2    H114316   2.996   2.832  16.547  2.9756  0.3719  0.3179
    2TMC2    H214317   3.038   2.658  16.936  0.3634 -0.7029  0.3315
    2TMC2    C714318   3.067   2.886  16.800 -0.2844 -0.1074  0.4204
    2TMC2    C814319   2.958   2.398  16.853  0.6148  0.2548 -0.6657
    2TMC2    O114320   3.113   2.888  16.911  0.6452  0.1083 -0.3636
    2TMC2    O214321   2.970   2.291  16.798  0.2713  0.2942  0.0023
    2TMC2    O514322   3.022   2.433  16.967 -0.2788  0.0939  0.0557
    2TMC2    H514323   2.970   2.505  17.010  0.5721  0.8981 -0.2523
    3MPD1     C14324   2.688   2.556  15.977 -0.1935  0.4934  1.0467
    3MPD1    C114325   2.630   2.479  16.075 -0.7360  0.0259 -0.3029
    3MPD1    C214326   2.668   2.499  16.207 -0.3857 -0.0416  0.3671
    3MPD1    C314327   2.789   2.564  16.241 -0.6896 -0.6413 -0.3032
    3MPD1    C414328   2.852   2.639  16.140  0.5997  0.6458  0.0317
    3MPD1    C514329   2.802   2.631  16.016  0.0059 -0.0332  0.2051
    3MPD1     H14330   2.611   2.455  16.289 -1.3327 -0.6220 -0.6074
    3MPD1    H114331   2.937   2.703  16.161 -0.3501  1.7333  0.5936
    3MPD1    H214332   2.654   2.554  15.875  1.4894 -2.9566  0.5689
    3MPD1    H314333   2.844   2.684  15.932 -1.3082 -0.1961 -0.5674
    3MPD1     N14334   2.829   2.570  16.378 -0.6946 -0.1422 -0.0657
    3MPD1    H514335   2.781   2.513  16.447 -1.3516 -0.1781 -0.5522
    3MPD1    N114336   2.515   2.408  16.035 -0.0354 -0.4717  0.3893
    3MPD1    H614337   2.487   2.325  16.087  1.0240 -1.0465  0.0477
    3MPD1    H714338   2.525   2.374  15.940  1.1127  2.6258 -0.5941
    1TMC1    C114339   0.294   1.100  13.073  0.1529 -0.3982  0.4495
    1TMC1    C214340   0.229   1.164  13.180 -0.9863 -0.6837  0.0255
    1TMC1    C314341   0.095   1.194  13.159  0.2541  0.0160 -0.6031
    1TMC1    C414342   0.225   1.042  12.969  0.2013 -0.6482 -0.0285
    1TMC1    C514343   0.092   1.071  12.950 -0.2172  0.6072  0.3649
    1TMC1    C614344   0.026   1.147  13.041  0.5224  0.5445 -0.0950
    1TMC1     C14345   0.428   1.040  13.102 -0.0909  0.1513 -0.2245
    1TMC1     O14346   0.453   0.938  13.038 -0.4731  1.2694  0.3244
    1TMC1     H14347   0.285   1.203  13.264 -0.2580 -1.6757 -0.0011
    1TMC1    H114348   0.272   0.982  12.892  2.1123  0.3777  0.3374
    1TMC1    H214349   4.660   1.175  13.020  0.3784  1.3844  1.7747
    1TMC1    C714350   0.027   1.018  12.824 -0.2016  0.2742  0.8371
    1TMC1    C814351   0.036   1.309  13.218  0.0378  0.0938 -0.4834
    1TMC1    O114352   0.082   0.935  12.753  0.7673  0.1843 -0.0596
    1TMC1    O214353   4.685   1.374  13.159 -0.0790  0.1284  0.4863
    1TMC1    O314354   4.634   1.050  12.820 -0.4442  0.0573  0.2654
    1TMC1    H314355   4.586   1.121  12.867 -0.0127  0.6490 -0.1801
    1TMC1    O514356   0.079   1.331  13.348 -0.9914 -0.4330  0.3896
    1TMC1    H514357   0.125   1.255  13.389  1.9097  1.6423  0.9275
    2MPD2     C14358   0.692   0.974  13.227 -0.0881 -0.0481 -0.3996
    2MPD2    C114359   0.620   1.091  13.258  0.5614 -0.2386  0.0454
    2MPD2    C214360   0.664   1.164  13.364 -0.2109  0.3098 -0.6450
    2MPD2    C314361   0.784   1.134  13.428  0.2687 -0.2560 -0.4938
    2MPD2    C414362   0.863   1.038  13.377  0.5177  0.4569  0.3814
    2MPD2    C514363   0.810   0.953  13.284 -0.5612  0.3168 -0.2738
    2MPD2     H14364   0.606   1.250  13.395  0.0648 -0.0498  0.8663
    2MPD2    H114365   0.968   1.028  13.403  0.6956 -0.5354 -0.7094
    2MPD2    H214366   0.655   0.903  13.154  0.0790 -0.4617 -0.0860
    2MPD2    H314367   0.882   0.881  13.247 -1.1138 -0.2873 -0.1656
    2MPD2     N14368   0.809   1.201  13.551  0.0694  0.5490  0.3862
    2MPD2    H514369   0.745   1.275  13.580 -2.6230 -2.4489  2.0440
    2MPD2    N114370   0.500   1.118  13.198  0.4104 -0.3402 -0.1940
    2MPD2    H714371   0.461   1.206  13.231 -0.1550 -0.7590  0.2483
    3TCq1    O114372   1.182   1.431  13.955 -0.3958 -0.6843  0.2294
    3TCq1    C114373   1.080   1.387  14.039  0.2648  0.2115  0.3039
    3TCq1    O214374   1.089   1.361  14.158 -0.1027  0.2577  0.1219
    3TCq1    C214375   0.970   1.347  13.953  0.5766 -0.2876  0.3926
    3TCq1    C314376   0.843   1.357  14.004  0.0422  0.0261  0.4253
    3TCq1    C414377   0.742   1.325  13.925 -1.0180  0.0199 -0.2749
    3TCq1    C514378   0.766   1.258  13.807 -0.6770 -1.1922 -0.2593
    3TCq1    C614379   0.893   1.240  13.769 -0.3725  1.1375  0.5572
    3TCq1    C714380   0.999   1.286  13.838 -0.0320  0.3485 -0.2700
    3TCq1    C814381   0.919   1.192  13.634  0.4095  0.0089  0.9669
    3TCq1    O414382   1.024   1.139  13.607 -0.2815  0.7155 -0.4349
    3TCq1    C914383   0.601   1.340  13.965  0.2151 -0.2785 -0.1345
    3TCq1    O514384   0.575   1.382  14.077 -0.1888  0.3119 -0.5661
    3TCq1    O614385   0.521   1.349  13.863 -0.1126  0.0604 -0.3253
    3TCq1    H114386   1.144   1.476  13.876  2.4250 -0.0161 -0.7529
    3TCq1    H214387   0.823   1.410  14.097  2.0236  1.2611  0.1530
    3TCq1    H314388   0.685   1.211  13.753 -0.1241 -0.6137 -1.6037
    3TCq1    H414389   1.098   1.260  13.805  0.6572  0.8239  1.4384
    1MPD2     C14390   0.584   2.728  14.985 -0.3292 -0.4647  0.0268
    1MPD2    C114391   0.500   2.622  14.948 -0.0035 -0.5608 -1.3255
    1MPD2    C214392   0.552   2.494  14.960 -0.4881 -0.2002  0.2619
    1MPD2    C314393   0.669   2.465  15.024 -0.6532  0.3817 -0.6128
    1MPD2    C414394   0.741   2.571  15.071  0.1792  0.3244 -0.3179
    1MPD2    C514395   0.708   2.702  15.046  0.4345  0.2198  0.3573
    1MPD2     H14396   0.501   2.405  14.926 -0.3258 -0.8201  1.6431
    1MPD2    H114397   0.829   2.550  15.130 -1.2607  0.8688  2.0156
    1MPD2    H214398   0.551   2.831  14.982  0.9328 -0.0828 -0.6579
    1MPD2    H314399   0.762   2.787  15.088 -0.6428  0.7539  0.6723
    1MPD2     N14400   0.698   2.334  15.054  0.2374  0.9824  0.0378
    1MPD2    H514401   0.638   2.258  15.026 -0.9570  0.2981  4.4441
    1MPD2    N114402   0.368   2.650  14.896  0.2803  0.2590 -0.1309
    1MPD2    H714403   0.354   2.746  14.865 -0.1124 -0.4308 -2.1235
    2TMC3    C114404   0.153   2.582  14.805 -0.1844 -0.7260 -0.2019
    2TMC3    C214405   0.051   2.491  14.821 -0.2777 -0.0575 -0.0726
    2TMC3    C314406   4.726   2.438  14.710  0.6125 -0.2465  0.3825
    2TMC3    C414407   0.178   2.650  14.691  0.0930  0.5798  0.2099
    2TMC3    C514408   0.114   2.595  14.586 -0.7232 -0.8886  0.5058
    2TMC3    C614409   0.020   2.496  14.588 -0.9024  0.2971 -0.1100
    2TMC3     C14410   0.266   2.557  14.896  0.3100 -1.0462  0.1958
    2TMC3     O14411   0.261   2.443  14.945  0.1898  0.2137  0.0452
    2TMC3     H14412   0.021   2.442  14.913 -2.0615  0.1552 -0.5410
    2TMC3    H114413   0.245   2.735  14.687  1.0985 -0.2370 -0.2740
    2TMC3    H214414   4.728   2.455  14.491  1.7288  1.6855 -1.4887
    2TMC3    C714415   0.152   2.639  14.451 -0.2869 -0.4929  0.0637
    2TMC3    C814416   4.725   2.297  14.711 -0.7793 -0.4683  0.1177
    2TMC3    O114417   0.074   2.611  14.358 -0.1089 -0.5511 -0.0822
    2TMC3    O214418   4.650   2.238  14.634 -0.1955 -0.1416 -0.1981
    3TCq1    O114419   1.001   3.498  14.204 -0.0264  0.1673  0.2610
    3TCq1    C114420   0.911   3.429  14.132  0.0532  0.4157 -0.0813
    3TCq1    O214421   0.876   3.453  14.017  0.3179 -0.2087 -0.4895
    3TCq1    C214422   0.874   3.310  14.210 -0.1608  0.0930  0.1991
    3TCq1    C314423   0.862   3.327  14.347  0.2152 -0.0967  0.0522
    3TCq1    C414424   0.829   3.216  14.420 -0.5143 -0.0509 -0.2060
    3TCq1    C514425   0.804   3.093  14.360 -0.3331  0.3720  1.1146
    3TCq1    C614426   0.810   3.086  14.222 -0.3522 -0.1134  0.2001
    3TCq1    C714427   0.850   3.195  14.147  0.3286 -0.3041  0.1945
    3TCq1    C814428   0.715   3.001  14.158 -0.9739  0.1487  0.3169
    3TCq1    O414429   0.709   3.000  14.038  0.1803 -0.1247  0.6989
    3TCq1    C914430   0.805   3.236  14.561 -0.5548 -0.1116 -0.4965
    3TCq1    O514431   0.745   3.142  14.619 -0.2954 -0.4662 -0.6853
    3TCq1    O614432   0.827   3.346  14.618 -0.0589 -0.1680  0.2021
    3TCq1    H114433   1.010   3.463  14.295  1.0698 -0.0282  0.0701
    3TCq1    H214434   0.875   3.421  14.401 -0.3973 -0.4677  0.8374
    3TCq1    H314435   0.800   3.005  14.424  4.5480 -0.2686  0.5630
    3TCq1    H414436   0.855   3.182  14.040 -0.5701  1.8669 -0.1095
    4MPD2     C14437   0.472   2.838  14.108  0.2422  0.8995  0.4390
    4MPD2    C114438   0.513   2.874  14.238  0.1337  0.7626  0.1205
    4MPD2    C214439   0.442   2.839  14.348  0.4934 -0.0067 -0.4413
    4MPD2    C314440   0.333   2.758  14.331  0.4120  0.3175 -0.0804
    4MPD2    C414441   0.282   2.732  14.199 -0.5529  0.6657 -0.2911
    4MPD2    C514442   0.349   2.780  14.089 -0.0858  0.0643 -0.0333
    4MPD2     H14443   0.462   2.865  14.452  1.6696  1.3297 -1.0068
    4MPD2    H114444   0.193   2.677  14.171 -1.9919  2.7352  0.1556
    4MPD2    H214445   0.540   2.850  14.024 -1.6300 -0.6645 -1.3231
    4MPD2    H314446   0.322   2.748  13.989  1.6195  0.3043 -0.5790
    4MPD2     N14447   0.269   2.706  14.446 -0.3674  0.2502  0.1364
    4MPD2    H514448   0.322   2.721  14.531 -1.2359  1.4611  0.4558
    4MPD2    N114449   0.635   2.949  14.255  0.5690 -0.0109  0.2077
    4MPD2    H714450   0.666   2.975  14.348 -0.7140  1.3981  0.2549
    5TMC2    C114451   0.627   1.994  15.032 -0.5454 -0.6017  0.2199
    5TMC2    C214452   0.576   1.949  15.148 -0.1436  0.7485 -0.0656
    5TMC2    C314453   0.629   1.998  15.263 -0.2732  0.2886 -0.6405
    5TMC2    C414454   0.726   2.089  15.037  1.2512  0.4379  0.2812
    5TMC2    C514455   0.775   2.143  15.153 -0.2735 -0.2011  0.3363
    5TMC2    C614456   0.712   2.107  15.276  0.1793 -0.2477  0.1494
    5TMC2     C14457   0.524   2.025  14.941  0.0456 -0.1889  0.1881
    5TMC2     O14458   0.525   2.144  14.904  0.3081 -0.3032  0.1611
    5TMC2     H14459   0.493   1.880  15.152 -1.1447  1.9971  0.7112
    5TMC2    H114460   0.749   2.127  14.939 -1.3436 -0.8530 -0.8237
    5TMC2    H214461   0.762   2.135  15.369  1.5727  0.7519 -0.8929
    5TMC2    C714462   0.795   2.284  15.136 -0.0350 -0.3748  0.0739
    5TMC2    C814463   0.607   1.903  15.371 -0.0126  0.3179  0.0463
    5TMC2    O114464   0.872   2.339  15.217  0.5944 -0.1850  0.0612
    5TMC2    O214465   0.562   1.790  15.358  0.6770 -0.0197  0.2695
    5TMC2    O514466   0.599   1.972  15.489  0.3375 -0.3752  0.6035
    5TMC2    H514467   0.603   2.070  15.478  1.1674 -0.3008  1.5583
    6MPD2     C14468   0.067   2.020  14.742  0.0298 -0.4957 -1.4461
    6MPD2    C114469   0.135   2.118  14.807  0.4066  0.7581  0.3805
    6MPD2    C214470   0.244   2.084  14.879  0.3347  0.0753  0.0391
    6MPD2    C314471   0.305   1.959  14.866  0.1379 -0.4282 -0.1039
    6MPD2    C414472   0.238   1.862  14.798 -0.6736  0.1488 -0.0191
    6MPD2    C514473   0.113   1.892  14.751  0.3823 -0.1552  0.0275
    6MPD2     H14474   0.296   2.160  14.936  0.8466  0.6180 -1.1517
    6MPD2    H114475   0.276   1.768  14.761  0.8029  0.6205  0.2805
    6MPD2    H214476   4.711   2.036  14.688 -0.5861 -0.2971 -0.3209
    6MPD2    H314477   0.059   1.819  14.693 -0.4893 -0.0903  0.7634
    6MPD2     N14478   0.428   1.930  14.928  0.0275 -0.4494 -0.4471
    6MPD2    H514479   0.448   1.831  14.938  1.0446  0.0215  2.2426
    6MPD2    N114480   0.100   2.253  14.791  0.2436 -0.8988 -0.2775
    6MPD2    H714481   0.154   2.322  14.843 -0.4888  0.8270 -1.8019
  945NH3     N114482   4.427   2.088  16.917  0.2043  0.2978 -0.2934
  945NH3     H214483   4.410   2.129  17.008  0.4224  1.0050 -0.5681
  945NH3     H314484   4.366   2.009  16.902  1.8485 -1.3036  1.5281
  945NH3     H414485   4.381   2.157  16.859  0.6808 -0.3228 -1.4040
  946SOD     NA14486   3.743   1.003  16.456  0.1151 -0.0786 -0.1816
  947SOD     NA14487   0.391   4.421  12.997  0.3568  0.0929 -0.1551
  948SOD     NA14488   0.449   4.183   7.841  0.6049  0.2106 -0.4728
  949SOD     NA14489   2.336   0.335  12.956 -0.3017  0.6950 -0.1391
  950SOD     NA14490   0.807   3.443   2.939 -0.1889  0.4919 -0.0473
  951SOD     NA14491   2.043   2.839  12.123  0.4610 -0.0508 -0.3175
  952SOD     NA14492   1.531   2.628  15.164  0.6442 -0.3123 -0.0855
  953SOD     NA14493   1.284   0.061  17.072 -0.2687 -0.4044 -0.1055
  954SOL     OW14494   1.361   0.349   0.190  0.0833 -0.7166  0.0216
  954SOL    HW114495   1.366   0.371   0.097 -0.8668  1.1634  0.4242
  954SOL    HW214496   1.427   0.412   0.220  1.4212 -2.3514  0.5077
  955SOL     OW14497   2.014   3.761   5.976  0.4458 -0.0560  0.0412
  955SOL    HW114498   1.923   3.734   5.976 -0.4778  2.9225 -3.0585
  955SOL    HW214499   1.994   3.850   6.005 -0.3396 -0.4555  0.7106
  956SOL     OW14500   2.426   4.500   6.118  0.3525 -0.5601 -0.2668
  956SOL    HW114501   2.423   4.426   6.178  1.5320 -1.2291 -1.0318
  956SOL    HW214502   2.522   4.508   6.121  0.2905 -0.1700  0.6949
  957SOL     OW14503   4.269   1.008   9.513 -0.4889  0.6698  0.1418
  957SOL    HW114504   4.343   1.034   9.458 -1.4235  0.8325 -1.0313
  957SOL    HW214505   4.283   0.914   9.508  0.1742  0.6760  1.7106
  958SOL     OW14506   3.772   2.254   5.287  0.5617  0.1858  0.0079
  958SOL    HW114507   3.750   2.214   5.202  2.2069 -0.8172  0.0592
  958SOL    HW214508   3.868   2.257   5.285  0.5772  0.3073  0.9371
  959SOL     OW14509   1.000   3.336   3.832 -0.3003  0.3227 -0.1156
  959SOL    HW114510   0.985   3.241   3.834  0.9460  0.1448  0.5335
  959SOL    HW214511   1.054   3.339   3.912  1.6934  3.4700 -1.5797
  960SOL     OW14512   1.987   0.801   0.877  0.3295 -0.3756  0.2992
  960SOL    HW114513   2.076   0.784   0.847  1.7179 -0.3795  4.3544
  960SOL    HW214514   1.936   0.723   0.854  0.0321  0.4708 -1.8391
  961SOL     OW14515   3.640   1.778  15.791 -0.0327  0.4803 -0.0315
  961SOL    HW114516   3.582   1.835  15.740 -0.4942 -0.6652 -0.7937
  961SOL    HW214517   3.572   1.736  15.844  0.6750  0.9009  1.2111
  962SOL     OW14518   3.781   2.199  16.956 -0.1253  0.6328  0.2209
  962SOL    HW114519   3.805   2.251  16.879  0.7220 -0.0260  0.0235
  962SOL    HW214520   3.713   2.250  16.999  3.3074  3.2777  2.5299
  963SOL     OW14521   3.961   2.173  17.174 -0.1153  0.3689 -0.2738
  963SOL    HW114522   3.985   2.083  17.153  2.4906  1.2382 -0.9864
  963SOL    HW214523   3.880   2.185  17.124  0.1710  3.8323  0.0774
  964SOL     OW14524   4.501   2.860  12.020  0.4054 -0.6459  0.2499
  964SOL    HW114525   4.581   2.892  11.977  0.3645  0.5105  1.0266
  964SOL    HW214526   4.532   2.817  12.100 -1.5884 -1.0120  0.8251
  965SOL     OW14527   1.601   1.360  14.925 -0.0401  0.2126 -0.3806
  965SOL    HW114528   1.661   1.377  14.852  0.3997  1.7642  0.3430
  965SOL    HW214529   1.564   1.282  14.884  1.5694 -0.7949  0.0517
  966SOL     OW14530   0.562   3.199   2.676  0.6010 -0.1355  0.7704
  966SOL    HW114531   0.565   3.253   2.597 -1.4543  2.2234  2.3186
  966SOL    HW214532   0.479   3.224   2.716 -0.5836 -2.7900  0.0441
  967SOL     OW14533   0.830   4.515  17.341 -0.2736 -0.7361 -0.0284
  967SOL    HW114534   0.861   4.425  17.350  1.1646 -0.5014 -2.4607
  967SOL    HW214535   0.911   4.554  17.308  1.3185 -3.0229  1.1839
  968SOL     OW14536   3.328   1.933   8.368 -0.2256  0.3146  0.0183
  968SOL    HW114537   3.354   1.948   8.459 -1.8916 -0.2576  0.5875
  968SOL    HW214538   3.412   1.921   8.324 -0.3462 -1.1716  0.2128
  969SOL     OW14539   2.877   0.123   1.677  0.4212 -0.1366  0.0321
  969SOL    HW114540   2.947   0.087   1.732 -1.2694 -3.3501  0.0579
  969SOL    HW214541   2.800   0.085   1.719  1.6563 -1.0342  1.5276
  970SOL     OW14542   1.599   2.378   0.891 -0.1579  0.8957  0.0381
  970SOL    HW114543   1.584   2.438   0.819  1.0858  2.8866  1.4336
  970SOL    HW214544   1.524   2.319   0.889  2.1611 -1.9640 -2.5819
  971SOL     OW14545   1.621   1.646  12.180 -0.2348 -0.4512  0.3272
  971SOL    HW114546   1.629   1.685  12.093  0.8047 -1.1420  0.1037
  971SOL    HW214547   1.593   1.557  12.157 -1.3502 -0.8508  3.1831
  972SOL     OW14548   0.049   2.248   5.327  0.5496  0.2882 -0.4904
  972SOL    HW114549   0.059   2.287   5.240  3.0434  1.3104  0.2636
  972SOL    HW214550   4.719   2.184   5.302  0.2917  1.1005 -1.8870
  973SOL     OW14551   4.134   1.464   7.868 -0.1757  0.5139  0.7802
  973SOL    HW114552   4.132   1.541   7.811 -0.2414  0.2987  0.4863
  973SOL    HW214553   4.224   1.452   7.900 -0.0525  1.9511  0.9879
  974SOL     OW14554   3.744   3.443   7.663 -0.2484  0.1342 -0.2609
  974SOL    HW114555   3.678   3.503   7.627  0.0085  1.2360  1.1083
  974SOL    HW214556   3.735   3.463   7.756 -0.0233 -1.0528  0.0091
  975SOL     OW14557   1.897   2.311   6.507  0.0903 -0.5123  0.4160
  975SOL    HW114558   1.932   2.272   6.587  0.2806 -0.1773  0.4929
  975SOL    HW214559   1.972   2.349   6.462 -1.1732  0.4774 -0.8513
  976SOL     OW14560   0.775   2.830  17.696  0.0323  0.7936  0.7240
  976SOL    HW114561   0.759   2.881  17.616 -0.7093  0.4467  0.6529
  976SOL    HW214562   0.761   2.744  17.656 -0.2664  1.0109  0.3496
  977SOL     OW14563   3.081   0.966   0.566  0.1430  0.3119 -0.3277
  977SOL    HW114564   2.993   0.933   0.549 -0.5456  1.3693  1.1790
  977SOL    HW214565   3.116   0.893   0.617 -0.3397  0.5193  0.3173
  978SOL     OW14566   3.194   1.284  15.765  0.0992 -0.2547  0.0622
  978SOL    HW114567   3.208   1.367  15.809 -0.7286 -0.6093  0.9845
  978SOL    HW214568   3.244   1.223  15.820  1.1133 -1.2750 -1.9811
  979SOL     OW14569   2.429   3.477   9.572 -0.3471 -0.1952  0.3665
  979SOL    HW114570   2.492   3.447   9.507  0.1495 -0.5886  1.0283
  979SOL    HW214571   2.494   3.491   9.641  0.4245  0.2690 -0.4599
  980SOL     OW14572   1.784   1.900   2.072 -0.1718 -0.1743 -0.1034
  980SOL    HW114573   1.716   1.947   2.120  0.2333  0.7706 -0.4542
  980SOL    HW214574   1.861   1.957   2.067 -0.4079  0.1192 -0.3460
  981SOL     OW14575   3.427   1.575  12.151 -0.5900  0.1815 -0.3697
  981SOL    HW114576   3.436   1.659  12.105  2.0956  0.8889  1.4221
  981SOL    HW214577   3.508   1.562  12.201 -0.6399  1.3144  0.0115
  982SOL     OW14578   2.915   2.740   8.355  0.3036  0.2094 -0.3338
  982SOL    HW114579   2.943   2.649   8.367  0.7060  0.5112  1.0350
  982SOL    HW214580   2.832   2.732   8.308  0.5440  0.2720 -0.7675
  983SOL     OW14581   2.340   0.664   5.321 -0.4396  0.1389 -0.2851
  983SOL    HW114582   2.246   0.656   5.333 -0.3538 -0.6257 -0.1381
  983SOL    HW214583   2.360   0.745   5.370  0.7790  0.9529 -2.1374
  984SOL     OW14584   0.223   2.902   1.128  0.9583  0.0218  0.3978
  984SOL    HW114585   0.184   2.873   1.211  0.7742 -1.2585 -0.1469
  984SOL    HW214586   0.148   2.879   1.073 -0.5135  0.0617  2.3732
  985SOL     OW14587   1.476   4.424   6.891  0.3432 -0.8081 -0.3597
  985SOL    HW114588   1.405   4.487   6.888  3.0422  2.1273 -2.4879
  985SOL    HW214589   1.465   4.385   6.805 -0.9556  0.6816 -0.8717
  986SOL     OW14590   2.427   2.894   7.300 -0.1235  0.2446 -0.3029
  986SOL    HW114591   2.348   2.844   7.321  0.1897 -0.0166  0.2435
  986SOL    HW214592   2.424   2.938   7.385  0.8921 -0.8791  0.3184
  987SOL     OW14593   3.137   2.335  12.558 -0.5656  0.3078 -0.4572
  987SOL    HW114594   3.089   2.383  12.490  0.6729 -1.1125 -2.3267
  987SOL    HW214595   3.071   2.282  12.603 -1.1585  1.8623  0.4965
  988SOL     OW14596   1.172   3.869   9.256 -0.5114  0.2772 -0.4800
  988SOL    HW114597   1.173   3.807   9.184  0.6484  0.6045 -0.7531
  988SOL    HW214598   1.140   3.943   9.203  0.6298  0.5356 -0.8160
  989SOL     OW14599   3.475   2.721  16.814  0.7379 -0.6536 -0.0886
  989SOL    HW114600   3.447   2.792  16.873  3.2497  1.0754 -0.9649
  989SOL    HW214601   3.544   2.690  16.873 -0.4586 -2.4926  0.3515
  990SOL     OW14602   1.906   0.309   9.286  0.2790  0.1896 -0.6282
  990SOL    HW114603   1.824   0.356   9.274  0.7139  1.7509  2.6126
  990SOL    HW214604   1.876   0.232   9.335 -0.1887 -1.2425 -3.1539
  991SOL     OW14605   4.067   1.414  16.113  0.0080 -0.5256  0.1276
  991SOL    HW114606   4.043   1.411  16.205  0.0144 -0.7519  0.1210
  991SOL    HW214607   4.161   1.394  16.120  0.0509 -0.6999 -0.9605
  992SOL     OW14608   4.498   4.131   2.679 -0.3603 -0.1322 -0.9211
  992SOL    HW114609   4.521   4.201   2.740  0.4642 -1.5662  0.4280
  992SOL    HW214610   4.442   4.175   2.615 -1.2329 -3.2371 -2.3109
  993SOL     OW14611   3.467   2.454   3.550 -0.0512 -0.0254  0.1366
  993SOL    HW114612   3.559   2.479   3.548  0.3283 -1.5339 -0.8771
  993SOL    HW214613   3.418   2.537   3.545 -1.3928 -0.8107  0.2097
  994SOL     OW14614   2.063   0.923   8.505 -0.3932  0.6887 -0.2745
  994SOL    HW114615   2.149   0.936   8.545 -0.3018  2.2399 -0.9594
  994SOL    HW214616   2.012   0.875   8.570  1.6292 -0.6667  0.3024
  995SOL     OW14617   0.864   4.351   3.923  0.2230 -0.0358 -0.0969
  995SOL    HW114618   0.945   4.348   3.871  0.7333  0.3823  0.6728
  995SOL    HW214619   0.840   4.258   3.931 -1.6566  0.8230  3.9278
  996SOL     OW14620   2.649   2.836   5.934 -0.4264 -0.2165 -0.1322
  996SOL    HW114621   2.637   2.931   5.937 -2.4849 -0.4260 -1.5743
  996SOL    HW214622   2.562   2.801   5.916 -0.3905 -1.2108  1.5897
  997SOL     OW14623   1.685   4.367   8.533  0.2229 -0.6639  0.1659
  997SOL    HW114624   1.747   4.404   8.597 -1.0927  1.3985  0.2207
  997SOL    HW214625   1.702   4.273   8.525 -1.1162 -0.7512 -1.4118
  998SOL     OW14626   2.000   3.769   9.319  0.3449 -0.4898 -0.1606
  998SOL    HW114627   1.992   3.861   9.296  0.7044 -0.1444  1.0710
  998SOL    HW214628   2.095   3.765   9.334  0.3609  0.1177 -0.1298
  999SOL     OW14629   0.654   3.142  15.013  0.3618 -0.0592  0.1738
  999SOL    HW114630   0.656   3.222  14.961  0.3700  0.4732  0.9942
  999SOL    HW214631   0.565   3.107  15.011  1.2460 -2.3772  1.2808
 1000SOL     OW14632   1.796   2.760  11.050 -0.2727 -0.8134 -0.0466
 1000SOL    HW114633   1.871   2.794  11.002 -1.5176  0.2249 -1.2329
 1000SOL    HW214634   1.729   2.783  10.986  0.9930  1.8582 -0.4182
 1001SOL     OW14635   0.276   3.513   2.457  0.2438 -0.2235  0.7447
 1001SOL    HW114636   0.280   3.418   2.441 -1.4967 -0.1479 -0.0960
 1001SOL    HW214637   0.320   3.542   2.377 -0.0384 -0.8010  0.3779
 1002SOL     OW14638   0.917   0.382   9.876  0.1775 -0.1013  0.3462
 1002SOL    HW114639   0.876   0.385   9.790 -0.2692  1.7044  0.6284
 1002SOL    HW214640   0.851   0.336   9.928 -0.5194  0.7791  0.2334
 1003SOL     OW14641   3.224   2.849   5.150  0.1756  0.0734 -0.5064
 1003SOL    HW114642   3.223   2.869   5.056  0.5315  0.2576 -0.4687
 1003SOL    HW214643   3.137   2.808   5.153 -0.5823  1.6206 -1.2754
 1004SOL     OW14644   3.064   0.153   3.608 -0.2479 -0.2358  0.0536
 1004SOL    HW114645   3.027   0.111   3.686 -1.4241  1.0844  0.2056
 1004SOL    HW214646   2.980   0.179   3.571  0.4163  1.0348 -0.5457
 1005SOL     OW14647   2.948   4.338  14.159 -0.3934 -0.0821 -0.9324
 1005SOL    HW114648   2.893   4.400  14.111 -0.1786  0.9421  0.1324
 1005SOL    HW214649   2.954   4.387  14.241 -0.1727  0.1007 -1.0575
 1006SOL     OW14650   0.224   3.001   5.273  0.1683  0.1764 -0.3871
 1006SOL    HW114651   0.309   3.014   5.314  0.8351 -1.7891 -1.1368
 1006SOL    HW214652   0.195   3.093   5.268 -1.9814 -0.4348  0.8491
 1007SOL     OW14653   2.725   0.569   7.420  0.5178  0.4530 -0.9022
 1007SOL    HW114654   2.704   0.627   7.346  1.8914  2.6545  0.4203
 1007SOL    HW214655   2.765   0.496   7.374  0.5096 -0.9537  1.3717
 1008SOL     OW14656   3.467   0.104  12.299  0.0384 -0.2646 -0.0407
 1008SOL    HW114657   3.424   0.170  12.353  0.6584  0.7280 -0.7538
 1008SOL    HW214658   3.406   0.032  12.313 -1.3308  1.5640  3.4610
 1009SOL     OW14659   3.446   0.029   5.845 -0.0713 -0.0997 -0.1558
 1009SOL    HW114660   3.479   4.677   5.834 -3.3349 -1.7581  3.7550
 1009SOL    HW214661   3.533   0.070   5.841  0.0965 -0.2311  2.6354
 1010SOL     OW14662   4.181   2.060  13.747 -0.2356  0.2406  0.1549
 1010SOL    HW114663   4.257   2.062  13.688 -0.5745  1.8858 -0.2456
 1010SOL    HW214664   4.115   2.042  13.681  1.3955 -0.6261 -1.2624
 1011SOL     OW14665   3.823   1.397   8.341  0.0917 -0.6090 -0.2626
 1011SOL    HW114666   3.912   1.415   8.371 -1.4608  2.1695  2.7338
 1011SOL    HW214667   3.820   1.301   8.343  2.3181 -0.6517  0.9142
 1012SOL     OW14668   4.060   1.555   8.620 -0.0016 -0.1582  0.2842
 1012SOL    HW114669   4.064   1.495   8.694  2.1024 -0.7972 -0.3576
 1012SOL    HW214670   4.042   1.638   8.663  1.4343  1.0328 -1.4017
 1013SOL     OW14671   1.565   0.344   5.731 -0.3449  0.0642 -0.3948
 1013SOL    HW114672   1.648   0.333   5.684 -0.8714 -4.0705 -0.4286
 1013SOL    HW214673   1.503   0.355   5.659  0.4580  1.5569 -0.8474
 1014SOL     OW14674   0.679   2.763  12.771  0.0874  0.1039  0.0150
 1014SOL    HW114675   0.711   2.674  12.787 -0.5268  0.1485  1.5316
 1014SOL    HW214676   0.607   2.760  12.708  0.6138 -1.5641 -0.5251
 1015SOL     OW14677   3.446   2.204   7.690 -0.3467  0.5161  0.0834
 1015SOL    HW114678   3.479   2.292   7.707 -0.3546  0.4224  0.6053
 1015SOL    HW214679   3.405   2.222   7.606  1.6119  1.2829 -0.7146
 1016SOL     OW14680   0.190   0.412  10.619 -0.3560 -0.5097  0.2010
 1016SOL    HW114681   0.250   0.439  10.549  0.3604 -1.7379  0.3446
 1016SOL    HW214682   0.162   0.495  10.657  0.4925 -0.2055  0.1499
 1017SOL     OW14683   0.880   2.334   0.492 -0.2598  0.1609  0.4687
 1017SOL    HW114684   0.889   2.331   0.587  0.0397 -2.7294  0.3615
 1017SOL    HW214685   0.973   2.337   0.467  0.3173  1.9845  2.8800
 1018SOL     OW14686   3.544   2.327   7.253  0.2776 -0.4107  0.2030
 1018SOL    HW114687   3.503   2.249   7.289  0.4213 -1.0769 -1.0508
 1018SOL    HW214688   3.617   2.307   7.194  1.6051  0.0519  1.6934
 1019SOL     OW14689   1.558   0.959   6.002 -0.3385  0.3290 -0.3643
 1019SOL    HW114690   1.499   1.026   5.968 -1.5648 -0.2571  0.6028
 1019SOL    HW214691   1.498   0.888   6.027 -0.8787 -0.0246 -2.6835
 1020SOL     OW14692   2.884   0.287  16.536 -0.1425  0.3293 -0.4301
 1020SOL    HW114693   2.885   0.380  16.557 -0.0522  0.3575 -0.5623
 1020SOL    HW214694   2.806   0.261  16.587  1.9801 -2.4422  1.4378
 1021SOL     OW14695   3.457   2.263   2.677 -0.1052 -0.2891  0.3185
 1021SOL    HW114696   3.398   2.214   2.734 -2.6440  0.6519 -1.5030
 1021SOL    HW214697   3.489   2.330   2.738 -0.9433 -0.1427  0.6109
 1022SOL     OW14698   3.520   2.880   3.613  0.4956 -0.4181 -0.2547
 1022SOL    HW114699   3.535   2.922   3.698 -2.2826  2.7592 -1.3689
 1022SOL    HW214700   3.426   2.865   3.623  0.3024  0.4180 -0.8316
 1023SOL     OW14701   1.110   1.709   2.037  0.0294 -0.4296 -0.0981
 1023SOL    HW114702   1.152   1.685   1.954 -2.2319  0.7904 -1.5984
 1023SOL    HW214703   1.175   1.676   2.099 -1.5908 -0.3123  1.6769
 1024SOL     OW14704   0.091   2.400   1.519  0.3683 -0.2817  0.1085
 1024SOL    HW114705   0.082   2.428   1.610 -2.3614 -1.2472  0.1534
 1024SOL    HW214706   0.154   2.328   1.519  2.3167  1.4411  3.5548
 1025SOL     OW14707   1.655   1.847   2.583 -0.4786 -0.1521  0.4078
 1025SOL    HW114708   1.651   1.941   2.566 -0.1339 -0.2572 -0.2610
 1025SOL    HW214709   1.732   1.851   2.639  0.1539 -0.8353 -0.4067
 1026SOL     OW14710   1.504   1.742  14.623  0.8112 -0.2546  0.4421
 1026SOL    HW114711   1.426   1.729  14.676  1.0222  0.0386  0.8254
 1026SOL    HW214712   1.470   1.704  14.542 -1.0496  0.3148  0.9516
 1027SOL     OW14713   4.349   4.323   5.454 -0.3029  0.1080 -0.2289
 1027SOL    HW114714   4.285   4.355   5.390  0.7637 -0.2421 -1.4554
 1027SOL    HW214715   4.298   4.247   5.483  1.3686 -0.6374  0.7313
 1028SOL     OW14716   4.039   4.538   9.847 -0.0786  0.0714  0.1254
 1028SOL    HW114717   4.042   4.585   9.930  2.0476  1.1025 -0.5367
 1028SOL    HW214718   3.977   4.473   9.881 -0.1381  0.3282  0.5032
 1029SOL     OW14719   3.702   2.271   1.301  0.1814 -0.3459  0.4812
 1029SOL    HW114720   3.794   2.250   1.287 -0.1678  0.6117 -3.1852
 1029SOL    HW214721   3.704   2.333   1.374 -0.3856  2.4598 -1.9052
 1030SOL     OW14722   4.527   2.834   3.150  0.0240  0.7846  0.9041
 1030SOL    HW114723   4.602   2.808   3.203  0.1973 -0.9594 -0.1675
 1030SOL    HW214724   4.567   2.903   3.097 -0.0743 -1.1399 -1.6744
 1031SOL     OW14725   0.948   2.613   2.960 -0.0286  0.5072  0.2589
 1031SOL    HW114726   0.954   2.661   2.878 -1.9291  0.2521 -0.0138
 1031SOL    HW214727   1.032   2.647   2.992  0.6454 -1.0845  0.1788
 1032SOL     OW14728   4.215   3.071   3.581 -0.0725  0.3887 -0.0186
 1032SOL    HW114729   4.232   2.982   3.611  2.7274  1.1815  0.7396
 1032SOL    HW214730   4.120   3.068   3.587 -0.1134  0.4948 -0.6419
 1033SOL     OW14731   0.203   4.615   6.622 -0.4876  0.2682 -0.4424
 1033SOL    HW114732   0.146   4.666   6.565  0.7772  2.1396 -0.0367
 1033SOL    HW214733   0.172   4.645   6.708 -2.1138  2.6930 -1.9058
 1034SOL     OW14734   4.352   0.983   2.961 -0.0507 -0.2759 -0.5232
 1034SOL    HW114735   4.436   0.938   2.969 -0.1574 -0.3914 -0.0814
 1034SOL    HW214736   4.353   1.022   2.873 -1.5499  1.4914  0.2593
 1035SOL     OW14737   2.098   0.655   0.138  0.7150 -0.4068 -0.2206
 1035SOL    HW114738   2.126   0.611   0.057  1.8697  1.7583 -0.9839
 1035SOL    HW214739   2.138   0.590   0.196 -0.6844 -0.1593  1.0222
 1036SOL     OW14740   3.874   4.235   3.074 -0.2197 -0.5509 -0.0207
 1036SOL    HW114741   3.927   4.184   3.135  0.7804 -0.9913 -1.2718
 1036SOL    HW214742   3.806   4.171   3.053 -0.3286  0.5647 -3.1446
 1037SOL     OW14743   4.614   2.649   2.922 -0.0639 -0.0104  0.4239
 1037SOL    HW114744   4.680   2.667   2.989  2.2825 -0.0269 -1.8749
 1037SOL    HW214745   4.538   2.684   2.968  0.6138 -0.0577  1.5662
 1038SOL     OW14746   3.181   4.585   4.729 -0.3437 -0.3968  0.2335
 1038SOL    HW114747   3.193   4.648   4.800 -3.1024 -0.8850  1.1256
 1038SOL    HW214748   3.155   4.645   4.660 -1.1681  0.8983  1.6683
 1039SOL     OW14749   1.696   0.970   8.413 -0.1741  0.2005 -0.0629
 1039SOL    HW114750   1.608   0.985   8.380 -0.2339  0.1662  0.0853
 1039SOL    HW214751   1.709   0.882   8.377  1.4430  0.0422  0.9185
 1040SOL     OW14752   2.687   0.814  15.073 -0.4457 -0.3685 -0.0695
 1040SOL    HW114753   2.629   0.848  15.005 -0.6447  0.6200  0.6058
 1040SOL    HW214754   2.773   0.839  15.040  0.3692 -2.2709  0.5864
 1041SOL     OW14755   3.671   0.872  15.180  0.1095  0.0456 -0.6855
 1041SOL    HW114756   3.578   0.850  15.167 -0.3347  0.9198  1.0410
 1041SOL    HW214757   3.701   0.839  15.096  2.6995 -1.0140  0.6521
 1042SOL     OW14758   3.963   0.025   2.996 -0.4006 -0.2896  0.5616
 1042SOL    HW114759   3.969   4.667   2.983 -0.3949 -0.7190  3.7207
 1042SOL    HW214760   3.884   0.050   2.949  1.0671  1.8269 -0.8001
 1043SOL     OW14761   1.241   4.703   5.523 -0.6144 -0.2121 -0.2148
 1043SOL    HW114762   1.296   4.708   5.602  0.4207 -0.0832 -0.9511
 1043SOL    HW214763   1.282   4.624   5.488 -0.6783  0.1528 -1.1023
 1044SOL     OW14764   0.635   3.750   5.623 -0.2094  0.1288  0.4395
 1044SOL    HW114765   0.654   3.677   5.563  0.2368  1.3286 -0.8796
 1044SOL    HW214766   0.651   3.826   5.568 -0.1678  0.4055  0.8376
 1045SOL     OW14767   2.266   0.013   2.850 -0.3268  0.1141 -0.7629
 1045SOL    HW114768   2.270   0.070   2.927 -0.9749 -0.5910 -0.2164
 1045SOL    HW214769   2.335   4.686   2.866  1.0313  1.6325 -0.5785
 1046SOL     OW14770   2.489   2.314  14.723  0.0426  0.0486 -0.0333
 1046SOL    HW114771   2.552   2.267  14.777 -0.9756  0.2277  1.3140
 1046SOL    HW214772   2.542   2.386  14.689  1.8610 -0.5751  1.5266
 1047SOL     OW14773   2.189   2.890   3.187  0.0201 -0.1295  0.1426
 1047SOL    HW114774   2.209   2.908   3.095 -0.3125 -2.9924 -0.5082
 1047SOL    HW214775   2.106   2.842   3.176  0.3192 -0.0157 -2.4633
 1048SOL     OW14776   3.263   0.143   1.739 -0.2381 -0.3175 -0.0119
 1048SOL    HW114777   3.189   0.090   1.770 -0.1015 -0.4483  0.0920
 1048SOL    HW214778   3.221   0.188   1.666 -1.0564  0.8549  1.1778
 1049SOL     OW14779   2.245   2.735   3.623  0.3089  0.1466  0.0249
 1049SOL    HW114780   2.340   2.742   3.616  0.3381 -1.3881 -1.1165
 1049SOL    HW214781   2.227   2.775   3.708  0.7777 -1.9208  1.0887
 1050SOL     OW14782   2.310   3.618  17.156  0.3704 -0.5317 -0.2981
 1050SOL    HW114783   2.329   3.637  17.064 -0.0496  0.6317 -0.1437
 1050SOL    HW214784   2.287   3.706  17.186 -0.2654 -0.5292 -0.7994
 1051SOL     OW14785   0.545   3.224   0.710 -0.1614 -0.1729 -0.2257
 1051SOL    HW114786   0.547   3.129   0.699 -0.7627  0.1376 -3.0700
 1051SOL    HW214787   0.545   3.250   0.618  3.0869  0.5863 -0.0266
 1052SOL     OW14788   4.278   2.477  13.512 -0.6105  0.2179  0.1702
 1052SOL    HW114789   4.252   2.389  13.538  0.6641 -0.0237  0.6362
 1052SOL    HW214790   4.195   2.519  13.536  0.4114  2.4785 -0.1622
 1053SOL     OW14791   2.480   0.433  11.462 -0.1463  0.6708  0.9503
 1053SOL    HW114792   2.503   0.512  11.511  3.1892  0.8126 -0.8711
 1053SOL    HW214793   2.489   0.468  11.373 -1.2026  1.1165  1.0225
 1054SOL     OW14794   3.574   2.028   5.711 -0.0299  0.2140  0.1250
 1054SOL    HW114795   3.590   2.115   5.674 -0.5452  0.6458  0.9194
 1054SOL    HW214796   3.654   1.986   5.680 -0.0909  0.0964  0.1261
 1055SOL     OW14797   1.838   2.006  14.852  0.3906  0.2425  0.2611
 1055SOL    HW114798   1.916   2.011  14.797  0.0170 -0.2407 -0.2958
 1055SOL    HW214799   1.836   1.911  14.864 -0.0221 -0.0966 -2.5595
 1056SOL     OW14800   1.131   0.195   0.913  0.0686 -0.4191  0.1110
 1056SOL    HW114801   1.136   0.231   1.002 -0.0189 -0.3779  0.0995
 1056SOL    HW214802   1.047   0.149   0.908  0.2147 -1.0350  3.0875
 1057SOL     OW14803   0.189   2.827   4.490  0.3452  0.2357 -0.1576
 1057SOL    HW114804   0.271   2.860   4.454  0.1469 -0.6128 -1.4027
 1057SOL    HW214805   0.147   2.904   4.528  3.0588  2.2854 -1.3087
 1058SOL     OW14806   2.746   4.105   2.610 -0.1783 -0.1946 -1.0030
 1058SOL    HW114807   2.718   4.129   2.698 -1.2684 -1.6310 -0.9569
 1058SOL    HW214808   2.684   4.157   2.559  2.1635  1.5072 -2.0975
 1059SOL     OW14809   2.600   3.445   8.331  0.3048 -0.2240 -0.0197
 1059SOL    HW114810   2.662   3.503   8.375  0.0529  1.4843 -1.9493
 1059SOL    HW214811   2.635   3.365   8.371  1.1563 -0.1617 -0.6517
 1060SOL     OW14812   2.963   2.539   7.158 -0.1153  0.0063 -0.6731
 1060SOL    HW114813   2.966   2.558   7.064 -1.1828 -3.1150 -1.3598
 1060SOL    HW214814   3.055   2.547   7.181  0.2416 -1.3033 -1.6236
 1061SOL     OW14815   0.334   3.400   7.251 -0.7769  0.1321 -0.1035
 1061SOL    HW114816   0.280   3.332   7.291  3.3314 -2.0253  1.8818
 1061SOL    HW214817   0.392   3.418   7.324 -0.8075 -1.3467  0.2933
 1062SOL     OW14818   3.333   3.968   9.109  0.3886  0.7928  0.1424
 1062SOL    HW114819   3.406   3.962   9.170 -0.1165  0.6934  0.7321
 1062SOL    HW214820   3.333   3.875   9.089 -1.0179  0.9351 -0.5582
 1063SOL     OW14821   1.190   0.743  15.919 -0.4569 -0.3399  0.2606
 1063SOL    HW114822   1.126   0.734  15.990 -1.4228 -1.4038 -0.7510
 1063SOL    HW214823   1.190   0.838  15.907  1.8837 -0.0752  2.2345
 1064SOL     OW14824   2.692   0.237   2.528  0.1060  0.3961  0.4478
 1064SOL    HW114825   2.598   0.242   2.545  0.1534 -1.9061  1.4682
 1064SOL    HW214826   2.693   0.159   2.472  0.2531  1.5100 -1.1037
 1065SOL     OW14827   1.428   3.425   5.644  0.1434 -0.3558  1.0092
 1065SOL    HW114828   1.504   3.424   5.585  0.0422 -2.3164  0.9005
 1065SOL    HW214829   1.402   3.334   5.629 -1.7764  0.4983 -0.9382
 1066SOL     OW14830   2.852   2.974   8.854  0.1660  0.1986 -0.2538
 1066SOL    HW114831   2.874   2.880   8.859 -1.5991 -0.3531 -2.7388
 1066SOL    HW214832   2.765   2.970   8.894  0.0480  1.0999 -0.4357
 1067SOL     OW14833   0.335   4.696   9.016 -0.3174  0.2990  0.2633
 1067SOL    HW114834   0.280   4.650   8.953 -1.8234 -0.0587  1.8571
 1067SOL    HW214835   0.278   4.700   9.092 -1.1129  0.1987 -0.3300
 1068SOL     OW14836   1.351   2.508   7.498 -0.2077  0.1850  0.0674
 1068SOL    HW114837   1.425   2.477   7.444  0.0508  1.6249 -0.3966
 1068SOL    HW214838   1.294   2.521   7.423  0.5295  1.6264 -0.2456
 1069SOL     OW14839   1.014   2.340   2.938  0.7134 -0.2651  0.1008
 1069SOL    HW114840   0.964   2.422   2.934 -1.4309 -1.5613 -0.0804
 1069SOL    HW214841   0.944   2.281   2.909 -0.3607  2.5187 -2.9826
 1070SOL     OW14842   1.682   1.812   7.823 -0.7008  0.2599 -0.2755
 1070SOL    HW114843   1.670   1.791   7.916 -0.4779  1.4936  0.0353
 1070SOL    HW214844   1.638   1.741   7.778 -1.0352  0.8388 -0.8560
 1071SOL     OW14845   1.064   1.600   8.561 -0.4249 -0.2922  0.6887
 1071SOL    HW114846   1.099   1.598   8.650  2.1894 -1.2724 -0.3780
 1071SOL    HW214847   0.972   1.619   8.578 -0.9010 -2.0672  0.0590
 1072SOL     OW14848   2.777   1.560   2.489 -0.4152  0.1357 -0.3973
 1072SOL    HW114849   2.684   1.549   2.506 -0.1120 -0.5497  0.8103
 1072SOL    HW214850   2.783   1.569   2.394 -0.4859  0.9408 -0.3235
 1073SOL     OW14851   1.980   0.348   2.993 -0.0200 -0.4273 -0.3656
 1073SOL    HW114852   1.988   0.314   3.082  5.1967 -0.0533 -0.7116
 1073SOL    HW214853   1.894   0.320   2.963  0.4108 -1.1360 -0.9300
 1074SOL     OW14854   0.432   1.304   4.761 -0.4161  0.1130  0.2031
 1074SOL    HW114855   0.444   1.343   4.848 -0.1896  0.1081  0.1755
 1074SOL    HW214856   0.469   1.372   4.704  0.5098  0.0814  0.7552
 1075SOL     OW14857   1.065   3.357   2.323 -0.6392 -0.1651  0.5453
 1075SOL    HW114858   1.062   3.312   2.239  0.5683 -1.5337  1.2270
 1075SOL    HW214859   1.099   3.439   2.288 -0.8661 -0.4142 -0.2397
 1076SOL     OW14860   3.354   3.970   1.825  0.5113  0.6543 -0.0262
 1076SOL    HW114861   3.290   3.947   1.758  0.6550 -0.8160  0.3368
 1076SOL    HW214862   3.393   3.884   1.844 -0.8846 -0.0578 -0.3857
 1077SOL     OW14863   1.414   1.792   1.459  0.0432  0.4433 -0.2996
 1077SOL    HW114864   1.338   1.738   1.477 -1.4171  2.2913 -0.9081
 1077SOL    HW214865   1.486   1.763   1.515  1.6309  1.2686 -1.8834
 1078SOL     OW14866   4.082   2.157   6.550  0.4326 -0.1403  0.7097
 1078SOL    HW114867   4.086   2.062   6.561  1.5385 -0.0799  0.8239
 1078SOL    HW214868   4.058   2.191   6.637 -0.7010 -1.8767  1.0665
 1079SOL     OW14869   3.094   1.066   3.006 -0.0187  0.0610 -0.2451
 1079SOL    HW114870   3.074   1.094   2.916  0.1848 -1.5033 -0.7828
 1079SOL    HW214871   3.151   1.135   3.037 -0.7399  0.2799  0.5885
 1080SOL     OW14872   4.523   2.479  10.964  0.6376 -0.1553 -0.9653
 1080SOL    HW114873   4.616   2.456  10.971  1.2054  2.1250 -0.9492
 1080SOL    HW214874   4.521   2.545  11.033  0.8006 -0.3221 -0.8008
 1081SOL     OW14875   2.429   0.536   0.858  0.4268 -0.5629 -0.2679
 1081SOL    HW114876   2.359   0.588   0.818  0.6647 -0.5147 -0.6199
 1081SOL    HW214877   2.507   0.584   0.832  0.9867 -1.3293 -0.0028
 1082SOL     OW14878   1.629   1.601  17.531 -0.1402  0.1070  0.0314
 1082SOL    HW114879   1.604   1.671  17.591 -1.1797  0.9214 -1.3618
 1082SOL    HW214880   1.560   1.537  17.541 -0.3708  0.3984  0.3106
 1083SOL     OW14881   3.798   0.428   5.641  0.2928 -0.2426  0.0799
 1083SOL    HW114882   3.806   0.430   5.737 -1.1215 -1.5497  0.2146
 1083SOL    HW214883   3.704   0.444   5.643  0.0738 -1.3599 -1.9538
 1084SOL     OW14884   2.027   1.494  14.717  0.1452  0.2307  0.3848
 1084SOL    HW114885   1.991   1.547  14.788 -3.5640  1.0190 -2.0720
 1084SOL    HW214886   1.950   1.440  14.698  0.0445 -0.6056  3.2109
 1085SOL     OW14887   0.274   1.597   0.974  0.0637 -0.0118  0.2873
 1085SOL    HW114888   0.265   1.686   1.009 -0.3968 -0.1572  0.5219
 1085SOL    HW214889   0.225   1.597   0.892  0.0445 -0.6990  0.3018
 1086SOL     OW14890   2.020   4.625   4.094  0.1568  0.3833  0.7733
 1086SOL    HW114891   1.971   4.577   4.028 -0.5646 -0.1260  1.6748
 1086SOL    HW214892   1.966   4.603   4.170 -0.2614  0.5939  0.5309
 1087SOL     OW14893   2.330   3.129   3.999  0.1752 -0.1327 -0.1981
 1087SOL    HW114894   2.392   3.201   3.999  1.8790 -1.6054 -0.1268
 1087SOL    HW214895   2.374   3.058   4.046  1.0394 -0.6894 -1.8526
 1088SOL     OW14896   0.687   0.067   7.574 -0.7226 -0.4852 -0.2821
 1088SOL    HW114897   0.742   0.050   7.498 -0.4907  1.6868 -0.6093
 1088SOL    HW214898   0.598   0.081   7.540 -0.9487 -1.6661 -0.1943
 1089SOL     OW14899   2.959   3.382  13.441  0.0409  0.0733 -0.5025
 1089SOL    HW114900   2.882   3.438  13.456 -1.6739 -2.1140 -1.1309
 1089SOL    HW214901   3.014   3.435  13.383  0.3413 -0.2479 -0.5056
 1090SOL     OW14902   3.838   3.110   6.585 -0.3035  0.2475  0.1026
 1090SOL    HW114903   3.879   3.041   6.638 -0.8415 -1.0819 -1.1762
 1090SOL    HW214904   3.846   3.076   6.495 -0.1950  1.8583 -0.4969
 1091SOL     OW14905   0.970   3.014  17.732  0.6523 -0.3945  0.1185
 1091SOL    HW114906   0.944   3.074   0.055  0.8163  0.0173 -0.1795
 1091SOL    HW214907   0.893   2.957  17.734  2.0067 -2.2840 -1.0437
 1092SOL     OW14908   0.462   3.673   5.827  0.3977 -0.8429  0.2194
 1092SOL    HW114909   0.539   3.695   5.775 -0.8230 -0.5059 -1.4767
 1092SOL    HW214910   0.446   3.765   5.848  1.9782 -0.4203 -0.4103
 1093SOL     OW14911   0.184   1.827   4.636 -0.5005  0.5786  0.6298
 1093SOL    HW114912   0.168   1.914   4.600  1.8691  1.3057  1.3786
 1093SOL    HW214913   0.105   1.784   4.602  0.9664 -0.7880 -1.0340
 1094SOL     OW14914   1.826   3.746  10.775  0.8965  0.2216  0.1098
 1094SOL    HW114915   1.878   3.803  10.718 -0.0220  0.5526 -0.3948
 1094SOL    HW214916   1.745   3.729  10.727  0.0098 -0.2885  1.8171
 1095SOL     OW14917   0.450   4.184  12.950 -0.1695  0.3208 -0.3167
 1095SOL    HW114918   0.395   4.106  12.954  0.9452 -0.4598 -0.3675
 1095SOL    HW214919   0.460   4.196  12.856 -2.9254  1.2398 -0.4992
 1096SOL     OW14920   2.393   3.042  15.785  0.2987  0.1150  0.3424
 1096SOL    HW114921   2.459   3.022  15.851 -1.0784 -0.1017  1.6516
 1096SOL    HW214922   2.447   3.092  15.723  0.9068 -0.5987  0.2947
 1097SOL     OW14923   3.805   1.023   7.207 -0.3255 -0.5916  0.1946
 1097SOL    HW114924   3.779   0.980   7.125 -2.0277 -1.3233  1.1074
 1097SOL    HW214925   3.822   0.945   7.260  2.7940 -0.1243 -0.1232
 1098SOL     OW14926   3.784   2.575   3.631  0.0993 -0.0987 -0.8055
 1098SOL    HW114927   3.804   2.483   3.615  0.2019 -0.1175 -0.5731
 1098SOL    HW214928   3.854   2.587   3.696  1.2174 -1.0645 -1.8525
 1099SOL     OW14929   2.308   0.469  10.275 -0.2347 -0.6952  0.2615
 1099SOL    HW114930   2.298   0.439  10.184  0.3424 -0.4104  0.0992
 1099SOL    HW214931   2.386   0.418  10.297  0.1884  0.2965  1.0405
 1100SOL     OW14932   0.278   3.651   6.072  0.1986 -0.6403  0.1322
 1100SOL    HW114933   0.213   3.633   6.005  0.9322 -1.2324 -0.4240
 1100SOL    HW214934   0.355   3.621   6.024 -1.5455 -2.0859 -1.7617
 1101SOL     OW14935   4.479   1.019   3.771  0.1277  0.3733  0.5985
 1101SOL    HW114936   4.427   1.086   3.816 -1.7967 -0.3962 -0.4716
 1101SOL    HW214937   4.533   1.065   3.706 -1.4912 -0.5272 -1.3823
 1102SOL     OW14938   3.145   3.498   3.258 -0.1611 -0.5261 -0.5619
 1102SOL    HW114939   3.069   3.456   3.298  0.7252 -0.2184  1.3953
 1102SOL    HW214940   3.187   3.417   3.229  2.4974  1.1118 -1.2336
 1103SOL     OW14941   2.273   1.275   4.763 -0.3065  0.0934  0.5282
 1103SOL    HW114942   2.198   1.291   4.706 -0.7689  0.3122  1.2015
 1103SOL    HW214943   2.300   1.195   4.717 -0.2203 -0.0995  0.9111
 1104SOL     OW14944   2.552   4.732   4.337 -0.3704  0.1049  0.0114
 1104SOL    HW114945   2.458   0.016   4.332 -0.2754  0.3856 -0.5342
 1104SOL    HW214946   2.559   4.683   4.419 -2.0213  1.5656  1.0575
 1105SOL     OW14947   1.145   4.029   4.448 -0.2833  0.2285  0.0101
 1105SOL    HW114948   1.191   4.074   4.519  0.5059  1.3675 -1.2368
 1105SOL    HW214949   1.051   4.027   4.467  0.0405 -0.3889  1.5607
 1106SOL     OW14950   4.683   0.974   2.665 -0.2413 -0.1038  0.2927
 1106SOL    HW114951   0.031   0.930   2.659 -0.2540  0.0568 -0.9792
 1106SOL    HW214952   4.647   0.936   2.585 -0.3416 -0.3840  0.4688
 1107SOL     OW14953   1.760   1.947   5.518 -0.3049 -0.5222 -0.0739
 1107SOL    HW114954   1.753   2.042   5.512  3.1023 -0.4386 -2.7353
 1107SOL    HW214955   1.795   1.927   5.431  0.5272 -2.5420  0.7077
 1108SOL     OW14956   0.896   1.038   2.350 -0.4221 -0.1896 -0.1131
 1108SOL    HW114957   0.942   0.956   2.332 -2.2677 -0.9780 -1.2818
 1108SOL    HW214958   0.820   1.004   2.397  0.8775  0.1605  2.2651
 1109SOL     OW14959   0.559   1.338   3.434  0.3094  0.6755  0.0834
 1109SOL    HW114960   0.535   1.382   3.516 -0.3642 -1.0299  0.7959
 1109SOL    HW214961   0.655   1.343   3.426  0.2957  0.3496 -0.2741
 1110SOL     OW14962   2.029   2.188  14.038 -0.9099  0.0928  0.1530
 1110SOL    HW114963   2.059   2.214  14.125 -1.5279  0.5140  0.2413
 1110SOL    HW214964   2.036   2.092  14.041  0.0618  0.1590 -0.0938
 1111SOL     OW14965   3.918   1.171   5.091  0.0909 -0.9276 -0.6743
 1111SOL    HW114966   3.908   1.253   5.138 -0.5278 -1.9311  0.9467
 1111SOL    HW214967   3.990   1.120   5.129  1.4578 -0.0792 -2.1073
 1112SOL     OW14968   2.964   1.026   3.864 -0.1740 -0.0490 -0.5038
 1112SOL    HW114969   2.914   0.947   3.842  1.0903 -0.4110 -2.1109
 1112SOL    HW214970   2.928   1.085   3.798  0.9798  1.1456 -0.0610
 1113SOL     OW14971   4.602   3.261   5.363 -0.1921 -0.2243  0.0545
 1113SOL    HW114972   4.569   3.270   5.274  2.0746 -0.1173 -0.7821
 1113SOL    HW214973   4.549   3.326   5.410 -2.1179 -0.2633 -2.0670
 1114SOL     OW14974   4.192   4.169   2.554 -0.0955 -0.0152  1.1666
 1114SOL    HW114975   4.194   4.197   2.463  0.0706 -0.4955  1.0210
 1114SOL    HW214976   4.163   4.249   2.597 -0.3089  1.4853 -1.8003
 1115SOL     OW14977   0.767   1.495   7.853 -0.6695 -0.4329  0.2740
 1115SOL    HW114978   0.749   1.418   7.908 -2.2834 -0.9998 -1.0699
 1115SOL    HW214979   0.862   1.503   7.849 -0.4847 -2.6142  0.1891
 1116SOL     OW14980   4.282   1.159   3.921 -0.1323  0.2047 -0.6290
 1116SOL    HW114981   4.316   1.223   3.984  0.6410  1.0032 -1.8563
 1116SOL    HW214982   4.294   1.081   3.975 -1.1934  0.2286 -0.3688
 1117SOL     OW14983   2.328   2.164   4.378 -0.0193  0.6309 -0.0151
 1117SOL    HW114984   2.270   2.233   4.409  1.9242  2.5373 -0.6134
 1117SOL    HW214985   2.298   2.088   4.427 -0.7710  0.8502 -0.1361
 1118SOL     OW14986   0.655   1.170   0.729 -0.4648  0.3398 -0.5007
 1118SOL    HW114987   0.568   1.185   0.765  0.2692 -0.8627  1.7995
 1118SOL    HW214988   0.712   1.184   0.805 -1.6349  1.5904  0.1436
 1119SOL     OW14989   3.379   0.637   7.464  0.3676  0.1225  0.0010
 1119SOL    HW114990   3.452   0.691   7.494 -0.0857  2.1409 -2.5397
 1119SOL    HW214991   3.320   0.627   7.538 -0.8073 -1.6267 -1.1620
 1120SOL     OW14992   2.159   0.817   9.312  0.2871  0.0717  0.2198
 1120SOL    HW114993   2.150   0.877   9.386 -1.6813  1.9536 -1.5587
 1120SOL    HW214994   2.070   0.785   9.305 -0.1710  1.2609  0.6727
 1121SOL     OW14995   4.531   1.097  15.496 -0.0851  0.0172 -0.3643
 1121SOL    HW114996   4.581   1.162  15.545 -0.4570  1.0479 -1.3449
 1121SOL    HW214997   4.586   1.019  15.501  1.3470  1.0210 -0.3821
 1122SOL     OW14998   1.380   2.774   8.201  0.2344  0.0336  0.2784
 1122SOL    HW114999   1.414   2.716   8.133 -1.3604  0.1581 -0.6196
 1122SOL    HW215000   1.288   2.780   8.175  0.0512 -0.5086  0.7954
 1123SOL     OW15001   2.188   2.829  12.316  0.0138 -0.4732  0.0463
 1123SOL    HW115002   2.253   2.899  12.316 -1.1008  0.5421  2.7942
 1123SOL    HW215003   2.250   2.757  12.302 -0.9108 -1.7494  2.4515
 1124SOL     OW15004   1.543   0.766   2.415  0.0125  0.7302 -0.0020
 1124SOL    HW115005   1.530   0.821   2.492  3.0346 -1.0096  1.7362
 1124SOL    HW215006   1.596   0.813   2.351  0.0697 -0.7643 -1.0599
 1125SOL     OW15007   2.763   2.010   5.624  0.0737 -0.0549 -0.3696
 1125SOL    HW115008   2.828   2.059   5.674 -0.1400  0.5660 -0.7067
 1125SOL    HW215009   2.730   2.070   5.557  0.2525  0.9188  0.4246
 1126SOL     OW15010   3.648   0.453   8.685 -0.5493  0.0033  0.6876
 1126SOL    HW115011   3.621   0.529   8.735 -1.1775 -0.2845  0.7814
 1126SOL    HW215012   3.650   0.384   8.751 -0.4207 -0.6768 -0.0162
 1127SOL     OW15013   2.547   1.326   6.491 -0.1918  0.3613  0.3352
 1127SOL    HW115014   2.475   1.383   6.463 -2.1474 -2.6024 -0.7675
 1127SOL    HW215015   2.586   1.305   6.406 -0.2064  1.7487 -0.0179
 1128SOL     OW15016   4.625   4.285   6.966  0.2408 -1.2144  0.0647
 1128SOL    HW115017   4.586   4.325   6.888 -1.0949 -1.8400  0.4099
 1128SOL    HW215018   4.666   4.361   7.005 -0.0786 -0.5508 -0.8948
 1129SOL     OW15019   4.633   3.906   6.607  0.5366  0.1981 -0.0855
 1129SOL    HW115020   4.722   3.889   6.576  0.0522 -2.2686 -0.1063
 1129SOL    HW215021   4.649   3.941   6.694  0.8022  0.7881 -0.3704
 1130SOL     OW15022   0.345   4.154   8.529  0.7157  0.3610 -0.0514
 1130SOL    HW115023   0.270   4.115   8.485 -0.6891  2.6607  0.3186
 1130SOL    HW215024   0.348   4.095   8.604 -0.3747 -0.0699 -0.3459
 1131SOL     OW15025   3.588   3.472  14.414  0.1701 -0.5421  0.2478
 1131SOL    HW115026   3.672   3.433  14.439  0.2617  0.8923  2.2145
 1131SOL    HW215027   3.590   3.546  14.475  1.0369  0.8091 -1.4262
 1132SOL     OW15028   2.790   2.335   6.902  0.9689  0.0634 -0.0272
 1132SOL    HW115029   2.754   2.416   6.938 -0.2258 -0.1550 -0.7307
 1132SOL    HW215030   2.860   2.375   6.850  1.9172 -2.0364 -0.3578
 1133SOL     OW15031   2.264   2.874  12.022 -0.5270 -0.1420  0.1561
 1133SOL    HW115032   2.241   2.962  12.052 -0.1970 -0.3117  0.9306
 1133SOL    HW215033   2.269   2.893  11.929  0.9199  1.6848  0.6108
 1134SOL     OW15034   0.582   0.262   7.109 -0.5786 -0.4861  0.3017
 1134SOL    HW115035   0.669   0.277   7.072 -1.0123  2.5879  0.5585
 1134SOL    HW215036   0.548   0.180   7.072  2.0536 -2.1341  1.4680
 1135SOL     OW15037   0.220   3.914   1.878 -0.1208  0.3240 -0.1078
 1135SOL    HW115038   0.269   3.922   1.796  1.4887 -0.0081  0.8155
 1135SOL    HW215039   0.134   3.889   1.845  0.1195 -1.4849  0.6612
 1136SOL     OW15040   4.520   3.096   4.095 -0.1037  0.0543  0.0346
 1136SOL    HW115041   4.465   3.074   4.169  1.2557  1.3278  1.4343
 1136SOL    HW215042   4.568   3.014   4.085 -0.7793 -0.0930 -1.8950
 1137SOL     OW15043   0.240   0.208   5.001 -0.6688 -0.2227 -0.0593
 1137SOL    HW115044   0.238   0.140   5.068  4.2352 -2.4618 -2.1840
 1137SOL    HW215045   0.285   0.167   4.927 -0.0744 -0.0675  0.2171
 1138SOL     OW15046   4.475   4.509   2.230  0.2100  0.5861 -0.0231
 1138SOL    HW115047   4.510   4.503   2.141 -0.8198 -1.7888 -0.2647
 1138SOL    HW215048   4.550   4.549   2.273  0.9038 -0.3261 -0.4047
 1139SOL     OW15049   1.648   0.683  13.422 -0.2327 -0.6013  0.5117
 1139SOL    HW115050   1.629   0.598  13.383 -0.9788 -1.0448  1.8636
 1139SOL    HW215051   1.741   0.669  13.439  0.6298  0.8820 -2.7981
 1140SOL     OW15052   2.270   4.127   6.042 -0.6153 -0.0603 -0.3638
 1140SOL    HW115053   2.297   4.053   5.986 -0.0068 -0.2968  0.2368
 1140SOL    HW215054   2.231   4.090   6.121  0.0702  0.5927  0.2846
 1141SOL     OW15055   2.938   1.837   1.337 -0.1643 -0.0225  0.1974
 1141SOL    HW115056   3.031   1.831   1.314 -0.4458  1.0040 -1.2187
 1141SOL    HW215057   2.941   1.766   1.401 -0.5128  1.3206  1.6695
 1142SOL     OW15058   2.834   0.021   7.318  0.4860  0.0933 -0.3730
 1142SOL    HW115059   2.876   4.695   7.376 -1.5470 -0.7820  0.1753
 1142SOL    HW215060   2.746   4.722   7.305  0.0425  1.0134  0.0521
 1143SOL     OW15061   2.341   0.908   6.116 -0.0404  0.0425  0.0840
 1143SOL    HW115062   2.286   0.832   6.096 -2.0620  1.2353  1.2684
 1143SOL    HW215063   2.316   0.943   6.201 -1.3073  0.6356 -0.5364
 1144SOL     OW15064   4.489   3.815   3.890 -0.9964 -0.7930  0.2154
 1144SOL    HW115065   4.571   3.823   3.841 -2.3246 -1.5619 -2.1158
 1144SOL    HW215066   4.425   3.819   3.818 -0.7071 -1.6714 -0.0837
 1145SOL     OW15067   0.670   2.492   0.190 -0.3963 -0.1506 -0.0359
 1145SOL    HW115068   0.704   2.494   0.100  0.1164  0.2239  0.1576
 1145SOL    HW215069   0.717   2.572   0.216  1.3067 -1.1137 -0.1503
 1146SOL     OW15070   1.921   3.724   2.312  0.0469 -0.1572 -0.1173
 1146SOL    HW115071   1.956   3.662   2.247 -2.0115 -0.0860 -1.2651
 1146SOL    HW215072   1.951   3.684   2.394  1.7470  0.8370 -0.2418
 1147SOL     OW15073   3.895   0.842   1.817 -0.1857 -0.1801 -0.2138
 1147SOL    HW115074   3.979   0.796   1.813  0.0676  0.3961 -1.4513
 1147SOL    HW215075   3.845   0.784   1.758 -1.5049 -1.5421  2.2189
 1148SOL     OW15076   2.313   3.785   8.620  0.2097  0.8187  0.0945
 1148SOL    HW115077   2.258   3.775   8.542 -1.4991  1.0744  1.2974
 1148SOL    HW215078   2.391   3.808   8.569  0.0443  0.0514 -0.5185
 1149SOL     OW15079   2.130   0.308   5.514 -0.0150  0.0479 -0.1956
 1149SOL    HW115080   2.202   0.303   5.450 -0.3518  0.4997 -0.6107
 1149SOL    HW215081   2.157   0.239   5.574 -1.6370 -0.6633 -0.2975
 1150SOL     OW15082   1.851   0.374   2.048  0.0194  0.0007 -0.6549
 1150SOL    HW115083   1.811   0.346   2.130  0.5118  0.2102 -0.3448
 1150SOL    HW215084   1.881   0.460   2.075 -0.3714 -0.0088 -0.1890
 1151SOL     OW15085   3.701   1.086  16.649  0.0910 -0.4513 -0.2972
 1151SOL    HW115086   3.676   1.068  16.739  2.1394 -1.4176  0.0753
 1151SOL    HW215087   3.674   1.178  16.652  0.6627 -0.3187  0.6452
 1152SOL     OW15088   0.671   0.058  17.095 -0.2585  0.1623  0.3763
 1152SOL    HW115089   0.664   0.100  17.010 -2.0551 -4.1806 -1.6294
 1152SOL    HW215090   0.719   0.125  17.144 -1.1854  1.6010 -0.7115
 1153SOL     OW15091   0.967   2.157  10.106 -0.2614 -0.3176 -0.4313
 1153SOL    HW115092   0.912   2.181  10.181  1.6358 -0.6881  1.0873
 1153SOL    HW215093   0.974   2.241  10.061 -0.2457 -1.4643 -2.5724
 1154SOL     OW15094   1.938   4.197  12.425  0.0831 -0.3186  0.2941
 1154SOL    HW115095   1.903   4.261  12.363 -0.9668 -0.1434  1.0634
 1154SOL    HW215096   2.030   4.221  12.421 -0.3370  1.1786 -0.1655
 1155SOL     OW15097   1.098   0.831   6.428  0.1141 -0.5583 -0.3252
 1155SOL    HW115098   1.166   0.898   6.433  0.1275 -0.5675 -0.3846
 1155SOL    HW215099   1.035   0.885   6.381  0.3565  0.5936  0.6756
 1156SOL     OW15100   3.953   2.759   7.013 -0.2451 -0.0322  0.9478
 1156SOL    HW115101   4.045   2.764   6.990  0.2439  2.5673  3.4151
 1156SOL    HW215102   3.945   2.819   7.088  0.0197 -0.0006  0.9518
 1157SOL     OW15103   4.168   0.669  13.680 -0.4981 -0.2026  0.7310
 1157SOL    HW115104   4.103   0.615  13.635 -1.3145  2.4193 -1.2352
 1157SOL    HW215105   4.195   0.731  13.612  0.9564 -2.1259 -0.4713
 1158SOL     OW15106   0.986   4.517   8.913  0.6358 -0.4503  0.3656
 1158SOL    HW115107   1.074   4.545   8.935 -0.4779  2.1425  1.4894
 1158SOL    HW215108   0.946   4.596   8.876  1.6704 -0.0315  0.1470
 1159SOL     OW15109   0.872   2.506   8.985 -0.4767 -0.0965  0.0457
 1159SOL    HW115110   0.876   2.411   8.989  1.3324  0.0192  0.6746
 1159SOL    HW215111   0.943   2.538   8.930  0.3520  1.6060  2.0788
 1160SOL     OW15112   4.427   3.785   6.493  0.1102  0.3570 -0.4057
 1160SOL    HW115113   4.395   3.717   6.553 -1.5088  0.8592 -0.7019
 1160SOL    HW215114   4.499   3.826   6.542 -0.0860 -1.8065  1.6829
 1161SOL     OW15115   0.580   1.323   7.331 -0.4373  0.3769 -0.0101
 1161SOL    HW115116   0.658   1.330   7.386  0.2034 -2.1107 -0.5970
 1161SOL    HW215117   0.508   1.357   7.384  0.6974  1.7728  0.6461
 1162SOL     OW15118   4.701   1.107   6.438  0.7522 -0.6242 -0.7467
 1162SOL    HW115119   4.733   1.179   6.492 -1.2926 -0.1241 -0.2256
 1162SOL    HW215120   4.650   1.151   6.371  0.5196 -0.6168 -0.5622
 1163SOL     OW15121   0.527   2.902   2.577 -0.7788 -0.2484 -0.0480
 1163SOL    HW115122   0.603   2.948   2.542 -0.9196  0.0660  0.0573
 1163SOL    HW215123   0.565   2.815   2.589  0.1940  0.1596 -0.1870
 1164SOL     OW15124   0.846   1.968   2.403 -0.4433 -0.2989 -0.2329
 1164SOL    HW115125   0.899   1.984   2.481 -0.9346 -1.1512  0.2796
 1164SOL    HW215126   0.791   1.896   2.435  3.2293 -2.4790  1.2108
 1165SOL     OW15127   3.138   2.305   1.692  0.2503  0.3263  0.0919
 1165SOL    HW115128   3.216   2.252   1.678  0.9272  0.7845  2.0982
 1165SOL    HW215129   3.172   2.393   1.678 -2.8742  1.4917 -0.2186
 1166SOL     OW15130   0.278   1.909   2.385 -0.4480  0.0603  0.7153
 1166SOL    HW115131   0.222   1.851   2.436  0.5552  1.6059  3.5402
 1166SOL    HW215132   0.292   1.971   2.456 -0.2729  1.5367 -0.5997
 1167SOL     OW15133   4.308   3.515   3.394 -0.4515 -0.5375 -0.5855
 1167SOL    HW115134   4.232   3.562   3.360  0.3614  0.6020 -0.8495
 1167SOL    HW215135   4.287   3.502   3.487 -0.2552 -2.3984 -0.8028
 1168SOL     OW15136   1.022   2.889   0.890  0.0916 -0.1908 -0.7642
 1168SOL    HW115137   0.941   2.844   0.867 -1.1856  1.3624  0.6965
 1168SOL    HW215138   0.985   2.975   0.873  1.2138  0.3191 -0.6267
 1169SOL     OW15139   2.420   3.836  12.259 -0.3102  0.1800 -0.4711
 1169SOL    HW115140   2.361   3.909  12.274  0.3200  0.6549 -0.2933
 1169SOL    HW215141   2.459   3.860  12.174  2.4234  0.5938  0.8885
 1170SOL     OW15142   2.537   4.552   1.026  0.4912  0.4669  0.0801
 1170SOL    HW115143   2.581   4.472   1.057  2.0231  1.1622 -0.2936
 1170SOL    HW215144   2.595   4.621   1.057 -0.7829  1.6115 -0.1223
 1171SOL     OW15145   1.956   1.203   2.224  0.2315 -0.2179 -0.4795
 1171SOL    HW115146   2.016   1.259   2.175  1.9719 -2.4907 -0.9370
 1171SOL    HW215147   2.018   1.178   2.293 -0.8030 -2.1048 -0.2285
 1172SOL     OW15148   3.868   0.832   5.537 -0.1813  0.0122 -0.0723
 1172SOL    HW115149   3.793   0.779   5.565  0.2365 -0.4458  0.1683
 1172SOL    HW215150   3.855   0.814   5.444  0.7957  2.4601 -0.6915
 1173SOL     OW15151   0.606   0.097   3.215  0.2578  0.3384 -0.1546
 1173SOL    HW115152   0.653   0.108   3.298  1.0163 -0.9565 -0.3988
 1173SOL    HW215153   0.570   0.009   3.224  0.4813  0.3332  0.6568
 1174SOL     OW15154   3.907   1.540   4.276  0.2500 -0.2414 -0.1788
 1174SOL    HW115155   3.908   1.628   4.313  0.4383 -1.4676  2.7185
 1174SOL    HW215156   3.829   1.552   4.221 -0.5286  4.2823  1.8995
 1175SOL     OW15157   3.864   1.352   6.910 -0.6001  0.2277  0.3517
 1175SOL    HW115158   3.802   1.425   6.922 -1.4676 -0.5996  0.8540
 1175SOL    HW215159   3.855   1.310   6.995 -1.7753  3.4164  1.8018
 1176SOL     OW15160   4.130   2.555   5.147  0.0747  0.0703  0.0391
 1176SOL    HW115161   4.136   2.621   5.216 -0.1611  1.4470 -1.2573
 1176SOL    HW215162   4.170   2.479   5.189  0.6844  0.7347  0.6866
 1177SOL     OW15163   0.306   3.547   0.347  0.1897 -0.5073 -0.5801
 1177SOL    HW115164   0.346   3.633   0.335  0.5419 -0.4278  1.2547
 1177SOL    HW215165   0.211   3.553   0.340  0.3728  1.2466 -1.4427
 1178SOL     OW15166   2.047   1.306   4.601  0.4069 -0.0277  0.4336
 1178SOL    HW115167   1.993   1.381   4.576  0.6138 -0.0563 -0.1057
 1178SOL    HW215168   2.025   1.241   4.534 -0.4086  2.3453 -1.6114
 1179SOL     OW15169   3.277   3.559  16.317  0.1047  0.1145 -0.0042
 1179SOL    HW115170   3.183   3.545  16.322  0.0744  0.4326  0.3238
 1179SOL    HW215171   3.274   3.633  16.257  0.7042  0.6402  0.6086
 1180SOL     OW15172   2.939   1.791  10.404 -0.2480 -0.2030 -0.3942
 1180SOL    HW115173   2.877   1.854  10.441  1.0164  0.8221 -0.0321
 1180SOL    HW215174   2.901   1.766  10.321  0.7410  1.8935 -1.4815
 1181SOL     OW15175   1.756   0.245   4.355  0.0400 -0.5495  0.2376
 1181SOL    HW115176   1.704   0.235   4.435 -1.3867  0.3072 -0.5807
 1181SOL    HW215177   1.844   0.249   4.393 -0.3380 -0.6956  1.1285
 1182SOL     OW15178   0.308   0.202  10.374  0.4210  0.0500  0.1782
 1182SOL    HW115179   0.328   0.255  10.451 -0.5024  2.0331 -0.9604
 1182SOL    HW215180   0.291   0.121  10.421 -0.5981  0.6269  0.8061
 1183SOL     OW15181   1.417   3.365   0.166 -0.8565  0.3871 -0.1773
 1183SOL    HW115182   1.403   3.394   0.256  3.6825  2.3531 -0.0540
 1183SOL    HW215183   1.486   3.425   0.136 -0.8319 -0.7739 -2.4239
 1184SOL     OW15184   4.505   1.532  13.018 -0.0854  0.4934 -0.0849
 1184SOL    HW115185   4.449   1.570  13.086  2.3805 -0.9989  2.7971
 1184SOL    HW215186   4.574   1.499  13.076 -0.4551 -0.7181 -0.3396
 1185SOL     OW15187   1.752   1.384   1.117 -0.2867  0.2631  0.1038
 1185SOL    HW115188   1.789   1.303   1.151 -0.3505 -0.2303 -0.9795
 1185SOL    HW215189   1.823   1.444   1.140  1.1833 -1.1989 -0.6282
 1186SOL     OW15190   1.756   2.648   7.531 -0.0521 -0.3902 -0.5778
 1186SOL    HW115191   1.702   2.674   7.606 -1.2227  0.1780 -1.6142
 1186SOL    HW215192   1.695   2.593   7.481 -0.4783  0.9111 -1.4813
 1187SOL     OW15193   1.987   2.587  11.478 -0.4337  0.6502 -0.3496
 1187SOL    HW115194   2.044   2.656  11.510  0.0289  0.0728  0.0841
 1187SOL    HW215195   1.941   2.632  11.407  1.8908  1.9898 -0.9919
 1188SOL     OW15196   4.334   2.721   4.696 -0.0095  0.2876  0.1267
 1188SOL    HW115197   4.372   2.635   4.715  1.1759  0.8895  0.5491
 1188SOL    HW215198   4.354   2.773   4.775 -1.2564 -1.4269  1.5726
 1189SOL     OW15199   4.066   0.930   4.862 -0.5082  0.7622  0.2337
 1189SOL    HW115200   4.125   0.871   4.909 -0.8548  2.1670  2.4064
 1189SOL    HW215201   3.984   0.933   4.910 -0.1988 -1.0223  0.8818
 1190SOL     OW15202   3.742   3.626   5.104  0.3316  0.2209  1.1461
 1190SOL    HW115203   3.794   3.586   5.034 -0.7727  0.3791  0.2251
 1190SOL    HW215204   3.797   3.696   5.139  0.5523 -0.0989  1.4347
 1191SOL     OW15205   3.314   4.546   7.905 -0.4628  0.4500 -0.7008
 1191SOL    HW115206   3.374   4.536   7.831  0.3247 -0.3071  0.0439
 1191SOL    HW215207   3.355   4.484   7.965 -2.2800 -0.5092 -0.4278
 1192SOL     OW15208   3.902   2.649  10.123  0.2045  0.0612 -0.2376
 1192SOL    HW115209   3.991   2.632  10.092  1.1516  3.4132  0.6177
 1192SOL    HW215210   3.866   2.689  10.044 -3.2547 -3.0969 -0.2551
 1193SOL     OW15211   2.655   2.456  13.955  0.2220 -0.0546 -0.3148
 1193SOL    HW115212   2.594   2.446  13.882  0.2586 -1.9322 -0.0886
 1193SOL    HW215213   2.678   2.365  13.976 -1.0749 -0.4922 -0.8053
 1194SOL     OW15214   0.872   1.533   2.923  0.4247 -0.1654  0.5387
 1194SOL    HW115215   0.855   1.602   2.859  0.0112 -1.4652 -0.7677
 1194SOL    HW215216   0.795   1.537   2.980  0.1690 -1.3237  0.2780
 1195SOL     OW15217   4.238   1.301   2.699  0.5114  0.0844  0.3892
 1195SOL    HW115218   4.183   1.276   2.773  1.1767 -2.4902  0.0156
 1195SOL    HW215219   4.291   1.221   2.694 -0.5747 -0.5289 -1.0758
 1196SOL     OW15220   1.611   4.407   1.470  0.0591 -0.1767  0.3982
 1196SOL    HW115221   1.586   4.466   1.541  1.0360 -0.7675  1.2418
 1196SOL    HW215222   1.570   4.327   1.500 -1.6784  0.3649 -0.5293
 1197SOL     OW15223   2.917   3.050   8.409  0.5282  0.4718 -0.0418
 1197SOL    HW115224   2.924   3.058   8.314 -2.9565  2.9423 -0.1030
 1197SOL    HW215225   2.934   2.956   8.411 -0.1589  0.3583  0.5316
 1198SOL     OW15226   2.221   2.562  13.959  0.8983  0.4932 -0.3214
 1198SOL    HW115227   2.233   2.558  14.054  2.7508  0.5075 -0.5560
 1198SOL    HW215228   2.249   2.473  13.936 -0.8289  0.3769 -1.9844
 1199SOL     OW15229   2.281   0.838  13.866  0.1621  0.1325 -0.5686
 1199SOL    HW115230   2.296   0.777  13.938 -0.6696  0.5072 -0.0755
 1199SOL    HW215231   2.368   0.858  13.833  0.5938 -1.5425 -0.4702
 1200SOL     OW15232   0.153   2.281   4.361  0.1565 -0.2301 -0.2757
 1200SOL    HW115233   0.245   2.296   4.380 -0.1216  1.4823 -0.2609
 1200SOL    HW215234   0.143   2.332   4.280 -1.7567  0.5807  0.4796
 1201SOL     OW15235   3.139   4.079  11.955 -0.0385 -0.5451 -0.4236
 1201SOL    HW115236   3.206   4.088  12.024  0.6859  0.2399 -1.2360
 1201SOL    HW215237   3.150   3.988  11.930  2.6797  0.3114 -2.2824
 1202SOL     OW15238   1.682   3.179   9.213  0.4479 -0.0660  0.3122
 1202SOL    HW115239   1.624   3.124   9.160 -0.6696  2.3306 -0.9471
 1202SOL    HW215240   1.679   3.124   9.291 -1.5932 -1.6057 -0.8413
 1203SOL     OW15241   0.941   4.129   4.964 -0.4475 -0.6353  0.9725
 1203SOL    HW115242   1.034   4.110   4.972  0.0917  0.5951 -2.3784
 1203SOL    HW215243   0.918   4.038   4.983 -0.7315 -0.4132  1.7211
 1204SOL     OW15244   2.374   0.916   8.568 -0.1016 -0.2535 -0.2027
 1204SOL    HW115245   2.432   0.901   8.643 -1.7998  0.2523  1.2102
 1204SOL    HW215246   2.430   0.875   8.501 -1.1230 -1.4923 -0.2955
 1205SOL     OW15247   1.531   2.067  16.065 -0.2733  0.8950 -0.4840
 1205SOL    HW115248   1.500   2.046  16.152  0.0551  0.3769 -0.4944
 1205SOL    HW215249   1.515   1.988  16.014  0.8964 -1.0998  2.2879
 1206SOL     OW15250   2.877   4.236   1.891 -0.2971  0.7334 -0.3642
 1206SOL    HW115251   2.960   4.263   1.930 -0.0937  0.4584 -0.6139
 1206SOL    HW215252   2.825   4.304   1.935 -0.6104  1.5981 -2.0626
 1207SOL     OW15253   0.493   1.805   1.222 -0.1837 -0.0450 -0.3012
 1207SOL    HW115254   0.584   1.791   1.249 -0.7806  0.8605  2.1853
 1207SOL    HW215255   0.446   1.743   1.278 -0.3572 -2.0255 -2.6650
 1208SOL     OW15256   3.107   0.477   2.944  0.0708  0.3174 -0.1252
 1208SOL    HW115257   3.166   0.428   2.887  2.2398 -0.1084  2.4983
 1208SOL    HW215258   3.090   0.557   2.896 -2.2651 -1.0256 -1.5301
 1209SOL     OW15259   2.030   3.452  12.188 -0.6353 -0.1658  0.6665
 1209SOL    HW115260   1.970   3.437  12.262 -0.9124 -1.6135  0.1425
 1209SOL    HW215261   2.076   3.532  12.212 -1.2413  0.9926 -2.0860
 1210SOL     OW15262   4.594   2.990   2.286 -0.2681 -0.5897 -0.0027
 1210SOL    HW115263   4.561   2.993   2.376  0.2029  0.9314  0.1139
 1210SOL    HW215264   4.682   2.953   2.295 -0.4145 -1.2082 -1.1344
 1211SOL     OW15265   1.599   3.601   9.534 -0.6577 -0.5478 -0.3298
 1211SOL    HW115266   1.628   3.510   9.542  0.4363 -0.1302  0.3645
 1211SOL    HW215267   1.650   3.638   9.462  0.7153  0.9553  1.4338
 1212SOL     OW15268   4.599   2.377   6.733  0.4681 -0.2400 -0.1406
 1212SOL    HW115269   4.590   2.472   6.729  0.0116 -0.2229  1.3548
 1212SOL    HW215270   4.607   2.355   6.640 -2.1052  2.6415 -1.0273
 1213SOL     OW15271   0.452   2.701   5.941 -0.9624 -0.6801  0.1405
 1213SOL    HW115272   0.451   2.788   5.903  2.2958 -0.6759  0.0277
 1213SOL    HW215273   0.383   2.707   6.007  0.1186 -1.1230  1.3225
 1214SOL     OW15274   1.772   0.966   6.934 -0.6287 -0.4042  0.1953
 1214SOL    HW115275   1.716   0.944   6.860  0.8479 -0.7490 -0.8305
 1214SOL    HW215276   1.797   0.884   6.977 -1.4440  0.4550  2.3152
 1215SOL     OW15277   3.402   3.117   3.754 -0.0274  0.6532 -0.2623
 1215SOL    HW115278   3.423   3.171   3.679  0.4400 -2.4398 -2.3720
 1215SOL    HW215279   3.338   3.174   3.797  0.8720  1.2973  0.2275
 1216SOL     OW15280   1.671   3.319   1.756  0.0841 -0.7070  0.0412
 1216SOL    HW115281   1.720   3.259   1.700  2.9677  0.7332  1.0058
 1216SOL    HW215282   1.640   3.250   1.814 -0.2762  0.8929  1.7642
 1217SOL     OW15283   1.016   0.298   8.914  0.5843 -0.2255  0.0121
 1217SOL    HW115284   0.953   0.358   8.873  2.1546  2.8832  2.0949
 1217SOL    HW215285   1.088   0.289   8.851 -0.1283  0.2569 -0.8742
 1218SOL     OW15286   3.097   0.153  10.412 -0.1630  0.1477 -0.2940
 1218SOL    HW115287   3.166   0.148  10.478 -0.7739 -0.3147  0.3067
 1218SOL    HW215288   3.055   0.067  10.421  1.8787 -0.6654  1.3874
 1219SOL     OW15289   1.404   0.994   8.355  0.5336  0.5228  0.0150
 1219SOL    HW115290   1.364   0.915   8.317 -1.8905  2.6915 -1.9592
 1219SOL    HW215291   1.382   1.062   8.292  1.8987  0.1131 -0.9092
 1220SOL     OW15292   3.409   3.290   1.443 -0.2309  0.4287 -0.0848
 1220SOL    HW115293   3.392   3.238   1.521 -2.4908 -0.2873 -1.0451
 1220SOL    HW215294   3.427   3.228   1.373 -2.0738 -2.2425  1.7907
 1221SOL     OW15295   3.994   1.162  16.026  0.1352 -0.5792 -0.2964
 1221SOL    HW115296   3.980   1.257  16.031  2.1013 -0.2659 -1.0822
 1221SOL    HW215297   4.017   1.145  16.117 -0.2360  0.0506 -0.0849
 1222SOL     OW15298   4.329   0.210  12.458  0.3198 -0.0519  0.0416
 1222SOL    HW115299   4.372   0.286  12.417 -0.1687  0.1851 -0.0319
 1222SOL    HW215300   4.269   0.187  12.387 -1.6898  0.8808  1.4314
 1223SOL     OW15301   1.407   3.674   9.340 -0.2313 -0.1663 -0.0882
 1223SOL    HW115302   1.354   3.688   9.419  0.3597  0.8562  0.1284
 1223SOL    HW215303   1.483   3.636   9.384 -2.2398 -2.9261  0.9933
 1224SOL     OW15304   0.173   2.983   6.951  0.0298  0.4014 -0.2955
 1224SOL    HW115305   0.229   2.913   6.983 -0.3498  0.7628  1.1548
 1224SOL    HW215306   0.201   3.055   7.008  1.4149  1.6009 -2.4696
 1225SOL     OW15307   4.318   3.540   2.619  0.1911 -0.3992 -0.7622
 1225SOL    HW115308   4.255   3.549   2.691  1.0919 -0.2427  0.0070
 1225SOL    HW215309   4.285   3.599   2.551 -2.5381 -2.1120 -0.9220
 1226SOL     OW15310   1.951   4.424   9.902 -0.0044 -0.1741  0.0346
 1226SOL    HW115311   1.932   4.456   9.814  0.4776  1.1011  0.3890
 1226SOL    HW215312   1.896   4.482   9.955 -0.5648  0.7549 -1.5802
 1227SOL     OW15313   1.309   3.598  12.080 -0.1510  0.0413 -0.6789
 1227SOL    HW115314   1.297   3.651  12.158  0.4694 -1.3206  0.3328
 1227SOL    HW215315   1.402   3.615  12.069 -0.6271  1.9821 -1.6487
 1228SOL     OW15316   2.268   0.107  12.634 -0.1276 -0.1490 -0.2811
 1228SOL    HW115317   2.224   0.056  12.702 -0.2922  2.0390  1.2459
 1228SOL    HW215318   2.228   0.058  12.562  1.4836 -1.6195 -0.1820
 1229SOL     OW15319   1.322   4.280   8.567  0.1228  0.0400 -0.7259
 1229SOL    HW115320   1.397   4.221   8.554 -1.3169 -1.4655 -2.3657
 1229SOL    HW215321   1.243   4.227   8.551 -1.0757  0.9385  2.3659
 1230SOL     OW15322   4.097   4.163   9.764 -0.2038  0.1968  0.2730
 1230SOL    HW115323   4.030   4.115   9.813 -0.1499 -0.2180 -0.0624
 1230SOL    HW215324   4.179   4.137   9.805  0.5560  1.4424 -0.4814
 1231SOL     OW15325   1.879   0.468   6.824 -0.6281  0.1331 -0.6127
 1231SOL    HW115326   1.961   0.458   6.775 -0.1912  0.1044  0.1259
 1231SOL    HW215327   1.905   0.432   6.909  0.0475 -3.0133 -2.1476
 1232SOL     OW15328   0.149   4.011   8.394 -0.3225  0.1164  0.0967
 1232SOL    HW115329   0.185   3.953   8.327 -0.2012 -0.2136  0.4506
 1232SOL    HW215330   0.061   3.972   8.393  0.2387 -1.1438 -0.0308
 1233SOL     OW15331   0.219   1.677   9.926 -0.0860 -0.2875  0.4122
 1233SOL    HW115332   0.131   1.713   9.915 -0.0293  0.0480  1.0351
 1233SOL    HW215333   0.277   1.752   9.911  0.6181 -0.7869  0.6800
 1234SOL     OW15334   0.128   3.052   0.165  0.2104 -0.2485 -0.3827
 1234SOL    HW115335   0.205   3.047   0.108  1.1860 -1.9647  1.1112
 1234SOL    HW215336   0.152   3.000   0.242 -1.6599 -1.3529 -0.5491
 1235SOL     OW15337   2.232   2.703   7.449  0.2400 -0.8866  0.0988
 1235SOL    HW115338   2.262   2.632   7.507 -0.9125 -1.2548  0.2369
 1235SOL    HW215339   2.203   2.765   7.515 -0.3768 -0.3610 -0.6637
 1236SOL     OW15340   0.690   1.272   9.279 -0.1994 -0.2743 -0.0254
 1236SOL    HW115341   0.701   1.213   9.353 -1.2222 -1.9072 -1.1735
 1236SOL    HW215342   0.756   1.255   9.212  0.3078  0.2326  0.3443
 1237SOL     OW15343   0.396   3.253  16.728  1.0194  0.0532  0.1262
 1237SOL    HW115344   0.476   3.226  16.682  2.2442 -1.2951  3.0350
 1237SOL    HW215345   0.419   3.325  16.786  1.1539 -1.1645  1.6000
 1238SOL     OW15346   2.386   2.900   8.050  0.2942  0.0383  0.1619
 1238SOL    HW115347   2.342   2.982   8.070  1.0716  0.2070  1.1740
 1238SOL    HW215348   2.443   2.881   8.124  1.5065  0.5647 -0.6330
 1239SOL     OW15349   2.809   3.031   1.235 -0.2447 -0.1276  0.5187
 1239SOL    HW115350   2.802   3.124   1.216  4.0403  0.0012 -0.2786
 1239SOL    HW215351   2.904   3.024   1.230 -0.4778 -1.7709 -1.4693
 1240SOL     OW15352   3.893   1.662   5.856  0.0817 -0.4456  0.3720
 1240SOL    HW115353   3.862   1.579   5.891 -2.7774  1.5977  2.7406
 1240SOL    HW215354   3.986   1.643   5.849  0.4623  2.2306 -2.0116
 1241SOL     OW15355   4.191   1.187   4.353  0.0222  0.5491  0.3435
 1241SOL    HW115356   4.187   1.211   4.445 -1.0249 -1.3464  0.7879
 1241SOL    HW215357   4.127   1.247   4.315  0.6392  0.5790 -0.6721
 1242SOL     OW15358   1.028   0.127   4.621  0.4757 -0.6428 -0.0462
 1242SOL    HW115359   1.117   0.094   4.634  1.4092  1.0673 -1.9789
 1242SOL    HW215360   1.035   0.177   4.539 -1.6557 -0.5463 -0.1721
 1243SOL     OW15361   2.790   0.558   4.794  0.1469 -0.1552 -0.5081
 1243SOL    HW115362   2.725   0.625   4.770 -0.0650 -0.5296 -0.9872
 1243SOL    HW215363   2.857   0.614   4.832 -0.5526 -0.5480  1.3502
 1244SOL     OW15364   4.178   0.720   1.422 -0.1209  0.0635 -0.0043
 1244SOL    HW115365   4.170   0.815   1.416 -0.6302  0.0216  0.0346
 1244SOL    HW215366   4.139   0.681   1.344  0.5216 -1.9846  0.6963
 1245SOL     OW15367   2.528   3.464   0.521  0.0756 -0.1486 -0.3272
 1245SOL    HW115368   2.564   3.400   0.459 -0.5805  0.7431 -1.6127
 1245SOL    HW215369   2.501   3.401   0.588 -0.7471  2.1800  1.5552
 1246SOL     OW15370   1.685   0.588   5.799  0.3219  0.0294 -0.1285
 1246SOL    HW115371   1.642   0.503   5.791  0.0275  0.1138  0.4904
 1246SOL    HW215372   1.770   0.567   5.837  0.4173  1.2088  0.3054
 1247SOL     OW15373   4.506   4.368  15.629 -0.0795 -0.0201 -0.6457
 1247SOL    HW115374   4.446   4.319  15.573 -0.0068 -0.3147 -0.4660
 1247SOL    HW215375   4.565   4.415  15.569 -0.0972  0.5053 -0.2567
 1248SOL     OW15376   2.143   4.440   1.965 -0.1467  0.0698  0.0112
 1248SOL    HW115377   2.073   4.493   2.003 -0.3569  0.1674 -0.5132
 1248SOL    HW215378   2.136   4.466   1.873  0.0434 -1.9840 -0.5954
 1249SOL     OW15379   0.559   0.761  12.249 -0.6707  0.3731  0.0605
 1249SOL    HW115380   0.479   0.757  12.197 -0.6537  0.9390 -0.0083
 1249SOL    HW215381   0.549   0.696  12.319  1.8215  1.6659  1.6142
 1250SOL     OW15382   1.297   4.184   7.357  0.1658 -0.2023 -0.7206
 1250SOL    HW115383   1.355   4.228   7.295 -0.0340  1.0079 -0.0346
 1250SOL    HW215384   1.359   4.170   7.428 -2.0527 -2.1827  0.8202
 1251SOL     OW15385   2.500   2.365  12.587  0.1404 -0.3046  0.3571
 1251SOL    HW115386   2.489   2.278  12.624  0.5567 -0.2846  0.5263
 1251SOL    HW215387   2.577   2.349  12.532 -0.6510  0.0286 -0.8709
 1252SOL     OW15388   1.263   2.181   2.323  0.0574 -0.0146 -0.2889
 1252SOL    HW115389   1.182   2.187   2.374 -0.0176  0.1046 -0.4219
 1252SOL    HW215390   1.274   2.273   2.298  3.2586 -0.9249 -2.2073
 1253SOL     OW15391   3.555   3.596   7.551  0.2562 -0.0819  0.2744
 1253SOL    HW115392   3.590   3.682   7.573  1.0548  0.5353 -3.3885
 1253SOL    HW215393   3.467   3.622   7.525  0.2300  1.7909  2.2208
 1254SOL     OW15394   2.087   3.053  16.440 -0.6618 -0.1114 -0.1386
 1254SOL    HW115395   2.039   3.063  16.358 -2.6582  1.4595  1.2263
 1254SOL    HW215396   2.138   2.973  16.424  0.9576  0.9291 -0.0783
 1255SOL     OW15397   1.346   1.425   8.967 -0.1418  0.4567  0.7011
 1255SOL    HW115398   1.399   1.347   8.953 -0.2120  0.6686 -0.7543
 1255SOL    HW215399   1.384   1.475   9.039  1.2663  1.6098 -0.8074
 1256SOL     OW15400   4.374   0.734  10.747 -0.0990  0.2392 -0.3579
 1256SOL    HW115401   4.377   0.651  10.793  0.7119  0.1834 -0.5074
 1256SOL    HW215402   4.455   0.775  10.779  0.4492 -0.5271 -0.7709
 1257SOL     OW15403   0.766   0.982   8.943  0.3493  0.0624 -0.1710
 1257SOL    HW115404   0.717   1.055   8.980 -0.9456 -2.1153  2.3938
 1257SOL    HW215405   0.779   0.935   9.025 -0.0697 -0.4316 -0.3862
 1258SOL     OW15406   4.693   1.413   0.829 -0.4907  0.1714 -0.1246
 1258SOL    HW115407   4.687   1.495   0.878  2.3300  1.0532 -1.2459
 1258SOL    HW215408   0.038   1.424   0.780 -0.3741  1.8452  0.4618
 1259SOL     OW15409   4.254   4.066   2.819  0.0660  0.4835 -0.1185
 1259SOL    HW115410   4.298   4.068   2.734  0.4184  0.1831  0.0573
 1259SOL    HW215411   4.249   4.157   2.848  0.1302  1.0457 -1.9032
 1260SOL     OW15412   2.508   1.335   1.047 -0.4724  0.2187  0.0040
 1260SOL    HW115413   2.474   1.425   1.049  0.0369  0.4092  0.1970
 1260SOL    HW215414   2.487   1.320   1.139  0.4051 -2.8855 -0.3094
 1261SOL     OW15415   1.158   4.602   4.803 -0.2773  0.1236 -0.2867
 1261SOL    HW115416   1.226   4.658   4.765  0.9928 -0.3351  1.3250
 1261SOL    HW215417   1.116   4.570   4.723  1.0890  1.0782 -1.3881
 1262SOL     OW15418   2.743   1.997   9.243  0.2421 -0.2710  0.7609
 1262SOL    HW115419   2.831   1.982   9.208  0.3324  2.0522  0.0341
 1262SOL    HW215420   2.762   2.032   9.330 -0.5681  0.7269  0.5349
 1263SOL     OW15421   2.510   2.643   2.540 -0.1623  0.5310  0.1181
 1263SOL    HW115422   2.512   2.570   2.601  0.8925  0.3008 -0.1910
 1263SOL    HW215423   2.596   2.685   2.549 -0.3381  0.5433  1.7220
 1264SOL     OW15424   0.784   1.032   3.162 -0.4657  0.7113 -0.0118
 1264SOL    HW115425   0.783   1.117   3.116 -1.4947 -0.2789 -1.8253
 1264SOL    HW215426   0.871   1.013   3.195 -0.3719  1.1102 -0.0254
 1265SOL     OW15427   1.917   1.799  13.647  0.0608  0.1572 -0.1346
 1265SOL    HW115428   1.970   1.753  13.582  1.0167  0.0387  0.7402
 1265SOL    HW215429   1.860   1.852  13.590  0.1596  0.6431  0.2215
 1266SOL     OW15430   3.227   0.481   2.400  0.0440  0.1678  0.6338
 1266SOL    HW115431   3.288   0.455   2.330 -0.3479  2.2140 -0.4783
 1266SOL    HW215432   3.281   0.504   2.476  1.5580 -0.1614 -0.3339
 1267SOL     OW15433   0.723   0.937   7.111 -0.4057  0.0001  0.3257
 1267SOL    HW115434   0.731   0.842   7.120 -2.8114 -0.1288  1.1992
 1267SOL    HW215435   0.774   0.956   7.032  1.8565  1.3273  2.1238
 1268SOL     OW15436   4.706   3.806  14.645  0.6925 -0.1027 -0.1453
 1268SOL    HW115437   4.694   3.834  14.554  0.9619 -1.7151 -0.6748
 1268SOL    HW215438   0.062   3.781  14.647  0.5651 -0.4511  1.0697
 1269SOL     OW15439   1.953   0.803   3.851  0.2384 -0.1306 -0.5317
 1269SOL    HW115440   1.994   0.719   3.831 -0.1115 -0.7605  1.3952
 1269SOL    HW215441   2.001   0.867   3.798 -0.3806  0.8356  0.0838
 1270SOL     OW15442   4.094   4.275  14.670 -0.6512  0.2847 -0.3315
 1270SOL    HW115443   4.140   4.277  14.754  0.3631 -1.8717 -0.8396
 1270SOL    HW215444   4.118   4.192  14.629 -1.3312 -0.1005  0.0434
 1271SOL     OW15445   2.635   4.214   2.390 -0.1577 -0.3142 -0.5837
 1271SOL    HW115446   2.660   4.278   2.323 -3.1564  0.5194 -0.9472
 1271SOL    HW215447   2.540   4.226   2.392  0.1854  2.1760  0.2773
 1272SOL     OW15448   4.724   2.051   2.700 -0.2377  0.0472  0.7393
 1272SOL    HW115449   0.077   2.071   2.675  0.0272  2.0086  3.3172
 1272SOL    HW215450   4.693   2.016   2.616 -0.0490 -0.4170  0.8624
 1273SOL     OW15451   0.343   1.833   3.885  0.5240 -0.0924  0.0970
 1273SOL    HW115452   0.408   1.785   3.936  2.0277  2.9579  1.1034
 1273SOL    HW215453   0.283   1.761   3.866  1.0836 -0.6903  0.6061
 1274SOL     OW15454   4.138   0.332   6.175  0.3647 -0.0918 -0.5157
 1274SOL    HW115455   4.210   0.355   6.116 -1.6360  1.7957 -2.2256
 1274SOL    HW215456   4.098   0.256   6.133  1.1386 -0.6638 -0.2011
 1275SOL     OW15457   4.420   4.553   5.187  0.2818 -0.7007 -0.1109
 1275SOL    HW115458   4.506   4.575   5.152 -1.1802  2.0031 -2.0002
 1275SOL    HW215459   4.375   4.534   5.104  3.1693  0.9074 -2.0066
 1276SOL     OW15460   0.995   3.918   2.415  0.2620 -0.6665  0.3130
 1276SOL    HW115461   1.023   3.840   2.463  1.7994  0.8911  1.9354
 1276SOL    HW215462   1.052   3.990   2.444 -0.2681  0.3909 -1.2598
 1277SOL     OW15463   2.507   2.355   2.366  0.7289 -0.0861  0.4173
 1277SOL    HW115464   2.491   2.335   2.274 -0.5938 -0.4204  0.7223
 1277SOL    HW215465   2.593   2.313   2.364  0.1024 -1.2569 -2.0786
 1278SOL     OW15466   1.658   1.100   4.191  0.1321  0.5246 -0.7005
 1278SOL    HW115467   1.724   1.040   4.158 -1.3474 -1.9387  0.8537
 1278SOL    HW215468   1.584   1.086   4.132  1.9970  1.2267 -3.2111
 1279SOL     OW15469   3.081   1.734   0.635 -0.2813 -0.3714  0.5795
 1279SOL    HW115470   3.127   1.799   0.688  0.1195  2.1398 -2.8051
 1279SOL    HW215471   2.994   1.765   0.660 -0.5756 -1.0204  0.3546
 1280SOL     OW15472   2.717   1.872   1.535  0.1885 -0.3200 -0.0310
 1280SOL    HW115473   2.766   1.829   1.465  1.7457  0.5661  0.5375
 1280SOL    HW215474   2.775   1.858   1.609  0.0439 -1.6975 -0.1815
 1281SOL     OW15475   0.490   0.927  12.735 -0.4377 -0.3276  0.0219
 1281SOL    HW115476   0.513   0.999  12.794 -1.3771 -0.2066  0.2520
 1281SOL    HW215477   0.571   0.929  12.684 -0.5706  0.7896 -0.1583
 1282SOL     OW15478   3.825   0.302   4.879 -0.5079 -0.6638  0.1807
 1282SOL    HW115479   3.758   0.328   4.943 -1.6015  1.5400 -1.8493
 1282SOL    HW215480   3.789   0.225   4.835  0.0042  0.0153 -1.4297
 1283SOL     OW15481   3.184   2.254   3.352  0.2659 -0.3529 -0.5261
 1283SOL    HW115482   3.094   2.224   3.339 -0.8908  1.5335  3.0206
 1283SOL    HW215483   3.167   2.348   3.365  1.4876 -0.3166  0.7297
 1284SOL     OW15484   4.016   1.615  11.162 -0.6682 -0.1775 -0.4380
 1284SOL    HW115485   4.109   1.626  11.182 -0.7082 -0.6082 -0.0345
 1284SOL    HW215486   3.993   1.706  11.143 -0.6243 -0.4966 -2.0439
 1285SOL     OW15487   0.413   0.943   6.866 -0.4196  0.3589  0.2946
 1285SOL    HW115488   0.376   0.876   6.809 -3.0866  1.4302  0.7906
 1285SOL    HW215489   0.459   0.883   6.925 -0.6580 -0.8472 -0.7332
 1286SOL     OW15490   4.260   3.849  11.867 -0.0322  0.2069  0.3614
 1286SOL    HW115491   4.228   3.770  11.823 -1.2128 -0.4703  2.4778
 1286SOL    HW215492   4.179   3.888  11.900  0.0884  0.8132 -0.0407
 1287SOL     OW15493   1.731   2.219   2.776  0.0146  0.2650  0.2725
 1287SOL    HW115494   1.808   2.188   2.823 -0.9083 -0.2558  1.4299
 1287SOL    HW215495   1.740   2.314   2.784  2.8599  0.1342 -1.4249
 1288SOL     OW15496   2.488   1.507   4.746 -0.2432 -0.1630  0.5565
 1288SOL    HW115497   2.401   1.543   4.763 -0.3080  0.0233 -0.1455
 1288SOL    HW215498   2.459   1.422   4.713  0.0264  0.1810 -0.5740
 1289SOL     OW15499   2.908   2.833   7.323  1.1795  0.4325  0.4139
 1289SOL    HW115500   2.956   2.806   7.401 -0.1829  0.0208  1.1083
 1289SOL    HW215501   2.918   2.753   7.270 -0.1685 -1.3790  2.9239
 1290SOL     OW15502   1.444   0.022  11.074  0.3298  0.3826  0.3789
 1290SOL    HW115503   1.501   0.080  11.124  1.2708  0.9547 -1.3604
 1290SOL    HW215504   1.355   0.030  11.108  0.0369 -0.2164 -0.2371
 1291SOL     OW15505   4.453   0.469   8.382 -0.2507  0.0926  0.6172
 1291SOL    HW115506   4.466   0.554   8.423 -0.6761  1.1825 -1.4973
 1291SOL    HW215507   4.445   0.409   8.456  0.0301 -1.1211 -0.3294
 1292SOL     OW15508   0.762   4.083  14.839  0.3765 -0.7667  0.2757
 1292SOL    HW115509   0.837   4.107  14.784  1.4618  1.1702  2.6276
 1292SOL    HW215510   0.801   4.033  14.911  0.7009 -1.5372 -0.4314
 1293SOL     OW15511   1.433   2.582   7.988  0.2382 -0.1394  0.0564
 1293SOL    HW115512   1.380   2.519   7.940  0.7789 -0.8691  0.4197
 1293SOL    HW215513   1.454   2.535   8.068 -0.2029 -0.2325  0.1161
 1294SOL     OW15514   1.943   2.452  14.462 -0.2173  0.6054 -0.0621
 1294SOL    HW115515   1.879   2.381  14.469 -0.2675  0.7095  0.5006
 1294SOL    HW215516   1.905   2.511  14.527  0.0584  2.3105 -1.4545
 1295SOL     OW15517   2.287   3.492   7.991  0.2846  0.2367 -0.3305
 1295SOL    HW115518   2.206   3.539   8.013 -0.2734 -1.2752  0.8097
 1295SOL    HW215519   2.268   3.399   7.990 -0.5055  0.3860  0.3490
 1296SOL     OW15520   2.059   3.552   3.692 -0.3682  0.2058  0.1068
 1296SOL    HW115521   2.035   3.614   3.624 -0.8168 -1.6421 -1.4161
 1296SOL    HW215522   2.148   3.575   3.719  0.1718  2.5772 -3.6311
 1297SOL     OW15523   4.320   1.088   6.939  0.2541  0.2691  0.8346
 1297SOL    HW115524   4.263   1.014   6.920  1.6437 -0.9974  1.6223
 1297SOL    HW215525   4.285   1.141   6.867 -0.4344 -0.5234  0.5972
 1298SOL     OW15526   3.414   0.744   1.283  0.0489  0.4845  0.1201
 1298SOL    HW115527   3.336   0.716   1.236 -0.1071  1.1306 -0.0128
 1298SOL    HW215528   3.394   0.834   1.308 -1.7676  0.1548 -0.1733
 1299SOL     OW15529   1.345   2.022   2.739 -0.7089  0.3436  0.4269
 1299SOL    HW115530   1.310   2.110   2.753 -1.6916  0.3701 -2.1156
 1299SOL    HW215531   1.410   2.042   2.672 -1.9945  1.1247 -0.5945
 1300SOL     OW15532   3.901   0.008   5.487 -0.4567 -0.0752  0.2034
 1300SOL    HW115533   3.937   4.722   5.572 -1.2448  1.3463  0.9153
 1300SOL    HW215534   3.924   0.101   5.496  1.3663 -0.5644  0.5038
 1301SOL     OW15535   4.367   4.579  17.743  0.8939  0.7855 -0.3284
 1301SOL    HW115536   4.428   4.504  17.735  2.3665  2.0633 -1.0840
 1301SOL    HW215537   4.298   4.545   0.053  0.8405 -0.2570 -1.0293
 1302SOL     OW15538   1.809   3.711  14.344 -0.0187 -0.3267 -0.1040
 1302SOL    HW115539   1.778   3.682  14.429  2.3282  1.2437  1.2943
 1302SOL    HW215540   1.843   3.634  14.298 -0.4073 -1.6839  1.8783
 1303SOL     OW15541   4.040   4.243   4.212 -0.7472 -0.3984 -0.1134
 1303SOL    HW115542   4.052   4.338   4.207  1.8603 -0.7733 -1.0369
 1303SOL    HW215543   3.969   4.236   4.276  0.0404  2.1160  1.0433
 1304SOL     OW15544   1.054   2.260   8.069 -0.0849 -0.1147  0.3479
 1304SOL    HW115545   1.143   2.224   8.062 -0.8468 -2.1609  1.2858
 1304SOL    HW215546   1.033   2.210   8.148  1.4495 -1.2258  0.0506
 1305SOL     OW15547   0.050   0.186   6.055  0.5176 -0.3826 -0.3890
 1305SOL    HW115548   4.697   0.205   6.083  0.6946 -1.3176  0.7959
 1305SOL    HW215549   0.069   0.280   6.053  1.5598 -0.6028 -0.4599
 1306SOL     OW15550   4.351   0.365   2.914  0.4356 -0.1419  0.2079
 1306SOL    HW115551   4.393   0.280   2.900  0.2374 -0.0793 -0.7638
 1306SOL    HW215552   4.414   0.417   2.964  1.3744 -0.6093 -0.4931
 1307SOL     OW15553   2.688   4.431   8.688 -0.2909 -0.1386  0.1936
 1307SOL    HW115554   2.783   4.422   8.700 -0.4718  1.1684  2.5115
 1307SOL    HW215555   2.693   4.525   8.670 -0.2983 -0.4066 -1.2711
 1308SOL     OW15556   1.511   0.288  11.197 -0.3862  0.0431 -0.4074
 1308SOL    HW115557   1.428   0.324  11.167 -1.1711 -0.2405  1.4267
 1308SOL    HW215558   1.524   0.331  11.281 -1.1784  1.1425 -0.8494
 1309SOL     OW15559   3.679   4.059   6.585 -0.3591 -0.3576 -0.1919
 1309SOL    HW115560   3.686   3.981   6.531 -1.5734 -0.4341 -0.2382
 1309SOL    HW215561   3.768   4.060   6.620 -0.8617  0.9443  1.0719
 1310SOL     OW15562   1.919   3.906  15.230  0.2987  0.0193 -0.4644
 1310SOL    HW115563   1.843   3.946  15.272  0.5068 -1.4549  1.3290
 1310SOL    HW215564   1.959   3.870  15.310 -2.7336 -1.5326  0.3505
 1311SOL     OW15565   1.611   0.705   3.570  0.1586  0.4669 -0.1214
 1311SOL    HW115566   1.605   0.615   3.541 -1.5633  0.9438 -1.2505
 1311SOL    HW215567   1.631   0.695   3.663 -0.9191  2.1144  0.3026
 1312SOL     OW15568   2.107   3.186   4.448  0.0225  0.0802  0.0782
 1312SOL    HW115569   2.138   3.163   4.361  0.6715 -1.0091  0.6025
 1312SOL    HW215570   2.173   3.136   4.495  0.0383  0.3475  0.3432
 1313SOL     OW15571   2.383   4.520   7.002 -0.2815 -0.1662 -0.6221
 1313SOL    HW115572   2.363   4.520   6.909 -0.6003  1.1447 -0.5561
 1313SOL    HW215573   2.317   4.463   7.043 -0.7961 -0.8651 -2.4070
 1314SOL     OW15574   4.352   0.468   9.207 -0.0588 -0.0037  0.6460
 1314SOL    HW115575   4.257   0.457   9.209 -0.0446  0.0068  1.4548
 1314SOL    HW215576   4.372   0.390   9.155  0.2709 -1.1945  2.5224
 1315SOL     OW15577   2.497   4.188   3.263  0.1932  0.6043 -0.5574
 1315SOL    HW115578   2.439   4.234   3.202 -0.0027  1.6664  0.4171
 1315SOL    HW215579   2.586   4.215   3.241  1.4539 -2.4600  0.7980
 1316SOL     OW15580   0.942   1.011   6.267 -0.1522  0.1646  0.0064
 1316SOL    HW115581   1.023   1.056   6.245 -0.8447 -0.3074 -3.4506
 1316SOL    HW215582   0.888   1.031   6.191 -1.4084  0.9861  1.1026
 1317SOL     OW15583   4.681   4.510   7.051  0.3894  0.4815  0.5522
 1317SOL    HW115584   4.618   4.542   6.987  1.2955  1.0588 -0.0464
 1317SOL    HW215585   4.698   4.596   7.089 -1.7422  0.5447  1.3820
 1318SOL     OW15586   0.954   4.246   1.590 -0.2146 -0.3286 -0.0294
 1318SOL    HW115587   0.902   4.230   1.668  0.6820 -0.3929  0.5631
 1318SOL    HW215588   0.904   4.318   1.552 -0.3968  1.3732  3.4173
 1319SOL     OW15589   2.954   0.242   2.390  0.2408 -0.3584  0.4759
 1319SOL    HW115590   2.944   0.305   2.319 -0.1758  0.2030  1.0260
 1319SOL    HW215591   2.884   0.271   2.448  0.1164  2.2510 -0.9739
 1320SOL     OW15592   4.300   2.599   5.471  0.1195 -0.2427  0.4238
 1320SOL    HW115593   4.221   2.653   5.475 -0.5190 -1.1838  0.7833
 1320SOL    HW215594   4.313   2.599   5.566 -0.0273  0.4368  0.4431
 1321SOL     OW15595   4.368   1.589   8.425  0.3068 -0.2916 -0.9544
 1321SOL    HW115596   4.449   1.544   8.451 -0.9681 -1.8938  0.2440
 1321SOL    HW215597   4.409   1.668   8.389 -1.5372  1.9275  1.8822
 1322SOL     OW15598   4.090   3.346   6.959  0.4152 -0.4887 -0.5651
 1322SOL    HW115599   4.066   3.403   7.033  0.9114  1.2825 -1.7833
 1322SOL    HW215600   4.003   3.316   6.932  0.2361  0.4146 -0.9780
 1323SOL     OW15601   1.404   3.197   4.386  0.2961 -0.0001  0.1861
 1323SOL    HW115602   1.468   3.179   4.317 -1.4837  1.4872 -1.8444
 1323SOL    HW215603   1.471   3.219   4.451 -0.3600  1.6844  0.2916
 1324SOL     OW15604   1.466   1.937   5.222  0.1547 -0.2972  0.3231
 1324SOL    HW115605   1.487   2.027   5.197  0.7201  0.1223  2.3490
 1324SOL    HW215606   1.373   1.956   5.208 -0.1221 -1.8352  0.0781
 1325SOL     OW15607   0.113   2.502   3.653  0.0162 -0.3583 -0.1613
 1325SOL    HW115608   0.196   2.548   3.637 -0.9266  0.9172 -1.4521
 1325SOL    HW215609   0.087   2.474   3.565  0.2692 -1.3753  0.0897
 1326SOL     OW15610   0.312   4.285   7.678  0.5216  0.0599  0.0437
 1326SOL    HW115611   0.310   4.364   7.625 -1.1496  1.8876  2.8528
 1326SOL    HW215612   0.239   4.292   7.740 -1.6570  1.1992 -2.6398
 1327SOL     OW15613   0.597   2.280   6.861 -0.2551  0.3286  0.3224
 1327SOL    HW115614   0.691   2.264   6.874 -0.4810 -3.6205 -2.7238
 1327SOL    HW215615   0.558   2.199   6.827  0.4307  1.0381 -2.1103
 1328SOL     OW15616   0.257   3.078   7.703 -0.1281 -0.2368  0.4683
 1328SOL    HW115617   0.275   3.138   7.631 -1.1174  0.9732  1.2252
 1328SOL    HW215618   0.291   3.126   7.779  1.0829 -1.2182  0.5524
 1329SOL     OW15619   2.614   1.587   6.942  0.4704 -0.1974  0.5020
 1329SOL    HW115620   2.708   1.605   6.945  0.2554  1.0647  0.0858
 1329SOL    HW215621   2.581   1.671   6.909 -0.5590 -0.9446 -0.3782
 1330SOL     OW15622   1.968   0.132   3.545 -0.5746  0.1624  0.1993
 1330SOL    HW115623   1.995   0.042   3.529  1.2069  0.9063 -1.0259
 1330SOL    HW215624   1.899   0.120   3.610 -0.3726 -0.0462  0.3779
 1331SOL     OW15625   4.313   4.528   4.938 -0.3118 -0.4691 -0.3981
 1331SOL    HW115626   4.308   4.432   4.937 -1.0477 -0.4297 -0.6584
 1331SOL    HW215627   4.240   4.544   4.878  0.7652  2.4653 -0.9138
 1332SOL     OW15628   3.088   3.441   2.662 -0.5409  0.1021 -0.1314
 1332SOL    HW115629   3.160   3.400   2.615 -0.4585 -1.3136  1.2038
 1332SOL    HW215630   3.026   3.463   2.593 -1.6441 -2.9799 -0.1683
 1333SOL     OW15631   4.219   0.229   7.900  0.0389 -0.1383  0.7577
 1333SOL    HW115632   4.286   0.294   7.920 -0.2550  0.6489 -0.8099
 1333SOL    HW215633   4.203   0.183   7.982 -2.1467 -3.3234 -1.4585
 1334SOL     OW15634   3.273   2.191   5.977 -0.3505  0.4020 -0.1279
 1334SOL    HW115635   3.212   2.259   5.948  0.6308  1.7879  1.0368
 1334SOL    HW215636   3.353   2.238   6.001  0.6381 -1.5007  0.2806
 1335SOL     OW15637   3.802   0.277   2.131  0.0075  0.4119 -0.0353
 1335SOL    HW115638   3.748   0.211   2.175  1.3550 -0.5516  0.1634
 1335SOL    HW215639   3.853   0.229   2.066 -0.6309 -0.6222  0.2185
 1336SOL     OW15640   3.082   3.332   5.794  0.2560 -0.4006 -0.6492
 1336SOL    HW115641   3.172   3.316   5.821  0.3039  1.0084  0.0389
 1336SOL    HW215642   3.061   3.414   5.839  0.1876 -0.9209  0.2722
 1337SOL     OW15643   1.480   1.451   1.918 -0.4450  0.1922 -0.2877
 1337SOL    HW115644   1.446   1.516   1.980 -1.4337 -0.9543  0.3855
 1337SOL    HW215645   1.403   1.404   1.886  0.1358 -0.9602  0.0296
 1338SOL     OW15646   0.036   1.126   8.355  0.2612  0.6036  0.5183
 1338SOL    HW115647   0.131   1.137   8.356 -0.0636  3.2799  0.5900
 1338SOL    HW215648   0.014   1.159   8.268 -0.0345 -0.8281  0.0457
 1339SOL     OW15649   2.120   1.138   6.316  0.1499  0.4161 -0.0950
 1339SOL    HW115650   2.146   1.172   6.230  1.3431 -1.5273 -0.4953
 1339SOL    HW215651   2.049   1.080   6.288  0.2281  1.0866 -1.7040
 1340SOL     OW15652   0.517   0.305  10.888  0.2123  0.4115 -0.7859
 1340SOL    HW115653   0.524   0.344  10.801 -0.6981 -1.9221 -1.9032
 1340SOL    HW215654   0.425   0.326  10.901 -0.3023  0.6325 -4.7495
 1341SOL     OW15655   1.836   2.746  15.743 -0.3698  0.1075  0.3023
 1341SOL    HW115656   1.778   2.820  15.762 -3.5120 -1.9361 -1.1638
 1341SOL    HW215657   1.809   2.744  15.651  1.0708 -0.2018 -0.1084
 1342SOL     OW15658   1.003   0.896  15.408  0.2505 -0.6317 -0.2089
 1342SOL    HW115659   0.995   0.802  15.389 -2.3707 -0.5972  0.7375
 1342SOL    HW215660   1.019   0.891  15.503  0.6792 -1.0707 -0.3025
 1343SOL     OW15661   2.624   4.037   2.914  0.0808  0.4341 -0.4886
 1343SOL    HW115662   2.630   3.976   2.987  0.4840  0.2072 -0.7117
 1343SOL    HW215663   2.534   4.022   2.886 -0.2551 -0.0905  0.8648
 1344SOL     OW15664   2.500   3.863  14.390 -0.6392 -0.2620  0.2837
 1344SOL    HW115665   2.490   3.871  14.295 -1.8109 -4.1094  0.1066
 1344SOL    HW215666   2.556   3.785  14.386 -1.8167 -0.9409 -3.0672
 1345SOL     OW15667   0.361   3.029   6.642  0.2037  0.7060  0.7376
 1345SOL    HW115668   0.274   3.067   6.632 -0.0427 -0.1552 -0.4509
 1345SOL    HW215669   0.397   3.099   6.696  1.2435 -0.2829  1.3373
 1346SOL     OW15670   4.593   3.173   0.138  0.2368  0.0165 -0.6759
 1346SOL    HW115671   4.595   3.146   0.047  0.8116 -2.7584  0.1751
 1346SOL    HW215672   4.680   3.210   0.156  0.2785 -0.2988 -0.2285
 1347SOL     OW15673   2.004   3.252   5.584 -0.6582  0.0869  0.1737
 1347SOL    HW115674   1.991   3.173   5.532 -1.3372  0.3310 -0.0247
 1347SOL    HW215675   2.091   3.225   5.613 -0.8720  0.5168  1.2148
 1348SOL     OW15676   3.063   2.811   6.252 -0.1744  0.4756  0.2006
 1348SOL    HW115677   3.078   2.724   6.217 -0.0496  0.3873  0.4771
 1348SOL    HW215678   3.079   2.813   6.347 -2.9017 -3.4620  0.7256
 1349SOL     OW15679   0.424   4.619   7.536  0.8913 -0.0667 -0.1725
 1349SOL    HW115680   0.350   4.671   7.565  1.3320  0.7664 -0.5622
 1349SOL    HW215681   0.403   4.607   7.444 -0.5858 -2.6492  0.4852
 1350SOL     OW15682   2.627   1.104   4.825  0.2177  0.0994 -0.0013
 1350SOL    HW115683   2.712   1.147   4.838  0.4059 -0.2441 -0.0970
 1350SOL    HW215684   2.606   1.137   4.738 -0.9399 -2.7691 -0.8020
 1351SOL     OW15685   0.782   0.592  12.165 -0.1343  0.1531 -0.0585
 1351SOL    HW115686   0.867   0.630  12.145  0.2051  0.1329  1.3987
 1351SOL    HW215687   0.735   0.672  12.189 -2.7904 -1.4285  0.0872
 1352SOL     OW15688   3.225   3.204   6.808 -0.1472 -0.5964 -0.4854
 1352SOL    HW115689   3.162   3.231   6.875  0.0696  2.7115 -1.6153
 1352SOL    HW215690   3.190   3.119   6.783 -0.6234 -0.3416 -0.6773
 1353SOL     OW15691   2.930   0.160  13.248  0.7122 -0.7417  0.0695
 1353SOL    HW115692   2.999   0.225  13.263 -1.6273  1.6510  0.4432
 1353SOL    HW215693   2.934   0.116  13.333 -0.2250  0.5432  0.7723
 1354SOL     OW15694   3.559   2.475   6.927 -0.2701 -0.3125 -0.4955
 1354SOL    HW115695   3.564   2.511   6.839 -0.2985  2.1332  0.4694
 1354SOL    HW215696   3.557   2.555   6.980 -0.7292 -0.6603  0.0128
 1355SOL     OW15697   4.665   3.573  10.571 -0.6474  0.4024  0.5164
 1355SOL    HW115698   4.699   3.553  10.483 -0.6731  0.2286  0.5468
 1355SOL    HW215699   4.726   3.640  10.600  0.2316  0.6113 -1.7487
 1356SOL     OW15700   2.591   4.686  10.146  0.3870  0.0439 -0.4564
 1356SOL    HW115701   2.526   0.014  10.119 -0.4582 -1.0861 -1.1010
 1356SOL    HW215702   2.540   4.634  10.208 -0.8768  1.0051 -0.6869
 1357SOL     OW15703   3.841   4.345  14.714  0.0669  0.5862 -0.3134
 1357SOL    HW115704   3.936   4.333  14.705  0.3795  3.1625 -0.5693
 1357SOL    HW215705   3.808   4.258  14.736  3.1043 -0.8046 -1.1816
 1358SOL     OW15706   3.999   3.718   9.615  0.2738  0.1059  0.0483
 1358SOL    HW115707   4.015   3.811   9.599  0.6585  0.4018  2.1150
 1358SOL    HW215708   4.074   3.690   9.667 -0.0548 -2.3501 -0.7924
 1359SOL     OW15709   1.161   0.510   3.727  0.1827  0.2886  0.1406
 1359SOL    HW115710   1.165   0.577   3.659 -1.0908 -1.0955 -1.2703
 1359SOL    HW215711   1.071   0.519   3.757 -0.0293 -1.4809  0.0112
 1360SOL     OW15712   1.779   0.671   5.009 -0.1404 -0.2349 -0.6153
 1360SOL    HW115713   1.802   0.762   4.988 -1.0248  0.0430 -0.3900
 1360SOL    HW215714   1.762   0.675   5.103 -1.5035 -1.1199 -0.8222
 1361SOL     OW15715   1.219   0.064   6.385 -0.1462  0.1813 -0.1477
 1361SOL    HW115716   1.208   0.084   6.292  1.5340  1.6191 -0.0522
 1361SOL    HW215717   1.298   0.013   6.372 -0.8252 -0.6387 -1.0019
 1362SOL     OW15718   1.624   3.958  14.339  0.4162  0.4944 -0.9666
 1362SOL    HW115719   1.625   3.868  14.309 -0.0898  1.0341 -2.5977
 1362SOL    HW215720   1.582   4.003  14.266 -0.4724  1.6087  0.2207
 1363SOL     OW15721   2.414   4.374   7.832 -0.3370  0.0854 -0.4873
 1363SOL    HW115722   2.449   4.301   7.781  0.6609  0.0873  0.1984
 1363SOL    HW215723   2.481   4.439   7.806 -0.1029 -0.2413 -0.7089
 1364SOL     OW15724   3.963   1.361   0.173  0.0909 -0.0328 -0.0249
 1364SOL    HW115725   4.012   1.332   0.249 -1.4556 -0.4291  0.8120
 1364SOL    HW215726   3.902   1.423   0.213 -0.9594 -1.3022  0.3174
 1365SOL     OW15727   0.374   4.316  13.635  0.3580  0.0987 -0.1030
 1365SOL    HW115728   0.366   4.329  13.730  1.5461  0.5082 -0.0574
 1365SOL    HW215729   0.415   4.402  13.621 -0.5888  0.3015 -1.6126
 1366SOL     OW15730   2.634   3.805   2.639 -0.0893  0.2899  0.0967
 1366SOL    HW115731   2.711   3.854   2.613  0.2701  0.0917  0.7915
 1366SOL    HW215732   2.667   3.744   2.705  0.4710  0.4599 -0.0339
 1367SOL     OW15733   1.130   0.217   9.200  0.3819 -0.0325  0.1733
 1367SOL    HW115734   1.125   0.244   9.108  0.3922  0.4351  0.3093
 1367SOL    HW215735   1.103   0.125   9.197  1.9022 -0.4838  0.4032
 1368SOL     OW15736   4.674   4.228   2.271  0.9762 -0.1198  0.1545
 1368SOL    HW115737   4.679   4.320   2.297  3.0107 -0.6821  1.7133
 1368SOL    HW215738   4.731   4.225   2.194  2.8014  1.8921  1.4290
 1369SOL     OW15739   3.527   3.937  12.477  0.1313  0.5284 -0.5491
 1369SOL    HW115740   3.486   3.865  12.525 -1.8860  0.9908 -1.6211
 1369SOL    HW215741   3.453   3.997  12.478 -2.0698 -2.1523 -0.0575
 1370SOL     OW15742   3.865   0.502   7.211  0.1476 -0.7004 -0.1881
 1370SOL    HW115743   3.921   0.480   7.285  1.0871  1.9918 -0.0869
 1370SOL    HW215744   3.807   0.426   7.209 -0.2987 -0.3873  1.5078
 1371SOL     OW15745   1.275   2.917   2.757  0.0695 -0.1241 -0.2070
 1371SOL    HW115746   1.204   2.979   2.774  0.4525 -0.5867  3.1231
 1371SOL    HW215747   1.346   2.969   2.718 -3.0298  2.3119 -2.5518
 1372SOL     OW15748   3.026   2.510   3.294 -0.5300  0.4385  0.0929
 1372SOL    HW115749   2.990   2.595   3.317 -0.1569  0.4577  0.6044
 1372SOL    HW215750   2.986   2.495   3.208 -0.2244  3.9543 -0.6564
 1373SOL     OW15751   2.169   2.645  15.721 -0.0754 -0.2981  0.2254
 1373SOL    HW115752   2.250   2.638  15.771 -1.1668  0.1389  2.0292
 1373SOL    HW215753   2.129   2.558  15.728  1.3997 -1.1047 -1.1395
 1374SOL     OW15754   2.127   0.151   5.128  0.3391  0.3255  0.3408
 1374SOL    HW115755   2.116   0.194   5.043 -0.7812  0.4325  0.5429
 1374SOL    HW215756   2.217   0.120   5.123  0.5597  1.0247 -0.0637
 1375SOL     OW15757   3.798   2.474  16.368 -0.0344 -0.0330  0.0741
 1375SOL    HW115758   3.887   2.497  16.342  0.1732 -1.0457 -0.1150
 1375SOL    HW215759   3.813   2.436  16.454 -0.1309 -1.1629 -0.4085
 1376SOL     OW15760   1.927   4.718   9.047 -0.5621 -0.5886  0.2462
 1376SOL    HW115761   1.909   4.649   9.111  0.3174  1.1092  2.3250
 1376SOL    HW215762   2.016   0.001   9.075 -0.0617  0.6073 -2.2194
 1377SOL     OW15763   2.215   1.083   6.655 -0.7774  0.1310 -0.5190
 1377SOL    HW115764   2.287   1.044   6.705 -0.6623  1.7317  0.5794
 1377SOL    HW215765   2.141   1.028   6.680 -0.5622  0.1628  0.1906
 1378SOL     OW15766   3.513   2.367   5.927 -0.3224  0.3824 -0.0677
 1378SOL    HW115767   3.597   2.332   5.896  1.4893  1.4954  3.6461
 1378SOL    HW215768   3.530   2.424   6.002 -1.7920  1.4564 -0.5490
 1379SOL     OW15769   0.993   3.436   5.498  0.2798  0.3875  0.2457
 1379SOL    HW115770   1.040   3.497   5.441 -0.5899  0.4605 -0.3983
 1379SOL    HW215771   1.028   3.353   5.464  4.7108  2.4648 -0.2225
 1380SOL     OW15772   4.515   2.502   4.795  0.0623  0.5735  0.8668
 1380SOL    HW115773   4.580   2.546   4.848 -0.1382  0.8446  0.8890
 1380SOL    HW215774   4.558   2.444   4.732  0.6216  1.4041  0.4880
 1381SOL     OW15775   4.127   1.210   2.940  0.5549 -0.4054  0.5309
 1381SOL    HW115776   4.100   1.118   2.949 -3.4585  0.6792 -0.7559
 1381SOL    HW215777   4.097   1.243   3.025  1.0794  0.4541  0.3784
 1382SOL     OW15778   2.039   2.349   2.769  0.0991 -0.4411  0.6228
 1382SOL    HW115779   2.131   2.358   2.741  0.1300 -0.1267  0.8201
 1382SOL    HW215780   2.009   2.436   2.743 -0.7059 -0.7950  0.3838
 1383SOL     OW15781   2.393   1.911   5.461  0.2412 -0.6808  0.4359
 1383SOL    HW115782   2.380   1.845   5.530 -0.7712 -1.6377 -0.6815
 1383SOL    HW215783   2.387   1.993   5.510 -1.9405 -1.4318  1.4083
 1384SOL     OW15784   1.494   1.607   7.727 -0.3466 -0.3653  0.0719
 1384SOL    HW115785   1.460   1.552   7.797  3.7800 -2.8228  0.1763
 1384SOL    HW215786   1.544   1.540   7.680  0.8960  0.5937  0.0250
 1385SOL     OW15787   3.373   0.608   2.605 -0.2143 -0.1711 -0.7862
 1385SOL    HW115788   3.460   0.631   2.635 -0.0040  1.8795 -3.0098
 1385SOL    HW215789   3.330   0.693   2.615  2.0097  1.0284 -1.4348
 1386SOL     OW15790   2.024   1.188   7.061 -0.2611 -0.1637  0.0275
 1386SOL    HW115791   1.958   1.208   7.128  0.1296  1.0652  0.0367
 1386SOL    HW215792   2.018   1.092   7.061 -2.7408 -0.0099 -0.6011
 1387SOL     OW15793   2.034   1.227   9.904 -0.0282 -0.0081  0.3063
 1387SOL    HW115794   2.085   1.189   9.833  0.1129  0.5688  0.1079
 1387SOL    HW215795   1.971   1.282   9.859 -0.2430 -0.8309 -0.3851
 1388SOL     OW15796   4.276   2.602   2.632 -0.4509  0.3151  0.1764
 1388SOL    HW115797   4.348   2.566   2.684 -0.3123  2.0290  1.1393
 1388SOL    HW215798   4.271   2.686   2.676 -1.2440  1.6120 -2.4013
 1389SOL     OW15799   0.266   0.626   3.759  0.0060  0.1622  0.1689
 1389SOL    HW115800   0.226   0.712   3.748 -1.8453 -0.5478  1.3052
 1389SOL    HW215801   0.279   0.594   3.670  2.5663 -0.2648  0.7054
 1390SOL     OW15802   3.908   3.825  12.531  0.1286  0.3447  0.5877
 1390SOL    HW115803   3.977   3.877  12.489 -0.3749  1.1422  0.7624
 1390SOL    HW215804   3.882   3.888  12.597 -2.0816  0.2390 -0.1829
 1391SOL     OW15805   2.260   2.459   2.402 -0.2012  0.0319  0.1068
 1391SOL    HW115806   2.265   2.520   2.328  1.1284  1.0048  0.9806
 1391SOL    HW215807   2.355   2.446   2.410 -0.7182 -2.4567  2.1050
 1392SOL     OW15808   4.332   2.884   6.354 -0.2370  0.2234  0.2951
 1392SOL    HW115809   4.409   2.859   6.406  0.2225  0.8327 -0.0974
 1392SOL    HW215810   4.310   2.802   6.310 -1.8901  0.4978  0.5979
 1393SOL     OW15811   3.453   2.831   3.021  0.8674 -0.4713  0.0730
 1393SOL    HW115812   3.490   2.805   3.105  1.0881 -1.9052 -0.4724
 1393SOL    HW215813   3.361   2.807   3.025  0.4996  0.7342 -1.1269
 1394SOL     OW15814   2.721   1.094  15.718 -0.4734 -0.2014  0.1004
 1394SOL    HW115815   2.794   1.157  15.713  0.8276 -1.7487 -0.7152
 1394SOL    HW215816   2.643   1.148  15.710 -1.1481 -0.8189  2.5838
 1395SOL     OW15817   2.708   0.855  16.905  0.1352  0.2444  0.9757
 1395SOL    HW115818   2.765   0.866  16.981  0.3938  0.0192  0.8125
 1395SOL    HW215819   2.625   0.826  16.943  0.3069 -0.2847  0.9445
 1396SOL     OW15820   1.502   1.239   8.762 -0.4372  0.3356  0.2750
 1396SOL    HW115821   1.553   1.162   8.734 -1.4465  0.4375 -1.8462
 1396SOL    HW215822   1.415   1.201   8.766  0.1596 -0.8834  1.4463
 1397SOL     OW15823   3.717   4.721  14.332  0.3444 -0.1837  0.0180
 1397SOL    HW115824   3.706   4.665  14.409 -1.8086  1.1056  0.6696
 1397SOL    HW215825   3.768   4.660  14.280  4.0701 -0.0526  3.6018
 1398SOL     OW15826   4.531   0.855   1.703 -0.7220 -0.7906  0.0203
 1398SOL    HW115827   4.471   0.787   1.672 -1.1667  0.5302 -2.0594
 1398SOL    HW215828   4.466   0.923   1.721 -3.2166 -3.3224  0.5854
 1399SOL     OW15829   0.505   2.114  14.098  0.2845 -0.0767  0.1552
 1399SOL    HW115830   0.473   2.203  14.115  0.4142  0.1607 -0.8553
 1399SOL    HW215831   0.435   2.073  14.048  0.9832 -1.5590  0.4024
 1400SOL     OW15832   2.299   1.027  15.773  0.3308  0.1907  0.2442
 1400SOL    HW115833   2.367   0.998  15.833 -1.2352 -1.2335  1.3320
 1400SOL    HW215834   2.292   0.962  15.703 -0.3656  0.3062  0.2013
 1401SOL     OW15835   3.453   3.058   9.016 -0.3797  0.2961 -0.1208
 1401SOL    HW115836   3.416   3.079   8.930  1.6222 -1.6481 -1.4326
 1401SOL    HW215837   3.382   3.002   9.049 -1.0876  1.7524  0.8695
 1402SOL     OW15838   1.214   2.570   3.802 -0.0655 -0.4516 -0.5516
 1402SOL    HW115839   1.180   2.580   3.892  3.3314  1.9353  0.4491
 1402SOL    HW215840   1.255   2.653   3.779  0.8169 -0.7967 -0.2369
 1403SOL     OW15841   3.656   0.818   2.443  0.2590 -0.5571 -0.2162
 1403SOL    HW115842   3.616   0.832   2.357 -0.7425 -3.0903 -0.1741
 1403SOL    HW215843   3.747   0.828   2.416  0.3913  1.1058  0.8149
 1404SOL     OW15844   0.075   1.931   5.982  0.4197  0.4142 -0.2494
 1404SOL    HW115845   0.159   1.935   6.029  0.2712  2.3940 -0.1593
 1404SOL    HW215846   0.013   1.979   6.036 -0.7625 -2.5035  0.9617
 1405SOL     OW15847   2.779   2.147   7.767  0.6958  0.2241 -0.2209
 1405SOL    HW115848   2.868   2.183   7.756  2.3850 -3.7511  0.4675
 1405SOL    HW215849   2.799   2.068   7.817  0.2200 -0.2555 -0.7866
 1406SOL     OW15850   1.967   4.487   5.900  0.4607  0.0658  0.0341
 1406SOL    HW115851   2.061   4.477   5.909  0.6060  0.9471 -0.4837
 1406SOL    HW215852   1.957   4.550   5.971  2.3745  0.7257 -0.3011
 1407SOL     OW15853   2.689   0.064   2.189  0.0436  0.0067  0.8779
 1407SOL    HW115854   2.600   0.098   2.181 -0.1944 -1.0473 -0.9003
 1407SOL    HW215855   2.673   4.733   2.255 -0.1396 -0.7142  0.0891
 1408SOL     OW15856   3.894   0.520   2.073 -0.7045 -0.3907  0.3679
 1408SOL    HW115857   3.854   0.434   2.088  0.6874 -1.0321  0.4451
 1408SOL    HW215858   3.817   0.574   2.083 -0.5049 -0.2078  0.9183
 1409SOL     OW15859   4.449   4.179   7.319 -0.3915  0.3149 -0.1124
 1409SOL    HW115860   4.482   4.103   7.367  0.5338  0.8144  0.0527
 1409SOL    HW215861   4.521   4.242   7.325  0.3612 -0.4873 -0.7072
 1410SOL     OW15862   0.619   0.237   2.602  0.4832  0.5453 -0.2130
 1410SOL    HW115863   0.696   0.179   2.600  0.7549  0.8550  1.3699
 1410SOL    HW215864   0.663   0.309   2.646  0.1451  0.7636 -0.2342
 1411SOL     OW15865   1.899   1.687  11.693 -0.0757 -0.3167 -0.2279
 1411SOL    HW115866   1.978   1.686  11.639 -0.1793  2.7987 -0.3957
 1411SOL    HW215867   1.853   1.767  11.669 -2.0990 -1.8628 -1.5229
 1412SOL     OW15868   0.722   0.181   4.393  0.4944 -0.7014 -0.1919
 1412SOL    HW115869   0.811   0.214   4.405  0.3178  0.1218 -1.1581
 1412SOL    HW215870   0.705   0.146   4.481  1.8805 -1.1470 -0.0905
 1413SOL     OW15871   4.155   4.018   2.117  0.2384  0.4414  1.0607
 1413SOL    HW115872   4.071   3.974   2.106 -0.1371  1.3559  0.1780
 1413SOL    HW215873   4.125   4.097   2.163 -1.3681  0.4208  0.0848
 1414SOL     OW15874   1.947   1.161   4.374  0.3514  0.8277 -0.6817
 1414SOL    HW115875   1.858   1.186   4.349  0.0541  1.6895  1.2493
 1414SOL    HW215876   1.944   1.066   4.364 -2.7823  0.7325  1.1475
 1415SOL     OW15877   4.665   0.534   0.213 -0.4152 -0.4107 -0.4929
 1415SOL    HW115878   4.717   0.481   0.274  0.2351  0.1212 -0.5891
 1415SOL    HW215879   4.611   0.575   0.281 -0.3964  1.0254 -1.3558
 1416SOL     OW15880   1.615   0.792  14.843  0.0432  0.2931  0.0630
 1416SOL    HW115881   1.535   0.744  14.863 -1.0616  1.9923 -0.2678
 1416SOL    HW215882   1.633   0.829  14.929 -0.2781 -0.9381  0.6570
 1417SOL     OW15883   0.086   0.265   8.039 -0.1331  0.2764  0.0461
 1417SOL    HW115884   0.035   0.269   8.120 -0.9575  3.1315 -0.6053
 1417SOL    HW215885   0.054   0.330   7.975  1.0366 -1.1505 -1.9815
 1418SOL     OW15886   1.481   0.300   8.769 -0.1713 -0.0348 -0.3389
 1418SOL    HW115887   1.400   0.258   8.798  0.1141 -0.4649 -0.1710
 1418SOL    HW215888   1.442   0.387   8.757  1.1841  0.3397 -2.0703
 1419SOL     OW15889   1.731   2.141  11.478  0.5982  0.3871  0.3579
 1419SOL    HW115890   1.665   2.145  11.547  0.1196  0.5712 -0.1116
 1419SOL    HW215891   1.693   2.085  11.410 -2.2080  1.8253  0.7348
 1420SOL     OW15892   4.065   1.980   8.365  0.5024  0.4028  0.1633
 1420SOL    HW115893   4.083   1.886   8.358 -0.3501  0.1344  1.4982
 1420SOL    HW215894   3.970   1.990   8.357  0.6382 -0.4882 -2.3944
 1421SOL     OW15895   3.025   4.440   6.606  0.5817  0.3989 -0.4210
 1421SOL    HW115896   2.937   4.417   6.576  0.1496  2.2155 -0.5488
 1421SOL    HW215897   3.058   4.359   6.644 -1.3055 -0.4473 -0.6007
 1422SOL     OW15898   2.025   0.613   5.582 -0.2338 -0.1866  0.2787
 1422SOL    HW115899   1.997   0.694   5.624 -0.1935  0.6013 -1.2001
 1422SOL    HW215900   2.030   0.553   5.657 -0.4536 -0.4766  0.0615
 1423SOL     OW15901   1.436   1.007   2.267 -0.6012 -0.2056 -0.2315
 1423SOL    HW115902   1.370   0.937   2.273 -3.5607  2.5750 -0.4339
 1423SOL    HW215903   1.397   1.082   2.310 -2.0906 -1.5804  0.8338
 1424SOL     OW15904   0.824   3.846  13.248  0.5524 -0.4946 -0.6285
 1424SOL    HW115905   0.878   3.851  13.326 -2.1211 -0.3244  1.2180
 1424SOL    HW215906   0.737   3.849  13.288  0.8027  0.4350 -0.1416
 1425SOL     OW15907   0.157   2.604  12.100  0.1807 -0.0397 -0.0522
 1425SOL    HW115908   0.186   2.549  12.173  0.1721  1.4089  1.0354
 1425SOL    HW215909   0.071   2.566  12.078  0.2021 -1.4157  2.2173
 1426SOL     OW15910   1.708   4.666   5.998  0.2968  0.1092 -0.8125
 1426SOL    HW115911   1.659   0.006   5.970 -2.3329 -2.3524 -2.9737
 1426SOL    HW215912   1.734   4.682   6.089  1.1792 -0.1668 -1.0178
 1427SOL     OW15913   3.242   2.699   6.945 -0.1025  0.7566  0.1394
 1427SOL    HW115914   3.278   2.769   6.891  2.8882 -0.9157 -0.0568
 1427SOL    HW215915   3.282   2.716   7.030  1.2346 -1.0874 -0.0906
 1428SOL     OW15916   2.089   4.075   8.062 -0.0976 -0.0005 -0.1452
 1428SOL    HW115917   2.147   4.009   8.023 -0.6103 -0.4878 -0.0916
 1428SOL    HW215918   2.102   4.151   8.006 -0.9219 -0.3452 -0.8230
 1429SOL     OW15919   2.536   0.992   2.881  0.2111 -0.3673  0.0774
 1429SOL    HW115920   2.599   0.920   2.876 -0.5003 -0.9824  0.0109
 1429SOL    HW215921   2.592   1.069   2.879  1.3220 -1.1611  0.3895
 1430SOL     OW15922   0.541   3.357   4.858  0.2199  0.2980  0.8672
 1430SOL    HW115923   0.615   3.404   4.897  1.1846  1.2531 -2.1459
 1430SOL    HW215924   0.539   3.410   4.778 -1.9958  0.7558  1.2205
 1431SOL     OW15925   3.732   3.140   4.524  0.6657  0.5411  0.9060
 1431SOL    HW115926   3.707   3.052   4.553 -1.4780  0.8464  0.0242
 1431SOL    HW215927   3.650   3.189   4.533 -0.6099 -1.3195 -0.6451
 1432SOL     OW15928   2.156   1.352   9.489  0.5644 -0.2628 -0.5578
 1432SOL    HW115929   2.070   1.315   9.469 -0.5287  0.1513  3.4013
 1432SOL    HW215930   2.161   1.334   9.582  2.6354  0.2387 -0.5644
 1433SOL     OW15931   2.330   3.292   8.593 -0.6587 -0.4038  0.2475
 1433SOL    HW115932   2.327   3.385   8.619 -1.8038 -0.5592  0.6668
 1433SOL    HW215933   2.288   3.258   8.672 -1.2880 -1.9516 -0.7669
 1434SOL     OW15934   1.858   0.959   4.636 -0.0608  0.3225  0.2354
 1434SOL    HW115935   1.914   0.922   4.704 -1.5425 -0.7008  0.8976
 1434SOL    HW215936   1.909   0.947   4.556 -0.2514  2.2694 -0.1585
 1435SOL     OW15937   3.631   2.557   3.210 -0.1020 -0.0508  0.0665
 1435SOL    HW115938   3.664   2.601   3.288 -1.9951 -0.0886  0.8824
 1435SOL    HW215939   3.549   2.520   3.241  0.7644 -1.1113  1.0791
 1436SOL     OW15940   3.394   2.768   6.540 -0.0482  0.1592 -0.8121
 1436SOL    HW115941   3.373   2.860   6.528  0.2134  0.6122  2.2217
 1436SOL    HW215942   3.308   2.728   6.536  0.1857 -0.2872 -1.3853
 1437SOL     OW15943   3.245   3.663   6.329  0.0811  0.3506 -0.2483
 1437SOL    HW115944   3.160   3.650   6.289  0.4853  1.1168 -1.3429
 1437SOL    HW215945   3.211   3.700   6.411 -0.5875  0.9945 -0.8219
 1438SOL     OW15946   2.253   3.616  14.067 -0.2697 -0.1243  0.1159
 1438SOL    HW115947   2.321   3.552  14.087  0.5790  0.3526 -1.2242
 1438SOL    HW215948   2.181   3.558  14.043  0.6457 -0.9667 -0.6444
 1439SOL     OW15949   4.645   1.815  10.646 -0.2625  0.1911  0.7253
 1439SOL    HW115950   4.658   1.844  10.555  0.9908  2.2868  1.5768
 1439SOL    HW215951   4.675   1.891  10.695 -1.1630 -0.0127  1.5985
 1440SOL     OW15952   0.940   3.542   8.297 -0.2357 -0.0342  0.0255
 1440SOL    HW115953   1.034   3.527   8.284  0.2124 -0.1838  3.3633
 1440SOL    HW215954   0.905   3.459   8.265  1.7328 -0.8502  0.0150
 1441SOL     OW15955   0.128   2.041  12.641  0.0968  0.2203  0.6483
 1441SOL    HW115956   0.064   1.971  12.629 -0.6095  1.2059 -1.4506
 1441SOL    HW215957   0.205   1.988  12.660  0.0892  0.1177  0.3923
 1442SOL     OW15958   3.735   0.245   7.123 -0.0167 -0.1755  0.3280
 1442SOL    HW115959   3.753   0.177   7.058  0.7261 -0.9186  1.3107
 1442SOL    HW215960   3.685   0.299   7.061 -1.0196  1.0233  2.1720
 1443SOL     OW15961   4.485   0.488   1.795 -0.5166 -0.3813 -0.1604
 1443SOL    HW115962   4.470   0.396   1.818  0.2926 -0.6321 -0.6462
 1443SOL    HW215963   4.396   0.522   1.782 -0.1474  0.1592 -1.2919
 1444SOL     OW15964   2.273   1.621   8.957 -0.2935 -0.1221 -0.4377
 1444SOL    HW115965   2.242   1.648   9.044  0.9850 -0.9740  0.2711
 1444SOL    HW215966   2.304   1.707   8.927  2.6834 -0.5086  1.5977
 1445SOL     OW15967   0.647   3.525  14.253  0.0530 -0.4167 -0.2889
 1445SOL    HW115968   0.678   3.500  14.340  0.1375 -1.7557 -0.7000
 1445SOL    HW215969   0.614   3.610  14.281  0.2744  0.0413 -1.4119
 1446SOL     OW15970   2.337   2.451   6.676 -0.1039 -0.4224 -0.7989
 1446SOL    HW115971   2.251   2.452   6.717 -0.3040  0.9744 -1.2517
 1446SOL    HW215972   2.321   2.511   6.604 -0.2360  0.6766  0.1504
 1447SOL     OW15973   1.622   2.631  17.622 -0.0899 -0.1479 -0.2549
 1447SOL    HW115974   1.639   2.536  17.621 -1.2706 -0.3766  0.5806
 1447SOL    HW215975   1.534   2.625  17.586  0.4829  0.2033 -1.6906
 1448SOL     OW15976   2.758   2.120   8.549  0.2399  0.0375  0.3068
 1448SOL    HW115977   2.735   2.030   8.527 -1.4200  0.4875  0.1498
 1448SOL    HW215978   2.698   2.152   8.617  0.4018  0.3989  0.2774
 1449SOL     OW15979   3.218   1.614   2.046 -0.7019  0.0517 -0.0873
 1449SOL    HW115980   3.177   1.701   2.047 -2.1749 -0.6764  1.4005
 1449SOL    HW215981   3.146   1.552   2.036 -2.3004  1.5977  1.6761
 1450SOL     OW15982   0.699   2.653  14.466  0.4615 -0.6491 -0.2546
 1450SOL    HW115983   0.620   2.624  14.512  0.5653 -1.6052 -0.6790
 1450SOL    HW215984   0.746   2.677  14.546  0.8148 -0.3403 -0.5574
 1451SOL     OW15985   1.365   4.559   4.231 -0.5855  0.1121  0.0944
 1451SOL    HW115986   1.379   4.509   4.311  1.4228 -1.1969 -1.0699
 1451SOL    HW215987   1.330   4.644   4.256 -0.0202  0.4116 -0.1425
 1452SOL     OW15988   0.144   0.144  14.098 -0.0717 -0.0575 -0.5053
 1452SOL    HW115989   0.048   0.138  14.094 -0.0338 -0.7338 -0.5294
 1452SOL    HW215990   0.163   0.126  14.191 -1.1289  2.1056  0.1257
 1453SOL     OW15991   1.377   1.545   7.145 -0.0200 -0.2216 -0.2557
 1453SOL    HW115992   1.448   1.561   7.207  0.4113 -0.1244 -0.7689
 1453SOL    HW215993   1.307   1.595   7.186 -2.4329 -3.1514 -0.8173
 1454SOL     OW15994   2.126   1.090   4.085  0.0505 -0.0808  0.1641
 1454SOL    HW115995   2.095   1.015   4.135  1.9487  1.1325  3.1723
 1454SOL    HW215996   2.188   1.055   4.021 -0.5511 -2.0841  0.6765
 1455SOL     OW15997   2.717   2.602   6.949  0.0220 -0.0517  0.5394
 1455SOL    HW115998   2.737   2.682   6.999 -2.1417  1.1924 -0.6098
 1455SOL    HW215999   2.755   2.626   6.865  0.5490 -1.9853  0.2395
 1456SOL     OW16000   0.772   4.052   9.915 -0.1133  0.6155  0.1360
 1456SOL    HW116001   0.723   4.095   9.845 -0.5749 -0.6345 -0.3210
 1456SOL    HW216002   0.747   3.961   9.896  1.1947  0.1762  0.5280
 1457SOL     OW16003   0.631   3.698   1.453  0.8439  0.7035  0.4710
 1457SOL    HW116004   0.629   3.681   1.359  2.1541  0.6830  0.4439
 1457SOL    HW216005   0.586   3.617   1.477 -0.4145  0.4885 -2.6477
 1458SOL     OW16006   2.538   2.145   8.725  0.7914 -0.6013 -0.0368
 1458SOL    HW116007   2.530   2.105   8.812 -1.3398 -0.7204 -0.2886
 1458SOL    HW216008   2.532   2.070   8.666 -0.1293 -0.9922  0.5621
 1459SOL     OW16009   1.816   2.892   7.372 -0.9904 -0.4481 -0.2515
 1459SOL    HW116010   1.772   2.825   7.425  1.5576 -1.1613  0.9248
 1459SOL    HW216011   1.829   2.840   7.292 -1.5538 -1.2713  0.1862
 1460SOL     OW16012   1.439   4.609   6.487 -0.2424 -0.1289  0.0353
 1460SOL    HW116013   1.507   4.568   6.541 -0.0921 -0.0630 -0.1014
 1460SOL    HW216014   1.501   4.648   6.425 -1.5743  0.7634 -0.7447
 1461SOL     OW16015   1.763   1.388   3.763 -0.4526  0.0756 -0.1864
 1461SOL    HW116016   1.776   1.294   3.760 -1.1105  0.0058 -0.9424
 1461SOL    HW216017   1.854   1.418   3.764 -0.4377  0.0215  0.1380
 1462SOL     OW16018   3.033   2.938   2.983 -0.2151 -0.6027 -0.0834
 1462SOL    HW116019   3.040   2.964   2.891 -1.0715  2.3272  0.6899
 1462SOL    HW216020   2.939   2.919   2.983 -0.0976 -1.2345 -1.9912
 1463SOL     OW16021   4.544   4.199   6.269  0.5363  0.1940  0.8449
 1463SOL    HW116022   4.561   4.127   6.208  1.5579  2.7046 -1.8142
 1463SOL    HW216023   4.626   4.248   6.266 -0.3876  1.6272 -0.7152
 1464SOL     OW16024   1.329   3.882   8.676 -0.2521  0.2731 -0.4790
 1464SOL    HW116025   1.400   3.940   8.647 -0.4531  0.2771 -0.9663
 1464SOL    HW216026   1.255   3.928   8.635 -1.1167  0.2656  1.0964
 1465SOL     OW16027   2.879   1.538   4.288  0.4457  0.2368  0.2888
 1465SOL    HW116028   2.888   1.443   4.278  0.9730  0.2385  0.7728
 1465SOL    HW216029   2.839   1.557   4.203  1.1487 -1.1230 -0.3474
 1466SOL     OW16030   4.303   1.473   7.139  0.3882  0.0585 -0.0565
 1466SOL    HW116031   4.338   1.412   7.204 -0.4171  1.1235  1.3726
 1466SOL    HW216032   4.210   1.450   7.125  0.1788  0.2172  1.1228
 1467SOL     OW16033   2.402   1.620   2.844  0.1673 -0.2779 -0.0365
 1467SOL    HW116034   2.460   1.681   2.891 -1.0869  0.6103  0.3530
 1467SOL    HW216035   2.439   1.641   2.758  0.6730  0.0669  0.2600
 1468SOL     OW16036   3.651   1.586   4.144 -0.5501  0.0779 -0.0103
 1468SOL    HW116037   3.614   1.666   4.180  0.3701  1.0526 -1.2553
 1468SOL    HW216038   3.593   1.513   4.167 -0.0788 -0.8603 -1.8297
 1469SOL     OW16039   3.163   3.623   1.576  0.6796  0.0596  0.4298
 1469SOL    HW116040   3.214   3.606   1.497 -1.0448 -2.4749 -0.1331
 1469SOL    HW216041   3.203   3.557   1.634 -1.2763 -0.2708  1.3937
 1470SOL     OW16042   2.455   1.877   8.911 -0.4283 -0.5111  0.0570
 1470SOL    HW116043   2.549   1.883   8.930 -0.2132 -0.2490 -1.1090
 1470SOL    HW216044   2.415   1.927   8.982 -0.8889  0.0584 -0.6133
 1471SOL     OW16045   0.733   2.842   6.458 -0.5719 -0.0945  0.2914
 1471SOL    HW116046   0.654   2.841   6.512 -0.9994 -1.4793 -0.3638
 1471SOL    HW216047   0.690   2.831   6.374  2.3271  0.3688 -1.2573
 1472SOL     OW16048   0.200   1.096   3.334  0.1626 -0.0764  0.5177
 1472SOL    HW116049   0.209   1.001   3.335  3.0715  0.1533 -1.6303
 1472SOL    HW216050   0.197   1.100   3.238  2.1810 -1.1314  0.3942
 1473SOL     OW16051   3.405   2.406   8.954  0.3858 -0.6811  0.6855
 1473SOL    HW116052   3.397   2.498   8.978  2.4398 -0.2348 -0.3427
 1473SOL    HW216053   3.380   2.363   9.036  1.2663 -1.6654  0.4278
 1474SOL     OW16054   1.159   3.411   4.049 -0.3116  0.6138 -0.0607
 1474SOL    HW116055   1.200   3.412   4.136  2.2569  2.4961 -1.2836
 1474SOL    HW216056   1.167   3.506   4.040  0.9198  0.6399  1.1042
 1475SOL     OW16057   0.370   3.514   2.857 -0.1245  0.0340  0.8828
 1475SOL    HW116058   0.332   3.584   2.804 -0.1072  0.2036  1.0998
 1475SOL    HW216059   0.335   3.533   2.944  1.5823  1.6072  1.2102
 1476SOL     OW16060   0.124   3.236   5.317  0.0857  0.4195  0.1016
 1476SOL    HW116061   0.034   3.233   5.349  0.0146 -0.6344 -0.2006
 1476SOL    HW216062   0.168   3.267   5.396  0.6769 -0.5088  0.1390
 1477SOL     OW16063   3.506   4.491   6.622 -0.1376 -0.2027  0.5310
 1477SOL    HW116064   3.583   4.546   6.630 -1.3650  1.4391  1.0553
 1477SOL    HW216065   3.522   4.430   6.694  2.9037  1.2822  1.1085
 1478SOL     OW16066   1.986   1.559  12.195  0.1643 -0.0569  0.1391
 1478SOL    HW116067   1.969   1.574  12.102 -1.4726 -1.0329  0.2713
 1478SOL    HW216068   2.080   1.544  12.194  0.1404 -0.1655 -0.5343
 1479SOL     OW16069   0.509   3.400   5.756  0.2774  0.5463  0.5931
 1479SOL    HW116070   0.487   3.350   5.835 -1.2357 -0.4173 -0.4397
 1479SOL    HW216071   0.464   3.484   5.767 -0.9626  0.0830 -0.8478
 1480SOL     OW16072   3.048   4.099   5.127 -0.7122  0.0821 -0.1626
 1480SOL    HW116073   3.080   4.012   5.151 -0.0925  0.9142  2.0405
 1480SOL    HW216074   2.953   4.098   5.113 -0.3971  0.7799 -2.3700
 1481SOL     OW16075   2.026   2.209   5.570 -0.2975 -0.2528 -0.1777
 1481SOL    HW116076   1.942   2.197   5.526  0.1634  0.5749 -1.2803
 1481SOL    HW216077   2.040   2.301   5.548 -0.6608 -0.4558 -1.2340
 1482SOL     OW16078   1.775   1.746   9.959 -0.5495 -0.6512  0.0959
 1482SOL    HW116079   1.752   1.662   9.919 -0.0425 -0.7733  0.0541
 1482SOL    HW216080   1.850   1.770   9.904 -0.3773 -1.0486  0.1610
 1483SOL     OW16081   1.242   3.406   5.980  0.2255  0.1107 -0.1336
 1483SOL    HW116082   1.167   3.415   5.922  0.8983 -1.5846 -1.2520
 1483SOL    HW216083   1.278   3.320   5.957 -2.1399 -1.5431  2.4116
 1484SOL     OW16084   0.454   2.421  11.427  0.2061 -0.3308 -0.2914
 1484SOL    HW116085   0.410   2.487  11.374  0.4401 -0.0841 -0.1801
 1484SOL    HW216086   0.531   2.469  11.457 -1.3026  1.1823  1.1277
 1485SOL     OW16087   0.390   1.586   9.004  0.3995 -0.4021  0.4208
 1485SOL    HW116088   0.325   1.611   9.070  1.0081  2.6046 -0.1173
 1485SOL    HW216089   0.332   1.526   8.958 -1.8526  1.6127  0.6222
 1486SOL     OW16090   3.220   4.545   2.806  0.2262 -0.1852  0.1358
 1486SOL    HW116091   3.256   4.497   2.880  1.1387 -1.3926 -1.0997
 1486SOL    HW216092   3.287   4.613   2.794 -1.7323  2.1069  2.1078
 1487SOL     OW16093   0.085   3.053   5.591  0.6369 -0.2494  0.0663
 1487SOL    HW116094   0.152   3.036   5.657 -0.0367 -2.0820  0.2728
 1487SOL    HW216095   0.111   2.986   5.528 -1.2465  0.3898 -1.4057
 1488SOL     OW16096   3.873   0.309   7.885 -0.3474  0.4722  0.2932
 1488SOL    HW116097   3.898   0.222   7.853  0.9376  0.8944  0.1638
 1488SOL    HW216098   3.867   0.354   7.801 -0.5196 -0.8823 -0.4204
 1489SOL     OW16099   0.602   2.526   6.109 -1.1762 -0.3559  0.2799
 1489SOL    HW116100   0.557   2.443   6.126  1.5783 -1.8003  0.5445
 1489SOL    HW216101   0.544   2.564   6.043  1.7674  4.2962  0.3786
 1490SOL     OW16102   0.913   2.375  17.278  0.1253 -0.2499  0.6609
 1490SOL    HW116103   0.822   2.347  17.273  0.2628 -0.9345  1.9942
 1490SOL    HW216104   0.907   2.470  17.275  0.3788 -0.2644 -0.5619
 1491SOL     OW16105   1.827   1.650   6.431  0.7523 -0.2091 -0.2403
 1491SOL    HW116106   1.837   1.732   6.383 -0.7747  1.0056  1.4995
 1491SOL    HW216107   1.739   1.653   6.470  1.1209  0.9898  0.5123
 1492SOL     OW16108   3.408   0.210   2.990 -0.1603 -0.2837  0.0434
 1492SOL    HW116109   3.382   0.263   2.915  0.0314  0.9885  0.8709
 1492SOL    HW216110   3.444   0.277   3.048  1.1812 -2.0122  1.2234
 1493SOL     OW16111   2.499   4.498   3.219 -0.1750  0.0235  0.0979
 1493SOL    HW116112   2.474   4.588   3.243  0.3062  0.5016 -1.1735
 1493SOL    HW216113   2.411   4.462   3.225  0.2068 -0.8591  0.3328
 1494SOL     OW16114   0.872   4.127   1.105 -0.0825  0.6482 -0.6010
 1494SOL    HW116115   0.781   4.144   1.131 -0.1414  2.4461 -1.9799
 1494SOL    HW216116   0.903   4.106   1.193 -2.5596  3.6491  0.9834
 1495SOL     OW16117   4.677   0.763  14.081 -0.2592 -0.4624 -0.4594
 1495SOL    HW116118   0.028   0.730  14.061  0.6959  0.7843  1.6161
 1495SOL    HW216119   4.650   0.715  14.159  0.1981  1.0553  0.6444
 1496SOL     OW16120   3.515   3.057   2.841  0.3193 -0.1743  0.4007
 1496SOL    HW116121   3.474   2.981   2.881 -2.1000  0.9010 -0.0052
 1496SOL    HW216122   3.558   3.096   2.917  1.4203 -2.3836  0.8857
 1497SOL     OW16123   3.993   2.033  13.552 -0.1358  0.8880  0.4016
 1497SOL    HW116124   3.938   2.050  13.475 -1.4738 -1.5083  0.8302
 1497SOL    HW216125   3.942   1.977  13.610 -0.7264  0.2933 -0.7001
 1498SOL     OW16126   2.620   0.243  11.254 -0.6035  0.3440 -0.1992
 1498SOL    HW116127   2.652   0.316  11.307 -0.0350  0.4014 -0.6289
 1498SOL    HW216128   2.533   0.231  11.291 -0.2663 -3.6773 -0.7344
 1499SOL     OW16129   2.338   3.860   4.285 -0.3239  0.7449 -0.3165
 1499SOL    HW116130   2.423   3.903   4.279 -0.2668  0.7408  0.5821
 1499SOL    HW216131   2.348   3.799   4.358 -0.5797  1.3479  0.2191
 1500SOL     OW16132   0.373   1.749   3.508  0.2578 -0.0123 -0.0294
 1500SOL    HW116133   0.296   1.762   3.564 -0.7262 -1.2011 -1.1089
 1500SOL    HW216134   0.404   1.666   3.544  1.6208  0.7284  0.4798
 1501SOL     OW16135   0.040   0.282  10.260  0.4469  0.1753  0.0864
 1501SOL    HW116136   4.694   0.273  10.308  0.4484  2.7565  0.6015
 1501SOL    HW216137   0.101   0.229  10.311 -1.0890 -0.9919  0.7290
 1502SOL     OW16138   1.676   1.767   7.258  0.3633  0.0264 -0.1613
 1502SOL    HW116139   1.619   1.699   7.296  0.6954  0.3197  0.8422
 1502SOL    HW216140   1.748   1.753   7.319 -0.2144 -1.7549  0.1149
 1503SOL     OW16141   1.334   3.480   6.732 -0.3156  0.1347 -0.1741
 1503SOL    HW116142   1.242   3.473   6.758  0.0598  1.0554  1.4230
 1503SOL    HW216143   1.353   3.572   6.751  1.2770 -0.1941 -0.2265
 1504SOL     OW16144   1.352   1.579  11.816  0.1438  0.1971  0.4543
 1504SOL    HW116145   1.364   1.485  11.808  1.6525  0.5819 -2.0371
 1504SOL    HW216146   1.262   1.582  11.850 -0.2887  0.1422 -0.6687
 1505SOL     OW16147   1.335   0.952  13.444 -0.5183 -0.0220 -0.1969
 1505SOL    HW116148   1.361   1.043  13.455 -2.2300  0.1840  1.9984
 1505SOL    HW216149   1.408   0.908  13.488  1.3020  1.7564 -1.4189
 1506SOL     OW16150   3.581   0.494  10.059  0.3296  0.1980  0.0596
 1506SOL    HW116151   3.575   0.400  10.038  1.2826  0.2458 -0.4403
 1506SOL    HW216152   3.631   0.491  10.140 -2.1803 -2.5368  1.5217
 1507SOL     OW16153   4.582   1.603  11.498  0.0001  0.5777  0.0941
 1507SOL    HW116154   4.552   1.591  11.407  2.3701  0.5168 -0.6774
 1507SOL    HW216155   4.601   1.509  11.503  1.0682  0.6493 -2.2430
 1508SOL     OW16156   3.618   1.274   4.476 -0.6634 -0.1738 -0.1999
 1508SOL    HW116157   3.663   1.334   4.536 -0.5859  0.5580 -0.9846
 1508SOL    HW216158   3.582   1.334   4.410 -0.4946  1.3573  1.1013
 1509SOL     OW16159   1.403   1.794  11.622 -1.1015  0.1457  0.4173
 1509SOL    HW116160   1.372   1.764  11.537  1.2177 -2.0077  0.3006
 1509SOL    HW216161   1.378   1.720  11.678  0.6346  0.2282  1.3026
 1510SOL     OW16162   0.503   1.906   6.299  0.3268  0.0067 -0.1216
 1510SOL    HW116163   0.512   1.825   6.348  1.2174 -0.4482 -1.0382
 1510SOL    HW216164   0.589   1.904   6.256  0.4034 -1.0918  0.0868
 1511SOL     OW16165   0.631   1.437  13.601 -0.3473 -0.2354 -0.6447
 1511SOL    HW116166   0.557   1.464  13.547  0.8910  2.0156 -1.2281
 1511SOL    HW216167   0.588   1.410  13.682  1.4668 -0.4864  0.2350
 1512SOL     OW16168   3.685   2.903   2.401  0.1145 -0.4737  0.8106
 1512SOL    HW116169   3.604   2.860   2.428 -0.7253  0.5206 -0.1552
 1512SOL    HW216170   3.691   2.971   2.468 -0.9417 -1.0405  1.4748
 1513SOL     OW16171   2.270   0.560  12.912 -0.1930  0.8495  0.4210
 1513SOL    HW116172   2.311   0.615  12.845  1.9281  2.2212  2.8640
 1513SOL    HW216173   2.309   0.595  12.992 -0.8331 -1.4700  1.7482
 1514SOL     OW16174   0.811   2.705  14.767  0.0306  0.6764  0.1647
 1514SOL    HW116175   0.754   2.662  14.831  0.0645  1.1829  0.5416
 1514SOL    HW216176   0.791   2.799  14.774  0.4146  0.7628  0.1023
 1515SOL     OW16177   3.735   4.691   2.787  0.2939 -0.0663 -0.1354
 1515SOL    HW116178   3.768   4.629   2.722 -0.6417  1.5630 -2.1704
 1515SOL    HW216179   3.649   4.659   2.816  0.6005 -0.4117  0.3876
 1516SOL     OW16180   0.880   2.144   4.888  0.7571  0.1222 -0.6770
 1516SOL    HW116181   0.919   2.128   4.803 -1.4356  0.0520 -1.6624
 1516SOL    HW216182   0.791   2.169   4.864  0.7867 -0.0477 -0.9534
 1517SOL     OW16183   0.778   4.611   2.336  0.9066  0.0941  0.1491
 1517SOL    HW116184   0.731   4.618   2.253  0.6305  0.0774  0.3044
 1517SOL    HW216185   0.756   4.519   2.355 -0.0820  0.4287  0.5902
 1518SOL     OW16186   3.392   2.716  10.118 -0.1412  0.4084 -0.4288
 1518SOL    HW116187   3.402   2.808  10.144  1.4921  0.1611 -0.1927
 1518SOL    HW216188   3.463   2.707  10.054  0.6165 -0.0066  0.4679
 1519SOL     OW16189   1.397   3.383   8.305  0.0353 -0.3851 -0.4758
 1519SOL    HW116190   1.390   3.340   8.219  3.3340 -1.1669 -0.3557
 1519SOL    HW216191   1.481   3.427   8.291 -0.9937  1.4242 -0.9948
 1520SOL     OW16192   3.456   0.187  10.360  0.1288  0.0412 -0.2149
 1520SOL    HW116193   3.450   0.279  10.385 -1.7145 -0.9166  2.8687
 1520SOL    HW216194   3.420   0.146  10.438 -0.3341  1.1108  0.1232
 1521SOL     OW16195   3.645   1.913   6.013  0.5557  0.6071  0.4420
 1521SOL    HW116196   3.628   1.996   5.968  0.9033  0.2047 -0.4283
 1521SOL    HW216197   3.729   1.877   5.984  1.3510  2.0034  0.9730
 1522SOL     OW16198   2.481   2.928   4.324 -0.3177  0.1182  0.3432
 1522SOL    HW116199   2.489   2.907   4.231  0.8004  0.9318  0.2545
 1522SOL    HW216200   2.575   2.931   4.345  0.1161 -2.1695 -1.2754
 1523SOL     OW16201   3.011   2.335   4.627 -0.2038 -0.1143  0.2838
 1523SOL    HW116202   3.096   2.349   4.667 -0.0370 -0.5299  0.0775
 1523SOL    HW216203   3.017   2.395   4.553 -0.2975 -1.9263 -1.1869
 1524SOL     OW16204   1.625   1.170   0.215  0.5316 -0.1408  0.4684
 1524SOL    HW116205   1.660   1.083   0.195 -0.6208 -0.3557 -0.5936
 1524SOL    HW216206   1.642   1.200   0.126  1.5664 -1.3842  0.2499
 1525SOL     OW16207   0.428   0.196   8.736  0.1835  0.3812  0.1677
 1525SOL    HW116208   0.512   0.238   8.758 -0.2455 -0.3053  3.0510
 1525SOL    HW216209   0.383   0.272   8.701 -0.4885 -1.6346 -3.3216
 1526SOL     OW16210   2.767   0.874  11.474  0.4468 -0.6921  0.2194
 1526SOL    HW116211   2.859   0.850  11.489  0.4666 -0.9128 -0.2736
 1526SOL    HW216212   2.776   0.969  11.481 -0.2767 -0.5291 -1.1454
 1527SOL     OW16213   0.917   2.436   5.014  0.4291  0.7219 -0.3731
 1527SOL    HW116214   0.949   2.466   4.929 -2.1899  0.7617 -1.3495
 1527SOL    HW216215   0.857   2.367   4.985  0.9354  0.3248 -0.4795
 1528SOL     OW16216   0.074   2.619   0.809  0.1826 -0.4878  0.1591
 1528SOL    HW116217   0.137   2.558   0.846 -0.6375  0.9377  3.8850
 1528SOL    HW216218   0.049   2.674   0.883  2.2339  0.8422 -0.1542
 1529SOL     OW16219   3.764   1.616   5.273 -0.5316 -0.5026 -0.1834
 1529SOL    HW116220   3.731   1.622   5.183 -1.4594 -3.9666 -0.0467
 1529SOL    HW216221   3.818   1.539   5.257 -3.2613 -2.4349  0.0824
 1530SOL     OW16222   2.156   3.618   7.029  0.3140  0.3397  0.7266
 1530SOL    HW116223   2.225   3.595   6.967  1.6152  1.8084  1.6519
 1530SOL    HW216224   2.212   3.643   7.102 -1.0730 -0.7259  2.1915
 1531SOL     OW16225   2.694   2.573   2.948  0.3297 -0.3924  0.6089
 1531SOL    HW116226   2.739   2.646   2.904  0.3661 -0.2625  0.8661
 1531SOL    HW216227   2.756   2.501   2.943  0.1315 -0.6553  2.1008
 1532SOL     OW16228   4.384   3.062   7.033  0.2346  0.0468 -0.3903
 1532SOL    HW116229   4.456   3.022   7.081  0.1679  1.5428  0.9337
 1532SOL    HW216230   4.422   3.112   6.961 -1.1841 -1.0588 -1.9211
 1533SOL     OW16231   2.307   3.175   3.549  0.4100 -0.1176 -0.2386
 1533SOL    HW116232   2.308   3.140   3.638 -0.7267 -2.3342 -1.0879
 1533SOL    HW216233   2.231   3.124   3.519  1.5717 -0.6717 -2.2076
 1534SOL     OW16234   0.065   1.074   1.647  0.1162  0.0620 -0.0225
 1534SOL    HW116235   0.101   1.014   1.712 -2.4682 -1.6243 -0.1529
 1534SOL    HW216236   0.033   1.011   1.583  2.2184 -2.2341  1.1964
 1535SOL     OW16237   4.529   3.970   2.346 -0.1965  0.0910 -0.0768
 1535SOL    HW116238   4.555   4.057   2.318 -1.1487  0.5246  0.3597
 1535SOL    HW216239   4.468   3.950   2.275  1.2416 -2.1255 -0.6756
 1536SOL     OW16240   2.648   2.093   4.880  0.1748 -0.5131 -0.4633
 1536SOL    HW116241   2.663   2.005   4.846 -0.2215 -1.1282  0.9843
 1536SOL    HW216242   2.734   2.116   4.915 -1.2596  0.6558  2.2412
 1537SOL     OW16243   1.949   3.517   5.483  0.0104  0.4000 -0.0243
 1537SOL    HW116244   1.915   3.429   5.466 -0.1750 -0.1163  3.0007
 1537SOL    HW216245   1.870   3.566   5.505  1.2881  2.1807  0.6818
 1538SOL     OW16246   2.337   1.274   1.742 -0.2558  0.2965 -0.4464
 1538SOL    HW116247   2.350   1.205   1.677 -1.2952 -1.8258  1.5682
 1538SOL    HW216248   2.266   1.327   1.705  1.4506  1.9989 -1.2597
 1539SOL     OW16249   2.817   1.000  11.783  0.3330  0.4973 -0.1900
 1539SOL    HW116250   2.880   0.994  11.711  2.1597  2.9487  1.2183
 1539SOL    HW216251   2.881   0.994  11.853  0.3131  2.7251  0.0315
 1540SOL     OW16252   0.615   0.231   0.436  0.4660  1.3340  0.0321
 1540SOL    HW116253   0.622   0.230   0.341  1.9250  2.6370  0.1161
 1540SOL    HW216254   0.628   0.138   0.454  2.3651  1.7983  1.1252
 1541SOL     OW16255   0.329   1.834   8.401  0.1019 -0.0244  0.7191
 1541SOL    HW116256   0.362   1.803   8.485  2.5701 -1.4356 -0.7469
 1541SOL    HW216257   0.346   1.928   8.397  1.1088 -0.1486  2.2476
 1542SOL     OW16258   3.452   2.678   7.138 -0.2736 -0.4048 -0.1445
 1542SOL    HW116259   3.503   2.755   7.112 -0.8637 -0.5490 -1.7712
 1542SOL    HW216260   3.523   2.632   7.183 -0.8916 -0.4635  0.7675
 1543SOL     OW16261   1.865   3.364   9.297 -0.0986 -0.4079  0.1310
 1543SOL    HW116262   1.806   3.302   9.254  0.1358 -0.2196 -0.4603
 1543SOL    HW216263   1.861   3.430   9.228  1.4739  1.3200  1.7118
 1544SOL     OW16264   0.117   2.804  11.220 -0.1084  0.0479 -0.3695
 1544SOL    HW116265   0.207   2.828  11.243  0.0051 -0.7059 -0.0027
 1544SOL    HW216266   0.067   2.847  11.289 -0.7138  0.8143 -1.2960
 1545SOL     OW16267   3.087   2.542   6.160  0.2498 -0.1436  0.5978
 1545SOL    HW116268   3.173   2.512   6.191  0.8525 -0.5661 -1.4873
 1545SOL    HW216269   3.025   2.501   6.219  0.9848 -0.8545  0.8770
 1546SOL     OW16270   0.658   1.160   4.065  0.0091 -0.6548 -0.1971
 1546SOL    HW116271   0.737   1.181   4.115 -0.1938  0.8406 -0.5044
 1546SOL    HW216272   0.607   1.111   4.130 -0.3083 -1.1666 -0.8383
 1547SOL     OW16273   1.898   0.841   1.670 -0.2991  0.0563  0.1754
 1547SOL    HW116274   1.963   0.775   1.642 -0.5103 -0.5191  1.0611
 1547SOL    HW216275   1.827   0.786   1.703 -0.1044 -1.3660 -1.6895
 1548SOL     OW16276   3.432   1.255   3.117 -0.6782 -0.0177  0.4095
 1548SOL    HW116277   3.514   1.297   3.143 -0.0485 -1.9330  1.5046
 1548SOL    HW216278   3.459   1.223   3.031 -0.0290  1.9155 -0.1095
 1549SOL     OW16279   1.682   2.384  12.416 -0.2057 -0.3551  0.1822
 1549SOL    HW116280   1.754   2.441  12.392  0.3111 -1.1822 -0.2415
 1549SOL    HW216281   1.723   2.297  12.411  2.4367  0.8298  1.1155
 1550SOL     OW16282   1.545   1.642  14.924 -0.1515 -0.0738  0.0113
 1550SOL    HW116283   1.454   1.664  14.907  0.3751  3.0693  1.3091
 1550SOL    HW216284   1.545   1.549  14.901 -2.0867 -0.6705  2.4273
 1551SOL     OW16285   1.076   1.385   2.799 -0.2533  0.4993 -0.1114
 1551SOL    HW116286   1.165   1.410   2.823  0.7687 -0.7154 -2.6056
 1551SOL    HW216287   1.021   1.452   2.841 -1.0719 -0.0647 -0.2834
 1552SOL     OW16288   4.196   1.780   9.752  0.3313 -0.3863 -0.4267
 1552SOL    HW116289   4.230   1.735   9.674  1.4579 -0.7934  0.3107
 1552SOL    HW216290   4.275   1.819   9.789  0.5312 -0.6465 -0.5733
 1553SOL     OW16291   3.870   3.112   0.003  0.0784  0.1926  0.3032
 1553SOL    HW116292   3.933   3.114  17.677 -0.9189  1.9298 -0.4991
 1553SOL    HW216293   3.917   3.052   0.061 -0.6611 -0.3882  0.2991
 1554SOL     OW16294   3.127   4.515  13.365  0.2368 -0.3603 -0.1530
 1554SOL    HW116295   3.032   4.514  13.357  0.2871  0.0153 -0.7397
 1554SOL    HW216296   3.153   4.571  13.292 -2.4373 -0.0139 -0.8299
 1555SOL     OW16297   1.243   3.968  12.234  0.9247  0.2484  0.1448
 1555SOL    HW116298   1.240   4.041  12.296  2.7660  1.1346 -0.8119
 1555SOL    HW216299   1.151   3.958  12.210  0.7822  0.6511  0.5262
 1556SOL     OW16300   3.979   1.631   1.995  0.0199 -0.3745  0.1626
 1556SOL    HW116301   3.912   1.669   1.938  0.0171 -3.0818 -1.6381
 1556SOL    HW216302   3.937   1.646   2.080 -1.0780  0.9903 -0.6216
 1557SOL     OW16303   1.972   2.557   9.719 -0.1662  0.3353 -0.6829
 1557SOL    HW116304   1.944   2.527   9.632  1.9232 -1.7039 -0.6432
 1557SOL    HW216305   1.977   2.652   9.705 -1.5038  0.3359 -1.1790
 1558SOL     OW16306   2.722   1.439   5.567  0.2966  0.4380 -0.0468
 1558SOL    HW116307   2.777   1.517   5.559  0.4482  0.2813 -0.5267
 1558SOL    HW216308   2.789   1.374   5.588  0.7285  0.6453 -0.7989
 1559SOL     OW16309   3.572   4.282   9.381 -0.1831  0.7763 -0.5282
 1559SOL    HW116310   3.531   4.365   9.360 -1.3631  0.6252  1.1431
 1559SOL    HW216311   3.590   4.291   9.475 -1.5755 -1.7529 -0.0119
 1560SOL     OW16312   1.411   4.469   7.641 -0.1560 -0.3075 -0.1985
 1560SOL    HW116313   1.339   4.407   7.627  1.0723 -1.5708 -0.8855
 1560SOL    HW216314   1.422   4.497   7.550 -0.8081  0.0631 -0.1707
 1561SOL     OW16315   1.234   3.412   2.065 -0.0029  0.1015 -0.1975
 1561SOL    HW116316   1.224   3.356   1.988 -1.1371 -0.6773  0.5060
 1561SOL    HW216317   1.251   3.495   2.020 -0.9847  0.6293  0.3955
 1562SOL     OW16318   1.529   0.616   9.818  0.1587 -0.2527  0.3600
 1562SOL    HW116319   1.520   0.604   9.723  0.6953 -1.3773  0.4595
 1562SOL    HW216320   1.462   0.684   9.827  2.0112  1.3134  2.2556
 1563SOL     OW16321   1.421   4.022   8.280 -0.3459 -0.5180  0.2959
 1563SOL    HW116322   1.454   3.983   8.199 -1.4733  1.6696 -1.2363
 1563SOL    HW216323   1.442   4.114   8.261  1.5223 -1.1895 -0.9138
 1564SOL     OW16324   4.461   0.355   7.620  0.0804 -0.0166 -0.0972
 1564SOL    HW116325   4.420   0.342   7.706  0.7461 -0.4558  0.1470
 1564SOL    HW216326   4.517   0.430   7.638 -1.6847  1.7271 -1.8995
 1565SOL     OW16327   3.740   2.030  12.761  0.4756 -0.5956 -0.1613
 1565SOL    HW116328   3.745   1.957  12.699 -1.0813 -0.0386 -0.9397
 1565SOL    HW216329   3.759   2.106  12.707  0.6587  0.2600  1.1006
 1566SOL     OW16330   2.812   2.054   4.317  0.0812 -0.1169 -0.3744
 1566SOL    HW116331   2.750   1.989   4.349 -0.8831  0.1854 -1.6208
 1566SOL    HW216332   2.784   2.047   4.226 -0.2129 -0.5934 -0.2485
 1567SOL     OW16333   2.340   2.174  15.265  0.5906  0.5068  0.1174
 1567SOL    HW116334   2.256   2.218  15.248  1.0198  1.2253 -0.1371
 1567SOL    HW216335   2.335   2.174  15.360  0.7777 -0.0407  0.1252
 1568SOL     OW16336   1.476   4.307   3.580  0.5240  0.0772 -0.1286
 1568SOL    HW116337   1.407   4.369   3.606 -0.6919 -0.2844 -2.4693
 1568SOL    HW216338   1.532   4.360   3.524 -0.6607  1.2332 -0.2253
 1569SOL     OW16339   2.669   4.086   6.066  0.6374 -0.0887 -0.1995
 1569SOL    HW116340   2.680   4.179   6.047 -0.3197 -0.0405 -0.5004
 1569SOL    HW216341   2.635   4.045   5.987  1.6107 -1.2276 -0.0327
 1570SOL     OW16342   4.163   2.036  16.094  0.6851 -0.4174  0.5869
 1570SOL    HW116343   4.112   2.033  16.175  1.1279 -0.6442  0.8551
 1570SOL    HW216344   4.156   1.945  16.064 -1.5596  0.0350 -0.2655
 1571SOL     OW16345   3.173   2.106   2.458 -0.0851 -0.0793  0.5910
 1571SOL    HW116346   3.117   2.140   2.389  0.6514 -1.6384 -0.7699
 1571SOL    HW216347   3.193   2.186   2.506  1.4032 -0.1558  0.0949
 1572SOL     OW16348   3.570   1.561   5.643  0.7625 -0.2441 -0.3300
 1572SOL    HW116349   3.511   1.564   5.718  3.2710 -0.4496  1.6656
 1572SOL    HW216350   3.607   1.473   5.653 -0.9411 -0.5962  2.6351
 1573SOL     OW16351   1.821   0.831   3.425  0.3829  0.1557  0.5126
 1573SOL    HW116352   1.789   0.806   3.512 -0.8561  1.7318  0.5185
 1573SOL    HW216353   1.743   0.852   3.374  1.0375  0.6172 -0.2972
 1574SOL     OW16354   2.800   4.180   8.209  0.2315  0.8991  0.6496
 1574SOL    HW116355   2.799   4.202   8.302  0.0086 -0.2557  0.9221
 1574SOL    HW216356   2.718   4.222   8.181 -0.4788  0.5410  2.1651
 1575SOL     OW16357   2.422   2.670   7.038 -0.1999  0.3111 -0.0676
 1575SOL    HW116358   2.438   2.663   7.132  1.6358 -4.7078 -0.6908
 1575SOL    HW216359   2.426   2.579   7.008  1.2796  0.8555 -1.5377
 1576SOL     OW16360   3.857   3.205   7.265  0.0476  0.1967  0.6206
 1576SOL    HW116361   3.923   3.273   7.277  1.4899 -1.0402 -0.1517
 1576SOL    HW216362   3.803   3.219   7.342 -2.6468  2.0592 -1.6396
 1577SOL     OW16363   3.067   1.886  13.624 -0.4994 -0.4989 -0.1032
 1577SOL    HW116364   3.044   1.974  13.652 -0.6737 -1.5088  2.9789
 1577SOL    HW216365   3.153   1.885  13.666 -0.6945  0.4900  0.3141
 1578SOL     OW16366   1.879   3.977   6.073  0.2243  0.7325  0.3578
 1578SOL    HW116367   1.823   4.019   6.008  0.1058  0.2394  0.1423
 1578SOL    HW216368   1.824   3.975   6.151 -1.2582 -3.7735 -0.7608
 1579SOL     OW16369   0.990   3.577   9.648  0.0125  0.3373 -0.0714
 1579SOL    HW116370   0.918   3.515   9.654  1.2319 -1.3147 -2.1796
 1579SOL    HW216371   1.036   3.567   9.732  1.4324 -0.9336 -0.9765
 1580SOL     OW16372   3.548   3.184   5.004  0.1047  0.3398 -0.1275
 1580SOL    HW116373   3.570   3.098   4.968 -0.5438 -0.4240  1.3086
 1580SOL    HW216374   3.457   3.191   4.973  0.2696  3.8457  0.1712
 1581SOL     OW16375   1.357   0.632   7.218 -0.1853 -0.4226 -0.2114
 1581SOL    HW116376   1.271   0.640   7.260 -0.3395  0.1373 -0.6398
 1581SOL    HW216377   1.381   0.554   7.269 -0.8617 -0.4851  0.0190
 1582SOL     OW16378   4.500   2.445   2.785 -0.6417  0.0844 -0.1215
 1582SOL    HW116379   4.557   2.507   2.831 -1.3878  0.6686  0.0139
 1582SOL    HW216380   4.573   2.399   2.742  0.8491  0.6219  1.8435
 1583SOL     OW16381   0.507   1.912   7.500  0.4613 -0.0765 -0.3612
 1583SOL    HW116382   0.591   1.907   7.546 -0.2130 -0.3679  0.8363
 1583SOL    HW216383   0.538   1.856   7.429  1.0898  0.2242 -0.3255
 1584SOL     OW16384   3.481   1.355  11.322  0.4804 -0.4691 -0.2348
 1584SOL    HW116385   3.563   1.349  11.274  0.6471 -2.2411  0.3066
 1584SOL    HW216386   3.416   1.376  11.254  1.0830 -0.8473 -0.9186
 1585SOL     OW16387   2.718   1.199   7.402  0.0961 -0.3324 -0.5839
 1585SOL    HW116388   2.756   1.181   7.488  0.4591 -1.8410 -1.0440
 1585SOL    HW216389   2.771   1.270   7.366  0.0285 -0.0303 -0.0727
 1586SOL     OW16390   2.790   2.871  15.705  0.1119  0.1052 -0.0884
 1586SOL    HW116391   2.866   2.831  15.665 -0.1031 -0.3545 -0.0307
 1586SOL    HW216392   2.734   2.794  15.701  0.4156 -0.0758 -0.7535
 1587SOL     OW16393   2.173   1.417   5.739  0.4413  0.1596 -0.0116
 1587SOL    HW116394   2.266   1.438   5.737  0.6576 -0.8854 -0.5644
 1587SOL    HW216395   2.182   1.323   5.727 -1.2884 -0.1958  1.4816
 1588SOL     OW16396   1.858   3.083   5.047 -0.3881  0.1013 -0.1554
 1588SOL    HW116397   1.807   3.158   5.015 -0.7992 -0.0971  0.0345
 1588SOL    HW216398   1.843   3.018   4.978  3.3355 -0.3571 -0.5071
 1589SOL     OW16399   4.396   0.272  14.279  0.1837 -0.6126 -0.3983
 1589SOL    HW116400   4.372   0.342  14.218  3.3148  0.3145 -0.5961
 1589SOL    HW216401   4.312   0.254  14.321 -0.8042  0.7714 -1.7673
 1590SOL     OW16402   4.434   3.154   7.608 -0.1325 -0.1912 -0.5130
 1590SOL    HW116403   4.363   3.177   7.668 -0.8115  1.1273 -1.8370
 1590SOL    HW216404   4.459   3.066   7.637 -1.5977 -0.6702 -0.6696
 1591SOL     OW16405   0.880   4.367  13.101 -0.0191 -0.7904 -0.3378
 1591SOL    HW116406   0.921   4.349  13.016 -1.9351 -3.7164 -0.6447
 1591SOL    HW216407   0.952   4.347  13.161 -0.4707  2.1745  1.1816
 1592SOL     OW16408   0.977   1.704   6.136 -0.5273  0.2168  0.0736
 1592SOL    HW116409   1.013   1.770   6.195 -2.8878 -0.1125  1.8795
 1592SOL    HW216410   0.947   1.755   6.060 -0.0438 -0.3991 -0.5295
 1593SOL     OW16411   1.489   3.804  15.270  0.1428 -0.1911 -0.0484
 1593SOL    HW116412   1.539   3.753  15.333  0.0083  0.9909  1.0045
 1593SOL    HW216413   1.526   3.758  15.194 -1.4579  0.7989 -1.4535
 1594SOL     OW16414   4.279   3.264   6.007 -0.2090  0.0559  0.3766
 1594SOL    HW116415   4.316   3.307   6.085  1.9147 -1.5601  0.2482
 1594SOL    HW216416   4.316   3.176   6.003  0.7258  0.4748 -0.2810
 1595SOL     OW16417   1.315   2.820   7.850  0.1660  0.1851  0.0820
 1595SOL    HW116418   1.304   2.780   7.764 -0.6368  1.5703 -0.4512
 1595SOL    HW216419   1.326   2.744   7.908 -1.6843 -1.5711 -1.8798
 1596SOL     OW16420   0.336   3.991   5.144  0.0443 -0.7903  0.2860
 1596SOL    HW116421   0.274   3.924   5.118 -0.8028  1.4460 -3.4018
 1596SOL    HW216422   0.416   3.950   5.109  1.5192 -0.8912  3.7446
 1597SOL     OW16423   1.679   0.116   2.107  0.1521  0.0409 -0.0905
 1597SOL    HW116424   1.744   0.107   2.177  0.0912 -0.3584 -0.0826
 1597SOL    HW216425   1.614   0.169   2.152  1.3593  0.3162  1.3429
 1598SOL     OW16426   0.240   3.490  16.063 -0.2301 -0.0029  0.4918
 1598SOL    HW116427   0.299   3.417  16.083  0.3193  0.0603 -0.8985
 1598SOL    HW216428   0.170   3.447  16.015 -2.0304  1.8069  1.5120
 1599SOL     OW16429   2.645   1.656   8.201  0.1535 -0.1790  0.0151
 1599SOL    HW116430   2.673   1.735   8.248  0.6324 -0.2614 -0.1287
 1599SOL    HW216431   2.583   1.610   8.257 -0.6848  1.0376  0.0987
 1600SOL     OW16432   0.863   4.113   3.544  0.2725 -0.2557  0.1491
 1600SOL    HW116433   0.947   4.139   3.583  0.7795 -0.2383 -0.9697
 1600SOL    HW216434   0.831   4.061   3.617  1.5732 -0.2780  0.7062
 1601SOL     OW16435   2.303   4.552  14.398  0.1260 -0.0774  0.8775
 1601SOL    HW116436   2.385   4.591  14.370  0.5369 -1.7052 -0.1464
 1601SOL    HW216437   2.324   4.462  14.422  1.3121 -0.2386 -0.7879
 1602SOL     OW16438   2.713   4.241   4.267  0.0463  0.3896 -0.2466
 1602SOL    HW116439   2.712   4.164   4.323 -2.1108  0.5159 -0.1187
 1602SOL    HW216440   2.763   4.298   4.326  1.6188 -0.2548 -0.9757
 1603SOL     OW16441   1.584   3.846   5.858  0.0067 -0.1398 -0.1525
 1603SOL    HW116442   1.635   3.782   5.908 -0.3797 -0.0524  0.3534
 1603SOL    HW216443   1.549   3.899   5.929 -2.7269 -1.0433 -0.8354
 1604SOL     OW16444   3.106   3.515   3.859  0.4910 -0.3203  0.0476
 1604SOL    HW116445   3.193   3.549   3.838  0.2537 -1.5090 -2.9683
 1604SOL    HW216446   3.077   3.567   3.933  0.4648 -0.8378  0.4047
 1605SOL     OW16447   2.758   1.226   5.292 -0.0672  0.0458  0.2373
 1605SOL    HW116448   2.781   1.288   5.362  2.7948 -0.8091  0.0829
 1605SOL    HW216449   2.724   1.285   5.226  0.6079 -2.0449 -1.9939
 1606SOL     OW16450   2.753   3.923   8.328  0.0696  0.7324 -0.1749
 1606SOL    HW116451   2.752   3.984   8.255  0.7210  0.0797 -0.7293
 1606SOL    HW216452   2.814   3.856   8.297  2.3106  1.5939  2.3731
 1607SOL     OW16453   1.222   4.204   5.591  0.5621  0.7910  0.4214
 1607SOL    HW116454   1.257   4.115   5.584 -0.8248  0.1084  2.3428
 1607SOL    HW216455   1.300   4.259   5.593  0.7347  0.5460  0.4835
 1608SOL     OW16456   2.790   2.460   7.333  0.3755 -0.1628 -0.2105
 1608SOL    HW116457   2.853   2.476   7.404  1.4349  2.7220 -1.8185
 1608SOL    HW216458   2.853   2.467   7.262 -0.9771 -1.0474 -1.5030
 1609SOL     OW16459   2.890   3.213   5.433  0.2106  0.6626  0.2252
 1609SOL    HW116460   2.800   3.244   5.426 -0.2167 -0.6501 -0.0579
 1609SOL    HW216461   2.908   3.197   5.526  1.1336 -1.8585 -0.3812
 1610SOL     OW16462   3.220   3.227   8.019  0.3898 -0.1812 -0.0082
 1610SOL    HW116463   3.183   3.251   7.934 -1.0799 -0.2229  0.6155
 1610SOL    HW216464   3.209   3.311   8.063  3.3465  0.1880  0.0125
 1611SOL     OW16465   2.921   2.737   2.269 -0.4271  0.0920  0.1918
 1611SOL    HW116466   2.924   2.666   2.204 -1.7925 -0.9233  1.2293
 1611SOL    HW216467   2.994   2.794   2.247 -1.0266  0.6656 -0.3233
 1612SOL     OW16468   1.739   2.210   4.918  0.2060 -0.6746  0.3893
 1612SOL    HW116469   1.811   2.162   4.877  0.8485  0.3517  0.2833
 1612SOL    HW216470   1.686   2.243   4.845  0.9833  2.0748  1.0436
 1613SOL     OW16471   4.010   4.019   8.876 -0.3378 -0.3602 -0.4629
 1613SOL    HW116472   3.946   4.068   8.929 -2.0439 -3.3770  0.2549
 1613SOL    HW216473   4.033   4.085   8.810  1.1674 -0.8351 -0.4129
 1614SOL     OW16474   0.966   1.961   4.502 -0.5363 -0.1594 -0.1978
 1614SOL    HW116475   0.875   1.988   4.488  0.3722  2.5238 -0.9086
 1614SOL    HW216476   0.997   2.050   4.514  0.9615 -0.5078 -1.5472
 1615SOL     OW16477   3.676   2.027   5.154 -0.3288 -0.2309 -0.1684
 1615SOL    HW116478   3.597   2.035   5.207 -0.9063  1.2816 -1.2638
 1615SOL    HW216479   3.647   1.966   5.085  1.5343 -0.7715 -0.4652
 1616SOL     OW16480   1.112   2.954  11.909  0.0927  0.0818 -0.2867
 1616SOL    HW116481   1.207   2.945  11.905  0.0780 -0.3594  0.6050
 1616SOL    HW216482   1.082   2.906  11.831  1.3697 -1.4436  0.1655
 1617SOL     OW16483   1.882   2.816   1.460 -0.6129 -1.0891  0.6407
 1617SOL    HW116484   1.944   2.773   1.402 -0.0899 -0.2027  0.5620
 1617SOL    HW216485   1.849   2.893   1.414 -1.1130 -1.3342  0.5833
 1618SOL     OW16486   0.360   2.154   0.559 -0.0519 -0.2922 -0.4961
 1618SOL    HW116487   0.383   2.246   0.543 -0.0152 -0.1737  0.2439
 1618SOL    HW216488   0.412   2.137   0.637  0.5443 -0.7024 -0.9891
 1619SOL     OW16489   1.148   2.281   7.535  0.2655 -0.0889  0.2574
 1619SOL    HW116490   1.083   2.309   7.470  1.2015  3.5095  0.8830
 1619SOL    HW216491   1.210   2.354   7.535 -0.2505  0.3619  0.9246
 1620SOL     OW16492   2.756   4.248   6.846 -1.0378 -0.1663  0.4016
 1620SOL    HW116493   2.716   4.264   6.760  0.3466 -1.3556 -0.4613
 1620SOL    HW216494   2.849   4.266   6.834 -1.0410  0.4109  1.2748
 1621SOL     OW16495   2.904   2.053   8.976 -0.6250 -0.5817 -0.1992
 1621SOL    HW116496   2.898   2.145   9.002 -0.4530 -1.0143  1.3884
 1621SOL    HW216497   2.980   2.051   8.918 -0.9198  0.4983 -0.6217
 1622SOL     OW16498   0.600   2.891   2.898 -0.1845 -0.6732  0.1506
 1622SOL    HW116499   0.652   2.820   2.859 -2.0801 -2.1510  0.2852
 1622SOL    HW216500   0.562   2.934   2.822  1.7390  0.9481  0.1163
 1623SOL     OW16501   0.122   0.781   9.853  0.1562  0.0153 -0.0315
 1623SOL    HW116502   0.105   0.780   9.759  0.0402 -1.4168  0.0106
 1623SOL    HW216503   0.215   0.756   9.851  0.5237  1.3274  0.3042
 1624SOL     OW16504   1.990   3.503  10.543 -0.4170 -0.0316 -0.2740
 1624SOL    HW116505   1.939   3.467  10.470  1.1767 -0.7633 -1.0125
 1624SOL    HW216506   2.005   3.423  10.594 -0.4147 -1.1349 -2.0251
 1625SOL     OW16507   0.325   3.640  15.051 -0.4239  0.4984 -0.4815
 1625SOL    HW116508   0.381   3.705  15.094 -1.2026  0.9112 -0.1042
 1625SOL    HW216509   0.240   3.681  15.065  0.2773  1.4659  0.9433
 1626SOL     OW16510   0.520   0.999   6.029  0.2858  0.1314  0.0910
 1626SOL    HW116511   0.474   1.077   5.996 -0.0158 -0.3762 -0.6839
 1626SOL    HW216512   0.605   1.033   6.056 -0.4009  2.1360 -0.2006
 1627SOL     OW16513   4.341   1.895   5.968 -0.1194  0.2652  0.5507
 1627SOL    HW116514   4.266   1.938   6.008 -0.2023  2.3407 -1.7850
 1627SOL    HW216515   4.401   1.968   5.984 -0.6043  0.6148  0.7602
 1628SOL     OW16516   4.561   2.573  14.305 -0.0148  0.6193  0.4803
 1628SOL    HW116517   4.585   2.522  14.227 -1.6334  2.0937 -0.9782
 1628SOL    HW216518   4.650   2.597  14.332  0.0294  0.7534  0.2198
 1629SOL     OW16519   1.067   4.068   9.128  0.3132  0.4392  0.2087
 1629SOL    HW116520   1.052   4.135   9.195 -1.6927  1.6818 -1.4950
 1629SOL    HW216521   0.997   4.093   9.068 -0.0747 -0.7885  0.1676
 1630SOL     OW16522   2.565   2.713  15.632 -0.2003  0.2285 -0.1115
 1630SOL    HW116523   2.547   2.648  15.564  1.5466 -0.2709 -0.1031
 1630SOL    HW216524   2.514   2.679  15.705 -0.7177 -0.6657 -0.9006
 1631SOL     OW16525   1.312   0.748  11.299  0.0592 -0.0063 -0.0755
 1631SOL    HW116526   1.301   0.719  11.390  0.2092  0.0382 -0.0448
 1631SOL    HW216527   1.379   0.686  11.271  0.7383  1.4640 -1.6818
 1632SOL     OW16528   2.987   1.447   1.928  0.3044 -0.2522  0.4365
 1632SOL    HW116529   2.908   1.486   1.890  1.6354  1.0507 -0.9811
 1632SOL    HW216530   2.958   1.356   1.929 -2.0256  0.4774  0.7092
 1633SOL     OW16531   3.855   1.868  12.986 -0.2682 -0.2582 -0.4220
 1633SOL    HW116532   3.818   1.933  12.927 -2.3826 -0.1339  1.0597
 1633SOL    HW216533   3.948   1.887  12.972 -0.8777  1.9034 -1.4636
 1634SOL     OW16534   1.239   2.766   7.572 -0.0988 -0.3562  0.3734
 1634SOL    HW116535   1.278   2.679   7.562  1.0897  0.0682  1.3956
 1634SOL    HW216536   1.152   2.740   7.604  0.0041 -1.3060 -0.0860
 1635SOL     OW16537   2.625   3.321   3.700 -0.9860  0.5033 -0.7907
 1635SOL    HW116538   2.568   3.385   3.656 -0.3360  0.3001 -1.9370
 1635SOL    HW216539   2.706   3.372   3.701  0.3302 -1.6288 -0.0970
 1636SOL     OW16540   3.323   1.952   3.562 -0.3658  0.4761 -0.0967
 1636SOL    HW116541   3.350   1.974   3.473 -0.3775 -1.3165 -0.5540
 1636SOL    HW216542   3.284   2.036   3.585  1.3942  0.9328  1.1427
 1637SOL     OW16543   1.434   0.413  12.897  0.1937  0.2527  0.4825
 1637SOL    HW116544   1.470   0.498  12.921 -0.3084  0.6079 -0.0093
 1637SOL    HW216545   1.451   0.365  12.978 -2.0837  0.8771  1.3340
 1638SOL     OW16546   1.627   1.447   7.585  0.1601 -0.1990 -0.3675
 1638SOL    HW116547   1.606   1.359   7.618 -1.6909  0.6289  0.6126
 1638SOL    HW216548   1.723   1.442   7.576  0.1090  2.1697 -2.2749
 1639SOL     OW16549   0.097   4.539   8.096 -0.0353 -0.0206 -0.4616
 1639SOL    HW116550   0.043   4.470   8.135  0.3955  0.7057  1.4513
 1639SOL    HW216551   0.042   4.612   8.125 -0.5700 -0.3480 -0.6490
 1640SOL     OW16552   1.819   2.971   6.259 -0.2452 -0.4366  0.2855
 1640SOL    HW116553   1.807   2.879   6.280 -0.6786 -0.3034  0.6296
 1640SOL    HW216554   1.788   2.969   6.168 -1.2813  4.5961  0.5280
 1641SOL     OW16555   4.644   4.260  16.630 -0.3174  0.0804  0.0479
 1641SOL    HW116556   0.003   4.258  16.633 -0.3715 -0.1517  1.8038
 1641SOL    HW216557   4.624   4.186  16.573 -0.6148 -0.5574  0.9848
 1642SOL     OW16558   2.027   0.228   4.430  0.4210  0.5073  0.0962
 1642SOL    HW116559   2.017   0.298   4.494 -1.2453 -0.8708  1.3319
 1642SOL    HW216560   2.104   0.261   4.385  0.5011 -1.3031 -1.0885
 1643SOL     OW16561   0.797   4.342   4.893  0.2066  0.1193 -0.0219
 1643SOL    HW116562   0.854   4.272   4.924 -1.2293 -0.4018  1.4478
 1643SOL    HW216563   0.753   4.365   4.975 -2.1375  0.9353 -1.5101
 1644SOL     OW16564   3.633   3.512   7.289  0.2390 -0.5642 -0.3436
 1644SOL    HW116565   3.542   3.522   7.263  0.9161 -0.1662 -2.5518
 1644SOL    HW216566   3.628   3.524   7.384 -1.0237 -1.0466 -0.3545
 1645SOL     OW16567   4.086   0.195   5.931  0.5131  0.0404  0.1454
 1645SOL    HW116568   4.128   0.240   5.857 -0.9722 -0.7017 -1.1517
 1645SOL    HW216569   4.132   0.112   5.946 -0.0616 -0.5541 -1.3419
 1646SOL     OW16570   4.266   2.237  14.282 -0.2652  0.0645 -0.4078
 1646SOL    HW116571   4.347   2.198  14.315  0.0633  0.0573 -1.2233
 1646SOL    HW216572   4.271   2.327  14.314 -1.4313  0.4316 -1.2508
 1647SOL     OW16573   1.095   1.745   3.200 -0.3991 -0.1063  0.0911
 1647SOL    HW116574   1.111   1.752   3.106  2.4851  3.6243  0.9010
 1647SOL    HW216575   1.021   1.683   3.197  1.4462 -2.1822 -2.5172
 1648SOL     OW16576   3.542   2.663  11.042 -0.0655  0.8315 -0.4969
 1648SOL    HW116577   3.620   2.629  11.086 -0.6108 -0.0600 -0.2109
 1648SOL    HW216578   3.476   2.594  11.054  1.2937 -0.4258 -0.2877
 1649SOL     OW16579   0.538   3.401  10.546 -0.6244  0.1274 -0.0409
 1649SOL    HW116580   0.625   3.438  10.561 -0.2515 -0.7272 -0.0877
 1649SOL    HW216581   0.494   3.437  10.623 -0.2851 -1.3648  0.8597
 1650SOL     OW16582   2.707   3.685   3.822  0.2474 -0.2238 -0.2388
 1650SOL    HW116583   2.749   3.770   3.831 -2.0282  0.8441  0.3582
 1650SOL    HW216584   2.683   3.648   3.907  2.9441 -0.4458  0.4284
 1651SOL     OW16585   2.133   4.237   7.362  0.5100  0.0335  0.1962
 1651SOL    HW116586   2.157   4.186   7.285 -0.0338 -1.1707  0.8206
 1651SOL    HW216587   2.218   4.264   7.397  0.7381  1.4266 -1.4667
 1652SOL     OW16588   1.899   0.840   6.541  0.0273  0.9116  0.7381
 1652SOL    HW116589   1.922   0.899   6.612  1.4885 -2.2948  2.9340
 1652SOL    HW216590   1.983   0.799   6.519 -1.9174 -1.5952 -2.0442
 1653SOL     OW16591   4.215   0.878  11.543  0.4495 -0.7262 -0.4082
 1653SOL    HW116592   4.301   0.858  11.507  0.5243 -0.7154 -0.2343
 1653SOL    HW216593   4.191   0.945  11.479  0.8850  0.9707  1.1951
 1654SOL     OW16594   1.973   1.001   9.115  0.6937  0.3226  0.2186
 1654SOL    HW116595   2.028   1.002   9.036  1.3704 -0.3281  0.6699
 1654SOL    HW216596   1.895   1.047   9.085  0.0962 -0.6690  0.2584
 1655SOL     OW16597   4.177   2.286   2.453  0.3115 -0.3344  0.5893
 1655SOL    HW116598   4.105   2.347   2.470  0.4735 -0.2454  0.9689
 1655SOL    HW216599   4.124   2.223   2.404  0.5042 -0.2267  0.2469
 1656SOL     OW16600   4.035   2.624   7.643  0.5419 -0.2198 -0.4742
 1656SOL    HW116601   4.096   2.635   7.716 -2.2044  2.0285  1.4953
 1656SOL    HW216602   3.959   2.667   7.683 -1.2069 -0.7316 -3.2985
 1657SOL     OW16603   2.709   3.503  13.508 -0.4461 -0.3726 -0.4164
 1657SOL    HW116604   2.676   3.425  13.554  0.7068 -0.4958  0.2073
 1657SOL    HW216605   2.770   3.546  13.568 -1.6578 -0.1925  0.6980
 1658SOL     OW16606   3.926   4.415   9.089 -0.0280 -0.4536 -0.0365
 1658SOL    HW116607   3.955   4.504   9.069 -0.4182  0.0337  1.6543
 1658SOL    HW216608   3.868   4.394   9.015  0.4889  3.8312 -1.6207
 1659SOL     OW16609   0.003   0.197   3.618  0.0076  0.0099 -0.5993
 1659SOL    HW116610   4.671   0.262   3.605  0.7299  0.6591 -1.1505
 1659SOL    HW216611   4.684   0.119   3.622 -0.4018  0.3594  0.3691
 1660SOL     OW16612   4.294   3.262   5.714  0.0881  0.2915 -0.4266
 1660SOL    HW116613   4.278   3.309   5.795 -1.2215  0.0429 -0.5386
 1660SOL    HW216614   4.288   3.169   5.738 -1.0153  1.1012  2.4470
 1661SOL     OW16615   1.242   3.681   9.559 -0.3147 -0.9043  0.1322
 1661SOL    HW116616   1.302   3.708   9.629 -1.4418 -0.4453  0.9297
 1661SOL    HW216617   1.154   3.671   9.598  0.6443 -0.5615  2.4183
 1662SOL     OW16618   2.476   0.530   7.058 -0.2436  0.2309 -0.1103
 1662SOL    HW116619   2.445   0.615   7.025  0.9403  0.8924  0.4877
 1662SOL    HW216620   2.540   0.568   7.118 -1.0683  2.1603 -0.4440
 1663SOL     OW16621   2.569   0.324   0.896  0.4686  0.2298  0.3640
 1663SOL    HW116622   2.524   0.406   0.877  0.8736  0.5507  0.7994
 1663SOL    HW216623   2.607   0.344   0.981 -0.7666  1.7439  0.5466
 1664SOL     OW16624   2.229   3.362  11.733 -0.6369 -0.2439  0.0553
 1664SOL    HW116625   2.195   3.332  11.817  3.7830 -0.5801  1.7639
 1664SOL    HW216626   2.224   3.457  11.737 -2.5282 -0.2406 -2.4654
 1665SOL     OW16627   0.617   0.440   7.561  0.1902  0.2036 -0.1682
 1665SOL    HW116628   0.533   0.456   7.517  0.0083  1.0841  0.5025
 1665SOL    HW216629   0.631   0.346   7.553  1.1739  0.3581 -0.1823
 1666SOL     OW16630   3.061   2.047   6.484 -1.0124  0.1495 -0.0564
 1666SOL    HW116631   3.088   1.956   6.480  1.3267  0.6579  3.5466
 1666SOL    HW216632   3.133   2.083   6.432 -0.1063 -1.0940  0.3302
 1667SOL     OW16633   1.625   0.260  13.085  0.3743 -0.0016 -0.5695
 1667SOL    HW116634   1.686   0.212  13.141 -0.1440 -2.4537 -2.0784
 1667SOL    HW216635   1.603   0.196  13.017 -1.3093  0.2660 -0.2719
 1668SOL     OW16636   3.068   4.545   7.715  0.0987 -0.2923  0.1207
 1668SOL    HW116637   3.003   4.515   7.779  1.0946  0.6643  1.5943
 1668SOL    HW216638   3.144   4.581   7.761 -0.1071  0.0820  0.1729
 1669SOL     OW16639   2.308   1.838   6.284  0.7194 -0.3262 -0.1415
 1669SOL    HW116640   2.231   1.826   6.338 -1.1277 -1.8388 -3.0963
 1669SOL    HW216641   2.306   1.756   6.235 -0.4858 -0.0475 -0.5682
 1670SOL     OW16642   1.392   2.621  11.266  0.6066  0.4039 -0.0597
 1670SOL    HW116643   1.452   2.558  11.225  0.5492  0.6402 -0.5004
 1670SOL    HW216644   1.404   2.611  11.361 -0.0152  0.7871  0.0566
 1671SOL     OW16645   1.304   1.894   2.232  0.5618  0.0703 -0.0520
 1671SOL    HW116646   1.276   1.980   2.262 -0.6067  0.2389 -1.5931
 1671SOL    HW216647   1.276   1.894   2.140 -1.5187 -1.5939  0.5727
 1672SOL     OW16648   2.826   4.226   9.145 -0.3927  0.3132 -0.5747
 1672SOL    HW116649   2.874   4.290   9.093 -0.0244  0.0536 -0.5537
 1672SOL    HW216650   2.828   4.261   9.234  1.7929 -0.5694 -0.2707
 1673SOL     OW16651   2.544   3.544   4.802 -0.3628  0.2456 -0.1483
 1673SOL    HW116652   2.513   3.632   4.824  0.2576  0.4764 -0.2080
 1673SOL    HW216653   2.471   3.491   4.769 -0.0025 -0.8089  0.7276
 1674SOL     OW16654   1.810   1.717  14.810 -0.0775 -0.7540 -0.3720
 1674SOL    HW116655   1.857   1.671  14.880  0.4130 -0.2832 -0.3930
 1674SOL    HW216656   1.722   1.698  14.842  0.3672 -1.5496  0.3784
 1675SOL     OW16657   3.925   4.563   4.334 -0.3359 -0.0198 -0.3692
 1675SOL    HW116658   3.913   4.485   4.389 -0.2173  1.9000  2.4221
 1675SOL    HW216659   3.962   4.621   4.401  0.4657  0.2782 -1.0764
 1676SOL     OW16660   2.363   3.211  16.430 -0.0243  0.1705  0.0886
 1676SOL    HW116661   2.277   3.174  16.446 -0.4339  1.3997  0.6914
 1676SOL    HW216662   2.383   3.173  16.344  0.6235 -0.6023  0.5847
 1677SOL     OW16663   4.182   1.710   4.217  0.1357  0.3739  0.2794
 1677SOL    HW116664   4.090   1.731   4.207 -0.2800  0.1387  3.5011
 1677SOL    HW216665   4.231   1.792   4.204 -1.3061  1.2762  0.5428
 1678SOL     OW16666   2.602   3.430  10.849  0.7448 -0.3223  0.5051
 1678SOL    HW116667   2.595   3.489  10.924  3.0397  1.5185 -0.7353
 1678SOL    HW216668   2.695   3.441  10.829 -0.1238  0.8471 -2.8869
 1679SOL     OW16669   4.438   1.633   7.384  0.1545 -0.0260  0.0147
 1679SOL    HW116670   4.441   1.539   7.367 -3.4468 -0.0576 -0.4631
 1679SOL    HW216671   4.486   1.657   7.304  1.4330 -1.5119  0.3421
 1680SOL     OW16672   2.004   3.302   3.541  0.5994 -0.5307 -0.3146
 1680SOL    HW116673   1.949   3.380   3.545  0.1355 -0.7528 -2.4986
 1680SOL    HW216674   2.088   3.347   3.553 -0.2901  1.2961 -1.0422
 1681SOL     OW16675   0.499   2.574  10.372 -0.0677 -0.6965  0.0130
 1681SOL    HW116676   0.589   2.547  10.356 -0.3236 -2.4927  1.5886
 1681SOL    HW216677   0.488   2.531  10.457  1.6518 -2.4018 -0.6298
 1682SOL     OW16678   2.066   2.539   6.713  0.0853  0.1480  0.1342
 1682SOL    HW116679   2.044   2.584   6.795 -1.7068  0.0792 -0.3058
 1682SOL    HW216680   2.042   2.447   6.726  1.0296  0.3820  3.6278
 1683SOL     OW16681   4.265   0.058  16.523 -0.4027  0.5057 -0.1670
 1683SOL    HW116682   4.291   0.122  16.457  0.1765  0.7492  0.2950
 1683SOL    HW216683   4.321   4.723  16.492 -0.7202 -0.2614  1.0367
 1684SOL     OW16684   3.306   1.394  16.417  0.1137  0.4090  0.0628
 1684SOL    HW116685   3.383   1.353  16.457  0.0666 -0.8552 -1.1433
 1684SOL    HW216686   3.243   1.322  16.412  0.6926 -0.0060 -1.3828
 1685SOL     OW16687   1.979   0.545  14.434  0.4159 -0.0683  0.4288
 1685SOL    HW116688   1.904   0.549  14.375  0.9238 -2.4125 -0.3796
 1685SOL    HW216689   1.943   0.541  14.523  0.5355  0.9409  0.5191
 1686SOL     OW16690   2.530   3.282   2.992  0.0350 -0.0391  0.0575
 1686SOL    HW116691   2.444   3.286   2.950 -0.2044  0.8488  0.6492
 1686SOL    HW216692   2.588   3.298   2.917  1.3384 -1.0273  0.8490
 1687SOL     OW16693   3.647   3.740   3.529 -0.6090 -0.4702 -0.4640
 1687SOL    HW116694   3.689   3.817   3.490  1.3808 -1.2036  0.2826
 1687SOL    HW216695   3.575   3.776   3.582 -0.6722 -0.4843 -0.5394
 1688SOL     OW16696   3.988   1.988   5.775 -0.0510 -0.4963  0.4471
 1688SOL    HW116697   3.967   1.995   5.868  0.5795 -0.1016  0.5600
 1688SOL    HW216698   3.908   1.956   5.734 -0.4335  0.4393  0.4458
 1689SOL     OW16699   3.924   0.256  14.011 -0.0968 -0.1057  0.0882
 1689SOL    HW116700   3.954   0.327  14.068  0.4625 -0.5573  0.3639
 1689SOL    HW216701   3.973   0.179  14.042 -0.5843 -0.2307  0.5493
 1690SOL     OW16702   0.764   4.137  13.424  0.6120 -0.2655 -0.6008
 1690SOL    HW116703   0.737   4.127  13.333  0.1328  2.8479 -0.8057
 1690SOL    HW216704   0.681   4.106  13.461 -1.1860  0.1995 -4.1522
 1691SOL     OW16705   1.142   2.927   1.721 -0.4002 -0.0541 -0.3181
 1691SOL    HW116706   1.200   2.852   1.707 -1.0125 -0.4583 -0.7190
 1691SOL    HW216707   1.198   3.005   1.724 -0.5545 -0.0252  1.3735
 1692SOL     OW16708   0.213   3.040  16.669 -0.2555  0.6463  0.5186
 1692SOL    HW116709   0.277   2.978  16.633 -0.6247  1.0781 -0.8659
 1692SOL    HW216710   0.266   3.117  16.649  0.3251  0.0667 -0.2009
 1693SOL     OW16711   3.228   1.084   2.392 -0.0761 -0.4722  0.3093
 1693SOL    HW116712   3.198   1.147   2.327  1.5429 -1.6470 -1.6084
 1693SOL    HW216713   3.319   1.100   2.417 -0.8093  2.7636  0.8772
 1694SOL     OW16714   3.264   0.816   9.204  0.0578 -0.3547 -0.6076
 1694SOL    HW116715   3.262   0.790   9.296  2.4166  0.4675 -0.3151
 1694SOL    HW216716   3.170   0.829   9.193 -0.0074 -0.1768  0.1773
 1695SOL     OW16717   0.804   0.396   2.763  0.6791  0.1836  0.7400
 1695SOL    HW116718   0.842   0.361   2.844  0.6685 -0.2753  0.5484
 1695SOL    HW216719   0.870   0.371   2.699 -1.3590  0.6513 -1.5616
 1696SOL     OW16720   2.411   2.046   9.113 -0.1707  0.0499 -0.6093
 1696SOL    HW116721   2.478   2.114   9.128  0.3514 -1.0918  2.0863
 1696SOL    HW216722   2.396   2.035   9.206 -0.4931 -1.3460 -0.8305
 1697SOL     OW16723   3.928   0.876   2.376  0.6805  0.0463  0.0298
 1697SOL    HW116724   3.947   0.873   2.282 -0.5683 -0.7723 -0.1971
 1697SOL    HW216725   3.978   0.797   2.395  0.7303 -0.5148 -2.4346
 1698SOL     OW16726   1.627   4.451  12.629  0.6993  0.2324 -0.0089
 1698SOL    HW116727   1.613   4.401  12.549  0.3411  0.4466 -0.0779
 1698SOL    HW216728   1.720   4.472  12.640  0.3224  2.3296 -0.9636
 1699SOL     OW16729   2.217   3.435  11.442  0.4819 -0.4332 -0.0665
 1699SOL    HW116730   2.203   3.529  11.455  3.5904  0.0556 -0.3096
 1699SOL    HW216731   2.292   3.424  11.500 -0.8018 -0.0472  1.6731
 1700SOL     OW16732   1.053   4.370   3.677  0.1467  0.2492 -0.2383
 1700SOL    HW116733   1.089   4.282   3.669  2.0114  0.7676  2.3127
 1700SOL    HW216734   1.134   4.419   3.693  1.2521 -1.1354 -1.6545
 1701SOL     OW16735   2.597   2.067  11.345  0.5519  0.0712 -0.0248
 1701SOL    HW116736   2.531   2.134  11.329  0.0653 -0.6851 -1.1495
 1701SOL    HW216737   2.621   2.104  11.430  1.2646 -1.0178  0.2493
 1702SOL     OW16738   4.064   2.229   5.743 -0.3892  0.5235 -0.3444
 1702SOL    HW116739   4.112   2.227   5.660  0.5527 -1.4053  0.2417
 1702SOL    HW216740   4.044   2.135   5.745  1.4698  0.1453  0.7732
 1703SOL     OW16741   0.055   1.806   9.032 -0.1870  0.5689  0.0975
 1703SOL    HW116742   0.123   1.754   9.077  0.1074  1.7262  0.9967
 1703SOL    HW216743   4.712   1.797   9.084  1.2566  0.9474  2.3822
 1704SOL     OW16744   3.286   0.182  10.152  0.0101 -0.0685  0.5451
 1704SOL    HW116745   3.247   0.099  10.180  1.1669 -1.1327 -1.0188
 1704SOL    HW216746   3.350   0.180  10.223  0.6207  0.7992  0.0188
 1705SOL     OW16747   3.400   1.665   7.009  0.0904 -0.0264 -0.4207
 1705SOL    HW116748   3.472   1.603   7.017  0.1401  0.3001  1.6534
 1705SOL    HW216749   3.396   1.696   7.099  2.2782  0.3432 -0.4528
 1706SOL     OW16750   0.798   4.493   3.527 -0.3743  0.0870 -0.5113
 1706SOL    HW116751   0.781   4.401   3.547 -0.1906  0.2026  0.1999
 1706SOL    HW216752   0.894   4.493   3.526 -0.3388 -0.3997  2.0408
 1707SOL     OW16753   3.326   4.100   5.565 -0.0945  0.0811 -0.2557
 1707SOL    HW116754   3.385   4.136   5.499 -2.2495  1.7904 -1.2625
 1707SOL    HW216755   3.320   4.186   5.606  0.2666 -0.8239  1.6830
 1708SOL     OW16756   0.807   1.760   3.745 -0.5362  0.4238 -0.6792
 1708SOL    HW116757   0.897   1.761   3.778 -0.6983  1.2563 -0.2632
 1708SOL    HW216758   0.782   1.847   3.776  1.6532  1.1525 -0.9442
 1709SOL     OW16759   0.989   2.638  10.178  0.2419  0.1867  0.3661
 1709SOL    HW116760   1.037   2.702  10.231  0.1579 -0.4342  1.1823
 1709SOL    HW216761   1.016   2.663  10.089  0.3006  0.0386  0.3427
 1710SOL     OW16762   4.294   0.482   7.138  0.6744 -0.3478 -0.2349
 1710SOL    HW116763   4.365   0.504   7.077  1.2428 -2.0187 -0.1679
 1710SOL    HW216764   4.249   0.409   7.097 -2.8968  1.3479  0.7153
 1711SOL     OW16765   1.556   2.501   6.584  0.7732 -0.4060 -0.1837
 1711SOL    HW116766   1.537   2.552   6.505  2.5716 -1.1866 -1.1241
 1711SOL    HW216767   1.489   2.433   6.581 -0.1043  0.4738 -0.3909
 1712SOL     OW16768   2.525   0.101   5.793  0.4091 -0.3815  0.0076
 1712SOL    HW116769   2.467   0.177   5.795  1.4577  0.4874 -2.4018
 1712SOL    HW216770   2.522   0.086   5.887  1.1123 -1.1820 -0.1034
 1713SOL     OW16771   4.433   4.462   9.504 -0.0406  0.4030  0.2282
 1713SOL    HW116772   4.347   4.475   9.544  0.4030  0.2518  1.2267
 1713SOL    HW216773   4.493   4.494   9.571  0.8512 -1.1825  0.1900
 1714SOL     OW16774   2.585   0.214   6.593 -0.7535  0.3299 -0.4273
 1714SOL    HW116775   2.604   0.303   6.565 -0.2680  0.6703  1.0026
 1714SOL    HW216776   2.556   0.215   6.684  0.6553 -1.4902  0.0177
 1715SOL     OW16777   1.364   3.067   1.059  0.4296 -0.3304  0.3681
 1715SOL    HW116778   1.451   3.035   1.040  0.5364 -0.0425  0.3659
 1715SOL    HW216779   1.310   3.016   0.999  0.5623  2.0782 -1.8023
 1716SOL     OW16780   1.892   1.415   6.509 -0.5944 -0.0757 -0.2870
 1716SOL    HW116781   1.853   1.497   6.480 -0.8480 -0.9445 -2.3955
 1716SOL    HW216782   1.981   1.427   6.476 -1.0168  3.4487 -0.1192
 1717SOL     OW16783   3.098   4.271   4.921 -0.3405  0.4637  0.1469
 1717SOL    HW116784   3.085   4.194   4.977  0.3975  1.2162  1.3434
 1717SOL    HW216785   3.186   4.254   4.886 -0.4894 -1.2165  0.5776
 1718SOL     OW16786   0.505   2.835  10.364 -0.2446  0.2971 -0.5119
 1718SOL    HW116787   0.570   2.856  10.431 -0.9166 -0.5975  0.4173
 1718SOL    HW216788   0.505   2.739  10.362  2.4825  0.2965 -1.2808
 1719SOL     OW16789   1.716   4.186   7.743  0.2515  0.2056  0.2407
 1719SOL    HW116790   1.751   4.213   7.827 -0.4424 -0.8046  0.8564
 1719SOL    HW216791   1.795   4.180   7.689  1.6009  1.8314  2.0502
 1720SOL     OW16792   2.694   2.448  14.982 -0.0255  0.9167  0.0114
 1720SOL    HW116793   2.688   2.534  15.024 -0.7328  0.8947 -0.0520
 1720SOL    HW216794   2.788   2.440  14.967  0.1546 -0.7548  1.9412
 1721SOL     OW16795   2.240   3.760  12.050  0.3760  0.4075  0.1217
 1721SOL    HW116796   2.332   3.739  12.036 -0.1449 -1.2846 -0.7907
 1721SOL    HW216797   2.228   3.732  12.141 -1.5226  1.9868  0.3506
 1722SOL     OW16798   2.658   2.496  14.608  0.3717 -0.2403 -0.1851
 1722SOL    HW116799   2.612   2.563  14.558  1.0451 -0.5677 -1.2377
 1722SOL    HW216800   2.661   2.422  14.548 -0.3276 -1.8724  1.7744
 1723SOL     OW16801   4.111   4.428   2.038  0.3440 -0.5820 -0.1999
 1723SOL    HW116802   4.170   4.491   2.081 -0.4560  0.1382 -0.1717
 1723SOL    HW216803   4.070   4.386   2.114 -2.9832  0.1163 -1.6096
 1724SOL     OW16804   0.993   2.460   2.444  0.3379  0.3806  0.0214
 1724SOL    HW116805   0.965   2.375   2.412 -1.1879  0.1125  2.0263
 1724SOL    HW216806   0.928   2.516   2.401 -1.0998 -0.2053  1.4108
 1725SOL     OW16807   4.518   4.394   6.728  0.9855 -0.2464  0.3668
 1725SOL    HW116808   4.543   4.313   6.681 -1.6008 -1.2459  0.7136
 1725SOL    HW216809   4.440   4.415   6.677  1.5782  1.9837  0.3977
 1726SOL     OW16810   1.910   0.622   2.143 -0.1494  0.1491  0.0286
 1726SOL    HW116811   1.991   0.666   2.120  0.6021 -0.8995  0.6547
 1726SOL    HW216812   1.860   0.682   2.199  1.3172 -0.6939  2.2456
 1727SOL     OW16813   1.637   2.007  11.256 -0.2563  0.5373 -0.0872
 1727SOL    HW116814   1.551   1.967  11.249 -0.2256  0.0443  2.1647
 1727SOL    HW216815   1.613   2.098  11.238 -0.6279  0.1995 -1.2502
 1728SOL     OW16816   3.005   0.787   7.070  0.0266  0.0463  0.5464
 1728SOL    HW116817   3.011   0.881   7.054 -0.9411  0.1183  0.6543
 1728SOL    HW216818   3.094   0.764   7.098  0.0629 -1.0441 -0.4688
 1729SOL     OW16819   0.307   3.585   4.474 -0.5241  0.0327  0.0298
 1729SOL    HW116820   0.368   3.577   4.401 -0.2535 -0.9659  0.3682
 1729SOL    HW216821   0.345   3.666   4.508 -0.7896 -0.1306  0.7046
 1730SOL     OW16822   1.198   0.280  17.073 -0.0200 -0.1045 -0.0648
 1730SOL    HW116823   1.218   0.374  17.064 -2.0550  0.5577  2.3360
 1730SOL    HW216824   1.122   0.276  17.015 -1.1191  0.9792  1.2833
 1731SOL     OW16825   2.056   4.199  14.810 -0.9573 -0.0601 -0.2357
 1731SOL    HW116826   2.009   4.207  14.893  2.3336  0.0214  1.6189
 1731SOL    HW216827   2.026   4.118  14.768 -0.3087 -0.1175 -0.5896
 1732SOL     OW16828   1.748   0.332   2.834  0.0457  0.2801 -0.1341
 1732SOL    HW116829   1.716   0.309   2.746 -1.4379  2.8377 -0.2681
 1732SOL    HW216830   1.670   0.365   2.877 -0.1798  0.2795 -0.5478
 1733SOL     OW16831   1.896   3.824   1.502  0.1487  0.1865  0.3956
 1733SOL    HW116832   1.800   3.822   1.500  0.2383 -2.0890 -1.5798
 1733SOL    HW216833   1.909   3.910   1.544 -2.7585  0.0029  1.7060
 1734SOL     OW16834   4.217   1.886  11.857  0.5708  0.5098 -0.3653
 1734SOL    HW116835   4.289   1.825  11.843  2.3338  2.3213  0.9208
 1734SOL    HW216836   4.201   1.913  11.766 -1.7886  0.0308 -0.1070
 1735SOL     OW16837   0.314   1.326   1.518 -0.0986 -0.2902 -0.7563
 1735SOL    HW116838   0.401   1.350   1.548 -0.4912  0.6835 -0.4007
 1735SOL    HW216839   0.285   1.291   1.603 -1.0736 -0.8784 -1.3273
 1736SOL     OW16840   2.585   3.299  17.678  0.3660  0.3133  0.0868
 1736SOL    HW116841   2.601   3.328  17.588  0.5656  2.0705  0.6845
 1736SOL    HW216842   2.499   3.257  17.668  0.0381  0.8390  0.7049
 1737SOL     OW16843   3.235   0.573   7.983  0.4412 -0.2876 -0.3546
 1737SOL    HW116844   3.191   0.597   8.065 -0.7418 -1.7083 -0.5772
 1737SOL    HW216845   3.277   0.491   8.007  0.8090 -0.1927 -0.6713
 1738SOL     OW16846   4.110   0.323   1.861  0.3671  0.2339  0.2945
 1738SOL    HW116847   4.199   0.291   1.845  1.3904  2.9185  0.6573
 1738SOL    HW216848   4.079   0.237   1.888 -1.3495  0.7710 -0.0166
 1739SOL     OW16849   4.111   4.535   4.750  0.1134  0.0062  0.2140
 1739SOL    HW116850   4.067   4.544   4.834 -0.9770 -0.3100 -0.3290
 1739SOL    HW216851   4.042   4.533   4.684  0.8519 -0.2544 -0.5521
 1740SOL     OW16852   0.788   3.234   7.670 -0.2498 -0.0432  0.2454
 1740SOL    HW116853   0.724   3.167   7.694 -1.0723  0.9818  0.9748
 1740SOL    HW216854   0.738   3.315   7.678  1.0781  1.0080 -2.3666
 1741SOL     OW16855   1.004   2.682  13.686  0.4424  0.5414 -0.0867
 1741SOL    HW116856   1.098   2.673  13.703  0.8489  1.2892 -1.8949
 1741SOL    HW216857   0.973   2.592  13.677  0.6475  0.1859  2.7124
 1742SOL     OW16858   3.329   4.589   2.375  0.0640 -0.6038 -0.2006
 1742SOL    HW116859   3.276   4.511   2.364 -2.1034  1.1787 -2.4096
 1742SOL    HW216860   3.264   4.657   2.395  2.2314  1.3018  0.4387
 1743SOL     OW16861   2.961   1.397   3.260 -0.3236  1.0366 -0.3323
 1743SOL    HW116862   3.029   1.395   3.327 -1.0734  2.0702  0.4616
 1743SOL    HW216863   2.933   1.489   3.266 -2.2522  0.4669 -0.8940
 1744SOL     OW16864   2.802   4.007   0.762  0.4059  0.1956  0.2494
 1744SOL    HW116865   2.880   3.953   0.772  0.8883  1.2815  2.2724
 1744SOL    HW216866   2.808   4.036   0.671  0.4607  0.5664  0.3734
 1745SOL     OW16867   2.533   2.052   7.283  0.0557  0.1418 -0.0788
 1745SOL    HW116868   2.589   2.020   7.354 -2.7052 -0.8185  1.7152
 1745SOL    HW216869   2.556   2.144   7.268 -1.1505  0.6030  0.8695
 1746SOL     OW16870   1.334   1.048  17.199 -0.6820  0.0248 -0.5706
 1746SOL    HW116871   1.403   1.109  17.226 -1.2517  0.2376  0.4437
 1746SOL    HW216872   1.276   1.113  17.158 -1.7058  1.0777  2.4716
 1747SOL     OW16873   1.333   2.015   6.909 -0.2730 -0.0785 -0.1358
 1747SOL    HW116874   1.384   1.955   6.963  1.1723  1.0176 -0.2629
 1747SOL    HW216875   1.287   2.069   6.973 -2.2200 -3.1358  1.0310
 1748SOL     OW16876   2.822   4.620   3.279 -0.3133  0.5485 -0.6331
 1748SOL    HW116877   2.744   4.675   3.281  0.1556  1.1303  1.0908
 1748SOL    HW216878   2.846   4.624   3.371 -2.1117  0.5819 -0.1678
 1749SOL     OW16879   0.638   4.447   5.753  0.0408  0.0521 -0.2080
 1749SOL    HW116880   0.601   4.371   5.798 -1.1222  0.1110 -1.0744
 1749SOL    HW216881   0.706   4.482   5.810  0.9290  1.3645 -2.0417
 1750SOL     OW16882   4.538   4.705   8.544 -0.3569  0.7040 -0.2499
 1750SOL    HW116883   4.535   0.012   8.629 -2.9932  2.2184 -1.1264
 1750SOL    HW216884   4.628   4.672   8.546 -0.9849 -1.0550 -0.5466
 1751SOL     OW16885   1.053   4.047   5.819 -0.1373 -0.1564 -0.3812
 1751SOL    HW116886   1.026   4.056   5.728  0.1209 -0.7585 -0.5186
 1751SOL    HW216887   1.017   3.962   5.845  2.7191 -2.0811 -2.6615
 1752SOL     OW16888   0.941   0.832   4.193  0.1242 -0.3617  0.1055
 1752SOL    HW116889   0.911   0.750   4.153  0.6168 -0.7670  0.5650
 1752SOL    HW216890   1.005   0.861   4.128  0.0866  2.3460  1.3140
 1753SOL     OW16891   3.643   1.400   3.910 -0.6477 -0.2027 -0.0557
 1753SOL    HW116892   3.673   1.393   4.001  0.2509  1.1595 -0.2510
 1753SOL    HW216893   3.724   1.435   3.873 -0.5574 -0.2411  0.1068
 1754SOL     OW16894   1.003   1.889  10.582  0.2109  0.1013  0.2666
 1754SOL    HW116895   1.022   1.921  10.494  2.4040 -1.8400  0.0586
 1754SOL    HW216896   0.917   1.849  10.569  0.4225 -0.5958  1.0372
 1755SOL     OW16897   2.887   3.707   3.176  0.2911 -0.1028  0.1809
 1755SOL    HW116898   2.848   3.736   3.259  0.9262  0.2391  0.3597
 1755SOL    HW216899   2.906   3.617   3.203  1.5278  0.3557  0.8635
 1756SOL     OW16900   0.565   3.290   4.170 -0.1846  0.2628  0.4663
 1756SOL    HW116901   0.599   3.258   4.254  1.8580  2.1924  0.4063
 1756SOL    HW216902   0.642   3.265   4.118  1.3678  2.0479  1.8587
 1757SOL     OW16903   2.270   3.989  16.843 -0.0728  0.3452  0.5898
 1757SOL    HW116904   2.283   4.031  16.928  4.9604  4.7671 -2.3331
 1757SOL    HW216905   2.332   4.039  16.790  2.8619 -1.3532  2.4204
 1758SOL     OW16906   1.712   4.533   5.109 -0.2412 -0.1717  0.0999
 1758SOL    HW116907   1.710   4.508   5.201  1.1997  3.4160  1.1154
 1758SOL    HW216908   1.803   4.561   5.107 -0.8818  1.9794  0.8370
 1759SOL     OW16909   3.909   4.474   3.851  0.2411 -0.3212  0.0631
 1759SOL    HW116910   3.900   4.559   3.895 -2.0752 -0.5057 -0.0590
 1759SOL    HW216911   3.873   4.422   3.923 -0.4611 -0.6216 -0.5142
 1760SOL     OW16912   1.645   4.371   9.200 -0.0557  0.1335  0.7210
 1760SOL    HW116913   1.729   4.414   9.190 -1.0957  2.6710  2.9616
 1760SOL    HW216914   1.596   4.394   9.120  1.4509  2.8598  0.5898
 1761SOL     OW16915   2.949   4.056   6.419 -0.5687 -0.1998  0.6835
 1761SOL    HW116916   2.894   4.123   6.379  0.8736 -0.0393 -1.0045
 1761SOL    HW216917   3.034   4.097   6.403  0.1191 -2.1541 -0.7218
 1762SOL     OW16918   0.272   4.067  17.418  0.3090  0.7022 -0.4458
 1762SOL    HW116919   0.243   4.154  17.446  0.4733  0.2331  1.1996
 1762SOL    HW216920   0.236   4.017  17.491  2.6087 -1.4231 -0.7571
 1763SOL     OW16921   2.510   1.913   8.556 -0.3732 -0.6079 -0.4205
 1763SOL    HW116922   2.436   1.858   8.580 -0.1353 -0.9525 -0.4780
 1763SOL    HW216923   2.585   1.865   8.592 -0.8303 -1.3574 -0.4758
 1764SOL     OW16924   2.369   2.484  16.685  0.6099  0.9479  0.2050
 1764SOL    HW116925   2.392   2.477  16.778 -1.9183  1.7510  0.8865
 1764SOL    HW216926   2.276   2.506  16.686  0.5680  0.7407  1.2089
 1765SOL     OW16927   1.119   2.035  11.355  0.6019 -0.4207 -0.1545
 1765SOL    HW116928   1.071   2.034  11.273  2.6891  2.0564 -1.3993
 1765SOL    HW216929   1.047   2.049  11.416  0.1499  2.9241 -1.4753
 1766SOL     OW16930   0.354   4.226  14.494 -0.2202  0.0466  0.0912
 1766SOL    HW116931   0.290   4.206  14.425 -0.3583  0.2616  0.1610
 1766SOL    HW216932   0.321   4.309  14.527 -1.0295  0.0508 -0.7528
 1767SOL     OW16933   0.991   0.419   3.493 -0.0673  0.5288  0.1249
 1767SOL    HW116934   0.940   0.438   3.571  2.6093 -3.3017  2.7850
 1767SOL    HW216935   1.043   0.351   3.535 -0.4371 -0.4260 -0.9440
 1768SOL     OW16936   2.853   1.239  16.527 -0.0244 -0.1792 -0.9146
 1768SOL    HW116937   2.761   1.255  16.544  0.3475  1.9459 -0.8794
 1768SOL    HW216938   2.888   1.183  16.596  1.7101  3.7357  1.4112
 1769SOL     OW16939   3.648   3.158   6.761 -0.3967 -0.1650 -0.2912
 1769SOL    HW116940   3.564   3.161   6.716  0.1184 -2.3303 -1.4100
 1769SOL    HW216941   3.711   3.148   6.690  2.0507  0.7843  1.7373
 1770SOL     OW16942   0.305   4.625  13.001  0.1765 -0.5276  0.5185
 1770SOL    HW116943   0.330   4.697  13.059  0.8088 -0.0998 -0.2784
 1770SOL    HW216944   0.262   4.668  12.927 -0.9838  0.5912  1.8644
 1771SOL     OW16945   1.769   4.449  13.552  0.1809  0.0849  0.0529
 1771SOL    HW116946   1.719   4.415  13.626 -1.2204 -1.9499 -1.8309
 1771SOL    HW216947   1.735   4.398  13.478  2.4006 -0.2633 -0.7104
 1772SOL     OW16948   0.127   0.347   9.411 -0.0024  0.1952  0.5044
 1772SOL    HW116949   0.168   0.278   9.358 -1.3263  0.1743 -0.4846
 1772SOL    HW216950   0.100   0.400   9.336  0.5284  0.3799  0.4420
 1773SOL     OW16951   0.993   4.622   4.341 -0.0907 -0.1115  0.2908
 1773SOL    HW116952   1.054   4.694   4.325  1.1813 -1.8707 -2.7033
 1773SOL    HW216953   1.033   4.567   4.408 -2.0449 -0.5936  1.0691
 1774SOL     OW16954   0.437   3.536  14.834 -1.0145 -0.3563  0.4603
 1774SOL    HW116955   0.391   3.579  14.906  0.2855  0.8981  0.5414
 1774SOL    HW216956   0.526   3.555  14.863 -0.7148 -0.8543 -0.1447
 1775SOL     OW16957   3.309   2.065  11.862  0.0695  0.5082  0.1374
 1775SOL    HW116958   3.386   2.107  11.901  2.3097 -1.1002 -2.4899
 1775SOL    HW216959   3.336   2.084  11.772  1.6960  4.7207  1.5296
 1776SOL     OW16960   3.031   4.276   3.126  0.2488  0.1814  0.4774
 1776SOL    HW116961   3.018   4.367   3.100  1.3827 -0.0238 -0.7861
 1776SOL    HW216962   2.960   4.239   3.073  0.9481  1.2219 -1.1895
 1777SOL     OW16963   1.726   2.778  17.391 -0.5085 -0.4411  0.2297
 1777SOL    HW116964   1.663   2.742  17.454  1.1311 -2.5434  0.6603
 1777SOL    HW216965   1.803   2.760  17.445  0.5813  0.5823 -0.9947
 1778SOL     OW16966   3.168   0.936   4.286  0.1563 -0.2852  0.4934
 1778SOL    HW116967   3.216   0.934   4.203 -0.4883  2.8009  0.0626
 1778SOL    HW216968   3.229   0.891   4.345  0.9015  0.7192  0.4900
 1779SOL     OW16969   3.935   2.963   6.811  0.0672 -0.8310 -0.2233
 1779SOL    HW116970   4.013   2.941   6.862 -0.0099  0.8871  0.6308
 1779SOL    HW216971   3.881   2.998   6.881 -2.0148 -2.2059 -1.1596
 1780SOL     OW16972   3.131   3.333   4.648 -0.1371  0.0402 -0.3312
 1780SOL    HW116973   3.116   3.282   4.569 -0.7675 -0.5618  0.1646
 1780SOL    HW216974   3.212   3.382   4.639  0.4212 -0.9566 -0.6634
 1781SOL     OW16975   0.975   4.471  15.311  0.2167 -0.3439 -0.8216
 1781SOL    HW116976   0.964   4.444  15.219  1.8076  0.5052 -1.2551
 1781SOL    HW216977   0.936   4.397  15.358 -0.0089  0.1685 -0.2218
 1782SOL     OW16978   1.038   4.197  13.324 -0.3527  0.0119  0.3565
 1782SOL    HW116979   0.950   4.192  13.360 -2.0532  4.6310 -3.0790
 1782SOL    HW216980   1.043   4.112  13.280 -0.9348 -0.1390  0.5797
 1783SOL     OW16981   0.474   2.896   5.179 -0.1009 -0.0551  0.0412
 1783SOL    HW116982   0.381   2.916   5.171  0.1727  0.1792 -2.4078
 1783SOL    HW216983   0.478   2.807   5.143 -0.5155 -0.2037  0.3585
 1784SOL     OW16984   2.040   3.519   6.151  0.7172  0.1924  0.0231
 1784SOL    HW116985   2.126   3.495   6.118  0.5830 -0.1794 -0.0633
 1784SOL    HW216986   2.015   3.591   6.093 -0.0637 -0.1869 -0.1152
 1785SOL     OW16987   0.582   1.943   0.494  0.3975 -0.1591  0.8771
 1785SOL    HW116988   0.527   1.882   0.544 -0.5484 -0.6583 -0.7539
 1785SOL    HW216989   0.525   1.981   0.428  2.6909 -0.3230 -1.1995
 1786SOL     OW16990   2.686   4.469   2.935  0.2753 -0.5236  0.1699
 1786SOL    HW116991   2.743   4.539   2.905 -1.6112 -0.3868 -3.1087
 1786SOL    HW216992   2.623   4.506   2.996  0.0564 -0.3094 -0.1869
 1787SOL     OW16993   4.329   4.102   9.870  0.4677 -0.2112  0.2434
 1787SOL    HW116994   4.342   4.051   9.950  2.9473  2.1015  1.3282
 1787SOL    HW216995   4.407   4.090   9.816  0.0356  2.5182 -1.0291
 1788SOL     OW16996   3.064   3.942   8.846 -0.6002  0.5726 -0.7477
 1788SOL    HW116997   3.098   3.859   8.815  1.6811  2.8157 -4.1856
 1788SOL    HW216998   3.016   3.974   8.770 -0.8260 -0.9024 -1.2314
 1789SOL     OW16999   2.587   3.361   6.403  0.2014 -0.5379  0.5394
 1789SOL    HW117000   2.618   3.275   6.377  0.8249 -0.1014 -0.1712
 1789SOL    HW217001   2.498   3.376   6.371  0.2236  0.0558  0.7469
 1790SOL     OW17002   2.394   0.691  12.716  0.2912  0.4080  0.7123
 1790SOL    HW117003   2.448   0.768  12.698 -0.2772  0.3671 -1.1253
 1790SOL    HW217004   2.338   0.712  12.642 -0.0901 -0.7929  0.6607
 1791SOL     OW17005   1.230   1.119   4.924  0.8037  0.0356 -0.3482
 1791SOL    HW117006   1.226   1.194   4.984  0.0507 -0.2550 -0.0341
 1791SOL    HW217007   1.269   1.164   4.849 -0.3050  0.1041 -0.8923
 1792SOL     OW17008   1.153   1.024  13.909 -0.1928  0.3446  0.0133
 1792SOL    HW117009   1.079   0.965  13.920  0.0152  0.4375  1.9785
 1792SOL    HW217010   1.189   1.030  13.998  0.6171  0.2066 -0.3126
 1793SOL     OW17011   0.031   3.903  15.231  0.0010  0.0280  0.2190
 1793SOL    HW117012   0.054   3.829  15.287 -0.1068 -0.5050 -0.4423
 1793SOL    HW217013   0.024   3.868  15.142 -0.1730  1.3317 -0.2769
 1794SOL     OW17014   4.725   0.377   2.055  0.4049  0.1240 -0.5578
 1794SOL    HW117015   4.716   0.439   2.127  0.3818 -1.3960  0.7465
 1794SOL    HW217016   4.660   0.311   2.078 -0.3004  1.4189  1.1660
 1795SOL     OW17017   4.288   2.778  11.542 -0.0248 -0.5784 -0.4455
 1795SOL    HW117018   4.309   2.844  11.475  1.4817  0.4097  1.0033
 1795SOL    HW217019   4.338   2.811  11.616 -1.5789 -0.6587  0.6272
 1796SOL     OW17020   2.931   0.703   2.538  0.4928  0.0192 -0.4970
 1796SOL    HW117021   2.974   0.789   2.543  0.9672 -0.2165 -0.5582
 1796SOL    HW217022   2.922   0.700   2.443 -1.3701  0.0910 -0.3207
 1797SOL     OW17023   2.867   4.708   4.917  0.0705 -0.5408  0.5290
 1797SOL    HW117024   2.917   4.638   4.959  2.0802  0.1827 -0.6589
 1797SOL    HW217025   2.881   0.038   4.984 -0.7033 -1.4284  1.5761
 1798SOL     OW17026   1.098   3.165   7.761  0.0251  0.4116 -0.6169
 1798SOL    HW117027   1.080   3.094   7.822 -1.1469 -1.5777 -3.2857
 1798SOL    HW217028   1.035   3.145   7.692  1.8487 -1.2845 -1.7696
 1799SOL     OW17029   3.343   0.186   4.366 -0.2206 -0.4754 -0.2796
 1799SOL    HW117030   3.312   0.167   4.455  0.8228 -0.1035  0.1682
 1799SOL    HW217031   3.376   0.104   4.329 -0.1108 -0.5591  0.0042
 1800SOL     OW17032   4.329   3.721  11.263 -0.5608 -0.1518  0.1935
 1800SOL    HW117033   4.245   3.703  11.220 -0.3440  1.7611 -1.0261
 1800SOL    HW217034   4.299   3.731  11.353 -0.5774  1.8678 -0.0278
 1801SOL     OW17035   3.569   0.751   6.767  0.7292 -0.3774  0.1968
 1801SOL    HW117036   3.499   0.764   6.702  0.2273 -1.0224  0.6002
 1801SOL    HW217037   3.523   0.711   6.841  1.0675  1.5743  1.4437
 1802SOL     OW17038   1.808   2.960   0.847 -0.2714  0.1942 -0.3759
 1802SOL    HW117039   1.761   3.020   0.904 -0.3441  2.3777 -2.7333
 1802SOL    HW217040   1.857   2.910   0.912 -1.2923  1.3085  1.2612
 1803SOL     OW17041   2.269   3.993   6.599  0.4866  0.1180  0.1574
 1803SOL    HW117042   2.268   3.954   6.687  0.2896 -3.9229 -1.6598
 1803SOL    HW217043   2.227   3.918   6.557 -1.5560  1.5323 -0.3518
 1804SOL     OW17044   0.788   1.676   8.602 -0.1227 -0.3589 -0.0021
 1804SOL    HW117045   0.727   1.653   8.671 -0.6061  1.4878  0.1715
 1804SOL    HW217046   0.732   1.718   8.536 -2.0120 -2.4111  0.2900
 1805SOL     OW17047   2.890   1.132   6.572  0.0748 -0.4257  0.6202
 1805SOL    HW117048   2.806   1.127   6.618  0.0813 -2.3759  0.4312
 1805SOL    HW217049   2.953   1.150   6.642 -1.4284  0.2912  1.7946
 1806SOL     OW17050   1.601   3.520   5.355  0.2402  0.3039 -0.1323
 1806SOL    HW117051   1.520   3.569   5.341  1.2926  2.8830  2.9310
 1806SOL    HW217052   1.634   3.503   5.267  0.7627 -2.0691  0.5398
 1807SOL     OW17053   0.128   0.242   4.230  0.3148 -0.1586 -0.4760
 1807SOL    HW117054   0.116   0.334   4.205 -2.1264  0.6709  3.8545
 1807SOL    HW217055   0.076   0.205   4.158 -3.4514  0.1580  2.0789
 1808SOL     OW17056   2.195   4.680   8.381  0.1072  0.1087  0.5435
 1808SOL    HW117057   2.263   4.613   8.374  1.5004  1.2728  3.2865
 1808SOL    HW217058   2.166   4.682   8.290 -1.7313 -0.6278  1.1125
 1809SOL     OW17059   4.307   1.887   9.070  0.3817 -0.5126  0.4159
 1809SOL    HW117060   4.249   1.811   9.074  0.9290 -1.0417 -1.6491
 1809SOL    HW217061   4.337   1.883   8.979  0.5225 -2.4624  0.5489
 1810SOL     OW17062   3.704   2.771  12.730 -0.3494 -0.1511  0.1184
 1810SOL    HW117063   3.656   2.852  12.710 -2.2859 -0.9640  1.5237
 1810SOL    HW217064   3.636   2.721  12.775 -2.6741  1.4286 -1.6436
 1811SOL     OW17065   3.433   3.996   7.567  0.1346 -0.3004 -0.1975
 1811SOL    HW117066   3.403   4.053   7.637  1.1577  1.7446 -1.4262
 1811SOL    HW217067   3.363   4.016   7.506 -1.5298 -0.5164  1.6564
 1812SOL     OW17068   0.918   2.189   8.296 -0.0320 -0.6894  0.1610
 1812SOL    HW117069   0.846   2.205   8.235  0.7601  0.3186 -0.5177
 1812SOL    HW217070   0.893   2.251   8.364  0.0104 -1.5426  0.9401
 1813SOL     OW17071   4.200   1.011   3.656 -0.2138  0.4185 -0.0814
 1813SOL    HW117072   4.244   1.052   3.582 -1.3223 -1.7639 -1.9508
 1813SOL    HW217073   4.270   1.002   3.721 -0.8200  0.1236  0.5384
 1814SOL     OW17074   2.666   3.476  10.324 -0.7426  0.0686 -0.7443
 1814SOL    HW117075   2.575   3.504  10.315 -0.6257  1.0242  1.0856
 1814SOL    HW217076   2.685   3.496  10.416  1.9430 -1.4932 -0.9557
 1815SOL     OW17077   1.157   4.337   6.721  0.0282 -0.3245  0.3418
 1815SOL    HW117078   1.158   4.409   6.783 -0.1723 -0.1258  0.1156
 1815SOL    HW217079   1.237   4.285   6.727  0.9522  0.9603 -0.9436
 1816SOL     OW17080   2.453   1.369   6.016 -0.8228  0.1291 -0.6356
 1816SOL    HW117081   2.488   1.403   6.098  1.4632  1.4269 -2.1432
 1816SOL    HW217082   2.463   1.276   6.036 -1.5788  0.2887  0.4799
 1817SOL     OW17083   1.524   4.389   4.016  0.4747  0.2585 -0.1545
 1817SOL    HW117084   1.438   4.403   4.056  0.3130  2.4343 -1.2833
 1817SOL    HW217085   1.574   4.469   4.031  2.6087 -0.3860 -3.9278
 1818SOL     OW17086   3.332   0.207   4.055 -0.5620 -0.2609  0.3943
 1818SOL    HW117087   3.257   0.230   4.001 -1.5780 -0.1261  1.8716
 1818SOL    HW217088   3.301   0.243   4.137 -0.4691 -0.1916  0.3985
 1819SOL     OW17089   0.148   2.347  13.839 -0.0664 -0.1968 -0.1684
 1819SOL    HW117090   0.140   2.437  13.870 -0.4577  0.1465 -1.2556
 1819SOL    HW217091   0.231   2.321  13.879  0.7834  1.7604 -0.6194
 1820SOL     OW17092   3.629   4.458   7.451 -0.3123 -0.1323  0.1703
 1820SOL    HW117093   3.627   4.371   7.411 -1.4019 -0.2252  0.4371
 1820SOL    HW217094   3.703   4.498   7.405 -0.3359 -3.3808 -2.6735
 1821SOL     OW17095   2.045   0.556   3.799 -0.4080 -0.3028  0.2973
 1821SOL    HW117096   1.995   0.507   3.734  0.0657  1.4676 -1.4197
 1821SOL    HW217097   2.130   0.516   3.820 -0.1951 -0.6565 -1.2303
 1822SOL     OW17098   4.614   2.192   4.728  0.2549 -0.2845 -0.0808
 1822SOL    HW117099   4.646   2.268   4.679 -2.2877 -0.3041 -1.8043
 1822SOL    HW217100   4.548   2.163   4.665  0.1435  0.9536 -0.5423
 1823SOL     OW17101   4.087   0.540   8.827 -0.0382 -0.1658  0.2010
 1823SOL    HW117102   4.056   0.514   8.740 -3.4086  0.2004  1.2862
 1823SOL    HW217103   4.024   0.608   8.850 -0.1219 -0.6554  1.4429
 1824SOL     OW17104   4.546   0.741   5.095  0.3028  0.1017 -0.3382
 1824SOL    HW117105   4.631   0.700   5.111  0.0865 -0.1676  0.1060
 1824SOL    HW217106   4.531   0.718   5.003  1.7751 -0.7610 -0.3559
 1825SOL     OW17107   4.125   3.876   8.312 -0.1356 -0.1747  0.1331
 1825SOL    HW117108   4.201   3.930   8.332 -0.3550  0.0679  0.3114
 1825SOL    HW217109   4.177   3.801   8.285  0.2779  0.4121 -0.7064
 1826SOL     OW17110   2.952   1.005   4.144 -0.5584  0.2229  0.1429
 1826SOL    HW117111   3.027   0.993   4.202 -2.0757  0.7685  2.2192
 1826SOL    HW217112   2.990   1.002   4.056 -0.5232  0.8246  0.1333
 1827SOL     OW17113   2.547   4.617   9.579 -0.8699  0.5287  0.2220
 1827SOL    HW117114   2.489   4.691   9.598 -0.7027  0.0132  2.7495
 1827SOL    HW217115   2.563   4.568   9.660 -0.7087  0.1452 -0.0391
 1828SOL     OW17116   2.853   3.847   4.487 -0.1256  0.5107 -0.4098
 1828SOL    HW117117   2.896   3.808   4.564 -0.5545 -1.7233 -1.2945
 1828SOL    HW217118   2.926   3.885   4.438  1.0048 -4.5863 -2.6193
 1829SOL     OW17119   3.122   0.148   3.032  0.1078  0.1093  0.1981
 1829SOL    HW117120   3.210   0.176   3.056  0.5866  1.7753 -3.5298
 1829SOL    HW217121   3.126   0.145   2.937 -2.1510 -0.5609  0.1155
 1830SOL     OW17122   3.415   0.481   5.851 -0.5585 -0.1266  0.5465
 1830SOL    HW117123   3.495   0.449   5.892  0.3551  1.9478  0.4004
 1830SOL    HW217124   3.419   0.566   5.895  2.3037  0.2907 -0.5317
 1831SOL     OW17125   1.613   3.474   8.993 -0.0449 -0.5021 -0.4770
 1831SOL    HW117126   1.594   3.538   8.924  1.6587  1.6627  1.0662
 1831SOL    HW217127   1.527   3.448   9.026 -0.3307  1.0199 -0.0238
 1832SOL     OW17128   2.206   1.029  10.568  0.3625  0.1175 -0.1110
 1832SOL    HW117129   2.246   1.109  10.601  0.4665  0.2594 -0.5876
 1832SOL    HW217130   2.252   1.032  10.485  3.4304 -0.1406  1.5635
 1833SOL     OW17131   3.703   0.391   4.561  0.3833  0.5096  0.1007
 1833SOL    HW117132   3.623   0.435   4.531 -1.1648 -1.1370  1.7450
 1833SOL    HW217133   3.682   0.383   4.654  2.7343  1.5377  0.6986
 1834SOL     OW17134   1.926   4.438  13.173 -0.9067 -0.3031 -0.5325
 1834SOL    HW117135   1.955   4.487  13.250  0.7601 -2.2428  0.0820
 1834SOL    HW217136   1.864   4.376  13.211  0.1902 -0.5979  0.7840
 1835SOL     OW17137   2.212   0.227   6.571  0.4219  0.2827  0.0060
 1835SOL    HW117138   2.134   0.212   6.518 -0.4886  0.5613  1.2437
 1835SOL    HW217139   2.234   0.147   6.619 -0.2228 -0.4647 -0.9423
 1836SOL     OW17140   3.834   2.824   4.056 -0.1731  0.9023  0.2891
 1836SOL    HW117141   3.789   2.741   4.069  1.3168 -0.0579 -0.6522
 1836SOL    HW217142   3.922   2.787   4.052 -0.2362  1.0662 -3.0066
 1837SOL     OW17143   4.175   4.563  12.445  0.1721 -0.0932  0.2906
 1837SOL    HW117144   4.124   4.482  12.449  1.8538 -1.2659 -1.8298
 1837SOL    HW217145   4.109   4.626  12.416  1.6133  1.1763 -0.2648
 1838SOL     OW17146   2.761   1.987   1.958  0.4218  0.2700 -0.3984
 1838SOL    HW117147   2.675   1.974   1.999  0.3587 -3.3333 -1.6235
 1838SOL    HW217148   2.738   2.050   1.890 -2.4584 -0.3318  0.0164
 1839SOL     OW17149   1.368   3.035   6.768 -0.9267 -0.1432 -0.5089
 1839SOL    HW117150   1.443   3.007   6.715 -0.2581 -2.3116  1.6203
 1839SOL    HW217151   1.394   3.122   6.798 -0.1429 -0.2047 -0.9897
 1840SOL     OW17152   2.135   2.267  16.631 -0.6938 -0.2442 -0.4491
 1840SOL    HW117153   2.092   2.260  16.546  1.2632 -1.6409 -1.3449
 1840SOL    HW217154   2.137   2.362  16.639 -1.5461 -0.0253 -2.8864
 1841SOL     OW17155   0.325   3.280   2.747  0.0643 -0.0221  0.4425
 1841SOL    HW117156   0.347   3.367   2.779 -1.0835  1.0582 -1.7144
 1841SOL    HW217157   0.281   3.254   2.828 -2.0013  0.2182 -0.5972
 1842SOL     OW17158   2.545   1.018   7.856 -0.2134 -0.1006 -0.6010
 1842SOL    HW117159   2.638   1.011   7.833  0.7377  0.7918  2.9787
 1842SOL    HW217160   2.503   1.020   7.770 -2.1892 -0.4785  0.3563
 1843SOL     OW17161   3.779   1.477  10.092  0.1530  0.3578  0.3913
 1843SOL    HW117162   3.846   1.463  10.159 -1.3166 -1.0536  1.5463
 1843SOL    HW217163   3.772   1.392  10.047 -0.8539  0.4644  0.3568
 1844SOL     OW17164   1.594   1.628   9.537  0.5154  0.3792 -0.1072
 1844SOL    HW117165   1.588   1.679   9.618  0.4269  2.0676 -1.1672
 1844SOL    HW217166   1.503   1.640   9.510  0.4624  2.3788  0.9918
 1845SOL     OW17167   3.095   3.102   3.957  0.4933  0.1689 -0.4014
 1845SOL    HW117168   3.140   3.164   4.015  1.3793  0.1123 -1.0498
 1845SOL    HW217169   3.160   3.033   3.967 -0.0139 -0.1146  0.9663
 1846SOL     OW17170   1.696   2.520   5.602 -0.1065  0.3797  0.2413
 1846SOL    HW117171   1.733   2.474   5.678  2.8158  4.1487  1.0895
 1846SOL    HW217172   1.624   2.468   5.566  0.2293 -0.5159  0.8484
 1847SOL     OW17173   1.453   0.522   2.585 -0.5225 -0.2013 -0.0377
 1847SOL    HW117174   1.368   0.554   2.555 -0.1479 -0.2790 -1.1816
 1847SOL    HW217175   1.507   0.589   2.545 -1.3168 -0.8987 -2.2537
 1848SOL     OW17176   0.705   2.711   2.678  0.4341  0.4436  0.0171
 1848SOL    HW117177   0.799   2.693   2.686 -0.3062 -4.0765 -1.4161
 1848SOL    HW217178   0.667   2.644   2.621  1.6704  0.1961 -0.5036
 1849SOL     OW17179   1.072   2.861   2.480 -0.5296 -0.1165 -0.2784
 1849SOL    HW117180   1.044   2.815   2.402 -0.1846  1.2615 -1.2220
 1849SOL    HW217181   1.052   2.952   2.456 -1.5139 -0.0953  0.6268
 1850SOL     OW17182   3.078   0.136   0.445 -0.2895  1.0217 -0.2507
 1850SOL    HW117183   3.045   0.108   0.531  1.9519 -0.4932  0.1036
 1850SOL    HW217184   3.167   0.101   0.449 -0.4427  0.5904 -0.6661
 1851SOL     OW17185   3.792   4.626  12.145 -0.0463 -0.1363  0.3091
 1851SOL    HW117186   3.853   4.566  12.101 -0.4550 -0.5943  0.3665
 1851SOL    HW217187   3.748   4.682  12.081 -2.9348 -1.5676  1.0739
 1852SOL     OW17188   0.781   2.946   4.919 -0.8607 -0.0912 -0.4482
 1852SOL    HW117189   0.759   2.861   4.957 -0.3558 -1.0146 -2.2555
 1852SOL    HW217190   0.702   2.989   4.951 -1.1340 -0.8942 -0.0308
 1853SOL     OW17191   1.338   0.797   1.915 -0.0551 -0.3662 -0.3247
 1853SOL    HW117192   1.276   0.854   1.870  0.8382  1.2424  0.4798
 1853SOL    HW217193   1.410   0.856   1.935 -0.3677  0.2431 -1.0010
 1854SOL     OW17194   4.587   3.508   5.531 -0.0574  0.5765 -0.2534
 1854SOL    HW117195   4.631   3.438   5.578 -1.4684 -0.8863 -1.1201
 1854SOL    HW217196   4.592   3.585   5.587 -0.9251 -2.0289  3.3936
 1855SOL     OW17197   4.174   1.022   7.466 -0.0486 -0.2414  0.1078
 1855SOL    HW117198   4.150   1.029   7.373  0.8804  1.6394 -0.0037
 1855SOL    HW217199   4.268   1.027   7.453  0.1615 -2.8816  0.6098
 1856SOL     OW17200   2.614   4.599  14.114 -0.0989 -0.2944 -0.6610
 1856SOL    HW117201   2.708   4.594  14.131 -0.4272 -0.5124  1.0918
 1856SOL    HW217202   2.577   4.601  14.202  2.5169 -0.2236  0.4496
 1857SOL     OW17203   1.756   0.510  12.767  0.3795  0.1081 -0.4097
 1857SOL    HW117204   1.846   0.533  12.747  0.7074 -2.2321 -1.5479
 1857SOL    HW217205   1.706   0.557  12.701  0.3587  0.0042 -0.4689
 1858SOL     OW17206   3.190   1.348   2.206 -0.0338  1.0189 -0.0334
 1858SOL    HW117207   3.207   1.311   2.119  1.2644 -2.6523  1.7979
 1858SOL    HW217208   3.241   1.429   2.205  1.8865 -0.1693  1.8183
 1859SOL     OW17209   3.726   3.734   4.729 -0.0534  0.2760 -0.3252
 1859SOL    HW117210   3.738   3.673   4.802 -1.7996  0.2736 -0.0251
 1859SOL    HW217211   3.642   3.778   4.746  0.5065  0.5213  1.9097
 1860SOL     OW17212   3.318   3.424   2.980 -0.0276  0.4234  0.3391
 1860SOL    HW117213   3.303   3.357   3.046  2.6113 -0.4379  0.0578
 1860SOL    HW217214   3.231   3.451   2.949  0.0048  0.9466  0.7036
 1861SOL     OW17215   4.445   4.187   2.063 -0.7482 -0.1625 -0.1218
 1861SOL    HW117216   4.521   4.127   2.062 -1.5609 -1.2392  2.2674
 1861SOL    HW217217   4.464   4.264   2.010 -4.2026  0.8633  0.1461
 1862SOL     OW17218   2.284   1.623   7.252 -0.4515  0.4873  0.2613
 1862SOL    HW117219   2.277   1.539   7.206 -0.5579  1.8792 -2.2619
 1862SOL    HW217220   2.243   1.614   7.338 -0.1815  1.3603  0.4863
 1863SOL     OW17221   0.198   4.478   9.455 -0.3657  0.3524  1.0237
 1863SOL    HW117222   0.222   4.571   9.461  0.0684  0.3116 -0.0539
 1863SOL    HW217223   0.283   4.440   9.433  0.3368  1.0671  2.4675
 1864SOL     OW17224   0.695   1.255   5.845  0.3609 -0.4147 -0.4882
 1864SOL    HW117225   0.722   1.346   5.834 -0.1728 -0.2889 -0.7161
 1864SOL    HW217226   0.623   1.264   5.907  0.8293 -0.9495  0.1369
 1865SOL     OW17227   2.133   0.519   4.210  0.1724 -0.3403 -0.3456
 1865SOL    HW117228   2.045   0.545   4.183  0.4872  1.2811  0.1797
 1865SOL    HW217229   2.176   0.586   4.157 -0.1956 -0.2302 -0.5072
 1866SOL     OW17230   0.191   2.561   4.902 -0.2230  0.0499 -0.5851
 1866SOL    HW117231   0.142   2.638   4.875 -0.1797  0.5241  0.6765
 1866SOL    HW217232   0.159   2.545   4.991 -0.5555  1.1449 -0.5069
 1867SOL     OW17233   1.224   3.582   1.103 -0.2184  0.0147  0.4608
 1867SOL    HW117234   1.295   3.518   1.104  0.6614  0.9611 -1.1184
 1867SOL    HW217235   1.243   3.631   1.184  1.4278 -1.2820  0.8560
 1868SOL     OW17236   3.675   3.389  15.419  0.1008 -0.4069  0.4834
 1868SOL    HW117237   3.612   3.327  15.456  1.1914 -0.7821  1.6905
 1868SOL    HW217238   3.705   3.423  15.503 -1.8384  1.0947  0.5742
 1869SOL     OW17239   4.659   2.305   7.426 -0.1761 -0.2578 -0.9824
 1869SOL    HW117240   4.692   2.330   7.339  0.9546 -0.2728 -0.5568
 1869SOL    HW217241   4.719   2.231   7.437 -0.4676 -0.0071  2.3083
 1870SOL     OW17242   2.618   2.852   1.101  0.8310 -0.4439  0.2583
 1870SOL    HW117243   2.703   2.879   1.134  0.6409 -1.0901  1.2633
 1870SOL    HW217244   2.634   2.758   1.113 -3.8384 -0.8081  3.8556
 1871SOL     OW17245   0.017   4.235  16.333 -0.0339  0.4674  0.2046
 1871SOL    HW117246   0.039   4.168  16.269  2.7196  2.5524 -1.0145
 1871SOL    HW217247   4.704   4.178  16.392 -0.0805  1.8199  1.4774
 1872SOL     OW17248   3.267   2.128   5.368 -0.2335  0.0440  0.0189
 1872SOL    HW117249   3.311   2.043   5.369  0.5782  0.4416 -1.6753
 1872SOL    HW217250   3.336   2.186   5.399  0.1366 -0.3262 -0.1034
 1873SOL     OW17251   0.596   0.575   4.848  0.5282  1.0580  0.3879
 1873SOL    HW117252   0.566   0.515   4.917  1.1388 -0.2125 -0.4553
 1873SOL    HW217253   0.606   0.515   4.774 -0.1934  2.5046 -0.8642
 1874SOL     OW17254   0.929   3.270   2.042  0.6443  0.5246 -0.0071
 1874SOL    HW117255   0.891   3.357   2.054  0.8885  0.4665  1.1862
 1874SOL    HW217256   0.924   3.262   1.947 -2.6134  0.8196  0.1412
 1875SOL     OW17257   2.058   4.170   8.649 -0.2715  0.0103  0.0404
 1875SOL    HW117258   2.096   4.194   8.565 -2.3302 -0.8488 -1.1468
 1875SOL    HW217259   2.138   4.154   8.700 -0.3415  1.7216  0.6732
 1876SOL     OW17260   2.619   3.494  15.163 -0.1527 -0.4836  0.3245
 1876SOL    HW117261   2.545   3.451  15.205 -1.1389 -0.3519 -1.2793
 1876SOL    HW217262   2.580   3.526  15.082  0.2924 -1.2877 -0.2186
 1877SOL     OW17263   0.279   2.465   0.905  0.2489  0.3176  0.3798
 1877SOL    HW117264   0.287   2.393   0.967 -1.6270 -0.4029 -0.2084
 1877SOL    HW217265   0.322   2.534   0.956 -0.5226  0.4322  0.8702
 1878SOL     OW17266   4.363   4.663   4.620  0.2660 -0.0603 -0.1239
 1878SOL    HW117267   4.371   0.019   4.640  0.0902  0.0095 -0.3806
 1878SOL    HW217268   4.269   4.648   4.627  0.2642  0.2353  0.4899
 1879SOL     OW17269   2.564   2.446   4.195 -0.2593 -0.2950 -1.0169
 1879SOL    HW117270   2.533   2.388   4.265  1.6562 -1.0035 -0.7534
 1879SOL    HW217271   2.496   2.512   4.187  0.0794  0.4954  2.3363
 1880SOL     OW17272   0.386   0.865   6.217 -0.1440  0.2740 -0.2807
 1880SOL    HW117273   0.434   0.910   6.148  0.4025 -3.0246 -2.0815
 1880SOL    HW217274   0.447   0.867   6.290 -0.4343  3.4085 -0.1214
 1881SOL     OW17275   4.660   0.092  12.687 -0.0498 -0.1941  0.3745
 1881SOL    HW117276   4.717   0.036  12.739  1.1051 -0.5414 -1.2506
 1881SOL    HW217277   4.724   0.161  12.665 -1.2225  0.8272  0.1572
 1882SOL     OW17278   0.150   3.900   6.551 -0.1730  0.2429 -0.2385
 1882SOL    HW117279   0.187   3.973   6.599 -2.4507  2.5064 -1.8961
 1882SOL    HW217280   0.191   3.899   6.464 -0.4128 -1.9485 -0.3188
 1883SOL     OW17281   0.766   0.875  15.999 -0.3506  0.5252  0.0255
 1883SOL    HW117282   0.741   0.922  16.078 -4.0317 -1.0240 -0.1738
 1883SOL    HW217283   0.697   0.923  15.952 -0.0938  1.1740  0.3201
 1884SOL     OW17284   1.559   2.433   8.215  0.2225 -0.0362 -0.5775
 1884SOL    HW117285   1.597   2.395   8.294  1.3798  0.3272 -0.9551
 1884SOL    HW217286   1.634   2.485   8.186  0.0347 -0.5369 -1.9696
 1885SOL     OW17287   2.017   0.267   3.266 -0.4121  0.5317  0.2839
 1885SOL    HW117288   1.940   0.274   3.322  0.1444 -2.1312  1.4311
 1885SOL    HW217289   2.041   0.359   3.268 -0.2608  0.4979  0.0229
 1886SOL     OW17290   1.126   4.086   7.178  0.5658 -0.4068 -0.6934
 1886SOL    HW117291   1.176   4.102   7.098  1.5393 -1.3492 -0.2723
 1886SOL    HW217292   1.193   4.107   7.243 -0.1879  1.1712 -0.4209
 1887SOL     OW17293   4.690   2.044   6.792 -0.5447  0.1780 -0.1406
 1887SOL    HW117294   4.677   1.954   6.764 -0.3183 -0.2358  1.1092
 1887SOL    HW217295   0.027   2.076   6.739  0.0614 -0.6697  0.2018
 1888SOL     OW17296   0.249   0.482  11.509  0.3548 -0.3319  0.0663
 1888SOL    HW117297   0.204   0.564  11.528 -0.4748 -0.5625 -0.9042
 1888SOL    HW217298   0.245   0.443  11.597  3.0636 -1.1289 -0.1767
 1889SOL     OW17299   0.786   0.421  15.885 -0.3109 -0.3044 -0.0668
 1889SOL    HW117300   0.864   0.433  15.830 -0.8764  3.7024  0.0077
 1889SOL    HW217301   0.773   0.509  15.919 -0.6079  0.3181 -1.8014
 1890SOL     OW17302   4.671   4.446   8.453  0.0197  0.2993 -0.4590
 1890SOL    HW117303   4.639   4.410   8.535  2.4360 -0.8535 -0.0249
 1890SOL    HW217304   0.029   4.435   8.463 -0.4007 -2.6044  0.1200
 1891SOL     OW17305   2.434   3.257   2.589 -0.2439  0.3742 -0.2049
 1891SOL    HW117306   2.504   3.313   2.556 -0.1834  0.7009  0.4812
 1891SOL    HW217307   2.470   3.170   2.572 -1.0589 -0.2175  1.0606
 1892SOL     OW17308   4.129   2.714   3.998  0.0363 -0.0159  0.6343
 1892SOL    HW117309   4.138   2.798   4.043 -1.8339  0.2460  0.5171
 1892SOL    HW217310   4.220   2.694   3.981 -0.9015 -2.9994 -0.7332
 1893SOL     OW17311   3.524   0.812   7.241 -0.4007 -0.7519  0.2543
 1893SOL    HW117312   3.610   0.826   7.281 -0.6484 -0.0887  0.5512
 1893SOL    HW217313   3.554   0.771   7.160 -0.8717  0.8208 -0.6993
 1894SOL     OW17314   0.552   0.686   5.298  0.3277 -0.0686 -0.3583
 1894SOL    HW117315   0.610   0.707   5.225 -0.0332  2.2535  0.0229
 1894SOL    HW217316   0.577   0.595   5.317  2.5140 -0.5333 -5.4862
 1895SOL     OW17317   1.155   4.006  10.815  0.2434  0.6743 -0.2586
 1895SOL    HW117318   1.090   4.067  10.852 -0.2119 -0.5470  0.9295
 1895SOL    HW217319   1.206   4.070  10.764 -1.6933  2.0861 -0.4306
 1896SOL     OW17320   0.855   3.120   0.222  0.2490  0.1212 -0.2913
 1896SOL    HW117321   0.819   3.209   0.233 -0.5959 -0.4317  1.5084
 1896SOL    HW217322   0.771   3.076   0.227  1.1215 -1.5084 -0.1092
 1897SOL     OW17323   4.680   3.635   6.938  0.4168 -0.2070  0.0396
 1897SOL    HW117324   4.723   3.650   6.854 -0.9008  0.8267 -0.4541
 1897SOL    HW217325   0.012   3.583   6.979 -0.4602 -1.9323 -0.6781
 1898SOL     OW17326   0.216   3.999  11.654 -0.4185  0.1669 -0.4810
 1898SOL    HW117327   0.166   4.058  11.710 -2.8639 -0.5540 -1.8892
 1898SOL    HW217328   0.181   3.910  11.660  1.1831 -0.6047 -2.3168
 1899SOL     OW17329   1.001   1.259  10.900  0.0711 -0.3336  0.0682
 1899SOL    HW117330   1.031   1.210  10.824  1.5220 -0.2896  0.6085
 1899SOL    HW217331   0.999   1.345  10.860  0.1254  0.0939  0.9840
 1900SOL     OW17332   0.074   2.806   5.382  0.6555  0.2543  1.2543
 1900SOL    HW117333   0.138   2.743   5.350  0.0029  0.5137 -0.5509
 1900SOL    HW217334   0.091   2.875   5.318 -0.2816 -0.8353 -0.1410
 1901SOL     OW17335   2.379   0.928   5.468  0.5884  0.9234  0.7101
 1901SOL    HW117336   2.412   0.995   5.409  2.1996  0.4255  1.0599
 1901SOL    HW217337   2.413   0.955   5.553  0.1679  1.3625  0.7408
 1902SOL     OW17338   2.711   0.550   2.628  0.1739  0.3521  0.0899
 1902SOL    HW117339   2.689   0.538   2.536  0.0759  0.4773  0.0967
 1902SOL    HW217340   2.788   0.605   2.610  1.5818 -1.9446 -0.9654
 1903SOL     OW17341   2.843   1.219   1.936 -0.1819  0.1744  0.7334
 1903SOL    HW117342   2.776   1.253   1.877 -0.3241 -1.0218  0.2112
 1903SOL    HW217343   2.829   1.126   1.923  0.9890  0.3970 -2.1460
 1904SOL     OW17344   1.135   1.183  10.313 -0.2690  0.3255 -0.1181
 1904SOL    HW117345   1.222   1.215  10.335  0.2926  0.6847 -2.8573
 1904SOL    HW217346   1.087   1.207  10.392 -0.9766 -0.0389 -0.4356
 1905SOL     OW17347   0.377   0.587   8.590  1.0379 -0.2893  0.4407
 1905SOL    HW117348   0.310   0.543   8.538  1.1139  1.0442 -0.7692
 1905SOL    HW217349   0.387   0.661   8.530 -0.1898  1.0073  1.8454
 1906SOL     OW17350   1.206   0.473  16.185 -0.2294 -0.3615 -0.7189
 1906SOL    HW117351   1.161   0.463  16.102 -2.0381  1.3615  0.0414
 1906SOL    HW217352   1.148   0.533  16.234 -0.2738  0.3574 -1.6577
 1907SOL     OW17353   2.985   4.049   5.499 -0.4175 -0.0831 -0.0403
 1907SOL    HW117354   3.058   3.989   5.511 -0.2716  0.2530  0.7210
 1907SOL    HW217355   2.909   3.998   5.526 -1.4948  0.2945 -2.3192
 1908SOL     OW17356   2.795   3.261   6.907 -0.0606  0.3278  0.0912
 1908SOL    HW117357   2.712   3.287   6.948 -0.1663  2.4597 -1.4629
 1908SOL    HW217358   2.799   3.167   6.921  0.2357  0.3627  0.2360
 1909SOL     OW17359   1.851   1.535  13.021 -0.0129 -0.3328 -0.0231
 1909SOL    HW117360   1.911   1.506  13.090  2.1827  1.0474 -1.3644
 1909SOL    HW217361   1.888   1.622  13.005  2.0485 -1.0931  0.6312
 1910SOL     OW17362   1.215   2.197   3.561  0.4527  0.6720  0.3363
 1910SOL    HW117363   1.134   2.176   3.513  0.4862  0.7537  0.2445
 1910SOL    HW217364   1.173   2.268   3.610  0.4630 -0.6758  2.2635
 1911SOL     OW17365   2.021   1.427   2.435 -0.2491 -0.0256  0.0215
 1911SOL    HW117366   2.074   1.347   2.446  0.9743  0.7387 -0.3757
 1911SOL    HW217367   2.032   1.461   2.524 -0.5280  2.1418 -0.7844
 1912SOL     OW17368   3.229   2.238   1.326 -0.2628  0.0035 -0.3915
 1912SOL    HW117369   3.268   2.324   1.341  1.2995 -0.4320 -1.8950
 1912SOL    HW217370   3.303   2.191   1.287 -0.7373 -0.7015 -0.4469
 1913SOL     OW17371   2.324   1.913   0.799 -0.3483  0.4003  0.0911
 1913SOL    HW117372   2.270   1.891   0.723  0.4550 -0.9499 -0.0972
 1913SOL    HW217373   2.285   1.858   0.867 -2.6093 -0.6116 -2.0474
 1914SOL     OW17374   0.272   1.813   0.143  0.5051 -0.0342 -0.1346
 1914SOL    HW117375   0.335   1.814   0.216 -0.2844  2.7269  0.5145
 1914SOL    HW217376   0.271   1.908   0.129  0.0423  0.1712  1.3126
 1915SOL     OW17377   1.915   4.021  14.276 -0.4945  0.1529  0.3862
 1915SOL    HW117378   1.833   3.990  14.314 -1.4645  1.2759 -0.8005
 1915SOL    HW217379   1.949   3.945  14.229 -0.0497  0.7793 -0.3105
 1916SOL     OW17380   4.693   0.878   8.144 -0.2279  0.1212  0.3128
 1916SOL    HW117381   0.019   0.949   8.129  0.6235 -0.5192  0.8344
 1916SOL    HW217382   0.005   0.815   8.197 -3.7580 -2.8468 -0.0363
 1917SOL     OW17383   0.967   2.598   5.874 -0.0156  0.1297 -0.3489
 1917SOL    HW117384   0.968   2.613   5.969 -0.8394 -1.2740 -0.1099
 1917SOL    HW217385   0.898   2.658   5.849 -1.7068 -0.2516  3.3385
 1918SOL     OW17386   3.308   0.672   8.381 -0.7563  0.0835 -0.2244
 1918SOL    HW117387   3.332   0.639   8.467 -1.5734 -2.4954 -0.9848
 1918SOL    HW217388   3.384   0.723   8.353 -3.3488  3.2735 -1.4828
 1919SOL     OW17389   2.576   2.164   1.336  0.3108 -0.6407  0.1833
 1919SOL    HW117390   2.629   2.175   1.415 -0.1364  0.0155  0.3917
 1919SOL    HW217391   2.630   2.208   1.271 -0.6356 -0.2606 -0.3419
 1920SOL     OW17392   0.368   0.362   1.850  0.2504  0.8608  0.0372
 1920SOL    HW117393   0.315   0.440   1.869  1.2258  1.5516 -0.0588
 1920SOL    HW217394   0.426   0.364   1.926  0.3117 -2.5528  0.0622
 1921SOL     OW17395   1.548   1.154   7.591 -0.5343 -0.1026  0.0832
 1921SOL    HW117396   1.518   1.065   7.606  0.3551 -0.5568 -0.7960
 1921SOL    HW217397   1.507   1.175   7.507  0.0786 -0.4528 -0.3064
 1922SOL     OW17398   0.509   4.249  15.451 -0.1431  0.4712 -0.1684
 1922SOL    HW117399   0.525   4.193  15.528  0.2460  0.3411 -0.3442
 1922SOL    HW217400   0.546   4.187  15.389  0.6079  0.5151  0.2372
 1923SOL     OW17401   0.717   1.659   5.459 -0.4749  0.2495 -0.3337
 1923SOL    HW117402   0.783   1.712   5.415 -0.6606  1.8190  1.2983
 1923SOL    HW217403   0.637   1.666   5.406 -0.5407  3.9531  0.2403
 1924SOL     OW17404   0.213   1.755   6.844  0.4257  0.6896 -0.0919
 1924SOL    HW117405   0.303   1.787   6.846  0.6865 -0.0096 -0.3844
 1924SOL    HW217406   0.155   1.828   6.865 -0.2753 -0.3663  1.6583
 1925SOL     OW17407   3.451   3.093  17.552 -0.2806  0.3359  0.1881
 1925SOL    HW117408   3.423   3.172  17.598 -3.2458 -0.2889 -0.5474
 1925SOL    HW217409   3.420   3.101  17.462  0.2510  1.0296  0.0660
 1926SOL     OW17410   4.410   0.383   3.236  0.3570 -0.0625 -0.5527
 1926SOL    HW117411   4.474   0.444   3.274 -1.1835 -0.9605  3.5552
 1926SOL    HW217412   4.350   0.370   3.309  1.5492 -1.0476  0.2592
 1927SOL     OW17413   0.555   4.641  11.315  0.3927  0.7673 -0.2347
 1927SOL    HW117414   0.613   4.684  11.378  1.2742 -0.2871 -0.3322
 1927SOL    HW217415   0.549   4.550  11.346  2.2954  0.0140 -2.0850
 1928SOL     OW17416   3.034   3.042   2.708 -0.0139 -0.0003 -0.2943
 1928SOL    HW117417   2.984   3.099   2.650  0.9038 -1.1815 -2.2275
 1928SOL    HW217418   3.114   3.093   2.712  0.2569 -0.4928  0.6279
 1929SOL     OW17419   2.165   0.407  12.558  0.6660  0.0840 -0.3998
 1929SOL    HW117420   2.172   0.495  12.522  0.7598  0.1940 -0.1167
 1929SOL    HW217421   2.226   0.396  12.631  2.2148  2.2102 -1.3822
 1930SOL     OW17422   1.271   1.074   4.338  0.4274 -0.1053  0.6940
 1930SOL    HW117423   1.319   1.140   4.387  3.0166 -1.6888  0.2874
 1930SOL    HW217424   1.191   1.064   4.389  1.4274 -1.7814  1.9509
 1931SOL     OW17425   3.796   1.578   8.007 -0.6795  0.2149 -0.2457
 1931SOL    HW117426   3.879   1.598   8.051 -1.5783  1.6270  0.8180
 1931SOL    HW217427   3.732   1.572   8.078  0.0688 -1.8139  0.2459
 1932SOL     OW17428   2.058   2.598   4.511  0.5155 -0.4781 -0.3146
 1932SOL    HW117429   1.966   2.603   4.536  1.4583 -0.3889  3.1184
 1932SOL    HW217430   2.053   2.677   4.459 -1.9550 -0.9288 -0.7603
 1933SOL     OW17431   4.535   0.547   2.994 -0.4289 -0.7151  0.0241
 1933SOL    HW117432   4.530   0.569   2.901  0.6561  0.4362  0.2352
 1933SOL    HW217433   4.621   0.517   3.022 -0.2776 -0.5478 -0.2562
 1934SOL     OW17434   1.889   1.743   2.355  0.5446 -0.1480  0.5141
 1934SOL    HW117435   1.814   1.803   2.351  0.7931 -0.0527 -3.3030
 1934SOL    HW217436   1.842   1.660   2.347  0.9787 -0.4830  1.5278
 1935SOL     OW17437   4.131   0.998   2.499  0.3755  0.5216 -0.0177
 1935SOL    HW117438   4.084   1.047   2.566 -1.8694 -1.5804 -0.0480
 1935SOL    HW217439   4.071   1.000   2.424 -0.8187 -2.0203  0.8731
 1936SOL     OW17440   1.622   0.520  10.868  0.3240  0.4360 -0.0555
 1936SOL    HW117441   1.653   0.467  10.795 -1.6583  1.0835 -1.3502
 1936SOL    HW217442   1.699   0.531  10.923 -0.5403 -2.0380  1.6492
 1937SOL     OW17443   1.104   4.666   3.151  0.0086 -0.9493 -0.3876
 1937SOL    HW117444   1.185   4.686   3.105 -0.1125  0.4070 -0.0332
 1937SOL    HW217445   1.094   4.735   3.217 -0.1964  2.2642 -3.7766
 1938SOL     OW17446   4.330   1.458  16.163  0.4224  0.5986 -0.1260
 1938SOL    HW117447   4.397   1.488  16.102  1.8887 -0.5064  0.9555
 1938SOL    HW217448   4.381   1.412  16.230 -0.4987 -0.3676 -0.0888
 1939SOL     OW17449   0.022   2.024   4.932  0.1531  0.3230  0.7158
 1939SOL    HW117450   0.012   2.099   4.873  0.2024  0.3963  0.8009
 1939SOL    HW217451   4.671   1.989   4.920  0.7756 -0.9182 -0.2425
 1940SOL     OW17452   2.511   0.381   6.254 -0.2025 -0.4210  0.2727
 1940SOL    HW117453   2.484   0.471   6.272 -2.4421 -1.3714  1.6703
 1940SOL    HW217454   2.588   0.404   6.201 -0.0282  1.0779  1.1779
 1941SOL     OW17455   1.692   0.011   8.103 -0.9476 -0.9332 -0.2400
 1941SOL    HW117456   1.750   0.057   8.043  1.2581 -0.0475  2.5179
 1941SOL    HW217457   1.753   0.014   8.177 -2.1168 -0.7598  0.7126
 1942SOL     OW17458   1.554   1.692   4.802  0.0091  0.3065  0.4001
 1942SOL    HW117459   1.637   1.672   4.759 -0.1239 -2.5167  1.4182
 1942SOL    HW217460   1.576   1.719   4.892 -0.3228 -0.4423  0.7058
 1943SOL     OW17461   3.606   0.672   8.878 -0.2529 -0.4243  0.1154
 1943SOL    HW117462   3.578   0.642   8.965  0.9391 -0.2350  0.5589
 1943SOL    HW217463   3.534   0.728   8.849  1.4624  0.9218 -1.4921
 1944SOL     OW17464   2.303   0.057  17.684 -0.1592 -0.6869 -1.1523
 1944SOL    HW117465   2.233   0.091  17.628  0.7461  2.4765 -0.3760
 1944SOL    HW217466   2.297   4.699  17.690 -1.9187 -0.6031 -1.6055
 1945SOL     OW17467   1.563   2.099   4.114 -0.1189 -0.1090 -0.5036
 1945SOL    HW117468   1.603   2.159   4.177 -0.5130  1.7570 -2.0138
 1945SOL    HW217469   1.620   2.105   4.037 -1.1567 -1.0418 -1.3475
 1946SOL     OW17470   3.452   3.941   8.761  0.7602 -0.6111  0.1760
 1946SOL    HW117471   3.384   4.009   8.763  2.1149  0.7920 -1.1652
 1946SOL    HW217472   3.506   3.969   8.835 -0.6506  0.3735  0.8343
 1947SOL     OW17473   0.698   4.034  15.511  0.2196 -0.3997 -0.0361
 1947SOL    HW117474   0.698   3.940  15.526  0.7542 -0.3310  0.3826
 1947SOL    HW217475   0.671   4.063  15.598  1.8275 -0.3559  0.4445
 1948SOL     OW17476   1.043   1.340   0.981 -0.0149 -0.0448 -0.6930
 1948SOL    HW117477   1.096   1.418   0.994  1.4672 -1.3685  1.0819
 1948SOL    HW217478   1.110   1.276   0.956  0.1850 -0.9315  2.1616
 1949SOL     OW17479   0.799   0.084  16.796  0.9779 -0.7717  0.4183
 1949SOL    HW117480   0.817   0.014  16.734 -1.3718 -0.4769 -0.5930
 1949SOL    HW217481   0.741   0.136  16.741  1.0486 -1.8520 -0.6727
 1950SOL     OW17482   3.076   4.522   4.438 -0.4528  0.5979 -0.0480
 1950SOL    HW117483   3.142   4.580   4.400  0.0577  0.9776  1.4055
 1950SOL    HW217484   3.043   4.575   4.511 -1.9780  1.0021 -1.0169
 1951SOL     OW17485   4.554   4.409   0.004  0.1521 -0.4814  0.2829
 1951SOL    HW117486   4.560   4.335  17.689 -0.1298  0.8512 -1.3703
 1951SOL    HW217487   4.649   4.414   0.011 -0.0191  1.4253  1.1844
 1952SOL     OW17488   2.989   1.922   7.480 -0.5336  0.0914 -0.5940
 1952SOL    HW117489   2.984   1.992   7.415  2.5800  1.5323  0.7518
 1952SOL    HW217490   3.072   1.946   7.520 -1.4737  2.0621  0.1449
 1953SOL     OW17491   0.725   3.063   5.554  0.0799  0.6700 -0.0021
 1953SOL    HW117492   0.700   3.041   5.465  2.7021  1.1810 -0.8635
 1953SOL    HW217493   0.686   3.148   5.569 -1.3782  0.2788 -1.6260
 1954SOL     OW17494   4.710   3.784   1.369 -0.0083  0.3886 -0.5371
 1954SOL    HW117495   4.714   3.763   1.276 -0.3379  0.1181 -0.4918
 1954SOL    HW217496   0.063   3.806   1.393 -0.7940  2.6464  0.3415
 1955SOL     OW17497   4.440   2.334   6.179  0.1050  0.3666  0.6594
 1955SOL    HW117498   4.353   2.359   6.148  0.1517 -0.4648 -0.1304
 1955SOL    HW217499   4.424   2.303   6.268  0.2499 -1.4200  0.0512
 1956SOL     OW17500   2.848   4.492  15.374 -0.0766  0.5855  0.4030
 1956SOL    HW117501   2.794   4.565  15.344  0.1134  1.6294  2.5912
 1956SOL    HW217502   2.881   4.460  15.290 -0.4819  1.1025  0.0452
 1957SOL     OW17503   1.267   1.995  13.329 -0.3848  0.3184 -0.2085
 1957SOL    HW117504   1.219   1.919  13.361 -0.3550  0.3964  0.0218
 1957SOL    HW217505   1.209   2.031  13.262 -0.9310 -0.2439 -0.0427
 1958SOL     OW17506   0.220   2.105   5.831  0.5826 -0.3356 -0.0014
 1958SOL    HW117507   0.178   2.043   5.891  0.3952  0.2592  0.4736
 1958SOL    HW217508   0.148   2.155   5.792  0.6448  0.3446  0.7741
 1959SOL     OW17509   0.750   3.886   2.783  0.5489  0.4526  0.4468
 1959SOL    HW117510   0.698   3.856   2.709  3.0676 -1.1289 -0.7031
 1959SOL    HW217511   0.684   3.921   2.842 -0.2444 -0.2623 -0.0319
 1960SOL     OW17512   1.052   0.838   0.106  0.0322  0.5174 -0.3930
 1960SOL    HW117513   1.117   0.768   0.108 -1.2414 -0.5831  1.7675
 1960SOL    HW217514   1.031   0.849   0.013 -1.7641  0.5663  0.0177
 1961SOL     OW17515   2.698   3.094  10.955 -0.2585  0.0252 -0.1154
 1961SOL    HW117516   2.615   3.137  10.977 -0.2678 -0.3876  0.6582
 1961SOL    HW217517   2.666   3.005  10.974 -1.8038 -0.0642 -3.2486
 1962SOL     OW17518   1.369   3.559   9.100  0.0799  0.1126  0.1561
 1962SOL    HW117519   1.327   3.475   9.118 -0.2116  0.7241  2.3206
 1962SOL    HW217520   1.380   3.590   9.190  0.8202  0.7671 -0.1636
 1963SOL     OW17521   1.864   1.163   8.522 -0.3231 -0.1367 -0.3987
 1963SOL    HW117522   1.803   1.099   8.483  0.0854  0.8458 -2.6652
 1963SOL    HW217523   1.942   1.121   8.559  0.1305  2.0379  1.1019
 1964SOL     OW17524   1.230   1.526   2.213 -0.4506  0.4388 -0.2715
 1964SOL    HW117525   1.294   1.569   2.270 -0.6463  0.9835 -0.4636
 1964SOL    HW217526   1.261   1.436   2.220  0.0270  0.7527  1.5481
 1965SOL     OW17527   0.485   4.559  13.458 -0.2064 -0.2822 -0.2485
 1965SOL    HW117528   0.514   4.633  13.513  2.1087 -1.0070 -0.4902
 1965SOL    HW217529   0.555   4.553  13.393  1.4085  0.5646  1.3848
 1966SOL     OW17530   4.323   0.404   9.758  0.4192  0.3501 -0.1789
 1966SOL    HW117531   4.256   0.366   9.814  0.0919 -0.6675 -1.2536
 1966SOL    HW217532   4.392   0.337   9.763  1.2650  1.1538 -1.0123
 1967SOL     OW17533   1.890   2.515  12.301 -0.4300  0.0626  0.8768
 1967SOL    HW117534   1.900   2.589  12.361  1.0030  1.5814 -1.2118
 1967SOL    HW217535   1.972   2.496  12.255 -1.6219  2.0296 -2.0946
 1968SOL     OW17536   1.437   2.488   1.966 -0.4494  0.0942 -0.0638
 1968SOL    HW117537   1.443   2.569   2.018  1.1368  0.8887 -1.5026
 1968SOL    HW217538   1.344   2.489   1.945 -0.5890 -0.0987  0.5502
 1969SOL     OW17539   4.687   0.559   9.951  0.2311  0.1143 -0.5447
 1969SOL    HW117540   4.728   0.619   9.888 -1.4367  0.5362 -1.2428
 1969SOL    HW217541   0.020   0.542  10.013 -0.4734  0.1743  0.2671
 1970SOL     OW17542   3.239   0.057   7.676  0.5029  0.2781 -0.1253
 1970SOL    HW117543   3.268   0.142   7.710 -0.4279  0.7426 -0.4911
 1970SOL    HW217544   3.263   0.060   7.584  1.0244  0.7067  0.0271
 1971SOL     OW17545   3.471   0.644   9.137  0.1805 -0.5363  0.5481
 1971SOL    HW117546   3.407   0.715   9.151  1.8016  1.3188 -1.5054
 1971SOL    HW217547   3.440   0.576   9.197 -0.7269  0.5812  1.3773
 1972SOL     OW17548   0.549   3.671  10.987 -0.0431  0.2615  0.7751
 1972SOL    HW117549   0.540   3.589  11.035 -0.1241  0.8201  1.7306
 1972SOL    HW217550   0.638   3.686  11.018  1.2144  0.3131 -2.8183
 1973SOL     OW17551   2.255   4.573  13.837 -0.4317  0.4245 -0.2950
 1973SOL    HW117552   2.172   4.533  13.810  0.2576 -0.4135 -1.1714
 1973SOL    HW217553   2.238   4.585  13.930  1.1401 -0.9183  0.1490
 1974SOL     OW17554   0.757   0.648   2.121 -0.0000 -0.5845 -0.1673
 1974SOL    HW117555   0.703   0.625   2.046 -1.4550 -0.3856  0.8103
 1974SOL    HW217556   0.787   0.736   2.099 -0.6100 -0.5672 -0.9137
 1975SOL     OW17557   2.540   3.504   6.045 -0.7310 -0.0163 -0.0885
 1975SOL    HW117558   2.460   3.462   6.074 -0.6873  1.4078  2.1169
 1975SOL    HW217559   2.605   3.434   6.046 -1.6331 -0.7812  2.5377
 1976SOL     OW17560   2.292   3.418   6.837  0.7050 -0.1283 -0.1733
 1976SOL    HW117561   2.198   3.432   6.838  0.7690  0.2330  0.5098
 1976SOL    HW217562   2.308   3.445   6.747  0.3379 -2.5179 -0.9597
 1977SOL     OW17563   4.111   0.076   2.702 -0.4032 -0.1243  0.0320
 1977SOL    HW117564   4.088   0.066   2.794 -0.9351  1.4716  0.0766
 1977SOL    HW217565   4.150   0.164   2.703  2.7485 -1.4895 -2.1006
 1978SOL     OW17566   0.753   1.678   0.953  0.4117  0.1990  0.1439
 1978SOL    HW117567   0.780   1.641   1.037  1.7266  1.2943  0.2051
 1978SOL    HW217568   0.666   1.639   0.941  0.5979  0.2262 -1.3233
 1979SOL     OW17569   1.267   1.751   4.953  0.2489  0.5025  0.1924
 1979SOL    HW117570   1.342   1.724   5.005  1.4234  1.6034 -0.9417
 1979SOL    HW217571   1.290   1.744   4.861  0.6262  0.3419  0.2979
 1980SOL     OW17572   1.812   0.560   0.862  0.0491 -0.8172 -0.1041
 1980SOL    HW117573   1.753   0.630   0.891  0.2875 -0.2805 -0.9170
 1980SOL    HW217574   1.787   0.482   0.911  0.7844 -0.4391  0.8712
 1981SOL     OW17575   1.657   0.061   9.182  0.1590  0.9255 -0.1470
 1981SOL    HW117576   1.742   0.053   9.140  0.4584 -0.2044  0.6866
 1981SOL    HW217577   1.669   0.092   9.272  2.6163 -3.6891  1.0732
 1982SOL     OW17578   1.631   0.406   9.282 -0.6592 -0.1860 -0.2094
 1982SOL    HW117579   1.540   0.388   9.308  0.4944 -3.1898  1.8340
 1982SOL    HW217580   1.632   0.494   9.318  0.8890  0.5948 -2.2032
 1983SOL     OW17581   2.906   4.002   8.613  0.1359  0.0532 -0.5690
 1983SOL    HW117582   2.857   4.046   8.543  0.1689 -0.8412 -1.1545
 1983SOL    HW217583   2.847   3.928   8.627  0.5214  0.6777  4.1415
 1984SOL     OW17584   1.621   0.194   5.987 -0.0746  0.2516  0.0947
 1984SOL    HW117585   1.578   0.259   5.931 -1.3854  0.4813  1.3695
 1984SOL    HW217586   1.586   0.214   6.074  3.4356 -0.0424  1.5761
 1985SOL     OW17587   0.751   1.443   4.137 -0.3089 -0.2315 -0.1403
 1985SOL    HW117588   0.657   1.453   4.153 -0.2315  1.5658 -0.8847
 1985SOL    HW217589   0.770   1.536   4.148 -1.1847  0.4845 -4.6194
 1986SOL     OW17590   4.452   1.391   1.445 -0.2128  0.4965 -0.1532
 1986SOL    HW117591   4.478   1.484   1.448  1.1556 -0.0367  4.3522
 1986SOL    HW217592   4.515   1.346   1.501  0.8646 -0.5431 -2.2130
 1987SOL     OW17593   3.023   1.914   9.250 -0.0251  0.3904 -0.6636
 1987SOL    HW117594   2.992   1.824   9.262 -1.0687  0.8190 -0.1314
 1987SOL    HW217595   3.059   1.908   9.162  1.2689 -2.8349  0.0849
 1988SOL     OW17596   1.849   0.780   7.975  0.3439 -0.0798  0.0936
 1988SOL    HW117597   1.857   0.718   8.048 -0.5516 -2.3434 -1.7319
 1988SOL    HW217598   1.938   0.775   7.939 -0.2960  2.8370 -1.8095
 1989SOL     OW17599   2.193   1.647  15.363  0.4347 -0.3156 -0.6819
 1989SOL    HW117600   2.231   1.733  15.349  0.7306 -0.0069  1.9479
 1989SOL    HW217601   2.102   1.668  15.343 -0.0336 -2.0435 -0.3822
 1990SOL     OW17602   2.201   0.340   1.530 -0.4066 -0.0618 -0.2923
 1990SOL    HW117603   2.189   0.285   1.452  0.2791 -0.7617  0.0978
 1990SOL    HW217604   2.276   0.394   1.502  0.5491 -0.7099  1.0222
 1991SOL     OW17605   4.471   4.604   3.902  0.3880 -0.1238  0.0827
 1991SOL    HW117606   4.450   4.673   3.964 -1.1541 -0.8017  0.3044
 1991SOL    HW217607   4.406   4.544   3.937  0.6020 -0.2827  0.2090
 1992SOL     OW17608   3.592   0.301  14.325 -0.4735  0.2687  0.3736
 1992SOL    HW117609   3.555   0.361  14.389  1.1177  1.5598  0.0749
 1992SOL    HW217610   3.516   0.292  14.267  0.9263 -1.8403 -1.1489
 1993SOL     OW17611   4.440   0.919   0.330 -0.2271  0.0663 -0.2754
 1993SOL    HW117612   4.424   0.936   0.423 -0.7887  4.5147 -1.1838
 1993SOL    HW217613   4.444   0.823   0.325  1.1685  0.0902  0.4464
 1994SOL     OW17614   0.008   0.980   7.181  0.1333 -0.3015 -0.0083
 1994SOL    HW117615   0.080   0.977   7.119  0.6671  0.7312  0.5725
 1994SOL    HW217616   4.673   1.026   7.138 -0.2566  0.5580  1.5772
 1995SOL     OW17617   3.784   2.307   5.865  0.2975 -0.1732  0.0399
 1995SOL    HW117618   3.864   2.352   5.891  0.4077 -0.0367 -0.5460
 1995SOL    HW217619   3.823   2.235   5.816  0.0124 -0.1916 -0.1586
 1996SOL     OW17620   1.961   4.179  15.062  0.1157  0.2073  0.4202
 1996SOL    HW117621   1.905   4.102  15.071  1.8859 -0.8510  2.1712
 1996SOL    HW217622   1.949   4.233  15.140  1.0699  0.1365  0.6096
 1997SOL     OW17623   4.695   0.326  12.117  0.0508  0.3928  0.0107
 1997SOL    HW117624   0.011   0.256  12.155  0.1234  0.3811 -0.1132
 1997SOL    HW217625   4.627   0.277  12.070  0.5264 -0.1374 -0.1258
 1998SOL     OW17626   0.375   2.539   2.526 -0.3276  1.1054 -0.5495
 1998SOL    HW117627   0.375   2.511   2.617 -3.0466  2.5556 -0.1247
 1998SOL    HW217628   0.318   2.475   2.483  1.6261 -0.8244 -0.3076
 1999SOL     OW17629   0.959   2.152  10.705  0.8760 -0.0356  0.1680
 1999SOL    HW117630   1.031   2.164  10.766  2.4402 -1.6166 -1.3737
 1999SOL    HW217631   0.968   2.058  10.689 -0.9613 -0.1215 -0.3263
 2000SOL     OW17632   4.174   0.269   3.693 -0.1763  0.4206 -0.1586
 2000SOL    HW117633   4.202   0.338   3.632 -0.8391  1.6763  0.9562
 2000SOL    HW217634   4.134   0.324   3.760 -2.5593 -2.9590  1.1470
 2001SOL     OW17635   0.788   4.088  13.689 -0.2569 -0.3870 -0.0969
 2001SOL    HW117636   0.826   4.048  13.611  1.6839 -1.0942  1.1950
 2001SOL    HW217637   0.736   4.159  13.652  4.0826  1.3157 -2.8426
 2002SOL     OW17638   3.367   4.362  12.211  0.2387  0.4816  0.2216
 2002SOL    HW117639   3.446   4.411  12.231  0.8321 -0.3662 -0.0424
 2002SOL    HW217640   3.305   4.435  12.210 -1.0704 -0.6129  0.1803
 2003SOL     OW17641   2.134   3.449   9.062  0.0784  1.0310 -0.1623
 2003SOL    HW117642   2.044   3.474   9.085  0.1525  2.6840 -1.7142
 2003SOL    HW217643   2.183   3.527   9.085  0.1235  1.0467 -0.3089
 2004SOL     OW17644   1.171   3.812   8.299  0.4306  0.2848  0.1037
 2004SOL    HW117645   1.154   3.773   8.214 -2.0689 -0.1429  0.8191
 2004SOL    HW217646   1.215   3.739   8.344  1.0192  1.0208  0.7388
 2005SOL     OW17647   2.437   3.290  10.119 -0.1720 -0.2579 -0.6620
 2005SOL    HW117648   2.530   3.299  10.099 -0.0372  1.1903  0.6646
 2005SOL    HW217649   2.394   3.355  10.064  1.8445  2.9888  1.6317
 2006SOL     OW17650   3.859   0.381   5.886 -0.0551  0.0249  0.0988
 2006SOL    HW117651   3.905   0.298   5.897 -1.4378 -0.9314 -1.3256
 2006SOL    HW217652   3.906   0.438   5.946 -0.4846 -0.4545  0.8874
 2007SOL     OW17653   2.489   2.902   8.716 -0.4145  0.6215  0.7698
 2007SOL    HW117654   2.544   2.894   8.794  0.3465 -0.3687  0.1214
 2007SOL    HW217655   2.412   2.946   8.754  0.3132  1.0456  1.7540
 2008SOL     OW17656   0.828   3.808  16.054  0.0638  0.0481  0.0700
 2008SOL    HW117657   0.895   3.861  16.010 -1.6838  1.1662 -1.2511
 2008SOL    HW217658   0.882   3.739  16.092  2.0971  1.6252  0.0236
 2009SOL     OW17659   1.077   3.626   4.371 -0.0096  0.0510 -0.5231
 2009SOL    HW117660   1.088   3.570   4.449 -3.4412 -0.0642 -0.1396
 2009SOL    HW217661   1.017   3.571   4.322  0.8343 -1.8275  0.5317
 2010SOL     OW17662   0.329   0.395   1.591  0.0341  0.1669 -0.0577
 2010SOL    HW117663   0.331   0.396   1.687  2.7985 -0.2174 -0.1192
 2010SOL    HW217664   0.402   0.338   1.568 -0.5967 -0.6645 -0.0261
 2011SOL     OW17665   4.635   3.474  13.841  0.2060  0.2583  0.4446
 2011SOL    HW117666   4.706   3.462  13.905  0.4963  0.4242  0.1473
 2011SOL    HW217667   4.561   3.497  13.897 -0.7977  0.2996 -0.9062
 2012SOL     OW17668   1.065   2.034  15.145  0.4139 -0.1098  0.0160
 2012SOL    HW117669   1.072   2.059  15.237  3.6852  0.2729 -0.3251
 2012SOL    HW217670   0.997   1.967  15.151  1.2482 -1.1521 -2.1633
 2013SOL     OW17671   4.018   0.018  16.436 -0.0738  0.2098 -0.2596
 2013SOL    HW117672   4.107   0.035  16.468 -0.0820 -0.3624  0.0715
 2013SOL    HW217673   4.031   0.025  16.342 -0.0635 -2.3582 -0.4497
 2014SOL     OW17674   3.203   0.625  10.613  0.5771 -0.6014 -0.4357
 2014SOL    HW117675   3.109   0.645  10.613  0.3574 -1.5788 -2.4924
 2014SOL    HW217676   3.236   0.693  10.554  0.9298 -1.7984 -1.6337
 2015SOL     OW17677   1.601   3.970   5.617 -0.4458  0.0569  0.5898
 2015SOL    HW117678   1.617   3.901   5.553 -0.5301  0.1866  0.4281
 2015SOL    HW217679   1.611   3.912   5.693  1.7319  1.7461  1.5887
 2016SOL     OW17680   2.299   3.277   1.955 -0.2894  0.2828  0.2993
 2016SOL    HW117681   2.291   3.358   1.905 -1.4155 -1.0507 -1.6471
 2016SOL    HW217682   2.276   3.208   1.893 -1.4401 -0.2146  1.2661
 2017SOL     OW17683   1.315   0.569   8.181 -0.0238  0.2092  0.2680
 2017SOL    HW117684   1.359   0.549   8.098 -1.0033  0.5223 -0.3296
 2017SOL    HW217685   1.289   0.483   8.213 -1.0964 -0.2866 -1.9693
 2018SOL     OW17686   1.233   4.068   7.658  0.6369 -0.4389 -0.6479
 2018SOL    HW117687   1.231   4.013   7.580 -0.3214  1.9655 -2.3171
 2018SOL    HW217688   1.327   4.086   7.663  0.2514  1.3107  0.3405
 2019SOL     OW17689   4.695   0.197   8.508  0.2077  0.0421  0.4615
 2019SOL    HW117690   4.616   0.244   8.533 -0.7048 -0.5845 -1.2690
 2019SOL    HW217691   4.712   0.241   8.425 -0.5225 -0.9959 -0.2393
 2020SOL     OW17692   1.942   2.302  11.513  0.0981  0.0696  0.2149
 2020SOL    HW117693   1.869   2.250  11.479  0.5864 -0.1771 -0.4518
 2020SOL    HW217694   1.926   2.390  11.480 -1.8922 -0.4596 -0.2280
 2021SOL     OW17695   0.880   0.330   7.690  0.0242 -0.0092  0.4603
 2021SOL    HW117696   0.823   0.255   7.672  0.5827 -0.4245  0.4255
 2021SOL    HW217697   0.898   0.353   7.599 -1.0850  1.8208  0.7012
 2022SOL     OW17698   1.665   0.851   4.360  0.1884 -0.0146 -0.2280
 2022SOL    HW117699   1.587   0.848   4.416  2.1866  1.5191  2.6473
 2022SOL    HW217700   1.672   0.943   4.334 -1.2376  0.1173 -0.1496
 2023SOL     OW17701   3.021   0.964   9.250 -0.5687 -0.0244 -0.5367
 2023SOL    HW117702   3.026   1.002   9.162  2.1412 -0.5590 -0.6005
 2023SOL    HW217703   3.001   1.041   9.304  0.6969  0.0592 -0.1953
 2024SOL     OW17704   0.436   3.773   0.707  0.3909  0.0470 -0.0392
 2024SOL    HW117705   0.447   3.856   0.752 -2.7174  0.7340 -0.5523
 2024SOL    HW217706   0.512   3.725   0.741 -0.4676 -0.4590  1.2020
 2025SOL     OW17707   0.112   0.741   0.911 -0.7634  0.6472 -0.6689
 2025SOL    HW117708   0.075   0.715   0.996  1.1345  0.3342  0.0594
 2025SOL    HW217709   0.095   0.835   0.914  2.4962  1.2330 -1.4498
 2026SOL     OW17710   0.605   2.743   7.810 -0.0605  0.2664  0.1462
 2026SOL    HW117711   0.644   2.697   7.884 -0.0418 -1.3188 -0.8455
 2026SOL    HW217712   0.670   2.708   7.749 -0.8067 -0.2666 -0.3426
 2027SOL     OW17713   2.982   1.431   9.320 -0.3478  0.0280 -0.0409
 2027SOL    HW117714   3.065   1.464   9.354  0.2893 -0.4309 -1.1669
 2027SOL    HW217715   2.969   1.488   9.244  0.8169  1.9184  1.1712
 2028SOL     OW17716   1.375   0.281   6.969 -0.1659  0.0336  0.5859
 2028SOL    HW117717   1.384   0.277   6.873  2.8516  0.1898  0.8573
 2028SOL    HW217718   1.281   0.265   6.980 -0.3841  0.0944 -1.0985
 2029SOL     OW17719   3.673   4.258   8.654 -0.2873  0.2409  0.5148
 2029SOL    HW117720   3.686   4.165   8.638 -1.5806  0.2830 -0.7709
 2029SOL    HW217721   3.585   4.252   8.691 -0.2561 -2.1105  0.1682
 2030SOL     OW17722   2.100   3.614   1.710  0.5962 -0.3192 -0.4251
 2030SOL    HW117723   2.173   3.613   1.648  2.2619 -1.4518  1.5431
 2030SOL    HW217724   2.064   3.528   1.686  0.3518 -0.7446  1.4260
 2031SOL     OW17725   3.396   0.093  15.195  0.0319  0.5161 -0.1957
 2031SOL    HW117726   3.454   0.059  15.263  0.7073  0.4311 -0.8142
 2031SOL    HW217727   3.400   0.023  15.131 -0.3660 -0.7540  1.1626
 2032SOL     OW17728   1.151   3.588   7.379  0.0730 -0.5319  0.1821
 2032SOL    HW117729   1.188   3.503   7.402 -0.8879 -1.0551 -0.1941
 2032SOL    HW217730   1.078   3.588   7.440  0.9595 -0.8238  1.2442
 2033SOL     OW17731   3.911   2.303  16.554  0.0119 -0.1439 -0.3596
 2033SOL    HW117732   4.001   2.308  16.522 -0.0318 -2.5006 -0.8660
 2033SOL    HW217733   3.880   2.234  16.495  2.5621  0.7783 -2.7939
 2034SOL     OW17734   4.138   0.095   3.388 -0.0586 -0.3741  0.3406
 2034SOL    HW117735   4.129   0.035   3.462  0.4767 -0.2231  0.5303
 2034SOL    HW217736   4.209   0.157   3.405 -0.6049  0.1244  0.7970
 2035SOL     OW17737   2.896   1.407   6.906  0.4880  0.4623 -0.5934
 2035SOL    HW117738   2.902   1.501   6.923 -0.8877  0.7055 -1.4900
 2035SOL    HW217739   2.841   1.416   6.828 -1.9651 -2.0853  0.8436
 2036SOL     OW17740   1.842   1.671   5.896  0.2129  0.1603  0.0633
 2036SOL    HW117741   1.822   1.748   5.842 -1.6788  0.2418  0.8923
 2036SOL    HW217742   1.841   1.709   5.984 -0.2568 -0.4808  0.3284
 2037SOL     OW17743   1.707   2.545  13.672  0.0358  0.5244  0.2408
 2037SOL    HW117744   1.724   2.546  13.766 -0.1987  0.9430  0.2772
 2037SOL    HW217745   1.774   2.487  13.636  1.3096  0.3676  2.8633
 2038SOL     OW17746   3.104   4.312   8.262  0.1974 -0.2739  0.0884
 2038SOL    HW117747   3.032   4.318   8.325 -0.6923 -2.2400 -0.7217
 2038SOL    HW217748   3.138   4.401   8.270  1.5797 -0.7919 -0.0023
 2039SOL     OW17749   1.687   3.309   3.640 -0.2536  0.5452 -0.6926
 2039SOL    HW117750   1.734   3.353   3.711 -2.3214  0.1037  0.9429
 2039SOL    HW217751   1.716   3.354   3.561  1.1146  1.5801  0.4076
 2040SOL     OW17752   3.608   3.193  17.142 -0.3194 -0.4594 -0.6276
 2040SOL    HW117753   3.603   3.259  17.074 -2.3987  0.9916  0.9348
 2040SOL    HW217754   3.679   3.136  17.111  0.6394  0.6453 -0.4852
 2041SOL     OW17755   3.746   1.036  11.258 -0.0842  0.1611  0.7389
 2041SOL    HW117756   3.653   1.019  11.240 -0.2044  0.5431  0.9866
 2041SOL    HW217757   3.773   1.125  11.236 -2.2050  0.7171  0.3923
 2042SOL     OW17758   0.136   3.658   6.721 -0.1032  0.2297 -0.2764
 2042SOL    HW117759   0.093   3.640   6.637 -1.2913 -2.4304  0.8975
 2042SOL    HW217760   0.171   3.743   6.697  1.0642 -0.3705 -0.7166
 2043SOL     OW17761   3.841   4.295   5.028 -0.3780  0.3777  0.3917
 2043SOL    HW117762   3.887   4.374   5.058  0.6240  0.5112 -1.4743
 2043SOL    HW217763   3.795   4.345   4.961  0.2957 -1.1162 -1.1991
 2044SOL     OW17764   0.223   0.380  14.611 -0.6902 -0.1913  0.4809
 2044SOL    HW117765   0.234   0.367  14.516 -3.0485  2.5892 -0.1535
 2044SOL    HW217766   0.298   0.440  14.616  0.5221 -1.5450 -0.9111
 2045SOL     OW17767   3.154   3.537  11.941  0.4211 -0.6248 -0.4281
 2045SOL    HW117768   3.202   3.533  11.857 -0.4846  0.0434 -0.9747
 2045SOL    HW217769   3.077   3.592  11.926  1.0005  0.9438  2.4020
 2046SOL     OW17770   1.931   1.791   8.127  0.1792 -0.8338  0.0680
 2046SOL    HW117771   1.960   1.706   8.160  1.7648 -0.0931  0.5871
 2046SOL    HW217772   1.969   1.801   8.040 -1.1831  0.6113 -0.3626
 2047SOL     OW17773   2.038   3.345   2.446 -0.1267 -0.5560 -0.4884
 2047SOL    HW117774   2.123   3.303   2.443 -0.2979 -1.1290  2.4887
 2047SOL    HW217775   1.976   3.273   2.462  0.1017 -0.7240 -0.3688
 2048SOL     OW17776   1.052   3.698   3.092  0.0409  0.0798 -0.0795
 2048SOL    HW117777   0.989   3.692   3.164 -0.1122  1.0071 -0.1352
 2048SOL    HW217778   0.996   3.702   3.015 -3.5893  0.3885  2.5351
 2049SOL     OW17779   3.125   0.568   9.128 -0.0427  0.9094 -0.4623
 2049SOL    HW117780   3.089   0.480   9.112  0.6811  0.5135  0.0843
 2049SOL    HW217781   3.106   0.588   9.219  0.6655 -2.3360  0.4128
 2050SOL     OW17782   2.075   2.377   4.178  0.8244  0.2122 -0.2608
 2050SOL    HW117783   2.052   2.427   4.100 -1.6263  1.0277  0.9799
 2050SOL    HW217784   2.089   2.293   4.134 -2.8756 -0.1082 -0.8483
 2051SOL     OW17785   3.394   0.967   7.782  0.1441  0.3770  0.3301
 2051SOL    HW117786   3.437   0.903   7.725 -1.0050 -0.0294 -0.0661
 2051SOL    HW217787   3.327   0.997   7.721  0.3500  0.0464 -0.0573
 2052SOL     OW17788   2.994   3.474   5.475 -0.0568 -0.7031  0.2562
 2052SOL    HW117789   2.946   3.475   5.392  1.0449 -0.7219 -0.3752
 2052SOL    HW217790   3.039   3.390   5.471  1.4537  0.1537 -0.8000
 2053SOL     OW17791   2.070   4.426   1.703  0.0294 -0.0406  0.7602
 2053SOL    HW117792   2.086   4.452   1.612 -1.3424  0.0205  0.5261
 2053SOL    HW217793   2.103   4.337   1.697 -1.2770 -0.4472 -0.3923
 2054SOL     OW17794   3.512   1.129   5.488 -0.0113  0.1250  0.1958
 2054SOL    HW117795   3.470   1.122   5.402  0.2219 -0.4902  0.1315
 2054SOL    HW217796   3.468   1.057   5.534 -0.2362  0.2691  0.2090
 2055SOL     OW17797   3.477   3.834   4.813 -0.2767 -0.2507 -0.7076
 2055SOL    HW117798   3.412   3.835   4.743 -0.0871 -2.6665 -0.9429
 2055SOL    HW217799   3.426   3.796   4.885  0.5183 -1.0938 -0.5909
 2056SOL     OW17800   1.805   2.865  12.197  0.1018 -0.5356  0.1760
 2056SOL    HW117801   1.739   2.929  12.172  0.5359  0.4135  1.4373
 2056SOL    HW217802   1.808   2.875  12.292  1.1858  0.0487  0.0812
 2057SOL     OW17803   4.506   0.759   8.912 -0.6047  0.2663  0.6170
 2057SOL    HW117804   4.589   0.800   8.889 -1.4923  0.7033 -1.8426
 2057SOL    HW217805   4.485   0.699   8.840  2.7856 -1.6751  1.2539
 2058SOL     OW17806   1.920   0.485   8.970 -0.1386 -0.0281 -0.3113
 2058SOL    HW117807   1.903   0.576   8.942 -0.1652  0.1156  0.1753
 2058SOL    HW217808   1.836   0.446   8.996  0.2753  0.4853  1.7322
 2059SOL     OW17809   2.065   4.053   8.373  0.6577  0.0653  0.1667
 2059SOL    HW117810   2.018   4.002   8.439  1.3389 -1.9042 -0.8539
 2059SOL    HW217811   2.068   3.991   8.300 -0.5599  2.1321 -1.6311
 2060SOL     OW17812   1.069   0.513   5.029 -0.0675 -0.1197 -0.0520
 2060SOL    HW117813   1.078   0.608   5.040 -0.6050 -0.0673 -0.0721
 2060SOL    HW217814   1.067   0.495   5.123 -0.7300  1.4731  0.2484
 2061SOL     OW17815   0.139   0.984   5.925 -0.0424 -0.6709  0.4975
 2061SOL    HW117816   0.194   0.924   5.874 -0.4367  0.1871 -0.9272
 2061SOL    HW217817   0.170   1.059   5.875 -0.7946 -0.7337 -0.0439
 2062SOL     OW17818   1.721   3.163   3.918  0.3546 -0.1231  0.0354
 2062SOL    HW117819   1.693   3.204   3.836 -1.7533  0.3186  0.9816
 2062SOL    HW217820   1.812   3.137   3.904  1.0754  1.6605  1.4534
 2063SOL     OW17821   4.407   4.697  11.714 -0.2999 -0.1860  0.2580
 2063SOL    HW117822   4.440   4.609  11.695  0.8991  0.4087 -0.4812
 2063SOL    HW217823   4.347   4.688  11.787 -0.2451  0.1035  0.3396
 2064SOL     OW17824   4.316   3.465   3.860 -0.5956 -0.2752  0.6310
 2064SOL    HW117825   4.287   3.495   3.946  0.5099  2.2637  0.1387
 2064SOL    HW217826   4.353   3.378   3.874 -1.1065 -0.3625  1.4662
 2065SOL     OW17827   4.410   2.284   7.526 -0.6513  0.1783 -0.1475
 2065SOL    HW117828   4.418   2.191   7.549  2.8239  1.0612  2.2514
 2065SOL    HW217829   4.498   2.302   7.492 -1.1681  3.1167  0.1513
 2066SOL     OW17830   2.981   0.102   5.126  0.5090  0.5021  0.3608
 2066SOL    HW117831   2.922   0.175   5.146 -0.5719 -1.0786  2.9251
 2066SOL    HW217832   3.041   0.102   5.201  0.1564  1.4404  0.6517
 2067SOL     OW17833   3.622   0.439  12.549  0.3260 -0.0844 -0.8409
 2067SOL    HW117834   3.613   0.406  12.638 -0.3679  0.0463 -0.8632
 2067SOL    HW217835   3.611   0.533  12.566 -0.8136 -0.4225  0.2762
 2068SOL     OW17836   0.143   2.166   8.259  0.3745 -0.2122 -0.5209
 2068SOL    HW117837   0.127   2.243   8.314  1.4080 -0.3650  0.0075
 2068SOL    HW217838   0.053   2.143   8.239  0.1680  1.5748 -1.6437
 2069SOL     OW17839   3.961   4.705  12.368 -0.2089  0.2704  0.2516
 2069SOL    HW117840   3.928   4.629  12.322 -2.9165  0.0363  2.5940
 2069SOL    HW217841   3.892   0.030  12.344 -1.1670 -1.1377 -0.5734
 2070SOL     OW17842   1.776   2.958  12.557 -0.0665 -0.5592 -0.2474
 2070SOL    HW117843   1.720   2.994  12.489  0.6513  0.7506 -0.1316
 2070SOL    HW217844   1.729   2.996  12.631  0.0730  2.6614 -1.8371
 2071SOL     OW17845   0.208   2.631  10.993  0.1384 -0.4566  0.3756
 2071SOL    HW117846   0.131   2.578  11.016 -0.1468 -1.0240 -1.8501
 2071SOL    HW217847   0.257   2.576  10.932  1.0886  1.0557 -0.2185
 2072SOL     OW17848   1.729   0.713   6.400 -0.0827  0.2890  0.2264
 2072SOL    HW117849   1.722   0.630   6.448  0.0034  0.1746  0.0375
 2072SOL    HW217850   1.785   0.758   6.463 -0.7771 -0.1473  1.1669
 2073SOL     OW17851   2.893   3.415   3.693 -0.1961  0.6917 -0.5917
 2073SOL    HW117852   2.917   3.503   3.664  0.6196  0.4469 -0.6734
 2073SOL    HW217853   2.949   3.415   3.771 -1.1200 -0.0004  0.0727
 2074SOL     OW17854   4.311   1.510   9.059  0.0222  0.6291  0.0294
 2074SOL    HW117855   4.284   1.456   9.133 -5.4741  1.9041 -1.0360
 2074SOL    HW217856   4.404   1.491   9.047 -0.2142 -1.9451  2.4267
 2075SOL     OW17857   2.180   0.882  15.328  0.3046  0.2664 -0.0252
 2075SOL    HW117858   2.263   0.840  15.303 -0.3486 -0.5465 -0.8614
 2075SOL    HW217859   2.127   0.861  15.251 -0.3583  1.3809  0.1298
 2076SOL     OW17860   1.355   2.867   2.473 -0.1492 -0.2206  0.3423
 2076SOL    HW117861   1.339   2.899   2.384  1.1769  0.4707  0.3478
 2076SOL    HW217862   1.266   2.844   2.499 -0.9204  1.6028 -0.6682
 2077SOL     OW17863   2.135   1.104   8.889 -0.1581 -0.5383  0.4805
 2077SOL    HW117864   2.211   1.072   8.937 -1.2661 -1.7053  1.4591
 2077SOL    HW217865   2.124   1.194   8.920 -1.4241  0.1840 -2.0023
 2078SOL     OW17866   4.137   4.267   8.220  0.3197  0.1399  0.0737
 2078SOL    HW117867   4.169   4.333   8.157 -2.7226 -0.2826 -1.8756
 2078SOL    HW217868   4.219   4.222   8.240  1.1366  0.9872 -1.3886
 2079SOL     OW17869   1.937   0.377   7.064  0.1139 -0.1007  0.0036
 2079SOL    HW117870   2.030   0.358   7.079 -0.0638 -1.5736 -0.7420
 2079SOL    HW217871   1.901   0.353   7.149  1.8520  1.7102  1.2525
 2080SOL     OW17872   1.918   1.517  12.729  0.3104  0.0178 -0.1217
 2080SOL    HW117873   1.897   1.593  12.784 -0.0076  1.7764 -2.6765
 2080SOL    HW217874   1.827   1.494  12.712  0.4709 -1.8804  1.5479
 2081SOL     OW17875   0.952   4.284   4.631  0.1220 -0.0414  1.1610
 2081SOL    HW117876   0.942   4.289   4.727 -1.4379 -0.2524  1.0205
 2081SOL    HW217877   0.874   4.331   4.600  0.4254 -0.2767  0.0587
 2082SOL     OW17878   0.289   4.399   1.497  0.4695  0.2988  0.1625
 2082SOL    HW117879   0.311   4.480   1.452 -1.1434  0.5030 -0.2606
 2082SOL    HW217880   0.195   4.382   1.485  0.5554  1.0116 -1.3756
 2083SOL     OW17881   2.160   3.647   4.500  0.7916 -0.3635 -0.3920
 2083SOL    HW117882   2.213   3.724   4.521  0.5155 -0.2820  0.0147
 2083SOL    HW217883   2.175   3.586   4.572 -1.3747 -1.3155 -0.7458
 2084SOL     OW17884   2.365   1.794   3.164 -0.1803  0.0345  0.4221
 2084SOL    HW117885   2.460   1.789   3.152 -0.2388 -1.0824  0.4167
 2084SOL    HW217886   2.355   1.879   3.207 -0.4879  0.2565 -0.0793
 2085SOL     OW17887   1.092   1.786   8.031 -0.2904 -0.4891  0.1157
 2085SOL    HW117888   1.160   1.849   8.008 -0.5372 -0.3778 -0.3072
 2085SOL    HW217889   1.116   1.771   8.123  1.1878 -0.3278 -0.2494
 2086SOL     OW17890   4.446   2.568   3.774 -0.5611  0.6351  0.4344
 2086SOL    HW117891   4.462   2.481   3.738  1.4222  1.0277  0.3836
 2086SOL    HW217892   4.425   2.609   3.690  1.1383 -0.9721 -0.7685
 2087SOL     OW17893   2.211   4.637   7.830 -0.3377 -0.2145  0.3762
 2087SOL    HW117894   2.121   4.607   7.818 -0.7397  1.0429  0.2918
 2087SOL    HW217895   2.253   4.580   7.765  1.6403  1.0203  0.5887
 2088SOL     OW17896   1.521   0.144   7.897 -0.2995  0.4580 -0.4510
 2088SOL    HW117897   1.539   0.103   7.981 -3.7056 -0.0941  0.0148
 2088SOL    HW217898   1.542   0.236   7.913 -0.9502  0.7652 -1.3381
 2089SOL     OW17899   3.234   1.641  16.517  0.2363  0.0407  0.0412
 2089SOL    HW117900   3.239   1.607  16.606  0.8990 -0.0583 -0.0349
 2089SOL    HW217901   3.258   1.560  16.471  2.6479  1.0266 -0.4297
 2090SOL     OW17902   0.269   2.071   2.597  0.2880  0.2493 -0.5181
 2090SOL    HW117903   0.319   2.142   2.558 -1.0523  0.2087 -2.3368
 2090SOL    HW217904   0.317   2.060   2.679  0.4667  0.0793 -0.6446
 2091SOL     OW17905   0.257   1.228   5.368  0.6823  0.0774 -0.4255
 2091SOL    HW117906   0.324   1.296   5.365 -0.6914  1.4048 -0.9089
 2091SOL    HW217907   0.315   1.156   5.347 -0.3301 -0.5387 -1.1491
 2092SOL     OW17908   3.122   0.482   7.104  0.8368  0.1026  0.2748
 2092SOL    HW117909   3.162   0.492   7.017 -0.2923 -2.4002 -0.5377
 2092SOL    HW217910   3.191   0.518   7.158  1.9066  0.4052 -1.2990
 2093SOL     OW17911   3.577   1.648   4.635  0.8007 -0.7443 -0.0886
 2093SOL    HW117912   3.616   1.715   4.691 -0.2681 -1.1485  1.1432
 2093SOL    HW217913   3.650   1.647   4.574 -0.1104  2.0924 -1.2127
 2094SOL     OW17914   2.199   1.159   9.699  0.3137 -0.3694  0.0441
 2094SOL    HW117915   2.266   1.101   9.663  0.6934 -1.0567  1.8729
 2094SOL    HW217916   2.253   1.232   9.730 -0.4724  0.8142 -1.3346
 2095SOL     OW17917   1.782   2.712   3.366 -0.3847  0.3761  0.6377
 2095SOL    HW117918   1.876   2.712   3.347 -0.3277 -1.6791  1.0019
 2095SOL    HW217919   1.733   2.679   3.291  0.8416 -0.0927  0.0554
 2096SOL     OW17920   2.861   4.363  16.402 -0.6481  0.0914  0.5290
 2096SOL    HW117921   2.813   4.380  16.321 -2.3066 -0.1976  1.4471
 2096SOL    HW217922   2.922   4.437  16.412 -0.2820 -0.2820  1.0893
 2097SOL     OW17923   1.352   3.831   1.631 -0.9828  0.0269 -0.1372
 2097SOL    HW117924   1.283   3.795   1.688 -2.3094  0.3063 -1.5703
 2097SOL    HW217925   1.396   3.882   1.699 -2.8608  0.4226  0.7874
 2098SOL     OW17926   2.999   0.338   6.199  0.4556  0.2656 -0.2597
 2098SOL    HW117927   3.003   0.311   6.291  1.7161  1.2156 -0.0443
 2098SOL    HW217928   2.987   0.255   6.153 -0.7032  0.8338 -0.9893
 2099SOL     OW17929   2.735   2.765   0.049  0.0597  0.1544 -0.0048
 2099SOL    HW117930   2.762   2.777  17.704  0.2788 -1.1140 -0.1041
 2099SOL    HW217931   2.639   2.768   0.047  0.2137  3.5223 -1.4365
 2100SOL     OW17932   3.198   1.244   4.288  0.0611 -0.0647 -0.8027
 2100SOL    HW117933   3.143   1.288   4.353  2.6363  3.0275 -0.7387
 2100SOL    HW217934   3.208   1.154   4.318 -1.2149  1.0542  3.1117
 2101SOL     OW17935   3.112   2.401   1.125  0.2684 -0.3303 -1.1037
 2101SOL    HW117936   3.080   2.364   1.043 -0.4009 -1.0367 -0.5312
 2101SOL    HW217937   3.127   2.320   1.175  4.1177  0.7193 -0.5314
 2102SOL     OW17938   3.017   4.113   8.042  0.2039 -0.0555 -0.0184
 2102SOL    HW117939   2.943   4.123   8.102  0.5744  1.2985  0.2141
 2102SOL    HW217940   3.087   4.168   8.077  1.5191 -1.1479 -0.9236
 2103SOL     OW17941   3.142   1.700  13.341 -0.0517 -0.4254  0.1767
 2103SOL    HW117942   3.197   1.699  13.419  0.1602 -1.0379  0.0136
 2103SOL    HW217943   3.151   1.611  13.309 -2.0062 -0.4926 -0.2177
 2104SOL     OW17944   0.387   2.041   0.311 -0.6529  0.2686 -0.4238
 2104SOL    HW117945   0.307   2.057   0.260  0.0763  1.0904 -1.3240
 2104SOL    HW217946   0.381   2.106   0.381  2.1824  1.5810 -1.4001
 2105SOL     OW17947   0.986   4.147  10.961 -0.2172  0.1540 -0.1717
 2105SOL    HW117948   0.932   4.095  11.019  1.9102  0.6060  2.2069
 2105SOL    HW217949   0.982   4.232  11.005  1.8730 -0.1563  0.5942
 2106SOL     OW17950   0.721   1.538  13.196 -0.4205  0.4248 -0.1899
 2106SOL    HW117951   0.707   1.618  13.247 -0.2265 -0.3055  1.0214
 2106SOL    HW217952   0.794   1.510  13.251  0.0076  0.0099 -0.9699
 2107SOL     OW17953   1.263   2.517   6.151 -0.2345 -0.4203 -0.0689
 2107SOL    HW117954   1.350   2.478   6.153 -0.9470 -2.1075 -1.6497
 2107SOL    HW217955   1.209   2.440   6.132  0.5139 -1.0673  0.4204
 2108SOL     OW17956   4.590   4.156   8.408  0.0602  0.1231 -0.0410
 2108SOL    HW117957   4.519   4.207   8.448  0.8144  0.7891  0.4503
 2108SOL    HW217958   4.607   4.088   8.474  2.9407  0.3066 -0.6113
 2109SOL     OW17959   3.300   4.312   1.120 -0.1352  0.1511  0.4064
 2109SOL    HW117960   3.355   4.266   1.058 -0.6261  0.6369 -0.3912
 2109SOL    HW217961   3.324   4.272   1.203 -1.7533 -0.3117  0.6587
 2110SOL     OW17962   4.648   4.251   4.554 -0.7164 -0.2922  0.0706
 2110SOL    HW117963   4.570   4.297   4.583  0.5662  1.5939  0.5162
 2110SOL    HW217964   4.613   4.219   4.470  1.9130 -0.0201 -1.1351
 2111SOL     OW17965   4.184   4.591  11.880  0.0010  0.2822 -0.2300
 2111SOL    HW117966   4.191   4.640  11.963  0.3569 -1.0053  0.5052
 2111SOL    HW217967   4.209   4.505  11.913 -1.5505 -0.2966 -0.5757
 2112SOL     OW17968   4.734   2.106   3.183  0.3673  0.4082  0.6876
 2112SOL    HW117969   4.659   2.124   3.127  1.1938  2.2057  0.1514
 2112SOL    HW217970   4.719   2.012   3.191 -0.6163  0.5525  0.4827
 2113SOL     OW17971   1.779   4.590   2.252 -0.5116 -0.0723  0.4008
 2113SOL    HW117972   1.824   4.655   2.306 -3.6868  1.4741  1.1467
 2113SOL    HW217973   1.688   4.603   2.280 -1.2895 -1.0853 -1.6748
 2114SOL     OW17974   2.025   3.916  16.672 -0.0119 -0.2241 -0.2538
 2114SOL    HW117975   1.990   3.863  16.744 -2.6359 -1.1973 -2.2719
 2114SOL    HW217976   2.087   3.973  16.718 -2.5040  1.6054  0.8108
 2115SOL     OW17977   1.088   3.334   1.298 -0.0458 -0.5097 -0.3266
 2115SOL    HW117978   1.146   3.289   1.360  1.0079  2.6617  1.0058
 2115SOL    HW217979   1.158   3.367   1.242  0.1778 -0.7694 -0.1946
 2116SOL     OW17980   2.312   2.433   7.184  0.1205  0.1754  0.2938
 2116SOL    HW117981   2.382   2.421   7.248  1.6371 -1.9291 -1.7771
 2116SOL    HW217982   2.365   2.404   7.110  1.0944 -2.1893  1.8814
 2117SOL     OW17983   4.509   4.604  11.380  0.0888  0.0084  0.2431
 2117SOL    HW117984   4.604   4.601  11.367  0.0486 -1.4835  0.3058
 2117SOL    HW217985   4.502   4.551  11.459 -0.4261 -1.2952 -0.6803
 2118SOL     OW17986   1.465   3.078   7.244 -0.3464 -0.3954  0.1166
 2118SOL    HW117987   1.380   3.078   7.288  0.1045  0.0286  1.0009
 2118SOL    HW217988   1.434   3.139   7.177  1.1445  0.1704 -0.0520
 2119SOL     OW17989   2.573   1.274  16.606 -0.2125  0.2844  0.0103
 2119SOL    HW117990   2.552   1.360  16.643  1.3114  0.0981  1.3263
 2119SOL    HW217991   2.531   1.212  16.666  2.3660 -3.1916 -1.7352
 2120SOL     OW17992   1.669   3.220   4.832 -0.1522  0.5332 -0.1937
 2120SOL    HW117993   1.641   3.298   4.784  0.8117  2.2992  2.1027
 2120SOL    HW217994   1.614   3.150   4.798  2.0322 -1.6740  0.8187
 2121SOL     OW17995   2.993   4.723   4.587  0.3138 -0.2377  0.5360
 2121SOL    HW117996   3.028   0.074   4.602 -2.9720  0.9816  1.0897
 2121SOL    HW217997   2.899   0.001   4.596  0.4117  1.2914 -0.8120
 2122SOL     OW17998   1.564   3.551   4.502 -0.6531  0.1489 -0.6792
 2122SOL    HW117999   1.519   3.634   4.487 -1.9478 -0.0002  2.4147
 2122SOL    HW218000   1.604   3.537   4.417 -0.3251 -0.0845 -0.4866
 2123SOL     OW18001   2.468   3.474  11.569 -0.5843 -0.3630  0.1412
 2123SOL    HW118002   2.458   3.492  11.662  1.7358 -0.1201  0.3443
 2123SOL    HW218003   2.555   3.436  11.575 -0.7191 -0.3036  2.5153
 2124SOL     OW18004   0.087   4.472   1.992  0.8209  0.2828  0.5603
 2124SOL    HW118005   0.122   4.393   2.033 -0.0655 -0.0993  0.5638
 2124SOL    HW218006   0.155   4.538   2.005  0.9969 -0.0459  1.3046
 2125SOL     OW18007   0.934   4.068   6.085 -0.8373  0.1643  0.1203
 2125SOL    HW118008   0.881   4.006   6.034 -0.3884 -0.0954 -0.0352
 2125SOL    HW218009   1.006   4.084   6.023 -1.4060 -0.0385 -0.5906
 2126SOL     OW18010   4.015   3.886  13.006 -0.0293 -0.5729  0.0158
 2126SOL    HW118011   4.021   3.901  13.101  0.5890  1.5048 -0.3643
 2126SOL    HW218012   4.099   3.910  12.968 -1.1024  0.0797 -1.9640
 2127SOL     OW18013   1.751   2.548   3.689 -0.4341 -0.4535  0.2652
 2127SOL    HW118014   1.803   2.626   3.670 -0.9925 -1.1235 -3.9284
 2127SOL    HW218015   1.763   2.487   3.616  0.9396  0.0332  0.0932
 2128SOL     OW18016   0.806   0.435   5.826  0.6007  0.1211  0.1956
 2128SOL    HW118017   0.814   0.340   5.825  1.8344  0.2277 -0.2553
 2128SOL    HW218018   0.711   0.448   5.819  0.7696  0.9161 -0.7271
 2129SOL     OW18019   2.853   1.925   2.681 -0.5012  0.4695  0.0289
 2129SOL    HW118020   2.771   1.894   2.643  0.0966 -0.4622 -0.4863
 2129SOL    HW218021   2.918   1.897   2.617 -1.3449  0.6329 -0.8885
 2130SOL     OW18022   0.255   1.116   7.057  0.0643  0.3268  0.0749
 2130SOL    HW118023   0.215   1.146   6.975  0.1816 -0.9073 -0.4353
 2130SOL    HW218024   0.343   1.102   7.020 -0.2854 -3.7871  0.8241
 2131SOL     OW18025   0.243   2.371   0.047  0.1372  0.3948  0.1947
 2131SOL    HW118026   0.297   2.429   0.101 -0.5498 -0.3240  1.6785
 2131SOL    HW218027   0.222   2.433  17.723  0.6886  0.8772  0.4546
 2132SOL     OW18028   1.306   4.318   1.706  0.4597 -0.1132 -0.4460
 2132SOL    HW118029   1.387   4.272   1.686  1.2540  1.1955 -0.1982
 2132SOL    HW218030   1.260   4.318   1.622 -0.0010 -0.5583 -0.1964
 2133SOL     OW18031   3.090   2.191   2.923 -0.2827  0.0202 -0.3188
 2133SOL    HW118032   3.114   2.268   2.872 -0.9792  0.9351  0.7259
 2133SOL    HW218033   3.177   2.163   2.951 -0.1061 -1.8648 -2.6989
 2134SOL     OW18034   2.323   0.184   7.697 -0.1875 -0.4047  0.4405
 2134SOL    HW118035   2.305   0.117   7.763  0.8406 -1.7135 -0.5986
 2134SOL    HW218036   2.337   0.262   7.752  2.0374 -0.3694 -0.1539
 2135SOL     OW18037   1.379   2.535   4.933 -0.1290 -0.1677  0.0294
 2135SOL    HW118038   1.380   2.629   4.916  1.5998 -0.1529  0.2716
 2135SOL    HW218039   1.448   2.525   4.998  0.4514  1.9155 -0.2797
 2136SOL     OW18040   1.515   2.229   8.564  0.7060  0.1213  0.3975
 2136SOL    HW118041   1.585   2.294   8.562  1.0099 -0.1879  0.9607
 2136SOL    HW218042   1.463   2.256   8.640  3.3240  0.0209  2.2229
 2137SOL     OW18043   2.867   4.726   0.353  0.2591 -0.0064  0.1138
 2137SOL    HW118044   2.818   0.045   0.293  0.1403  2.2332  2.3054
 2137SOL    HW218045   2.934   0.048   0.389  0.5713  0.1559 -0.7151
 2138SOL     OW18046   4.050   4.306   8.471 -0.4536 -0.3371 -0.0364
 2138SOL    HW118047   4.041   4.219   8.508  0.9327 -0.3846  0.1828
 2138SOL    HW218048   4.079   4.293   8.380  4.7841 -0.4376  1.6124
 2139SOL     OW18049   4.046   3.391   2.019  0.2240  0.4737  0.2173
 2139SOL    HW118050   4.021   3.299   2.023  2.3250 -0.1862 -2.2353
 2139SOL    HW218051   3.971   3.434   2.061 -0.7453  0.8997 -1.9563
 2140SOL     OW18052   1.732   0.677  11.470  0.0837  0.3073 -0.4672
 2140SOL    HW118053   1.717   0.740  11.540  2.6122  1.2303 -0.7418
 2140SOL    HW218054   1.754   0.600  11.522  0.4829 -0.2856 -1.4928
 2141SOL     OW18055   2.125   2.469   3.602  0.5278 -0.0727  0.0929
 2141SOL    HW118056   2.178   2.547   3.592 -0.4445  0.5476 -0.2540
 2141SOL    HW218057   2.141   2.445   3.694  0.8680  0.8668  0.2695
 2142SOL     OW18058   0.741   3.690  13.985  0.0228 -0.0217 -0.4207
 2142SOL    HW118059   0.695   3.666  13.905 -0.8476 -1.3095  0.4508
 2142SOL    HW218060   0.768   3.604  14.018 -3.8926 -0.9071  0.4941
 2143SOL     OW18061   3.772   0.637  16.389 -1.0041 -0.4669  0.3834
 2143SOL    HW118062   3.716   0.706  16.427 -0.6433  0.5034 -0.8417
 2143SOL    HW218063   3.708   0.580  16.347 -0.1853  0.5235 -2.2337
 2144SOL     OW18064   4.254   4.017   5.812 -0.5323  0.9547  0.5029
 2144SOL    HW118065   4.273   4.110   5.801 -1.2269  0.9965 -0.3552
 2144SOL    HW218066   4.319   3.988   5.876 -0.9748 -1.2364 -0.0435
 2145SOL     OW18067   0.939   3.211   0.708  0.2582  0.4641 -0.0303
 2145SOL    HW118068   0.922   3.275   0.638 -2.1216 -1.7444 -1.4924
 2145SOL    HW218069   1.007   3.159   0.665 -0.5433 -0.8272  0.2572
 2146SOL     OW18070   1.604   2.931   8.288  0.3030  0.1617 -0.1723
 2146SOL    HW118071   1.553   2.871   8.234 -0.3087  0.9149 -0.4335
 2146SOL    HW218072   1.626   2.867   8.356  0.1390 -2.3543 -2.4758
 2147SOL     OW18073   1.261   3.089   6.180 -0.1178 -0.1168  0.0159
 2147SOL    HW118074   1.311   3.096   6.261 -0.1331 -1.3422  0.1402
 2147SOL    HW218075   1.186   3.143   6.202 -1.1132 -2.4147  2.2275
 2148SOL     OW18076   2.174   4.148  10.470  0.1724  0.2804 -0.0634
 2148SOL    HW118077   2.126   4.070  10.500 -1.0775  1.5571  1.2708
 2148SOL    HW218078   2.119   4.216  10.508  1.7917  1.2154  0.6045
 2149SOL     OW18079   2.182   3.445   0.865  0.0777 -0.1573 -0.0188
 2149SOL    HW118080   2.183   3.364   0.815  1.2953 -0.4701  0.5194
 2149SOL    HW218081   2.271   3.475   0.846  0.1079 -1.2679 -1.6330
 2150SOL     OW18082   2.265   1.084   8.258  0.3231 -0.7743  0.4768
 2150SOL    HW118083   2.212   1.005   8.270  2.0108 -1.5135  3.0878
 2150SOL    HW218084   2.307   1.055   8.176 -0.2471 -0.4500  0.0748
 2151SOL     OW18085   4.098   2.487   3.241  0.1401  0.0296 -0.0002
 2151SOL    HW118086   4.191   2.483   3.220  0.2790  0.4805  0.5277
 2151SOL    HW218087   4.065   2.509   3.153  1.3332 -0.6257 -0.5986
 2152SOL     OW18088   1.145   1.894   8.523 -0.2962 -0.5091 -0.1457
 2152SOL    HW118089   1.065   1.929   8.483 -0.3482 -0.1146  0.3052
 2152SOL    HW218090   1.110   1.817   8.567  2.8765 -0.8668  1.7474
 2153SOL     OW18091   3.253   1.526   6.690 -0.2727 -0.2538  0.0392
 2153SOL    HW118092   3.236   1.515   6.784  1.6974  2.6341  0.7211
 2153SOL    HW218093   3.184   1.574   6.645  0.7176  1.8940  0.8052
 2154SOL     OW18094   2.071   2.743  16.929  0.3896 -0.3410  0.3706
 2154SOL    HW118095   2.029   2.739  17.015 -1.2676 -0.6797 -0.4435
 2154SOL    HW218096   2.012   2.685  16.879 -2.0757  0.3154  2.5471
 2155SOL     OW18097   4.040   0.942   0.876  0.3656  0.4184 -0.0557
 2155SOL    HW118098   4.042   0.873   0.809  0.9706  0.9064 -0.5417
 2155SOL    HW218099   3.993   0.899   0.947  1.4194  0.1456  0.4660
 2156SOL     OW18100   3.040   2.221   2.243  0.0936  0.2234 -0.2506
 2156SOL    HW118101   3.023   2.162   2.170 -1.3872  0.0300  0.2416
 2156SOL    HW218102   2.953   2.247   2.274 -0.6765 -0.3970 -1.8911
 2157SOL     OW18103   1.701   1.299   4.374 -0.4195 -0.2603 -0.1152
 2157SOL    HW118104   1.634   1.365   4.393 -0.3465  0.0755 -1.0378
 2157SOL    HW218105   1.657   1.247   4.306  0.6354  0.2300 -1.1698
 2158SOL     OW18106   4.243   3.219   5.232  0.2521 -0.1519 -0.3259
 2158SOL    HW118107   4.163   3.267   5.212  1.2274  0.5857 -2.4082
 2158SOL    HW218108   4.282   3.290   5.283  0.7904 -0.4258 -0.3456
 2159SOL     OW18109   0.736   2.739  11.395  0.4763 -0.5949 -0.0896
 2159SOL    HW118110   0.644   2.745  11.421  0.7816  0.7966  0.6874
 2159SOL    HW218111   0.765   2.675  11.460  0.3858 -0.1387  0.3992
 2160SOL     OW18112   0.030   3.303   4.675 -0.1886 -0.3433  0.1889
 2160SOL    HW118113   0.006   3.312   4.767 -0.0282 -0.8500  0.2796
 2160SOL    HW218114   0.115   3.345   4.668  0.6806 -2.0713  0.3420
 2161SOL     OW18115   4.389   1.528   4.001  0.2360 -0.2292 -0.2627
 2161SOL    HW118116   4.439   1.575   4.068 -0.4774  0.7994 -0.4503
 2161SOL    HW218117   4.402   1.441   4.037  0.4103  0.6248  1.7662
 2162SOL     OW18118   2.688   0.908   6.255 -0.2316 -0.4770 -0.3518
 2162SOL    HW118119   2.686   0.924   6.349 -1.5369 -1.5750 -0.1999
 2162SOL    HW218120   2.640   0.983   6.218  1.2844  0.1389 -1.0760
 2163SOL     OW18121   1.098   4.439   6.122 -0.2602 -0.3859 -0.5984
 2163SOL    HW118122   1.142   4.441   6.207 -1.1452  0.3143 -0.1520
 2163SOL    HW218123   1.123   4.353   6.089 -1.9564 -0.9425 -0.4371
 2164SOL     OW18124   2.909   3.384   8.110  0.0436  0.2530  0.5361
 2164SOL    HW118125   2.958   3.343   8.182  1.6914  1.5189  0.1515
 2164SOL    HW218126   2.921   3.478   8.128  0.4480  0.3111 -0.0464
 2165SOL     OW18127   2.633   3.053   3.692  0.4122  0.8646 -0.1697
 2165SOL    HW118128   2.616   3.146   3.680 -2.0883  0.6376  1.4669
 2165SOL    HW218129   2.708   3.056   3.751 -0.5717  0.3099  1.1284
 2166SOL     OW18130   2.932   2.628   4.653  0.6065  0.7916 -0.8276
 2166SOL    HW118131   2.860   2.651   4.593 -0.5421 -2.3276 -0.6725
 2166SOL    HW218132   3.002   2.622   4.588  1.4410  2.2316 -0.0293
 2167SOL     OW18133   3.164   2.903   2.340  0.1990 -0.0585  0.4267
 2167SOL    HW118134   3.202   2.985   2.370  0.2124  0.4006 -0.8500
 2167SOL    HW218135   3.228   2.863   2.282 -0.8704  1.9976 -2.1462
 2168SOL     OW18136   2.649   0.362   4.929 -0.4861  0.8398  0.0361
 2168SOL    HW118137   2.597   0.347   4.850 -0.0207  0.8736 -0.2768
 2168SOL    HW218138   2.720   0.420   4.901  0.1429 -0.3385 -0.8167
 2169SOL     OW18139   4.558   4.407   8.204 -0.5059 -0.1795 -0.3732
 2169SOL    HW118140   4.469   4.400   8.238 -0.1302  0.6427  0.7676
 2169SOL    HW218141   4.605   4.429   8.285 -1.0875  2.8194 -0.8557
 2170SOL     OW18142   0.177   2.549   4.538  0.7708  0.1324 -0.2305
 2170SOL    HW118143   0.270   2.566   4.523  1.2507 -0.3131  2.3468
 2170SOL    HW218144   0.137   2.634   4.520  0.2894  0.2388  1.3454
 2171SOL     OW18145   1.777   3.298  12.935  0.1420  0.1485  0.4780
 2171SOL    HW118146   1.697   3.346  12.911 -0.9979 -1.3341  1.2891
 2171SOL    HW218147   1.818   3.368  12.986  0.0500 -0.3353  1.2146
 2172SOL     OW18148   2.374   0.770   6.960 -0.3990  0.1315  0.4809
 2172SOL    HW118149   2.395   0.825   7.035 -0.3958  1.2060 -0.3107
 2172SOL    HW218150   2.395   0.827   6.886  1.4196 -1.0556  0.0584
 2173SOL     OW18151   3.036   4.300  10.869 -0.5909 -0.7221 -0.1698
 2173SOL    HW118152   2.963   4.238  10.873 -1.6125  0.5815  1.2861
 2173SOL    HW218153   3.101   4.237  10.839  1.1379  0.2752  1.5011
 2174SOL     OW18154   1.568   2.792  10.410 -0.3876 -0.4282  0.2580
 2174SOL    HW118155   1.530   2.712  10.375 -0.8783 -0.7806  1.5772
 2174SOL    HW218156   1.625   2.771  10.484 -2.4779  1.4795  2.3963
 2175SOL     OW18157   2.534   2.679   3.178  0.3731 -0.5788 -0.1905
 2175SOL    HW118158   2.454   2.629   3.164  1.0218 -1.5644 -0.4043
 2175SOL    HW218159   2.594   2.638   3.115  1.3321 -0.0620  0.3811
 2176SOL     OW18160   2.093   3.258   6.537 -0.5481  0.1430  0.4730
 2176SOL    HW118161   2.173   3.236   6.585  0.4275  1.9716 -0.3415
 2176SOL    HW218162   2.024   3.240   6.602 -2.2130  0.6151 -1.1665
 2177SOL     OW18163   1.793   4.094  15.543  0.0650  0.4648  0.0138
 2177SOL    HW118164   1.743   4.097  15.462  0.3769  0.1125 -0.1903
 2177SOL    HW218165   1.857   4.027  15.518 -0.4539 -0.5836  1.4834
 2178SOL     OW18166   0.755   0.551   9.518  0.1342  0.0385 -0.1883
 2178SOL    HW118167   0.778   0.464   9.551  2.7177  1.1220  0.8816
 2178SOL    HW218168   0.827   0.608   9.549  0.8436 -0.9666  0.0080
 2179SOL     OW18169   4.318   3.878   7.141  0.5327  0.0693  0.3130
 2179SOL    HW118170   4.320   3.799   7.196 -1.0714  0.4754  0.9527
 2179SOL    HW218171   4.404   3.883   7.100  0.8008  1.2557  1.0409
 2180SOL     OW18172   0.350   0.527   2.727 -0.2494 -0.0537  0.1369
 2180SOL    HW118173   0.367   0.476   2.806 -2.6120 -0.2096  0.5352
 2180SOL    HW218174   0.426   0.585   2.729  0.4052 -0.9380  0.7152
 2181SOL     OW18175   4.493   4.455  11.624  0.3777 -0.0964  0.5780
 2181SOL    HW118176   4.545   4.379  11.648  0.1463 -0.6071 -0.5456
 2181SOL    HW218177   4.424   4.414  11.571 -1.2013  1.5267  1.3466
 2182SOL     OW18178   4.208   2.720  16.489 -0.0916 -0.1279 -0.2957
 2182SOL    HW118179   4.135   2.774  16.519 -0.1320  0.1742 -0.9551
 2182SOL    HW218180   4.238   2.767  16.412 -2.4043  5.2934  2.0991
 2183SOL     OW18181   3.842   0.027   5.056 -0.2901  0.0914 -0.2114
 2183SOL    HW118182   3.843   0.115   5.019  0.5908  0.5007  0.7636
 2183SOL    HW218183   3.812   0.054   5.143  0.4817  2.7665 -0.7705
 2184SOL     OW18184   4.236   2.849   2.485 -0.0160 -0.0228 -0.0737
 2184SOL    HW118185   4.168   2.818   2.545  1.3145  0.0729  1.4706
 2184SOL    HW218186   4.180   2.848   2.407 -0.4965 -2.9351  0.2943
 2185SOL     OW18187   1.291   2.143   0.301  0.0264  0.1556 -0.3047
 2185SOL    HW118188   1.301   2.107   0.213  2.9963  1.1095 -0.3251
 2185SOL    HW218189   1.292   2.063   0.355 -2.0421  0.2167 -0.1613
 2186SOL     OW18190   3.440   3.415   5.686  0.2330  0.1467  0.1062
 2186SOL    HW118191   3.512   3.464   5.647 -0.0606  0.1177 -0.4671
 2186SOL    HW218192   3.404   3.478   5.750  0.8636  1.6171 -0.9965
 2187SOL     OW18193   4.659   3.792   7.715  0.2346  0.1948  0.6960
 2187SOL    HW118194   4.707   3.713   7.740  1.6649  0.7743 -0.2494
 2187SOL    HW218195   4.572   3.767   7.746 -0.7414  1.3668 -1.0771
 2188SOL     OW18196   4.599   4.695   3.685 -0.1987  0.4099  0.0493
 2188SOL    HW118197   4.517   4.650   3.706 -0.0057 -0.9527 -2.0540
 2188SOL    HW218198   4.664   4.646   3.734  1.6097  0.3577 -2.4021
 2189SOL     OW18199   3.016   4.547  10.657  0.4120  0.2182 -0.0006
 2189SOL    HW118200   3.068   4.472  10.627  2.9067  2.0960 -0.3373
 2189SOL    HW218201   3.039   4.553  10.749  1.3064  0.4268 -0.2345
 2190SOL     OW18202   2.391   3.708   7.799 -0.3848  0.9128  0.1151
 2190SOL    HW118203   2.354   3.693   7.712 -0.6557 -0.1188  0.3990
 2190SOL    HW218204   2.356   3.630   7.843  0.4113  0.3739 -0.2050
 2191SOL     OW18205   4.229   4.432   6.626 -0.1852  0.3672  0.7316
 2191SOL    HW118206   4.183   4.496   6.572  1.5783  1.3331  0.3794
 2191SOL    HW218207   4.195   4.348   6.594 -1.7290  2.2187 -2.3816
 2192SOL     OW18208   3.338   2.749  14.744  0.1455 -0.5127  0.3744
 2192SOL    HW118209   3.362   2.753  14.836 -1.4905  2.9026  0.6480
 2192SOL    HW218210   3.426   2.737  14.709  0.7082  1.7664  1.0134
 2193SOL     OW18211   1.434   0.199   3.317  0.2973 -0.5838 -0.2075
 2193SOL    HW118212   1.410   0.156   3.235  1.1583 -1.8889  0.2245
 2193SOL    HW218213   1.500   0.141   3.356 -0.7635 -0.1653  2.2323
 2194SOL     OW18214   1.500   0.225   9.712  0.0199  0.5463 -0.2243
 2194SOL    HW118215   1.484   0.152   9.653  0.8278 -0.0636  0.3077
 2194SOL    HW218216   1.446   0.199   9.786  0.6618  0.5077  0.2372
 2195SOL     OW18217   4.266   1.990   7.077 -0.2273  0.4669  0.0115
 2195SOL    HW118218   4.303   1.927   7.015 -1.6429 -0.3744  0.0138
 2195SOL    HW218219   4.340   1.999   7.137  0.5282  0.2461 -0.8923
 2196SOL     OW18220   3.392   2.225   1.640 -0.0727  0.1279  0.8970
 2196SOL    HW118221   3.455   2.297   1.640  1.1170 -0.8980 -3.0203
 2196SOL    HW218222   3.434   2.151   1.596 -0.0888  0.5102  0.2342
 2197SOL     OW18223   0.281   0.072   7.670 -0.8233  0.0744  0.2706
 2197SOL    HW118224   0.204   0.053   7.724 -2.2278  0.3922 -1.6338
 2197SOL    HW218225   0.243   0.126   7.601  0.5709  1.0856  0.3057
 2198SOL     OW18226   4.399   0.747   8.135 -0.4421  0.0195 -0.1664
 2198SOL    HW118227   4.340   0.737   8.210 -0.2337 -1.7686 -0.2533
 2198SOL    HW218228   4.422   0.840   8.148 -0.4021 -0.1676  1.1321
 2199SOL     OW18229   0.433   2.357   7.414  0.0482  0.1630 -0.1268
 2199SOL    HW118230   0.415   2.382   7.505  1.2951  3.7068 -0.8547
 2199SOL    HW218231   0.368   2.414   7.373 -0.0891  0.2390  0.1957
 2200SOL     OW18232   3.529   3.226   1.908  0.1414  0.2279  0.3335
 2200SOL    HW118233   3.586   3.276   1.849  0.9213 -0.7108  0.2823
 2200SOL    HW218234   3.443   3.261   1.886 -0.4394 -1.2720  0.1787
 2201SOL     OW18235   1.703   0.420  10.620  0.3782  0.6662  0.0197
 2201SOL    HW118236   1.668   0.497  10.575 -0.6212  1.3778  2.0160
 2201SOL    HW218237   1.735   0.372  10.544  0.1857 -0.2430  0.5154
 2202SOL     OW18238   1.747   3.691   6.016  0.4722  0.1459  0.2077
 2202SOL    HW118239   1.735   3.725   6.104  0.7903  1.9548 -0.4393
 2202SOL    HW218240   1.680   3.622   6.014  0.2502  0.3580  0.5047
 2203SOL     OW18241   1.954   4.685   5.151  0.3399 -0.1344 -0.1796
 2203SOL    HW118242   2.023   0.011   5.134  2.2157 -1.9450  0.7707
 2203SOL    HW218243   1.995   4.619   5.208  1.3667  1.0339  0.4107
 2204SOL     OW18244   2.170   4.320   4.840 -0.0362 -0.2628  0.1077
 2204SOL    HW118245   2.122   4.337   4.759 -2.0089 -0.9847  1.1346
 2204SOL    HW218246   2.251   4.290   4.798  1.7593  3.0217  1.2972
 2205SOL     OW18247   2.248   4.580   5.739 -0.3080  0.4835 -0.2037
 2205SOL    HW118248   2.228   4.504   5.794  0.2628  2.2071  2.4004
 2205SOL    HW218249   2.278   4.538   5.658 -3.7173  2.1841 -2.3588
 2206SOL     OW18250   0.651   2.342  16.564 -0.2254  0.7575 -0.5183
 2206SOL    HW118251   0.697   2.321  16.645 -2.8159  0.2327  0.8158
 2206SOL    HW218252   0.729   2.338  16.509  0.3265 -0.5278  0.3661
 2207SOL     OW18253   4.380   0.496   6.539  0.1876  0.0464  0.2873
 2207SOL    HW118254   4.294   0.536   6.533 -1.1158 -2.7707  0.4322
 2207SOL    HW218255   4.418   0.524   6.455 -3.8061  2.3670 -0.7027
 2208SOL     OW18256   1.247   0.400   6.219 -0.3386 -0.3620  0.5754
 2208SOL    HW118257   1.272   0.481   6.263  0.5856  0.0329 -0.6730
 2208SOL    HW218258   1.200   0.436   6.144  0.0331  0.7137  0.8596
 2209SOL     OW18259   0.562   1.704   1.595  0.2788 -0.0900  0.4825
 2209SOL    HW118260   0.512   1.672   1.520  1.5609 -2.4404  0.6299
 2209SOL    HW218261   0.504   1.672   1.665  0.8443  1.3300  1.6095
 2210SOL     OW18262   4.033   1.701   0.284  0.0603 -0.2096  0.1627
 2210SOL    HW118263   4.122   1.717   0.255 -0.6625 -1.2715 -2.6661
 2210SOL    HW218264   3.985   1.733   0.208 -0.0309 -0.4480  0.1175
 2211SOL     OW18265   4.558   0.912   9.643  0.5740  0.1776 -0.0115
 2211SOL    HW118266   4.514   0.906   9.727 -0.4538  0.7763 -0.5048
 2211SOL    HW218267   4.492   0.869   9.588 -2.0923  2.5547  1.3077
 2212SOL     OW18268   1.148   1.370   4.283 -0.2722  0.5725  0.3998
 2212SOL    HW118269   1.063   1.329   4.268  0.2773  0.4218 -2.2640
 2212SOL    HW218270   1.125   1.458   4.254  0.7762  0.9241  0.6407
 2213SOL     OW18271   2.250   3.392   4.228 -0.2430 -0.0391  0.5932
 2213SOL    HW118272   2.237   3.389   4.323 -0.0134 -1.2886  0.5799
 2213SOL    HW218273   2.214   3.308   4.200  1.2325  0.2542 -2.1409
 2214SOL     OW18274   3.383   0.912   8.979 -0.1880  0.5115 -0.2679
 2214SOL    HW118275   3.331   0.863   9.043 -0.7219  0.5480 -0.6701
 2214SOL    HW218276   3.306   0.934   8.927 -2.5031  0.5333  3.1419
 2215SOL     OW18277   0.329   4.541   3.975 -0.6806  0.3969  0.3103
 2215SOL    HW118278   0.242   4.541   3.934  0.0267 -3.1211 -1.1857
 2215SOL    HW218279   0.360   4.618   3.928  0.1319  0.3155  0.7244
 2216SOL     OW18280   1.967   2.856   4.460  1.1221  0.2261 -0.5344
 2216SOL    HW118281   1.929   2.895   4.538  0.3335  0.4026 -1.0099
 2216SOL    HW218282   1.901   2.882   4.396 -0.6648 -0.4535  1.0564
 2217SOL     OW18283   2.998   0.991   6.262 -0.5971 -0.2104  0.6808
 2217SOL    HW118284   2.972   0.959   6.176  0.0728 -0.7477  0.6824
 2217SOL    HW218285   2.964   0.917   6.312 -0.9461  0.2634  1.1498
 2218SOL     OW18286   2.259   1.156  13.837  0.0974 -0.0076  0.0656
 2218SOL    HW118287   2.276   1.210  13.760  0.2177 -1.5549 -1.0087
 2218SOL    HW218288   2.310   1.079  13.812  0.8720  1.2968 -2.3256
 2219SOL     OW18289   3.343   1.878   6.854 -0.0478  0.2521  0.0077
 2219SOL    HW118290   3.382   1.951   6.902  0.3785  0.8287 -1.2073
 2219SOL    HW218291   3.372   1.804   6.908  0.8563  0.8557  0.3527
 2220SOL     OW18292   3.734   3.375   3.986 -0.0773 -0.6531  0.1424
 2220SOL    HW118293   3.805   3.328   4.030 -0.1938 -1.6418 -0.7203
 2220SOL    HW218294   3.764   3.463   4.008  1.5152 -1.2924  0.5273
 2221SOL     OW18295   1.352   4.663   3.941  0.8160  0.2646  0.1274
 2221SOL    HW118296   1.433   4.677   3.989  1.9547  1.5344 -2.1752
 2221SOL    HW218297   1.303   4.608   4.002 -1.0322 -0.0491 -1.6304
 2222SOL     OW18298   0.399   3.493   7.784 -0.2446  0.1212 -0.6360
 2222SOL    HW118299   0.374   3.473   7.875 -0.4624 -1.4151 -1.0312
 2222SOL    HW218300   0.380   3.410   7.740 -1.3503 -0.1030  0.2450
 2223SOL     OW18301   3.821   3.168   2.138  0.8011  0.5361  0.3893
 2223SOL    HW118302   3.770   3.193   2.214 -2.3116 -1.0725 -1.1409
 2223SOL    HW218303   3.814   3.248   2.086 -0.6517 -1.1595 -2.0707
 2224SOL     OW18304   2.852   2.113  11.712 -0.5408 -0.3535 -0.1276
 2224SOL    HW118305   2.880   2.024  11.732 -2.2965 -0.6784  0.9094
 2224SOL    HW218306   2.905   2.171  11.767 -1.9718  0.7843  0.0753
 2225SOL     OW18307   1.528   0.839   7.305 -0.1456 -0.3240 -0.2915
 2225SOL    HW118308   1.462   0.777   7.273  0.1524  0.2778 -2.0637
 2225SOL    HW218309   1.466   0.906   7.335  1.4095  0.0539  2.0512
 2226SOL     OW18310   1.538   2.187   5.159 -0.5222 -0.1379 -0.0349
 2226SOL    HW118311   1.604   2.227   5.102  1.1368 -1.9616  0.6626
 2226SOL    HW218312   1.518   2.260   5.218  0.7112 -0.3864  0.6909
 2227SOL     OW18313   0.241   2.612   3.373 -0.1200 -0.1711 -0.0990
 2227SOL    HW118314   0.296   2.658   3.435 -0.1416 -0.5237  0.1801
 2227SOL    HW218315   0.299   2.575   3.306  1.9850 -0.5045  1.9327
 2228SOL     OW18316   2.816   2.456   3.778 -0.1886 -0.1943  0.8227
 2228SOL    HW118317   2.811   2.546   3.810  1.2209 -0.0163  0.5349
 2228SOL    HW218318   2.734   2.412   3.803 -0.0644  0.1251  1.7678
 2229SOL     OW18319   4.588   1.149   6.995 -0.2362 -0.0723  0.0184
 2229SOL    HW118320   4.500   1.113   7.009 -0.0565 -0.8729 -0.8883
 2229SOL    HW218321   4.621   1.098   6.921 -1.3627 -1.0025  0.1490
 2230SOL     OW18322   0.884   1.260  14.741  0.8650  0.4519 -0.1075
 2230SOL    HW118323   0.948   1.292  14.678  0.7106 -0.3806 -0.6878
 2230SOL    HW218324   0.801   1.265  14.693 -0.7115 -1.4783  2.3899
 2231SOL     OW18325   3.626   0.386   6.031  0.1370  0.2974  0.1339
 2231SOL    HW118326   3.718   0.405   6.013  0.4990  0.2649  1.9572
 2231SOL    HW218327   3.642   0.309   6.086 -0.1384  1.2001  1.4997
 2232SOL     OW18328   3.695   1.327   5.447 -0.0185  0.1075 -0.0030
 2232SOL    HW118329   3.645   1.249   5.471 -3.0405  1.4697 -1.7700
 2232SOL    HW218330   3.624   1.387   5.424  0.6864  0.8048 -0.3576
 2233SOL     OW18331   4.073   0.488   6.595  0.8548 -0.0752 -0.3824
 2233SOL    HW118332   4.049   0.428   6.666 -2.7176 -1.0109 -2.3341
 2233SOL    HW218333   4.033   0.437   6.524 -0.3892 -1.6528  1.4451
 2234SOL     OW18334   0.370   2.195   3.625  0.5916  0.3185  0.0271
 2234SOL    HW118335   0.358   2.130   3.556 -0.6403 -0.1559  0.6913
 2234SOL    HW218336   0.293   2.180   3.680  0.1574 -0.4173 -0.7749
 2235SOL     OW18337   4.254   2.037   7.368 -0.7401 -0.0777  0.7617
 2235SOL    HW118338   4.341   1.998   7.371 -1.4499 -1.6468  0.7021
 2235SOL    HW218339   4.237   2.055   7.276  0.8463  2.5842  0.9919
 2236SOL     OW18340   4.684   1.285  15.270 -0.0209 -0.0827 -0.2482
 2236SOL    HW118341   0.015   1.331  15.320  0.2407 -0.3250 -0.3782
 2236SOL    HW218342   4.734   1.257  15.193 -0.0335 -1.4389  0.2308
 2237SOL     OW18343   3.865   4.596   7.369  0.4523  0.1295 -0.0087
 2237SOL    HW118344   3.859   4.561   7.280  0.0976 -0.2720  0.1730
 2237SOL    HW218345   3.925   4.528   7.401 -0.3250 -0.0846  0.9760
 2238SOL     OW18346   1.372   1.723  12.603 -0.1988  0.0427  0.0461
 2238SOL    HW118347   1.413   1.643  12.571 -1.8052  0.2384 -2.5868
 2238SOL    HW218348   1.407   1.781  12.535  0.4837  1.7976  1.8961
 2239SOL     OW18349   4.577   2.289   5.113  0.1332  0.1539 -0.2344
 2239SOL    HW118350   4.534   2.299   5.028 -0.2751 -0.6324 -0.1264
 2239SOL    HW218351   4.506   2.280   5.176 -0.8061 -1.8686 -1.5553
 2240SOL     OW18352   3.014   4.050   0.485  0.0862  0.1326 -0.9771
 2240SOL    HW118353   2.976   3.968   0.454 -0.8154 -0.7086  2.3268
 2240SOL    HW218354   2.946   4.118   0.479 -0.2123 -0.3674 -2.9560
 2241SOL     OW18355   4.602   0.014   1.760 -0.2951  0.2040 -0.3825
 2241SOL    HW118356   4.671   0.075   1.735  0.7517 -0.8865 -0.1583
 2241SOL    HW218357   4.641   4.678   1.809  1.3482  0.1225 -1.8392
 2242SOL     OW18358   1.121   0.702   7.946  0.1913 -0.0616  0.1858
 2242SOL    HW118359   1.030   0.673   7.932  0.2038 -0.5986  1.1881
 2242SOL    HW218360   1.174   0.638   7.900  2.3529  3.0069 -1.5657
 2243SOL     OW18361   0.649   3.690  14.911 -0.2689  0.4880 -0.0159
 2243SOL    HW118362   0.710   3.757  14.942 -0.3712  1.2620 -1.5124
 2243SOL    HW218363   0.584   3.750  14.875 -1.3914 -1.0393 -0.5679
 2244SOL     OW18364   2.694   0.316  15.849 -0.0956 -0.6927  0.3323
 2244SOL    HW118365   2.779   0.319  15.894  0.3584  1.4699 -0.7009
 2244SOL    HW218366   2.643   0.285  15.924 -0.8238  0.9693  0.5303
 2245SOL     OW18367   2.005   4.233   5.732 -0.0799  0.2208 -0.1476
 2245SOL    HW118368   1.920   4.213   5.693 -1.3813  1.1371  2.2605
 2245SOL    HW218369   1.977   4.317   5.767 -1.9555 -1.0026  1.2773
 2246SOL     OW18370   3.330   3.678   5.680  0.6267 -0.2709  0.6190
 2246SOL    HW118371   3.249   3.729   5.681  0.4134 -0.5228 -2.0414
 2246SOL    HW218372   3.314   3.634   5.596 -0.7203 -0.6029  1.0417
 2247SOL     OW18373   3.686   3.410  12.717  0.4436  0.2189  0.4698
 2247SOL    HW118374   3.705   3.486  12.772  1.4027  0.1696  0.2101
 2247SOL    HW218375   3.728   3.332  12.755  0.2376 -0.0575  0.1284
 2248SOL     OW18376   2.137   2.014   8.084  0.1790 -0.5584  0.8092
 2248SOL    HW118377   2.066   1.961   8.120 -1.0117  0.1373 -0.5249
 2248SOL    HW218378   2.106   2.056   8.004  3.7766 -0.1335 -0.3395
 2249SOL     OW18379   1.680   4.555   6.635  0.5011  0.5821  0.3662
 2249SOL    HW118380   1.759   4.503   6.644  0.2742 -0.0737 -1.3506
 2249SOL    HW218381   1.675   4.587   6.725 -1.6090  0.2152  0.3776
 2250SOL     OW18382   2.173   0.377  13.135 -0.2668 -0.3595  0.0676
 2250SOL    HW118383   2.099   0.436  13.118  0.4631  0.5472  0.0129
 2250SOL    HW218384   2.197   0.400  13.224 -0.8444  0.9302 -0.1078
 2251SOL     OW18385   0.185   4.382   9.033  0.2721 -0.2209  0.8017
 2251SOL    HW118386   0.100   4.369   9.074 -1.0865  2.2352 -1.2518
 2251SOL    HW218387   0.164   4.451   8.970  0.2990  0.4249  1.5049
 2252SOL     OW18388   2.643   4.334   5.782 -0.0606 -0.1847  0.1718
 2252SOL    HW118389   2.600   4.419   5.769 -0.1719 -0.1610  0.6697
 2252SOL    HW218390   2.711   4.355   5.846  1.4427  0.2449 -1.5630
 2253SOL     OW18391   4.244   2.440   6.676  0.7467 -0.6147  0.0967
 2253SOL    HW118392   4.155   2.472   6.691  1.0292 -0.2621  1.0489
 2253SOL    HW218393   4.224   2.350   6.700  1.2569 -1.0588 -1.1399
 2254SOL     OW18394   1.722   1.354  16.578 -0.2665  0.1587 -0.7626
 2254SOL    HW118395   1.698   1.431  16.527  0.4935  0.6753 -0.3368
 2254SOL    HW218396   1.727   1.290  16.506  0.4397 -2.2239  1.4076
 2255SOL     OW18397   4.642   0.250  10.846  0.3053  0.3816  0.2369
 2255SOL    HW118398   4.683   0.332  10.876  1.6110  0.0286 -0.5913
 2255SOL    HW218399   4.551   0.256  10.874  0.4157  0.1764  0.6339
 2256SOL     OW18400   3.848   0.160   9.220 -0.1613  0.2528  0.3291
 2256SOL    HW118401   3.839   0.237   9.163 -2.4289 -0.8103 -0.7250
 2256SOL    HW218402   3.764   0.162   9.267 -0.8432  0.9076 -0.9066
 2257SOL     OW18403   1.910   3.010  16.232  0.6672  0.3152  0.2836
 2257SOL    HW118404   1.896   3.027  16.139  1.5180 -1.3120 -0.1512
 2257SOL    HW218405   1.832   2.958  16.256  1.6178 -0.8226  0.9172
 2258SOL     OW18406   4.276   2.276   2.716 -0.1600 -0.0179  0.3894
 2258SOL    HW118407   4.244   2.266   2.627 -0.2633  1.4349  0.2690
 2258SOL    HW218408   4.350   2.336   2.711 -0.5477  0.4274  0.0479
 2259SOL     OW18409   4.625   0.071   2.670  0.0076  0.0908 -0.1039
 2259SOL    HW118410   4.626   0.150   2.615  4.1377  0.9919  1.2895
 2259SOL    HW218411   4.717   0.043   2.671 -0.1564 -0.3740  1.2356
 2260SOL     OW18412   0.318   3.680   2.653 -0.1077  0.2622 -0.1163
 2260SOL    HW118413   0.320   3.620   2.578 -0.6626  0.6498 -0.4383
 2260SOL    HW218414   0.281   3.762   2.622  2.9372  2.3922  1.8920
 2261SOL     OW18415   1.090   2.267   1.144 -0.1755  0.1044  0.2172
 2261SOL    HW118416   1.057   2.356   1.125 -0.2312 -0.2147 -1.1833
 2261SOL    HW218417   1.049   2.212   1.076  2.9111 -0.0638 -1.4918
 2262SOL     OW18418   1.938   3.363   4.798  0.4438 -0.2878 -0.4414
 2262SOL    HW118419   1.879   3.288   4.806 -1.4889  1.6077  3.0752
 2262SOL    HW218420   1.914   3.415   4.874  0.4179  1.1722 -1.4453
 2263SOL     OW18421   0.788   4.537  17.060 -0.2341 -0.4405  0.4540
 2263SOL    HW118422   0.728   4.611  17.054  1.4989  1.1834  2.9985
 2263SOL    HW218423   0.788   4.515  17.154  0.3055 -0.3444  0.4780
 2264SOL     OW18424   2.695   0.264  14.685  0.7294  0.0715 -0.2474
 2264SOL    HW118425   2.786   0.292  14.681  0.6586  0.3490  0.0236
 2264SOL    HW218426   2.664   0.339  14.736 -1.3602 -1.6241  0.9652
 2265SOL     OW18427   2.920   4.337   2.410 -0.4821 -0.6225 -0.1722
 2265SOL    HW118428   2.840   4.296   2.442 -0.1557 -0.9269  0.2581
 2265SOL    HW218429   2.898   4.371   2.324 -1.4978 -2.6364 -0.7159
 2266SOL     OW18430   0.275   2.086   6.934  0.5331  0.2773 -0.5397
 2266SOL    HW118431   0.260   2.058   6.844 -0.9671  0.7307 -0.4373
 2266SOL    HW218432   0.293   2.180   6.928 -0.9459  0.6471  0.7615
 2267SOL     OW18433   2.120   4.623  17.146  0.5705 -0.5107 -0.3835
 2267SOL    HW118434   2.187   4.573  17.194  1.9743  2.5168  0.7810
 2267SOL    HW218435   2.052   4.556  17.133 -2.4798  2.2083  1.4460
 2268SOL     OW18436   4.677   0.948  13.878 -0.3043  0.2576 -0.6562
 2268SOL    HW118437   4.667   0.864  13.922  3.9754 -0.5364 -1.2428
 2268SOL    HW218438   4.595   0.994  13.897 -0.2867  0.1515 -0.3173
 2269SOL     OW18439   1.857   1.812   6.789  0.4602 -0.0078  0.0059
 2269SOL    HW118440   1.860   1.721   6.761 -3.3351 -0.9301  2.6589
 2269SOL    HW218441   1.770   1.802   6.827  0.2367  0.0213 -0.4931
 2270SOL     OW18442   1.346   1.899  14.159  0.0365  0.9558 -0.7215
 2270SOL    HW118443   1.323   1.870  14.071  1.2443 -0.0403 -0.6974
 2270SOL    HW218444   1.279   1.963  14.186 -0.4698 -0.3270  1.0615
 2271SOL     OW18445   0.380   2.232   8.988  0.0932 -0.6533  0.0034
 2271SOL    HW118446   0.435   2.244   8.911  0.0943 -0.4232  0.0401
 2271SOL    HW218447   0.361   2.138   8.988 -2.9907 -0.0535  0.3484
 2272SOL     OW18448   1.132   3.095  17.527  0.2490 -0.6909  0.4655
 2272SOL    HW118449   1.208   3.039  17.543  0.6058 -0.1529  0.6653
 2272SOL    HW218450   1.079   3.070  17.602  1.0670 -1.0140  0.9371
 2273SOL     OW18451   0.943   1.326   3.741  0.1362 -0.0085 -0.1730
 2273SOL    HW118452   1.017   1.386   3.752  0.3452 -0.3490  0.2772
 2273SOL    HW218453   0.954   1.259   3.808  1.2066  0.7126  0.3726
 2274SOL     OW18454   4.425   3.656   6.866 -0.0312  0.1475 -0.0664
 2274SOL    HW118455   4.402   3.567   6.840 -1.1605  0.0484  1.2907
 2274SOL    HW218456   4.510   3.644   6.909 -0.6336 -0.8035  0.8511
 2275SOL     OW18457   0.886   3.527   1.141  0.3945  0.0752  0.2887
 2275SOL    HW118458   0.869   3.466   1.213  2.6435  0.4484  1.1358
 2275SOL    HW218459   0.906   3.468   1.068 -0.9860  1.5638 -1.2860
 2276SOL     OW18460   4.039   2.134   2.294  0.3945 -0.0293  0.1488
 2276SOL    HW118461   4.080   2.067   2.239  0.2310 -0.3226  0.3852
 2276SOL    HW218462   3.974   2.078   2.336 -1.8243  1.8081 -0.9151
 2277SOL     OW18463   0.007   3.404  14.467 -0.0928  0.1770  0.2702
 2277SOL    HW118464   4.661   3.358  14.454  0.4162 -0.3292 -1.1403
 2277SOL    HW218465   0.016   3.424  14.374 -0.3926 -2.6178 -0.3480
 2278SOL     OW18466   4.391   4.477  13.708 -0.0590  0.4094 -0.0062
 2278SOL    HW118467   4.384   4.535  13.632 -0.8041  0.7444  0.3282
 2278SOL    HW218468   4.302   4.443  13.710  0.7866 -1.8928 -0.8385
 2279SOL     OW18469   3.673   3.451   6.809  0.1221 -0.2795 -0.0243
 2279SOL    HW118470   3.646   3.477   6.721  0.1925 -0.1717 -0.0130
 2279SOL    HW218471   3.697   3.364   6.777  1.3138 -0.9797  2.7829
 2280SOL     OW18472   3.567   2.132   4.315  0.4429 -0.0430  0.0256
 2280SOL    HW118473   3.514   2.211   4.310 -0.6006 -0.7589 -0.3160
 2280SOL    HW218474   3.600   2.137   4.226 -0.3648 -1.3002 -0.3528
 2281SOL     OW18475   0.916   0.657   1.708  0.2168 -0.1418 -0.3914
 2281SOL    HW118476   0.935   0.639   1.800  0.6456 -1.9211 -0.8337
 2281SOL    HW218477   0.998   0.618   1.677  0.2109  0.9470 -1.7594
 2282SOL     OW18478   3.507   2.530   5.534 -1.0169 -0.1316 -0.5713
 2282SOL    HW118479   3.474   2.620   5.526 -2.9693 -0.5937  2.3363
 2282SOL    HW218480   3.448   2.489   5.597 -0.5447  1.5268  0.9588
 2283SOL     OW18481   3.616   2.454   5.054  0.0603  0.0090  0.1237
 2283SOL    HW118482   3.664   2.480   5.133 -0.6511 -2.1815  1.2908
 2283SOL    HW218483   3.530   2.434   5.090 -1.2096  2.0146 -1.8398
 2284SOL     OW18484   1.348   1.126   5.950  0.2558 -0.0849 -0.4496
 2284SOL    HW118485   1.351   1.216   5.918 -0.6111  0.2234  0.3342
 2284SOL    HW218486   1.286   1.079   5.895 -0.6851  0.5524  0.0521
 2285SOL     OW18487   4.591   3.622  11.340  0.3788 -0.0294 -0.0940
 2285SOL    HW118488   4.545   3.681  11.400  1.5417 -0.0718  0.8251
 2285SOL    HW218489   4.649   3.690  11.306 -1.0396  1.2117 -0.0690
 2286SOL     OW18490   1.885   3.507   5.041 -0.1883  0.0762 -0.5577
 2286SOL    HW118491   1.873   3.593   5.079  1.1824 -0.3886  0.8845
 2286SOL    HW218492   1.793   3.479   5.038 -0.7265  1.8238 -0.0430
 2287SOL     OW18493   1.068   1.242  11.167 -0.5268 -0.1510  0.1902
 2287SOL    HW118494   1.108   1.327  11.183  2.3850 -1.5612  0.5043
 2287SOL    HW218495   1.042   1.232  11.076  1.3114 -0.5339 -0.2853
 2288SOL     OW18496   1.109   0.766   5.097 -0.5903 -0.8416  0.7082
 2288SOL    HW118497   1.189   0.813   5.075 -1.0228  0.0763  1.0807
 2288SOL    HW218498   1.050   0.841   5.088 -1.2795 -1.7629 -2.3960
 2289SOL     OW18499   2.979   2.135  13.683  0.3250  0.0394 -0.1893
 2289SOL    HW118500   3.013   2.206  13.738  0.1699  1.7423 -2.2868
 2289SOL    HW218501   2.919   2.178  13.623  0.1289  0.0279 -0.0055
 2290SOL     OW18502   3.036   1.166   6.799  0.5102  0.5929  0.0958
 2290SOL    HW118503   3.010   1.142   6.888 -0.4788  1.2902 -0.0120
 2290SOL    HW218504   3.065   1.256   6.809  0.1388  0.8421 -1.0248
 2291SOL     OW18505   4.160   1.995  11.595  0.5414 -0.2386 -0.2683
 2291SOL    HW118506   4.217   2.065  11.564 -2.6107  2.5906  0.3528
 2291SOL    HW218507   4.207   1.918  11.564 -1.2643 -2.1781  1.7471
 2292SOL     OW18508   2.439   1.140  11.562  0.1452  0.2583 -0.4347
 2292SOL    HW118509   2.427   1.080  11.488  0.1967 -0.9475  0.5408
 2292SOL    HW218510   2.494   1.084  11.617 -1.3434 -1.1200 -0.3367
 2293SOL     OW18511   1.731   3.126   7.327 -0.2077 -0.0563 -0.0392
 2293SOL    HW118512   1.641   3.110   7.299  0.6644  0.6280 -3.2698
 2293SOL    HW218513   1.766   3.038   7.340 -2.5390 -1.0165 -0.2885
 2294SOL     OW18514   0.240   2.404   5.145  0.3137  0.2760  0.1909
 2294SOL    HW118515   0.336   2.401   5.142  0.1590 -1.5099 -2.8074
 2294SOL    HW218516   0.227   2.317   5.107 -0.3874  0.9781 -1.1859
 2295SOL     OW18517   4.514   2.815  10.574  0.5982 -0.0518  0.0331
 2295SOL    HW118518   4.502   2.720  10.575 -0.8722  0.1352 -0.6209
 2295SOL    HW218519   4.576   2.832  10.645  0.2134 -0.6168  0.5100
 2296SOL     OW18520   3.691   3.300   0.048  0.2948  0.2551 -0.6158
 2296SOL    HW118521   3.615   3.244   0.037  0.9566 -0.9599  0.9580
 2296SOL    HW218522   3.755   3.237   0.014 -0.3406 -0.5456 -0.3078
 2297SOL     OW18523   3.782   3.336   6.237  0.2281  0.1608 -0.0944
 2297SOL    HW118524   3.848   3.379   6.291 -1.5376  2.0023  0.6172
 2297SOL    HW218525   3.830   3.262   6.201 -1.1115 -0.0159 -1.4924
 2298SOL     OW18526   2.891   4.031   1.683 -0.3920 -0.7160  0.1403
 2298SOL    HW118527   2.866   4.091   1.752 -1.0288  1.3892 -1.9300
 2298SOL    HW218528   2.823   4.049   1.618 -0.2642 -2.4885 -0.4927
 2299SOL     OW18529   0.373   1.992   5.234 -0.5379  0.2309 -0.0633
 2299SOL    HW118530   0.378   1.899   5.254  0.6184  0.5476  1.1319
 2299SOL    HW218531   0.371   2.025   5.324 -1.2734 -2.8024  1.0171
 2300SOL     OW18532   3.979   4.165   7.163  0.1108 -0.1246  0.6394
 2300SOL    HW118533   4.064   4.165   7.119  0.6520  1.1635  1.6755
 2300SOL    HW218534   4.000   4.098   7.228  0.0844 -0.4013  0.3641
 2301SOL     OW18535   2.946   3.759  10.789  0.0283 -0.4824  0.2426
 2301SOL    HW118536   2.984   3.771  10.876 -1.4317 -0.3202  0.8582
 2301SOL    HW218537   2.871   3.818  10.790  0.7653  0.4544  0.4551
 2302SOL     OW18538   2.600   3.849  14.810 -0.3298  0.1300 -0.0581
 2302SOL    HW118539   2.675   3.849  14.751 -0.4762 -1.1895 -0.2313
 2302SOL    HW218540   2.553   3.923  14.772  1.1365  0.6332 -0.9165
 2303SOL     OW18541   1.600   3.900  13.102  0.5240  0.2512 -0.1058
 2303SOL    HW118542   1.682   3.889  13.055 -0.4865  1.2004 -2.0922
 2303SOL    HW218543   1.555   3.817  13.084  0.2383  0.5406 -0.7480
 2304SOL     OW18544   3.825   3.672   2.328  0.1820  0.7148  0.0971
 2304SOL    HW118545   3.749   3.691   2.383  0.0364  0.2614  0.0589
 2304SOL    HW218546   3.806   3.581   2.303  1.0845  0.7115 -0.5706
 2305SOL     OW18547   0.781   1.967   3.913  0.0315  0.1792  0.2312
 2305SOL    HW118548   0.774   1.955   4.008  1.3506 -1.0457  0.1575
 2305SOL    HW218549   0.703   2.020   3.895  0.0559  0.8578  2.0391
 2306SOL     OW18550   1.902   4.136   3.178 -0.3520 -0.1068 -0.1562
 2306SOL    HW118551   1.914   4.044   3.158  0.5355 -0.3270  1.3937
 2306SOL    HW218552   1.810   4.126   3.203  0.1795 -0.0434  1.7824
 2307SOL     OW18553   2.330   1.525  11.714  0.1878 -0.4530 -0.0770
 2307SOL    HW118554   2.369   1.502  11.630 -0.9974 -0.3216 -0.6572
 2307SOL    HW218555   2.283   1.607  11.701  0.5571 -0.1937  0.2067
 2308SOL     OW18556   1.523   2.060   1.010  0.0177  0.5814  0.3613
 2308SOL    HW118557   1.467   2.105   0.947  1.3992  1.2925 -0.3684
 2308SOL    HW218558   1.468   2.074   1.087 -0.2037  2.0639 -0.0703
 2309SOL     OW18559   0.277   4.051   7.485  0.3372  0.4238  0.0680
 2309SOL    HW118560   0.196   4.100   7.485  0.5036  0.7073  1.5820
 2309SOL    HW218561   0.341   4.111   7.523 -2.1238  2.3371  1.1476
 2310SOL     OW18562   4.099   0.034   4.155 -0.2980  0.0045 -0.1649
 2310SOL    HW118563   4.024   0.091   4.176  0.4488 -0.3514  3.5861
 2310SOL    HW218564   4.094   0.041   4.060 -0.1117  2.5355  0.0102
 2311SOL     OW18565   1.960   3.502   8.724  0.1243  0.6528  0.6633
 2311SOL    HW118566   1.882   3.452   8.699  1.2451 -0.8399  0.1322
 2311SOL    HW218567   1.990   3.536   8.639 -0.0997  1.6318  0.9714
 2312SOL     OW18568   1.778   0.384   1.114  0.1458  0.0894 -0.8544
 2312SOL    HW118569   1.860   0.407   1.159 -0.0606 -1.5837  0.3776
 2312SOL    HW218570   1.764   0.292   1.139  1.5690  0.1463  0.1419
 2313SOL     OW18571   3.466   3.664   8.779 -0.3520 -0.2833  0.0301
 2313SOL    HW118572   3.493   3.632   8.693  1.8814 -1.5811  1.2275
 2313SOL    HW218573   3.457   3.759   8.773 -0.0839 -0.5294 -4.8511
 2314SOL     OW18574   2.139   4.284   7.871 -0.6513 -0.6063  0.1283
 2314SOL    HW118575   2.089   4.365   7.859 -1.8298 -1.1606  1.3815
 2314SOL    HW218576   2.231   4.312   7.873 -1.6589  2.9221 -2.2509
 2315SOL     OW18577   2.316   3.708  13.323 -0.1171  0.0595 -0.3554
 2315SOL    HW118578   2.365   3.626  13.314  0.7666  0.5830 -0.3529
 2315SOL    HW218579   2.366   3.755  13.390  1.2553 -0.6747 -0.8566
 2316SOL     OW18580   2.212   1.475   3.005  0.4989 -0.0350 -0.0474
 2316SOL    HW118581   2.280   1.422   3.048 -0.3432 -2.9120 -2.2680
 2316SOL    HW218582   2.265   1.526   2.944  0.2401  1.2931  0.8543
 2317SOL     OW18583   3.478   0.727   4.674  0.1853  0.4524  0.3886
 2317SOL    HW118584   3.564   0.746   4.713  0.6574  0.9043 -0.8761
 2317SOL    HW218585   3.420   0.717   4.749  0.1706  2.8959  0.7104
 2318SOL     OW18586   4.445   3.694   8.654 -0.6329  0.4622 -0.1812
 2318SOL    HW118587   4.366   3.639   8.652 -0.8764  0.8395 -0.9816
 2318SOL    HW218588   4.487   3.677   8.739 -0.4718 -0.9983 -0.5638
 2319SOL     OW18589   0.544   1.846  14.233 -0.5948  0.1532  0.2028
 2319SOL    HW118590   0.523   1.934  14.202  0.3520  1.0159  2.0779
 2319SOL    HW218591   0.500   1.844  14.318  0.9623 -0.0506  0.9932
 2320SOL     OW18592   3.644   2.049   7.793  0.1652 -0.5293 -0.1478
 2320SOL    HW118593   3.622   1.956   7.804 -1.9751 -0.0093  0.0754
 2320SOL    HW218594   3.559   2.086   7.769 -1.2015 -1.8821  2.6638
 2321SOL     OW18595   1.929   4.538   5.602 -0.3627 -0.1223  0.5772
 2321SOL    HW118596   2.022   4.560   5.603 -0.5783  0.7753  0.5394
 2321SOL    HW218597   1.901   4.554   5.692 -1.1158 -1.6642  0.6152
 2322SOL     OW18598   1.207   0.513  12.180 -0.1297  0.2605 -0.5543
 2322SOL    HW118599   1.131   0.552  12.136 -0.9513 -1.2908 -0.4894
 2322SOL    HW218600   1.275   0.539  12.118  0.2587  0.2965 -0.1112
 2323SOL     OW18601   0.144   1.365  16.742  1.0595 -0.0088  0.0165
 2323SOL    HW118602   0.121   1.276  16.718  1.9191 -0.5552  1.2155
 2323SOL    HW218603   0.119   1.425  16.672 -0.4145 -0.8261 -0.1450
 2324SOL     OW18604   0.935   3.178  16.836  0.0789 -0.0202  0.3870
 2324SOL    HW118605   0.859   3.181  16.778  0.6461  1.5177 -0.2766
 2324SOL    HW218606   0.910   3.244  16.902 -0.5619 -2.1178  2.2354
 2325SOL     OW18607   4.519   0.037   5.454  0.2141  0.6904  0.5016
 2325SOL    HW118608   4.524   0.005   5.364 -1.7626 -0.8270  0.9308
 2325SOL    HW218609   4.554   0.125   5.442  1.2139  0.0596 -1.2394
 2326SOL     OW18610   3.874   1.905   5.379 -0.2641 -0.1498  0.0095
 2326SOL    HW118611   3.965   1.877   5.384  0.3286  1.7279 -0.3638
 2326SOL    HW218612   3.829   1.828   5.343 -2.3315  0.5123  1.1619
 2327SOL     OW18613   1.167   4.283   2.230 -0.3141  0.5197 -1.1013
 2327SOL    HW118614   1.146   4.299   2.138 -0.7729 -3.1468 -1.6620
 2327SOL    HW218615   1.194   4.372   2.251  0.6974 -0.1445  0.4216
 2328SOL     OW18616   0.628   1.821   7.275 -0.5375  0.2833 -0.2348
 2328SOL    HW118617   0.590   1.869   7.201 -0.1131 -0.1319 -0.7258
 2328SOL    HW218618   0.627   1.732   7.241 -2.1059  1.2048 -2.6547
 2329SOL     OW18619   0.908   4.443   7.841  0.7963 -0.4374  0.1509
 2329SOL    HW118620   0.870   4.530   7.825 -0.0808 -0.5904  1.4421
 2329SOL    HW218621   0.983   4.450   7.783 -1.0134 -1.5446 -2.3226
 2330SOL     OW18622   3.221   1.958   0.704 -0.1624 -0.0351 -0.7643
 2330SOL    HW118623   3.235   2.007   0.785  1.4524 -3.7587  1.1933
 2330SOL    HW218624   3.283   2.001   0.645  0.8757 -0.7057 -0.1568
 2331SOL     OW18625   2.271   0.857  16.525 -0.3360 -0.0301 -0.0712
 2331SOL    HW118626   2.277   0.948  16.498 -0.3608 -0.3278 -1.0792
 2331SOL    HW218627   2.178   0.839  16.512  0.1012 -0.7728 -2.2014
 2332SOL     OW18628   0.247   4.228   5.886 -0.3066 -0.1070  0.0638
 2332SOL    HW118629   0.245   4.319   5.857  0.8057 -0.9034 -2.4983
 2332SOL    HW218630   0.164   4.209   5.930 -0.8161  0.5375 -0.6311
 2333SOL     OW18631   1.610   0.933   9.440 -0.3000  0.2295  0.3308
 2333SOL    HW118632   1.552   0.987   9.493 -0.6702  0.0886  0.0731
 2333SOL    HW218633   1.688   0.918   9.494 -1.3335  0.0318  1.7641
 2334SOL     OW18634   4.090   0.386  15.945  0.3108 -0.0040  0.0806
 2334SOL    HW118635   4.043   0.415  15.866 -1.0152  0.0524  0.8813
 2334SOL    HW218636   4.040   0.442  16.005 -2.3753 -1.0702 -1.1269
 2335SOL     OW18637   1.108   3.122   2.917 -0.4464 -0.9502  0.1779
 2335SOL    HW118638   1.176   3.187   2.936 -1.9186  0.5885  0.2265
 2335SOL    HW218639   1.058   3.132   2.998 -0.2545  0.7374  0.0922
 2336SOL     OW18640   1.833   2.110  17.548 -0.1421 -0.8777  0.3211
 2336SOL    HW118641   1.774   2.066  17.609 -0.1193 -0.0448  0.9483
 2336SOL    HW218642   1.880   2.029  17.528  2.1089  0.5786 -0.2792
 2337SOL     OW18643   4.396   1.402  12.273  0.3621 -0.3509  0.1630
 2337SOL    HW118644   4.459   1.464  12.310  0.9151  0.5163 -2.2343
 2337SOL    HW218645   4.390   1.423  12.180 -0.0673  0.5642  0.3960
 2338SOL     OW18646   0.121   1.949   4.225  0.1339  0.1796 -0.1099
 2338SOL    HW118647   0.060   1.900   4.280 -0.5840  0.1613 -0.9252
 2338SOL    HW218648   0.061   1.999   4.170 -0.1222 -0.1739 -0.1539
 2339SOL     OW18649   3.911   4.043   4.072  0.2140  0.1163  0.1738
 2339SOL    HW118650   3.965   4.116   4.104  1.2158 -0.5268 -0.0459
 2339SOL    HW218651   3.902   4.076   3.982 -0.5045 -0.2131  0.1258
 2340SOL     OW18652   3.913   1.438   3.362 -0.3790  0.4349 -0.2448
 2340SOL    HW118653   3.909   1.505   3.293 -1.1761  0.8952  0.2555
 2340SOL    HW218654   3.926   1.502   3.432 -1.1172 -0.1622  0.4312
 2341SOL     OW18655   4.201   0.044  10.942  0.0564  0.3022 -0.3084
 2341SOL    HW118656   4.178   0.029  11.034  0.2583  2.0246  0.0144
 2341SOL    HW218657   4.136   4.722  10.903 -0.9780  2.0669 -1.2840
 2342SOL     OW18658   1.707   2.507   2.807 -0.1418  0.0998  0.2845
 2342SOL    HW118659   1.691   2.518   2.713  0.6639 -0.0066  0.1352
 2342SOL    HW218660   1.622   2.520   2.850  1.6977 -0.1394  4.0069
 2343SOL     OW18661   1.583   1.127   2.582 -0.6415  0.0937 -0.5729
 2343SOL    HW118662   1.568   1.210   2.627  2.2994  0.3379 -0.0073
 2343SOL    HW218663   1.649   1.168   2.525  0.7264 -1.2139  0.0623
 2344SOL     OW18664   4.400   2.692   5.921 -0.2654  0.2998  0.0235
 2344SOL    HW118665   4.444   2.746   5.856  0.6001  0.2595  0.5744
 2344SOL    HW218666   4.309   2.688   5.892 -0.0807 -0.2244 -0.4979
 2345SOL     OW18667   2.526   3.654   2.335 -0.0997 -0.9038  0.1824
 2345SOL    HW118668   2.474   3.672   2.257  1.6940  0.3227 -0.7089
 2345SOL    HW218669   2.469   3.609   2.397 -0.1858 -2.1537 -0.7832
 2346SOL     OW18670   4.572   4.322   5.311  0.3751  0.0370  0.3496
 2346SOL    HW118671   4.501   4.305   5.373 -0.3364  0.2335 -0.4113
 2346SOL    HW218672   4.532   4.395   5.262 -1.4482 -0.4654  1.0823
 2347SOL     OW18673   0.684   0.748   6.875  0.9016 -0.2442  0.1984
 2347SOL    HW118674   0.739   0.764   6.799 -1.9069  0.3318 -1.7374
 2347SOL    HW218675   0.752   0.705   6.927  1.1078 -0.3213 -0.1378
 2348SOL     OW18676   4.737   3.677  12.461 -0.6872  0.2498  0.2419
 2348SOL    HW118677   0.077   3.713  12.418 -1.8412  3.1777  0.6476
 2348SOL    HW218678   0.037   3.588  12.465  0.2831  0.6288 -0.3739
 2349SOL     OW18679   4.196   0.073   7.474 -0.8281 -0.3569  0.5637
 2349SOL    HW118680   4.263   0.142   7.472 -0.3549 -0.9066 -2.1421
 2349SOL    HW218681   4.181   0.071   7.380 -1.5320  0.4611  0.6655
 2350SOL     OW18682   1.860   2.090   2.480 -0.2880  0.3847 -0.3116
 2350SOL    HW118683   1.892   2.113   2.567 -0.5614 -1.8342  0.3858
 2350SOL    HW218684   1.826   2.174   2.448  1.1879  1.4403  0.8717
 2351SOL     OW18685   0.693   3.254   2.302 -0.6496  0.2807  0.1709
 2351SOL    HW118686   0.679   3.319   2.370  0.2660  0.8427 -0.1815
 2351SOL    HW218687   0.670   3.305   2.225  0.8614 -1.6574 -1.5640
 2352SOL     OW18688   4.123   3.945   0.939  0.3135  0.6265  0.0172
 2352SOL    HW118689   4.069   3.973   1.012 -0.1287  0.9505 -0.4366
 2352SOL    HW218690   4.195   4.007   0.952  1.3410 -0.6832  0.6870
 2353SOL     OW18691   1.548   0.259   3.812 -0.5314 -0.1779 -0.0425
 2353SOL    HW118692   1.574   0.278   3.902  1.4426 -1.8192 -0.2554
 2353SOL    HW218693   1.455   0.247   3.826 -0.4785 -0.6170 -0.0776
 2354SOL     OW18694   0.433   4.224   3.258 -0.0633 -0.5573  0.2018
 2354SOL    HW118695   0.425   4.214   3.353  1.2918 -1.6880  0.2071
 2354SOL    HW218696   0.527   4.223   3.238 -0.1770 -0.3808 -0.3302
 2355SOL     OW18697   3.389   4.729   5.398  0.0392 -0.5517  0.0621
 2355SOL    HW118698   3.376   4.645   5.442  1.6379 -0.6336  0.3649
 2355SOL    HW218699   3.337   4.722   5.318  0.3928  1.1817 -0.3107
 2356SOL     OW18700   4.312   3.678   8.211  0.1698 -0.2342  0.1705
 2356SOL    HW118701   4.311   3.613   8.281 -1.4238 -0.0957  0.2668
 2356SOL    HW218702   4.265   3.621   8.151 -1.3988 -0.1819  1.3572
 2357SOL     OW18703   1.612   2.830   2.429  0.0981 -0.4141 -0.4249
 2357SOL    HW118704   1.599   2.878   2.347 -1.9679  2.4070  1.5483
 2357SOL    HW218705   1.518   2.825   2.447 -0.0347  0.7045 -0.7994
 2358SOL     OW18706   4.394   4.085   4.040  0.2716 -0.3575  0.5055
 2358SOL    HW118707   4.354   3.998   4.034 -0.5010  0.2751 -3.1998
 2358SOL    HW218708   4.487   4.071   4.019  0.4358 -0.1697  1.1020
 2359SOL     OW18709   2.838   1.886   6.664 -0.3893  0.2323 -0.2329
 2359SOL    HW118710   2.921   1.857   6.701 -0.2920  1.4370  0.5201
 2359SOL    HW218711   2.816   1.957   6.725 -0.4504  0.9774 -1.1281
 2360SOL     OW18712   3.696   3.251   5.247  0.2184  0.1477  0.6413
 2360SOL    HW118713   3.631   3.226   5.181  1.0675 -0.7038  0.1233
 2360SOL    HW218714   3.760   3.181   5.230 -1.7842 -1.1034 -1.8442
 2361SOL     OW18715   1.221   1.757  11.398  0.6404 -0.2696 -0.2925
 2361SOL    HW118716   1.170   1.684  11.363  0.3071 -1.1960  2.1477
 2361SOL    HW218717   1.158   1.821  11.431  0.7572  0.0868 -0.7524
 2362SOL     OW18718   4.561   2.673   6.692 -0.4604 -0.2673  0.8349
 2362SOL    HW118719   4.588   2.722   6.614 -0.3633 -0.9834  0.4277
 2362SOL    HW218720   4.467   2.690   6.703 -0.9246 -1.0807 -1.7466
 2363SOL     OW18721   1.557   4.572   1.667  1.1388 -0.3054 -0.5116
 2363SOL    HW118722   1.524   4.541   1.751 -2.3331  0.9498 -1.3943
 2363SOL    HW218723   1.596   4.655   1.694 -1.0133  0.9219 -1.1678
 2364SOL     OW18724   3.951   2.162   4.826 -0.2360 -0.0582 -0.1591
 2364SOL    HW118725   3.969   2.103   4.900  1.3575 -0.0547 -0.5397
 2364SOL    HW218726   3.936   2.246   4.869 -0.3071  0.3176 -0.9270
 2365SOL     OW18727   4.610   0.350  11.306  0.3910  0.5306 -0.3339
 2365SOL    HW118728   4.596   0.401  11.226  1.6818 -0.4891 -1.2121
 2365SOL    HW218729   4.697   0.311  11.293 -1.2328 -2.8405 -1.2701
 2366SOL     OW18730   3.495   1.592   2.511 -0.0952  0.0901 -0.3173
 2366SOL    HW118731   3.421   1.650   2.490 -0.3605 -0.8317 -1.9071
 2366SOL    HW218732   3.484   1.531   2.439  2.4387 -0.9733  0.2112
 2367SOL     OW18733   0.608   2.547   5.785  0.1416 -0.9732 -0.1413
 2367SOL    HW118734   0.677   2.613   5.787  0.3275 -1.1935  0.8143
 2367SOL    HW218735   0.539   2.595   5.832  1.5426 -0.7822  1.7096
 2368SOL     OW18736   3.732   3.912   6.300 -0.0113 -0.0190  0.0469
 2368SOL    HW118737   3.738   3.890   6.207 -1.6203 -0.1755 -0.0169
 2368SOL    HW218738   3.640   3.895   6.323  0.2612 -1.9434 -0.2918
 2369SOL     OW18739   1.748   4.388   4.488  0.8240  0.1036  0.2917
 2369SOL    HW118740   1.729   4.452   4.556  1.5346  0.3562  0.2550
 2369SOL    HW218741   1.677   4.324   4.482  2.1669 -1.2170 -1.7460
 2370SOL     OW18742   3.476   1.867   8.846 -0.2998 -0.2615  0.1191
 2370SOL    HW118743   3.435   1.902   8.767  0.0789 -0.1448 -0.0221
 2370SOL    HW218744   3.509   1.944   8.893  0.4041 -0.1628 -0.5484
 2371SOL     OW18745   4.198   0.813   8.314 -0.1711  1.0105  0.1016
 2371SOL    HW118746   4.111   0.781   8.291 -0.2033  0.5214  0.9110
 2371SOL    HW218747   4.197   0.894   8.263  2.1843  1.6661  1.0463
 2372SOL     OW18748   4.668   0.009  10.757  0.0814 -0.2362 -0.8976
 2372SOL    HW118749   4.575   0.006  10.736 -0.2130 -3.5042  0.8346
 2372SOL    HW218750   4.685   0.098  10.786 -0.1762 -0.2564 -0.6889
 2373SOL     OW18751   1.504   3.138   6.349  0.0598 -0.1820  0.0092
 2373SOL    HW118752   1.590   3.150   6.308 -0.0725 -1.0998 -0.5354
 2373SOL    HW218753   1.469   3.226   6.334 -1.3819 -0.8338 -0.4314
 2374SOL     OW18754   1.122   1.517   3.750  0.4422  0.0990 -0.3370
 2374SOL    HW118755   1.130   1.584   3.818  2.4997  0.9409 -1.4220
 2374SOL    HW218756   1.105   1.571   3.672 -1.2050  0.3941  0.2139
 2375SOL     OW18757   4.257   3.961  12.902 -0.2612 -0.1298 -0.2550
 2375SOL    HW118758   4.342   3.920  12.923 -1.1014 -2.1888 -0.8430
 2375SOL    HW218759   4.275   3.984  12.811 -1.8840  3.4051  0.3264
 2376SOL     OW18760   2.783   0.112   8.791 -0.2797  0.6699  0.4679
 2376SOL    HW118761   2.817   0.078   8.874  2.0835  0.1460 -0.7116
 2376SOL    HW218762   2.868   0.142   8.757  0.8821 -0.1813  2.6197
 2377SOL     OW18763   4.208   2.341   7.332  0.3152  0.0285  0.0803
 2377SOL    HW118764   4.122   2.349   7.373  0.4828 -2.9795  0.9848
 2377SOL    HW218765   4.264   2.304   7.401  1.0741 -0.6668 -0.9222
 2378SOL     OW18766   2.097   2.268  16.088  0.0934 -0.1502  0.0552
 2378SOL    HW118767   2.092   2.289  16.182 -1.3866 -2.1030  0.4094
 2378SOL    HW218768   2.062   2.352  16.058  0.8661  0.2944  0.3705
 2379SOL     OW18769   2.198   0.558   7.305  0.2245 -0.4840 -0.1676
 2379SOL    HW118770   2.119   0.611   7.300 -0.4776 -1.5012  0.1204
 2379SOL    HW218771   2.214   0.534   7.214 -2.7513  0.1832 -0.8531
 2380SOL     OW18772   3.023   1.239   5.219 -0.0982 -0.4849  0.5724
 2380SOL    HW118773   3.028   1.166   5.157  0.6348 -0.5070  0.6682
 2380SOL    HW218774   2.928   1.228   5.228  0.4978 -3.7723  2.5456
 2381SOL     OW18775   2.346   4.004   2.327 -0.0370 -0.2339 -0.1388
 2381SOL    HW118776   2.307   3.921   2.355 -1.3528  0.7274  0.9014
 2381SOL    HW218777   2.295   4.013   2.246 -0.9134 -1.8864  0.2157
 2382SOL     OW18778   1.891   2.505   2.499 -0.1647  0.0549  0.4480
 2382SOL    HW118779   1.885   2.503   2.404 -0.3188  2.6382  0.4169
 2382SOL    HW218780   1.808   2.547   2.521 -1.6832 -2.2829 -0.8791
 2383SOL     OW18781   2.672   4.184   8.527  0.5314 -0.2958  0.1895
 2383SOL    HW118782   2.580   4.199   8.507  1.1126  0.4490 -2.0282
 2383SOL    HW218783   2.699   4.264   8.573 -2.8824 -0.4655  2.4572
 2384SOL     OW18784   3.858   4.123   6.220 -0.5326  1.0822  0.0260
 2384SOL    HW118785   3.826   4.048   6.270 -0.0036  0.7580 -0.1260
 2384SOL    HW218786   3.868   4.082   6.135 -1.7798  1.6120 -0.3652
 2385SOL     OW18787   3.211   1.406  12.002 -0.0345 -0.3014  0.0486
 2385SOL    HW118788   3.291   1.457  12.015  0.7575 -1.9732  1.8177
 2385SOL    HW218789   3.167   1.426  12.085 -2.1716 -3.9491 -0.1804
 2386SOL     OW18790   1.453   3.703  14.201  0.1533 -0.1841  0.3169
 2386SOL    HW118791   1.431   3.671  14.114  1.7942 -0.4051  0.0014
 2386SOL    HW218792   1.465   3.620  14.247 -1.0165 -0.7557 -0.4157
 2387SOL     OW18793   3.149   1.619  11.337  0.2613 -0.1516 -0.1970
 2387SOL    HW118794   3.200   1.689  11.380 -0.2044  2.2468 -3.6002
 2387SOL    HW218795   3.060   1.646  11.362  1.2437  2.6965  0.2409
 2388SOL     OW18796   1.496   1.716   3.648 -0.0165 -0.2679 -0.1519
 2388SOL    HW118797   1.465   1.737   3.560  0.0933  0.7451  0.0570
 2388SOL    HW218798   1.505   1.621   3.644  2.2296  0.0076 -1.1491
 2389SOL     OW18799   2.066   4.475   7.160 -0.3782  0.2817  0.1542
 2389SOL    HW118800   1.989   4.532   7.151 -1.0726 -0.8720 -1.3084
 2389SOL    HW218801   2.100   4.491   7.248 -2.9791  0.6275  1.1145
 2390SOL     OW18802   2.180   1.309   6.527 -0.2976  0.0742 -0.1794
 2390SOL    HW118803   2.153   1.262   6.448 -0.9457 -2.9274  1.8317
 2390SOL    HW218804   2.201   1.233   6.581  0.1415 -0.5818 -1.2633
 2391SOL     OW18805   4.628   4.276  14.702 -0.4428 -0.2126 -0.4176
 2391SOL    HW118806   4.652   4.184  14.710  1.3250  0.2576 -0.4430
 2391SOL    HW218807   4.663   4.302  14.787  4.1195 -0.8537 -2.1095
 2392SOL     OW18808   4.152   1.225   6.770  0.4225  0.8493  0.1965
 2392SOL    HW118809   4.126   1.151   6.715  1.5026  0.3598  0.3524
 2392SOL    HW218810   4.066   1.263   6.791  0.6012  1.4659 -0.2007
 2393SOL     OW18811   0.796   2.680   1.610  0.3801  0.1904  0.4087
 2393SOL    HW118812   0.853   2.637   1.547  0.6304 -0.3156  0.9743
 2393SOL    HW218813   0.711   2.693   1.568  0.7945 -1.3515 -0.8790
 2394SOL     OW18814   1.759   3.786   2.090 -0.1931 -0.2675 -0.0202
 2394SOL    HW118815   1.799   3.770   2.175  3.4628 -1.2136 -1.9383
 2394SOL    HW218816   1.805   3.861   2.053  0.1056 -0.3529  0.1870
 2395SOL     OW18817   3.078   0.137  16.686 -0.3571  0.3651 -0.4302
 2395SOL    HW118818   3.042   0.190  16.615 -0.0232 -0.2546 -1.0566
 2395SOL    HW218819   3.088   0.202  16.756  1.5037  0.4581 -0.7822
 2396SOL     OW18820   0.274   0.826   7.861 -0.3776 -0.2391 -0.1496
 2396SOL    HW118821   0.230   0.753   7.904 -0.2539 -0.5051 -0.4730
 2396SOL    HW218822   0.293   0.882   7.936 -0.5768  1.1473 -1.1255
 2397SOL     OW18823   4.482   0.549   9.461  0.0742 -0.8074 -0.8396
 2397SOL    HW118824   4.509   0.481   9.523 -0.2239  0.7728  1.0428
 2397SOL    HW218825   4.457   0.501   9.382 -3.4690 -0.6615  0.2261
 2398SOL     OW18826   2.877   3.159   5.724  0.5256  0.6805  0.1522
 2398SOL    HW118827   2.948   3.220   5.742  0.8944  0.7750 -1.5653
 2398SOL    HW218828   2.818   3.170   5.798  1.4394 -2.1291  1.2956
 2399SOL     OW18829   3.437   3.249   7.457 -0.4731  0.0693 -0.0450
 2399SOL    HW118830   3.529   3.254   7.481 -0.5009  0.7419 -0.0716
 2399SOL    HW218831   3.446   3.213   7.368  2.0477 -2.5425  1.2632
 2400SOL     OW18832   4.014   2.917  13.267 -0.4901 -0.2794  0.6601
 2400SOL    HW118833   4.042   2.993  13.216  1.3160  1.1864  3.8473
 2400SOL    HW218834   4.027   2.847  13.203 -2.3912  0.0448 -0.0956
 2401SOL     OW18835   4.115   1.693   4.969  0.1422  0.1083  0.0530
 2401SOL    HW118836   4.194   1.681   5.023  0.9270  3.7055 -0.3033
 2401SOL    HW218837   4.133   1.785   4.949  3.5585 -1.0128 -2.0578
 2402SOL     OW18838   0.206   1.492   8.828 -0.2690  0.0164  0.7869
 2402SOL    HW118839   0.179   1.549   8.755 -2.7956  0.5718  2.1520
 2402SOL    HW218840   0.200   1.409   8.780 -3.0134 -0.4970  2.0415
 2403SOL     OW18841   3.213   1.510  10.685 -0.2314  0.2959 -0.0832
 2403SOL    HW118842   3.245   1.600  10.685  1.6715 -0.3652  0.0148
 2403SOL    HW218843   3.144   1.509  10.618 -1.0623 -0.5398  0.7756
 2404SOL     OW18844   4.333   0.959   5.745 -0.6201  0.1128 -0.3382
 2404SOL    HW118845   4.323   0.921   5.658  1.8041 -0.9469 -0.1725
 2404SOL    HW218846   4.281   1.038   5.729  0.2824  0.9100  0.5733
 2405SOL     OW18847   1.628   3.237   5.368 -0.4283  0.4412  0.4812
 2405SOL    HW118848   1.720   3.250   5.389 -0.5999  1.4424  0.6060
 2405SOL    HW218849   1.592   3.324   5.385 -1.9994 -0.5082  2.0505
 2406SOL     OW18850   1.317   2.822   3.673 -0.2085  0.1510  0.4167
 2406SOL    HW118851   1.321   2.906   3.720  0.2167  0.7799 -0.7364
 2406SOL    HW218852   1.378   2.837   3.601 -0.0143  0.0390  0.5598
 2407SOL     OW18853   0.864   2.740   7.149 -0.8689 -0.2300  0.4042
 2407SOL    HW118854   0.957   2.746   7.128 -0.9439  1.0947  0.4484
 2407SOL    HW218855   0.819   2.756   7.066 -2.5988 -0.1869  1.3405
 2408SOL     OW18856   4.586   3.656  14.934  0.8211  0.2313 -0.0099
 2408SOL    HW118857   4.571   3.651  14.839 -0.8935 -0.1465  0.2731
 2408SOL    HW218858   4.499   3.632  14.966  1.3455 -0.4948  0.8687
 2409SOL     OW18859   0.549   1.960   2.661 -0.2266 -0.1888 -0.3569
 2409SOL    HW118860   0.590   1.913   2.588 -0.5736  0.2488 -0.8351
 2409SOL    HW218861   0.558   1.880   2.713  2.5928  1.9480  2.4466
 2410SOL     OW18862   1.493   2.697   4.644  0.0721 -0.1869 -0.1095
 2410SOL    HW118863   1.473   2.774   4.591  0.7096 -0.9381 -1.4318
 2410SOL    HW218864   1.537   2.738   4.718  0.0931  0.3398 -0.4178
 2411SOL     OW18865   4.273   0.370   4.051 -0.2836  0.0477 -0.6382
 2411SOL    HW118866   4.260   0.409   3.965 -0.3509  2.4477  0.4569
 2411SOL    HW218867   4.196   0.313   4.045  0.1661 -0.7016  0.6071
 2412SOL     OW18868   4.606   3.105  11.580 -0.0407 -0.6093 -0.3812
 2412SOL    HW118869   4.645   3.047  11.645 -0.7248 -1.0504 -0.3607
 2412SOL    HW218870   4.541   3.145  11.637  1.7835  1.2404  0.3762
 2413SOL     OW18871   4.589   2.559  17.550  0.5843 -0.0533 -0.3545
 2413SOL    HW118872   4.656   2.627  17.549  0.6737 -0.1385 -0.2292
 2413SOL    HW218873   4.612   2.509  17.629  1.9937 -1.5873 -1.7320
 2414SOL     OW18874   2.808   1.937   9.552 -0.6559  0.2935 -0.0724
 2414SOL    HW118875   2.824   1.865   9.491  0.9304  0.9235 -0.3879
 2414SOL    HW218876   2.880   1.995   9.526 -1.7648  1.9239  0.4763
 2415SOL     OW18877   3.930   4.481  11.189 -0.2651  0.0550 -0.2173
 2415SOL    HW118878   3.975   4.402  11.157  1.7526  1.8430 -1.7840
 2415SOL    HW218879   4.000   4.544  11.176 -1.2383  0.7465 -2.1173
 2416SOL     OW18880   1.119   2.721   8.116 -0.0709 -0.4886 -1.0750
 2416SOL    HW118881   1.063   2.647   8.091 -1.7538 -0.0945  1.5614
 2416SOL    HW218882   1.089   2.791   8.057  0.5438  1.7002  1.2208
 2417SOL     OW18883   2.664   3.920  17.614  0.0341 -0.5978  0.4688
 2417SOL    HW118884   2.698   3.918  17.703  0.3041 -0.0511  0.3853
 2417SOL    HW218885   2.710   3.993  17.572 -1.1190 -0.1184  0.0299
 2418SOL     OW18886   2.021   3.766   8.268 -0.1660  0.5569 -0.1433
 2418SOL    HW118887   2.111   3.792   8.248 -0.3854  1.3830 -0.0661
 2418SOL    HW218888   2.008   3.701   8.200  0.6033  0.7341 -0.4526
 2419SOL     OW18889   1.079   3.647   9.925 -0.0882  0.5439 -0.1462
 2419SOL    HW118890   1.114   3.587   9.990  0.0644 -1.0868 -1.7448
 2419SOL    HW218891   1.139   3.722   9.926 -0.0021  0.4568  0.5751
 2420SOL     OW18892   3.354   3.702   9.109  0.3015 -0.5573  0.3347
 2420SOL    HW118893   3.296   3.662   9.045 -0.0208  1.3137 -0.5175
 2420SOL    HW218894   3.437   3.655   9.100 -1.2979 -3.5755  1.1832
 2421SOL     OW18895   0.797   4.397  16.361  0.0110  0.2192 -0.2370
 2421SOL    HW118896   0.891   4.413  16.351 -0.0418  0.6411 -0.0319
 2421SOL    HW218897   0.774   4.459  16.430  1.2897 -0.6303  0.9714
 2422SOL     OW18898   2.122   3.351  14.044  0.2780 -0.1786 -0.2950
 2422SOL    HW118899   2.065   3.278  14.069 -0.9929  0.2611 -1.9603
 2422SOL    HW218900   2.186   3.338  14.114 -0.6637 -0.8534  0.4493
 2423SOL     OW18901   0.303   1.147   8.346 -0.4910  0.0298  0.6772
 2423SOL    HW118902   0.398   1.150   8.337 -0.5701 -1.1181 -0.4370
 2423SOL    HW218903   0.284   1.237   8.373 -0.2326  0.8820 -1.9369
 2424SOL     OW18904   3.393   3.878   9.629 -0.6482 -0.2580  0.1281
 2424SOL    HW118905   3.395   3.872   9.533  2.7316  0.8119  0.1379
 2424SOL    HW218906   3.486   3.900   9.641 -0.7241 -1.1136  2.2090
 2425SOL     OW18907   1.557   3.725   5.107 -0.3966  0.3870 -0.0775
 2425SOL    HW118908   1.489   3.702   5.171  0.2249  0.2700  0.5468
 2425SOL    HW218909   1.600   3.799   5.150 -1.6007 -0.0571  1.9091
 2426SOL     OW18910   3.946   2.414   2.522  0.7778  0.1390  0.3365
 2426SOL    HW118911   3.897   2.357   2.581  0.9123  1.9596  2.2017
 2426SOL    HW218912   3.882   2.422   2.451  0.4157 -0.3007  0.6096
 2427SOL     OW18913   3.026   2.565   3.631  0.3630 -0.2810  0.1175
 2427SOL    HW118914   3.008   2.657   3.653 -0.6675 -0.7087  1.0533
 2427SOL    HW218915   3.037   2.524   3.716  2.0395 -0.9599 -0.4285
 2428SOL     OW18916   3.177   3.725  15.866 -0.3580 -0.4467  0.7644
 2428SOL    HW118917   3.187   3.630  15.858  0.8479 -0.2216 -0.3915
 2428SOL    HW218918   3.188   3.761  15.778 -0.0225 -2.9904 -0.2414
 2429SOL     OW18919   0.874   3.868   7.106  0.2160 -0.1044 -0.2288
 2429SOL    HW118920   0.823   3.850   7.185 -1.6977  0.5946 -1.2973
 2429SOL    HW218921   0.956   3.832   7.137 -0.1893  2.0639  3.3448
 2430SOL     OW18922   1.156   2.664   5.290 -0.2053 -0.6264  0.1281
 2430SOL    HW118923   1.141   2.651   5.384 -0.7344  2.1727  0.4134
 2430SOL    HW218924   1.223   2.733   5.288 -1.8459  0.8976 -2.0682
 2431SOL     OW18925   2.629   2.527   2.065  0.2078 -0.0439 -0.1534
 2431SOL    HW118926   2.723   2.540   2.052  0.3908 -0.2234  1.0386
 2431SOL    HW218927   2.614   2.433   2.075  1.8279 -0.3578 -0.6522
 2432SOL     OW18928   1.057   2.126  17.498  0.1507  0.3587  0.2382
 2432SOL    HW118929   0.977   2.172  17.524  1.1394  0.8976  2.3899
 2432SOL    HW218930   1.029   2.040  17.529 -2.1191  1.2024  0.5252
 2433SOL     OW18931   1.329   4.629   8.014 -0.1128 -0.5895 -0.3049
 2433SOL    HW118932   1.266   4.572   8.060 -1.4931  0.3550 -1.0197
 2433SOL    HW218933   1.363   4.692   8.077 -1.1632 -0.9982  0.6792
 2434SOL     OW18934   2.056   4.498  14.371  0.1651 -0.1283  0.5271
 2434SOL    HW118935   2.094   4.444  14.301  1.3900 -1.1471  1.9741
 2434SOL    HW218936   2.134   4.530  14.415 -1.2749  1.4393  1.9018
 2435SOL     OW18937   2.408   3.496   1.825 -0.1057  0.1567 -0.2507
 2435SOL    HW118938   2.369   3.474   1.741  4.1019 -0.4544 -2.0305
 2435SOL    HW218939   2.500   3.510   1.804 -0.4105  1.0790 -0.9524
 2436SOL     OW18940   3.158   3.907   1.656 -0.0569 -0.2385 -0.2031
 2436SOL    HW118941   3.161   3.819   1.618  0.7557 -0.2380 -0.1387
 2436SOL    HW218942   3.080   3.951   1.624  0.4648 -0.3364 -1.6174
 2437SOL     OW18943   0.330   4.617   2.906 -0.5848 -0.0268 -0.3286
 2437SOL    HW118944   0.258   4.661   2.950  0.4988 -0.1973  1.6193
 2437SOL    HW218945   0.385   4.695   2.895 -1.3615  0.4557 -0.7554
 2438SOL     OW18946   2.835   3.542   1.947  0.4692 -0.1294 -0.0920
 2438SOL    HW118947   2.871   3.477   2.007  0.9551  0.6170  0.4201
 2438SOL    HW218948   2.834   3.618   2.005  2.0422  0.7829 -1.2541
 2439SOL     OW18949   2.573   0.374   7.572 -0.0918  0.5274 -0.8544
 2439SOL    HW118950   2.504   0.367   7.506  0.4296 -1.7345 -1.1870
 2439SOL    HW218951   2.649   0.418   7.534  0.2700  1.2055  0.6460
 2440SOL     OW18952   0.216   1.751   7.293  0.3152 -0.0453  0.0749
 2440SOL    HW118953   0.204   1.727   7.385  1.3107 -0.9600 -0.0283
 2440SOL    HW218954   0.137   1.710   7.256  1.0675 -0.1407 -1.4480
 2441SOL     OW18955   0.851   4.148   7.086  0.2702 -0.4760  0.1742
 2441SOL    HW118956   0.834   4.054   7.082  2.5256 -0.7231 -3.2677
 2441SOL    HW218957   0.937   4.152   7.129 -0.6597  1.3563  1.8575
 2442SOL     OW18958   1.664   3.457  16.320 -0.0791  0.4510 -0.4350
 2442SOL    HW118959   1.703   3.532  16.275 -0.6948  1.4995  0.7824
 2442SOL    HW218960   1.745   3.406  16.323 -0.0914  0.4517  0.0050
 2443SOL     OW18961   0.444   0.658  12.743  0.1043 -0.0743 -0.6139
 2443SOL    HW118962   0.471   0.653  12.652 -1.4061  0.1679 -1.0620
 2443SOL    HW218963   0.460   0.752  12.755  3.0727 -0.7282  0.6787
 2444SOL     OW18964   4.473   1.607   2.466  0.6549  0.2762 -0.0203
 2444SOL    HW118965   4.421   1.685   2.444  0.8321  0.6176  0.7858
 2444SOL    HW218966   4.468   1.606   2.561 -0.5527 -0.9505 -0.1030
 2445SOL     OW18967   3.202   2.776   3.114 -0.2718  0.2259 -0.5449
 2445SOL    HW118968   3.125   2.718   3.116 -0.2949  0.3631  2.6786
 2445SOL    HW218969   3.160   2.854   3.078 -1.2363  0.2010  0.5298
 2446SOL     OW18970   1.550   3.914   8.072 -0.4228 -0.4704  0.4143
 2446SOL    HW118971   1.533   3.931   7.979 -1.1056 -0.3242  0.5618
 2446SOL    HW218972   1.641   3.889   8.062 -0.4761 -0.0889 -0.9545
 2447SOL     OW18973   2.287   2.496  16.210 -0.3840 -0.5581 -0.1152
 2447SOL    HW118974   2.212   2.507  16.151 -2.2383  1.0081  2.5245
 2447SOL    HW218975   2.366   2.487  16.157  0.1851 -0.0412  0.6446
 2448SOL     OW18976   3.061   2.800   9.114  0.1741  0.2593  0.3756
 2448SOL    HW118977   3.154   2.813   9.094  0.0402  1.7058  0.7154
 2448SOL    HW218978   3.024   2.868   9.057 -2.9893 -1.7232  0.0621
 2449SOL     OW18979   1.926   3.373   4.529  0.3286 -0.5852  0.1521
 2449SOL    HW118980   1.947   3.366   4.622 -0.8323  0.5779  0.4957
 2449SOL    HW218981   1.998   3.318   4.497  0.1365 -0.9122  0.2793
 2450SOL     OW18982   4.138   2.958   5.319 -0.1535  0.6485 -0.3035
 2450SOL    HW118983   4.211   3.019   5.316  0.1841  0.2047 -1.0036
 2450SOL    HW218984   4.080   3.005   5.259 -1.4837  0.3718  0.7417
 2451SOL     OW18985   0.154   2.381   8.416  0.1807 -0.3481  0.1932
 2451SOL    HW118986   0.101   2.399   8.494  1.1522  0.9793  0.5610
 2451SOL    HW218987   0.236   2.430   8.428 -1.0957  1.8982 -0.2622
 2452SOL     OW18988   3.631   4.112   2.454 -0.6508 -0.5955 -0.1605
 2452SOL    HW118989   3.687   4.172   2.503  0.0475  1.0017 -2.9230
 2452SOL    HW218990   3.638   4.152   2.367 -0.2864  0.0519  0.1668
 2453SOL     OW18991   3.786   3.741   6.772  0.7287  0.6851 -0.4052
 2453SOL    HW118992   3.803   3.649   6.791 -2.7119 -0.3094 -2.0540
 2453SOL    HW218993   3.809   3.748   6.679 -2.7328  2.1032 -1.1245
 2454SOL     OW18994   1.408   2.576  11.534  0.0233 -0.4507 -0.0661
 2454SOL    HW118995   1.403   2.480  11.541 -0.9583 -0.3364  0.8363
 2454SOL    HW218996   1.470   2.600  11.602 -1.0269 -0.7995  1.0125
 2455SOL     OW18997   2.732   1.558   4.935  0.2852 -0.6420 -0.0323
 2455SOL    HW118998   2.660   1.571   4.872  1.0329 -2.3123 -1.2432
 2455SOL    HW218999   2.793   1.629   4.919 -0.3179 -0.4245 -1.3903
 2456SOL     OW19000   1.862   2.740  15.446  0.1910  0.2790 -0.5115
 2456SOL    HW119001   1.953   2.770  15.454 -0.3609  1.5003  1.0563
 2456SOL    HW219002   1.818   2.824  15.457 -3.2136 -1.3155 -2.0319
 2457SOL     OW19003   3.673   3.453   7.930  0.2465 -0.1230  0.2429
 2457SOL    HW119004   3.582   3.470   7.906 -0.3134  0.0490  2.4654
 2457SOL    HW219005   3.666   3.420   8.020  0.0876 -1.1046 -0.1392
 2458SOL     OW19006   1.461   3.921  14.561 -0.3053 -0.1533 -0.4582
 2458SOL    HW119007   1.403   3.869  14.507 -2.4288 -0.1388  1.7967
 2458SOL    HW219008   1.536   3.943  14.506  0.3189  1.0747  0.8735
 2459SOL     OW19009   4.185   3.186   7.767  0.1262 -0.2372 -0.0026
 2459SOL    HW119010   4.178   3.093   7.787 -2.6235 -0.5719 -2.4245
 2459SOL    HW219011   4.115   3.235   7.811  1.3816  0.5007  1.1912
 2460SOL     OW19012   1.828   0.886   7.387 -0.0119  0.6449  0.0484
 2460SOL    HW119013   1.795   0.973   7.364  0.2929  1.2034  1.7524
 2460SOL    HW219014   1.809   0.824   7.316 -0.4424  1.6152 -0.6777
 2461SOL     OW19015   4.094   3.559   2.800  0.1679 -0.0878  1.2496
 2461SOL    HW119016   4.071   3.645   2.834  1.5845  0.3017  1.2159
 2461SOL    HW219017   4.142   3.523   2.875 -0.2287 -0.5952  1.2629
 2462SOL     OW19018   4.192   0.193   4.390 -0.2003  0.3082  0.1398
 2462SOL    HW119019   4.277   0.155   4.414  0.7370  1.6630 -1.0658
 2462SOL    HW219020   4.167   0.138   4.316  2.3255  1.2725 -1.4353
 2463SOL     OW19021   1.019   4.155  13.872 -0.7768 -0.3391 -0.2025
 2463SOL    HW119022   0.967   4.171  13.951 -1.9381  0.6352 -1.1521
 2463SOL    HW219023   0.963   4.086  13.836 -1.3044 -0.3924  0.7015
 2464SOL     OW19024   0.935   1.888   7.673  0.0108 -0.4695  0.4770
 2464SOL    HW119025   1.003   1.939   7.718  1.1172 -0.0217 -1.6706
 2464SOL    HW219026   0.858   1.888   7.730 -0.8871  0.2512 -0.7234
 2465SOL     OW19027   1.139   0.113   2.085  0.5202 -0.1453 -0.4108
 2465SOL    HW119028   1.049   0.097   2.058  0.4169 -0.4618  0.1214
 2465SOL    HW219029   1.184   0.089   2.003 -0.2339 -1.2860 -0.4969
 2466SOL     OW19030   2.234   1.626   4.760 -0.4442  0.0957  0.0642
 2466SOL    HW119031   2.182   1.674   4.825  0.5583  0.5384  0.5411
 2466SOL    HW219032   2.212   1.535   4.780  1.3539 -0.3867 -0.1890
 2467SOL     OW19033   1.981   0.277  12.728  0.0993  0.3327 -0.5259
 2467SOL    HW119034   2.054   0.277  12.667 -0.4272 -0.6814 -1.1525
 2467SOL    HW219035   1.910   0.293  12.665 -0.4416 -0.3108 -0.0786
 2468SOL     OW19036   0.463   2.554   4.873  0.2380 -0.1363 -0.2637
 2468SOL    HW119037   0.468   2.501   4.794  0.0736 -0.4149 -0.0879
 2468SOL    HW219038   0.369   2.558   4.887  0.5125  3.2265  0.6490
 2469SOL     OW19039   4.165   0.484  12.390 -0.0988  0.0465 -0.1738
 2469SOL    HW119040   4.117   0.567  12.393  0.7232  0.4687  1.4588
 2469SOL    HW219041   4.216   0.483  12.471  0.2693  4.2258 -0.3410
 2470SOL     OW19042   1.054   1.955  10.311  0.4199 -0.3208  0.8940
 2470SOL    HW119043   1.055   2.009  10.232  1.4326 -0.2974  0.9195
 2470SOL    HW219044   0.992   1.884  10.296 -1.1968  1.1401  0.6877
 2471SOL     OW19045   2.091   2.360  16.360 -0.3319 -0.3716 -0.8108
 2471SOL    HW119046   2.186   2.362  16.361 -0.3628  0.8927 -0.1934
 2471SOL    HW219047   2.056   2.449  16.365  1.4733  0.3332 -0.7422
 2472SOL     OW19048   3.055   1.834   6.266  0.2401  0.1703  0.7304
 2472SOL    HW119049   3.102   1.900   6.215  0.8954  0.7820  2.1230
 2472SOL    HW219050   2.984   1.812   6.206  0.4276  0.5317  0.3807
 2473SOL     OW19051   1.642   2.994   6.036  0.0351  0.5902  0.0733
 2473SOL    HW119052   1.696   2.933   5.986 -0.3101  0.4059 -0.0723
 2473SOL    HW219053   1.556   2.953   6.049  0.7789 -2.2183 -4.0452
 2474SOL     OW19054   1.714   4.016   6.848  0.9051 -0.2112 -0.3563
 2474SOL    HW119055   1.672   4.011   6.762  0.7861 -4.8703  0.0121
 2474SOL    HW219056   1.661   4.070   6.907 -0.5840 -1.5192 -0.5114
 2475SOL     OW19057   0.940   3.698   8.796  0.1087  0.5879 -0.4228
 2475SOL    HW119058   0.912   3.685   8.705 -0.3121 -1.5016  0.0200
 2475SOL    HW219059   1.035   3.692   8.781  0.1114  0.3636 -0.3119
 2476SOL     OW19060   2.932   1.072   7.882 -0.4375 -0.4261  0.1486
 2476SOL    HW119061   2.884   1.021   7.816 -0.6933 -1.9176  1.4740
 2476SOL    HW219062   2.955   1.004   7.945 -1.7427 -0.8992  0.1039
 2477SOL     OW19063   4.249   3.601   2.163 -0.9490 -0.4996  0.0108
 2477SOL    HW119064   4.173   3.547   2.139  0.4625 -2.5526  0.2055
 2477SOL    HW219065   4.308   3.538   2.205 -0.7567 -0.7863 -0.6970
 2478SOL     OW19066   3.991   1.333   1.609 -0.5687 -0.2253  0.3011
 2478SOL    HW119067   4.080   1.300   1.624  0.3285  1.0491 -2.2174
 2478SOL    HW219068   3.939   1.253   1.596 -0.0258 -0.3352 -1.2103
 2479SOL     OW19069   3.383   0.752   3.809  0.1996  0.0031  0.2456
 2479SOL    HW119070   3.348   0.838   3.785 -1.3243 -0.1785  1.7487
 2479SOL    HW219071   3.370   0.705   3.727 -0.8777 -1.1195  1.0462
 2480SOL     OW19072   2.515   3.739   8.302  0.0336  0.2012  0.4968
 2480SOL    HW119073   2.591   3.682   8.306 -0.8353 -1.0204 -0.3111
 2480SOL    HW219074   2.553   3.827   8.299 -0.2561  0.3285  0.5035
 2481SOL     OW19075   0.806   3.147  10.477 -0.3366  0.0646  0.3756
 2481SOL    HW119076   0.781   3.197  10.399 -0.0743 -0.6442 -0.1598
 2481SOL    HW219077   0.726   3.097  10.493  1.5273 -2.9614  0.3483
 2482SOL     OW19078   4.059   2.959   4.397 -0.2601  0.2763  0.2085
 2482SOL    HW119079   4.089   2.950   4.306 -0.9992  2.1938 -0.2336
 2482SOL    HW219080   4.102   3.036   4.433  0.4265  0.5132 -1.1300
 2483SOL     OW19081   3.359   1.760   4.510 -0.4629 -0.4516  0.2242
 2483SOL    HW119082   3.347   1.841   4.560  1.1355 -0.7803  1.1708
 2483SOL    HW219083   3.443   1.732   4.548 -0.3294 -0.3934 -0.0305
 2484SOL     OW19084   0.677   3.789   7.275  0.0262 -0.1296 -0.2757
 2484SOL    HW119085   0.695   3.699   7.303 -1.2842 -0.5726 -0.8394
 2484SOL    HW219086   0.588   3.809   7.305 -0.5410 -2.0256 -0.6966
 2485SOL     OW19087   0.853   1.158   7.706 -0.3114 -0.2605 -1.2332
 2485SOL    HW119088   0.760   1.138   7.720 -0.1075 -0.8936 -0.7573
 2485SOL    HW219089   0.889   1.130   7.790  0.9476  1.5086 -1.1966
 2486SOL     OW19090   1.387   4.661   6.187  0.3918  0.3494  0.4140
 2486SOL    HW119091   1.432   0.008   6.183 -0.1146  0.7846  3.2955
 2486SOL    HW219092   1.440   4.604   6.243 -1.6173 -0.4565  1.5338
 2487SOL     OW19093   4.646   1.459   2.314  0.3740 -0.1251  0.4418
 2487SOL    HW119094   4.599   1.376   2.309  0.5347 -0.1734 -0.1763
 2487SOL    HW219095   4.581   1.508   2.364 -0.5918 -0.8511 -0.0948
 2488SOL     OW19096   1.264   4.443  14.341  0.2302 -0.4185 -0.2541
 2488SOL    HW119097   1.217   4.367  14.308  0.5815  0.0298 -1.7675
 2488SOL    HW219098   1.291   4.482  14.258 -1.6833  1.2392 -0.1173
 2489SOL     OW19099   4.518   3.811  11.528  0.7685 -0.4588 -0.1106
 2489SOL    HW119100   4.522   3.844  11.618  1.5343 -1.3941  0.1907
 2489SOL    HW219101   4.496   3.885  11.472  0.4470  1.0295  1.9544
 2490SOL     OW19102   2.721   0.421   6.117 -0.1716 -0.5089 -0.2419
 2490SOL    HW119103   2.812   0.452   6.120 -0.6430  0.7488  1.3207
 2490SOL    HW219104   2.721   0.386   6.028  1.2665 -0.8951 -0.0846
 2491SOL     OW19105   4.018   1.628   8.135 -0.1734  0.8255  0.1317
 2491SOL    HW119106   4.073   1.553   8.111 -2.1228 -0.8365  0.8906
 2491SOL    HW219107   4.056   1.655   8.218  2.3318 -0.2038 -0.6736
 2492SOL     OW19108   0.618   4.519  12.985 -0.5280 -0.4675  0.6700
 2492SOL    HW119109   0.680   4.448  12.970 -0.7907  0.2226 -3.9132
 2492SOL    HW219110   0.679   4.592  12.972 -0.9498  0.1208  2.0992
 2493SOL     OW19111   0.041   2.343  14.273  0.2265 -0.8187 -0.5186
 2493SOL    HW119112   0.069   2.431  14.299 -1.2408 -0.6025  0.2605
 2493SOL    HW219113   0.003   2.373  14.190 -0.1590 -0.9026 -0.3670
 2494SOL     OW19114   0.958   3.975   5.329  0.0823  0.1680 -0.9242
 2494SOL    HW119115   0.964   3.994   5.423  0.9923  1.1284 -1.1788
 2494SOL    HW219116   0.876   4.013   5.297  0.7666  0.6264 -2.1318
 2495SOL     OW19117   2.629   2.323   8.259 -0.2270  1.0869 -0.5578
 2495SOL    HW119118   2.550   2.308   8.310  0.7989  0.3352  0.7969
 2495SOL    HW219119   2.583   2.312   8.176 -2.6195 -0.5890  0.9884
 2496SOL     OW19120   1.377   1.854   3.847  0.0220  0.0270  0.3535
 2496SOL    HW119121   1.401   1.799   3.772  0.8944  2.4141 -1.1297
 2496SOL    HW219122   1.438   1.825   3.914 -0.6470  0.5374  1.1830
 2497SOL     OW19123   2.382   3.771   3.110  0.1639 -0.0079 -0.0209
 2497SOL    HW119124   2.350   3.691   3.068  2.3151  0.2689 -2.2174
 2497SOL    HW219125   2.476   3.758   3.104 -0.0010 -1.1507 -0.1774
 2498SOL     OW19126   4.667   0.476   7.908  0.4553 -0.0103  0.1480
 2498SOL    HW119127   4.573   0.455   7.908  0.0385  1.8435  0.9160
 2498SOL    HW219128   4.680   0.517   7.993  2.7309 -1.1789  0.3406
 2499SOL     OW19129   0.797   2.022   7.469 -0.0174  0.1293 -0.1230
 2499SOL    HW119130   0.762   1.942   7.429 -1.1566  0.7421 -0.3397
 2499SOL    HW219131   0.852   1.982   7.537  0.0999  1.3587  0.4949
 2500SOL     OW19132   1.619   3.246   4.206 -0.2193 -0.5939  0.0819
 2500SOL    HW119133   1.650   3.336   4.197  1.4823 -1.3905 -1.7414
 2500SOL    HW219134   1.665   3.202   4.135  0.0145 -0.0417 -0.1006
 2501SOL     OW19135   2.550   4.587  13.864 -0.0556 -0.3474  0.0029
 2501SOL    HW119136   2.454   4.582  13.860  0.0907 -2.8861  0.0427
 2501SOL    HW219137   2.559   4.584  13.959  1.1767 -3.3071 -0.2206
 2502SOL     OW19138   4.697   1.782  11.282  0.4556 -0.7074 -0.0719
 2502SOL    HW119139   0.007   1.702  11.259 -0.0639 -1.5285  1.7348
 2502SOL    HW219140   4.646   1.752  11.357  0.2220  1.5854  0.6564
 2503SOL     OW19141   3.886   1.356  15.041 -0.2377 -0.1417  0.4644
 2503SOL    HW119142   3.858   1.371  15.131 -3.2302 -1.7875 -0.2021
 2503SOL    HW219143   3.913   1.264  15.037 -1.1056 -0.3938  0.5996
 2504SOL     OW19144   1.643   4.284   6.137 -0.8508  0.0315  0.0742
 2504SOL    HW119145   1.688   4.333   6.207 -1.1484 -1.6423  1.4325
 2504SOL    HW219146   1.698   4.293   6.059  0.6240  0.2847  1.1486
 2505SOL     OW19147   3.788   4.044   9.394  0.5744  0.2469 -0.0468
 2505SOL    HW119148   3.820   4.134   9.399 -0.1523  0.5059 -0.0213
 2505SOL    HW219149   3.794   4.009   9.482  1.1774  0.8346  0.1436
 2506SOL     OW19150   1.239   3.506   3.030  0.0065 -0.5075  0.0461
 2506SOL    HW119151   1.295   3.465   3.096 -2.1677  0.5219  2.5406
 2506SOL    HW219152   1.162   3.527   3.083  0.3861  1.1640 -0.0790
 2507SOL     OW19153   3.257   1.558   4.177  0.5989 -0.4973  0.0696
 2507SOL    HW119154   3.190   1.578   4.243  1.5941 -1.8327  1.4703
 2507SOL    HW219155   3.268   1.645   4.139  0.0579 -1.6102 -2.6072
 2508SOL     OW19156   4.405   4.223  17.106 -0.7246 -0.6021 -0.3522
 2508SOL    HW119157   4.460   4.274  17.046 -0.5086  0.1366  0.4706
 2508SOL    HW219158   4.467   4.210  17.178 -1.7569  0.3192  0.7004
 2509SOL     OW19159   4.569   4.425  12.014  0.4691  0.1440 -0.9601
 2509SOL    HW119160   4.630   4.414  12.088  1.0962  0.0086 -1.4974
 2509SOL    HW219161   4.572   4.521  12.009 -1.6680  0.0696 -3.3684
 2510SOL     OW19162   4.419   1.560   2.748 -0.3432  0.2533 -0.2316
 2510SOL    HW119163   4.339   1.515   2.774  0.3785 -1.8445 -1.6425
 2510SOL    HW219164   4.408   1.637   2.804  0.6381  1.0367 -1.0853
 2511SOL     OW19165   0.848   0.580   2.412 -0.4316 -0.3701  0.0672
 2511SOL    HW119166   0.804   0.664   2.423 -0.9859 -0.7171  0.5097
 2511SOL    HW219167   0.934   0.606   2.445 -1.2726 -0.4291  2.3343
 2512SOL     OW19168   3.598   2.320   0.950  0.0572 -0.6169 -0.4302
 2512SOL    HW119169   3.602   2.245   0.891  2.2140 -0.4816 -0.4574
 2512SOL    HW219170   3.672   2.365   0.910  0.5385 -0.5283  0.5497
 2513SOL     OW19171   0.122   2.055   8.648 -0.3711 -0.0557  0.5496
 2513SOL    HW119172   0.179   2.131   8.663 -2.8613  2.3386 -2.0607
 2513SOL    HW219173   0.137   2.004   8.727  0.6310 -2.7084 -1.3313
 2514SOL     OW19174   2.570   2.863  10.980  1.4427 -0.4525  0.9801
 2514SOL    HW119175   2.518   2.803  11.035  0.0272 -0.6185 -0.5274
 2514SOL    HW219176   2.632   2.805  10.935  1.1214  0.5437 -0.7311
 2515SOL     OW19177   2.707   3.141   6.314 -0.0900  0.3412  0.3267
 2515SOL    HW119178   2.733   3.050   6.297  0.9120  0.6075  0.4229
 2515SOL    HW219179   2.709   3.178   6.226 -1.1264  2.5787  1.2399
 2516SOL     OW19180   0.829   4.118   8.467 -0.1160 -0.2490 -0.6311
 2516SOL    HW119181   0.891   4.181   8.430 -0.6894 -0.0265 -1.2204
 2516SOL    HW219182   0.750   4.124   8.413 -0.0867  0.0148 -0.6461
 2517SOL     OW19183   1.642   3.031   3.556  0.1267 -0.2819 -0.1297
 2517SOL    HW119184   1.723   3.057   3.511  0.5504 -0.5058  0.5088
 2517SOL    HW219185   1.615   3.108   3.606 -0.5975 -0.4989 -0.2002
 2518SOL     OW19186   3.292   3.244   4.098  0.0601 -0.3994 -0.0890
 2518SOL    HW119187   3.364   3.307   4.101 -1.4185  1.2728  0.5286
 2518SOL    HW219188   3.314   3.195   4.177 -1.1130 -2.9220 -1.3604
 2519SOL     OW19189   1.977   0.372   8.526  0.0552 -0.4441 -0.0741
 2519SOL    HW119190   1.969   0.277   8.538 -3.5616 -0.4031 -2.1034
 2519SOL    HW219191   1.891   0.396   8.561  0.0349  0.5197 -0.7830
 2520SOL     OW19192   4.211   4.516   9.639  0.1616  0.3263  0.2162
 2520SOL    HW119193   4.145   4.534   9.705 -0.7692 -3.2692  0.2936
 2520SOL    HW219194   4.274   4.582   9.667  0.6997  0.4261 -1.2233
 2521SOL     OW19195   2.666   0.573   0.142 -0.8085 -0.3497  0.4887
 2521SOL    HW119196   2.762   0.577   0.151 -0.7903  2.8961 -1.0782
 2521SOL    HW219197   2.660   0.619   0.058  0.7729 -0.8142  0.1103
 2522SOL     OW19198   0.367   1.290   1.828 -0.3311 -0.0751 -0.1440
 2522SOL    HW119199   0.369   1.196   1.810 -0.5815 -0.1999  0.4846
 2522SOL    HW219200   0.455   1.291   1.864 -0.4531  0.1290  0.1428
 2523SOL     OW19201   1.441   3.226   3.585 -0.3238  0.3368 -0.4351
 2523SOL    HW119202   1.429   3.224   3.490  0.9766 -3.5399 -0.5397
 2523SOL    HW219203   1.518   3.282   3.596 -0.7829  1.5067 -3.2525
 2524SOL     OW19204   0.573   0.443   6.086 -0.0458 -0.2023 -0.2556
 2524SOL    HW119205   0.521   0.471   6.162  1.3142 -0.5411  0.8037
 2524SOL    HW219206   0.577   0.527   6.041 -0.1228  0.4208  0.8902
 2525SOL     OW19207   1.467   2.468   4.508 -0.3235  0.2748 -0.2369
 2525SOL    HW119208   1.511   2.494   4.428  1.6404 -1.3076  0.3173
 2525SOL    HW219209   1.471   2.543   4.567  0.6306 -0.0331  0.0963
 2526SOL     OW19210   3.679   0.161   8.812  0.1075 -0.6847  0.0210
 2526SOL    HW119211   3.775   0.155   8.813  0.0113 -2.2556 -0.5237
 2526SOL    HW219212   3.666   0.085   8.755 -1.4200  1.6393 -2.7293
 2527SOL     OW19213   0.682   0.066   6.915 -0.0663  0.0893  0.0020
 2527SOL    HW119214   0.676   4.720   6.963  0.5960 -0.0719 -0.1878
 2527SOL    HW219215   0.643   0.041   6.831 -2.0667 -0.0608  0.9733
 2528SOL     OW19216   3.666   1.150   7.447 -0.5261 -0.4236  0.3726
 2528SOL    HW119217   3.708   1.121   7.366  2.2677 -0.9628  1.9986
 2528SOL    HW219218   3.602   1.215   7.419 -0.1414  0.0803  0.6437
 2529SOL     OW19219   3.227   2.835   5.853 -0.0282  0.4236 -0.6977
 2529SOL    HW119220   3.188   2.818   5.767 -1.0752 -0.7233  0.0125
 2529SOL    HW219221   3.214   2.750   5.895  3.2190 -0.6152 -1.8202
 2530SOL     OW19222   3.306   0.607   9.371 -0.2263  0.3851 -0.0674
 2530SOL    HW119223   3.318   0.513   9.366 -0.2798  0.4549 -1.3499
 2530SOL    HW219224   3.254   0.611   9.452 -0.5512  0.9326 -0.2986
 2531SOL     OW19225   1.627   4.416   3.371  0.1531 -0.0112  0.1155
 2531SOL    HW119226   1.719   4.439   3.384 -0.3930  1.3964  1.4640
 2531SOL    HW219227   1.639   4.382   3.282  1.0142 -2.7232  1.2656
 2532SOL     OW19228   2.651   2.366   4.986  0.3873  0.2855 -0.0114
 2532SOL    HW119229   2.657   2.395   4.895  1.3092  1.4917  0.4249
 2532SOL    HW219230   2.638   2.272   4.971  0.1562  0.0626  1.6447
 2533SOL     OW19231   0.028   2.886   7.693  0.1827 -0.2748  0.3662
 2533SOL    HW119232   0.044   2.795   7.718 -0.2335  0.2633  2.5846
 2533SOL    HW219233   0.115   2.924   7.699 -0.0744  0.3622 -0.0062
 2534SOL     OW19234   3.377   1.215  16.778  0.3378 -0.1282 -0.0984
 2534SOL    HW119235   3.369   1.169  16.694 -1.1583 -0.3933  0.1902
 2534SOL    HW219236   3.460   1.177  16.806  0.7090 -2.4099 -4.2801
 2535SOL     OW19237   0.500   4.253   5.931  0.2725 -0.6191 -0.0071
 2535SOL    HW119238   0.514   4.310   6.006  1.4172  1.1812 -1.5840
 2535SOL    HW219239   0.407   4.229   5.927  0.4824 -1.6873  1.8479
 2536SOL     OW19240   1.560   2.575   8.551 -0.3891 -0.5225 -0.1655
 2536SOL    HW119241   1.516   2.547   8.630  1.5959 -2.4431  0.2613
 2536SOL    HW219242   1.595   2.664   8.555  2.1177 -1.5073 -0.3427
 2537SOL     OW19243   1.543   3.089   2.702 -0.0708  0.0073 -0.4498
 2537SOL    HW119244   1.466   3.144   2.711 -0.6703 -0.9198 -0.0002
 2537SOL    HW219245   1.556   3.096   2.607  0.4921  3.6160 -0.0949
 2538SOL     OW19246   3.508   1.345   8.083 -0.1224  0.2448 -0.2611
 2538SOL    HW119247   3.444   1.290   8.129 -1.7614  2.1430 -0.2963
 2538SOL    HW219248   3.527   1.293   8.005 -0.1589  0.5531 -0.4743
 2539SOL     OW19249   0.754   2.860  10.552  0.1054 -0.2468  0.0413
 2539SOL    HW119250   0.773   2.781  10.502 -1.5525 -0.1607 -0.7426
 2539SOL    HW219251   0.832   2.913  10.535 -0.4107 -0.1672 -2.0554
 2540SOL     OW19252   2.680   0.503   8.526  0.0926  0.6383  0.6459
 2540SOL    HW119253   2.666   0.437   8.595 -0.0276 -1.1274 -1.0767
 2540SOL    HW219254   2.593   0.494   8.487 -0.1477  1.6342  0.9425
 2541SOL     OW19255   0.816   4.578   5.913  0.1128 -0.7439  0.2510
 2541SOL    HW119256   0.901   4.545   5.886  1.2894  1.1814  1.6413
 2541SOL    HW219257   0.827   4.602   6.005  1.2899 -0.3298 -0.0020
 2542SOL     OW19258   1.005   3.781   4.936 -0.3989  0.2274 -0.0266
 2542SOL    HW119259   1.044   3.694   4.943  0.6432  0.7635  0.7968
 2542SOL    HW219260   0.996   3.774   4.841 -1.3927  0.5455  0.0367
 2543SOL     OW19261   1.147   0.293   5.883 -0.0042  0.0264 -0.2995
 2543SOL    HW119262   1.120   0.234   5.813 -2.1360  0.4680  0.1776
 2543SOL    HW219263   1.117   0.236   5.953  0.7406 -0.4306 -0.3495
 2544SOL     OW19264   0.160   1.351   2.143  0.2598 -0.4635  0.7348
 2544SOL    HW119265   0.076   1.369   2.185  0.3238  0.8163  0.3242
 2544SOL    HW219266   0.158   1.407   2.066  1.7014 -0.4952  0.6779
 2545SOL     OW19267   2.007   1.170   5.482 -0.5228  0.5129 -0.0190
 2545SOL    HW119268   2.086   1.175   5.537  0.9920  0.5015 -2.2199
 2545SOL    HW219269   2.035   1.091   5.437  1.0399  1.0259  0.0538
 2546SOL     OW19270   2.182   2.548   9.295  1.2964 -0.4156  0.4550
 2546SOL    HW119271   2.246   2.614   9.323  2.2148 -1.7614  1.4917
 2546SOL    HW219272   2.235   2.483   9.250  1.5745 -0.4949  0.8936
 2547SOL     OW19273   0.226   1.412  11.121 -0.5660  0.5696  0.2007
 2547SOL    HW119274   0.274   1.329  11.117  0.1307  0.9035  1.6308
 2547SOL    HW219275   0.161   1.404  11.190  1.3790  2.4886  2.2666
 2548SOL     OW19276   1.055   3.526  12.162  0.7223 -0.5825  0.3209
 2548SOL    HW119277   1.001   3.561  12.091  0.1713  0.2178  1.1435
 2548SOL    HW219278   1.138   3.539  12.115  0.0554 -0.0541 -0.7346
 2549SOL     OW19279   0.492   2.789   6.571 -0.1023 -0.0873  0.4059
 2549SOL    HW119280   0.437   2.864   6.595 -2.0930 -1.6393  0.7167
 2549SOL    HW219281   0.466   2.725   6.637 -1.0163 -0.2038 -0.0676
 2550SOL     OW19282   2.046   3.762   1.953  0.1448  0.2428  0.8096
 2550SOL    HW119283   1.998   3.700   2.008  1.1866 -0.5557  0.8119
 2550SOL    HW219284   2.058   3.710   1.873  1.1712  1.9183 -0.1338
 2551SOL     OW19285   2.890   2.324   9.080 -0.7062 -0.0331  0.1433
 2551SOL    HW119286   2.863   2.369   9.000  0.2185 -0.5564 -0.4519
 2551SOL    HW219287   2.972   2.368   9.102  1.3547 -4.2428  0.8416
 2552SOL     OW19288   4.658   3.619   8.884 -0.0138  0.5639 -0.8195
 2552SOL    HW119289   4.727   3.592   8.824  1.0294 -0.9073  1.0527
 2552SOL    HW219290   4.702   3.617   8.969  0.9082  1.8844 -1.2765
 2553SOL     OW19291   0.845   2.854   3.357 -0.2285 -0.1675 -0.5765
 2553SOL    HW119292   0.810   2.809   3.280 -2.1312 -0.0522  0.2446
 2553SOL    HW219293   0.770   2.837   3.413 -1.5790  0.7164 -2.1143
 2554SOL     OW19294   2.253   2.469  15.481  0.0037 -0.0997  1.0621
 2554SOL    HW119295   2.229   2.389  15.434 -1.4475  1.1764 -0.3964
 2554SOL    HW219296   2.176   2.468  15.538 -1.8073 -1.2445 -1.4049
 2555SOL     OW19297   1.115   4.399   1.964 -0.5548 -0.0633  0.3041
 2555SOL    HW119298   1.083   4.486   1.937  0.2617 -0.0913 -0.7507
 2555SOL    HW219299   1.141   4.352   1.885 -1.6851  0.2564 -0.2627
 2556SOL     OW19300   3.389   3.039   4.735  0.3424 -0.3865 -0.4081
 2556SOL    HW119301   3.354   2.967   4.682  0.6867 -0.7283 -0.1801
 2556SOL    HW219302   3.459   2.993   4.781  0.5823  1.1584  0.7612
 2557SOL     OW19303   2.302   1.554  16.485  1.0264  0.9342 -0.3021
 2557SOL    HW119304   2.230   1.518  16.536  0.7540 -0.4988 -1.7056
 2557SOL    HW219305   2.363   1.555  16.559 -1.7815  2.2086  1.9988
 2558SOL     OW19306   2.355   0.005   5.131 -0.8029  0.2124 -0.0866
 2558SOL    HW119307   2.337   4.666   5.075 -1.0634 -1.2490  1.9618
 2558SOL    HW219308   2.438   0.036   5.095  0.3872 -0.8989  1.6627
 2559SOL     OW19309   0.336   0.987  16.622  0.1922  0.5698  0.9176
 2559SOL    HW119310   0.390   1.058  16.656 -0.0858  0.5453  1.4080
 2559SOL    HW219311   0.256   1.031  16.594  0.0134 -0.0564  0.4301
 2560SOL     OW19312   1.828   2.742  10.035 -0.2168  0.2597  0.0738
 2560SOL    HW119313   1.886   2.758   9.960 -1.2722  0.5037 -0.6859
 2560SOL    HW219314   1.858   2.813  10.092 -1.3174 -0.6904  1.8166
 2561SOL     OW19315   4.381   2.496  11.583 -0.0567  0.1586  0.2814
 2561SOL    HW119316   4.323   2.569  11.563 -0.2398 -0.3046 -0.8984
 2561SOL    HW219317   4.421   2.476  11.498  0.7406 -0.2903  0.7566
 2562SOL     OW19318   3.906   2.110   6.295 -0.0591  0.6106 -0.3787
 2562SOL    HW119319   3.956   2.100   6.377 -0.1713 -1.1194 -0.5174
 2562SOL    HW219320   3.944   2.037   6.246  0.1565  0.3994  0.0978
 2563SOL     OW19321   4.124   1.843   3.607  0.3263  0.9064  0.2686
 2563SOL    HW119322   4.072   1.919   3.630 -0.1686  0.7734 -0.3943
 2563SOL    HW219323   4.206   1.856   3.655  1.7325 -0.4213 -1.7557
 2564SOL     OW19324   3.161   3.818  12.723  0.1012 -0.0573 -0.3069
 2564SOL    HW119325   3.247   3.794  12.691  1.2541 -0.8594  3.4291
 2564SOL    HW219326   3.186   3.904  12.757 -0.4605  0.3286 -0.8704
 2565SOL     OW19327   3.398   4.075   3.442 -0.2586  0.2207  0.5790
 2565SOL    HW119328   3.356   4.035   3.367  2.0763 -0.7371 -0.2244
 2565SOL    HW219329   3.356   4.161   3.447 -1.2315 -0.2407  0.2623
 2566SOL     OW19330   2.459   2.247   7.576  0.3398 -0.0311  0.4724
 2566SOL    HW119331   2.391   2.187   7.544 -1.1766  1.3434  1.1229
 2566SOL    HW219332   2.499   2.202   7.650  1.0660 -0.9886 -0.5054
 2567SOL     OW19333   2.349   0.403  10.013  0.2547  0.1966 -0.5034
 2567SOL    HW119334   2.417   0.470  10.004 -0.6878  1.2348  0.2156
 2567SOL    HW219335   2.314   0.407   9.924  0.3380 -0.8447 -0.5800
 2568SOL     OW19336   0.337   1.836   4.841  0.5896  0.0334 -0.2731
 2568SOL    HW119337   0.354   1.926   4.871 -0.7110 -0.3144  1.5349
 2568SOL    HW219338   0.253   1.849   4.796  0.2979 -0.1421  0.2190
 2569SOL     OW19339   4.648   2.540   2.070  0.4022 -0.0797 -0.1750
 2569SOL    HW119340   4.621   2.607   2.007  2.9242 -1.6854 -2.9640
 2569SOL    HW219341   4.710   2.584   2.128  1.7686 -1.0553 -0.8951
 2570SOL     OW19342   3.938   1.061  17.025  0.2911  0.4703 -1.0285
 2570SOL    HW119343   3.890   1.140  17.050 -1.6854 -0.8089 -0.8489
 2570SOL    HW219344   4.011   1.070  17.087 -0.6187 -1.2390  0.2805
 2571SOL     OW19345   2.818   4.721   8.525  0.4200 -0.4177 -0.4223
 2571SOL    HW119346   2.815   0.054   8.459 -1.4227 -1.0911 -1.0693
 2571SOL    HW219347   2.776   0.020   8.603  0.9918 -1.0693  0.1733
 2572SOL     OW19348   1.057   2.945   7.955  0.0295  0.1447  0.5603
 2572SOL    HW119349   1.086   3.001   8.026  0.9031  0.2395  0.1206
 2572SOL    HW219350   1.140   2.932   7.910 -0.3957  0.9536 -0.4765
 2573SOL     OW19351   3.103   2.292  17.640 -0.1047  0.3096  0.5676
 2573SOL    HW119352   3.057   2.320  17.719  0.9844 -0.9444  1.6381
 2573SOL    HW219353   3.138   2.373  17.601 -0.9783  1.2407  1.7063
 2574SOL     OW19354   4.332   2.400   0.883 -0.0505 -0.2300 -0.9113
 2574SOL    HW119355   4.280   2.398   0.963  0.2613  1.5462 -0.6644
 2574SOL    HW219356   4.261   2.379   0.822 -1.5950  0.2704  0.7048
 2575SOL     OW19357   0.441   3.213   6.244  0.2498  0.2230  0.0771
 2575SOL    HW119358   0.479   3.145   6.300  0.8875  2.0481  1.8634
 2575SOL    HW219359   0.351   3.203   6.274 -0.1818 -1.3806 -1.8383
 2576SOL     OW19360   1.353   0.960   5.661 -0.8959 -0.1414 -0.4355
 2576SOL    HW119361   1.266   0.966   5.701  0.0772 -1.1301  1.8774
 2576SOL    HW219362   1.342   0.955   5.566 -0.6519 -1.3831 -0.4040
 2577SOL     OW19363   1.743   3.413   8.126 -0.4609 -0.1033 -0.1294
 2577SOL    HW119364   1.735   3.318   8.116  1.6078 -0.2536 -0.2587
 2577SOL    HW219365   1.704   3.440   8.043 -3.8023 -3.2892  0.3844
 2578SOL     OW19366   0.832   0.056   3.956  0.4329  0.0469  0.0302
 2578SOL    HW119367   0.804   0.016   4.039 -2.8959 -0.9029 -1.5586
 2578SOL    HW219368   0.768   0.008   3.903 -0.1305 -0.6521  1.3294
 2579SOL     OW19369   1.653   0.672   3.824  0.3716 -0.4056  0.1410
 2579SOL    HW119370   1.741   0.697   3.854  0.8977 -0.4963 -1.3382
 2579SOL    HW219371   1.621   0.623   3.899 -0.4872 -0.2870 -0.1568
 2580SOL     OW19372   2.503   1.887   9.597  0.1851 -0.1806  0.5380
 2580SOL    HW119373   2.547   1.805   9.575 -0.5007  0.0092 -1.4676
 2580SOL    HW219374   2.520   1.897   9.691 -0.6550 -0.4669  0.7242
 2581SOL     OW19375   2.222   3.294  15.493 -0.1461 -0.1534 -0.1362
 2581SOL    HW119376   2.201   3.226  15.558  0.8813 -0.3108  0.0313
 2581SOL    HW219377   2.133   3.327  15.479 -0.1623 -0.6448 -1.2214
 2582SOL     OW19378   0.308   4.246   3.937 -0.2606 -0.2498  0.2149
 2582SOL    HW119379   0.400   4.261   3.912 -0.2790  0.6657  0.6790
 2582SOL    HW219380   0.297   4.264   4.030 -0.7196 -1.2287  0.3438
 2583SOL     OW19381   1.313   0.513   8.704  0.1194 -0.5823 -0.3539
 2583SOL    HW119382   1.341   0.559   8.625 -0.7785  1.3956  0.4856
 2583SOL    HW219383   1.234   0.475   8.666 -1.1345  0.4243  1.2391
 2584SOL     OW19384   0.919   4.267   2.863 -0.6829 -0.1246 -0.5166
 2584SOL    HW119385   0.877   4.331   2.921  0.8196  0.2077  0.2072
 2584SOL    HW219386   0.853   4.241   2.800 -0.6035 -2.5945  0.4360
 2585SOL     OW19387   2.667   3.254   4.768  0.0902 -0.0771 -0.1366
 2585SOL    HW119388   2.705   3.337   4.795 -1.4681  1.1114 -1.5883
 2585SOL    HW219389   2.580   3.278   4.738  0.0828 -0.0075 -0.0570
 2586SOL     OW19390   2.878   0.933   3.380 -0.0512  0.5993  0.4724
 2586SOL    HW119391   2.932   0.885   3.318  1.2863  0.4838  1.7285
 2586SOL    HW219392   2.791   0.933   3.339 -0.2252  0.0513  0.8336
 2587SOL     OW19393   4.284   2.956  15.012 -0.3338  0.7474 -0.6111
 2587SOL    HW119394   4.322   2.988  14.930  1.8786 -1.8824 -0.5764
 2587SOL    HW219395   4.225   2.891  14.974  0.7683 -1.5028  1.5171
 2588SOL     OW19396   1.580   2.595   5.909  0.4900  0.1618  0.2952
 2588SOL    HW119397   1.536   2.586   5.825  1.1094  2.5767 -0.3001
 2588SOL    HW219398   1.504   2.621   5.961  0.5483  0.4575  0.2367
 2589SOL     OW19399   2.333   2.595   1.570 -0.1517  0.5231  0.1954
 2589SOL    HW119400   2.404   2.655   1.547  0.0465  0.7160  1.2868
 2589SOL    HW219401   2.390   2.531   1.614  0.7106  1.3214  0.2437
 2590SOL     OW19402   1.405   4.530   7.352 -0.3379 -0.2634 -0.0049
 2590SOL    HW119403   1.493   4.558   7.325 -0.0909 -0.7808  0.2699
 2590SOL    HW219404   1.384   4.484   7.271 -0.0959 -0.8418  0.2646
 2591SOL     OW19405   4.429   1.127   5.026 -0.3887  0.0525 -0.2302
 2591SOL    HW119406   4.379   1.207   5.041 -1.5033 -0.0751 -3.3505
 2591SOL    HW219407   4.462   1.133   4.936  0.4501  2.3083  0.2211
 2592SOL     OW19408   3.849   2.527   6.294  0.2126  0.0263 -0.3247
 2592SOL    HW119409   3.828   2.510   6.202 -0.3672 -0.7230 -0.0583
 2592SOL    HW219410   3.852   2.438   6.329  0.4203 -0.2390 -1.0098
 2593SOL     OW19411   1.962   0.345   5.317  0.1845  0.2973 -0.2451
 2593SOL    HW119412   2.016   0.290   5.260 -0.9887 -0.2461 -0.8307
 2593SOL    HW219413   2.022   0.355   5.391 -0.1639  0.6926 -0.0162
 2594SOL     OW19414   0.497   2.544   6.428 -0.1795 -0.5342 -0.2633
 2594SOL    HW119415   0.589   2.557   6.407  0.2268  0.5363  2.1506
 2594SOL    HW219416   0.478   2.634   6.456 -1.8605 -1.2627  0.9989
 2595SOL     OW19417   4.544   1.903   3.809  0.0901  0.4747 -0.2700
 2595SOL    HW119418   4.454   1.871   3.810  0.2750 -0.0677 -1.5350
 2595SOL    HW219419   4.552   1.921   3.903 -1.0144  0.0913 -0.1010
 2596SOL     OW19420   0.608   3.300   0.053  0.3673  0.0726 -0.1084
 2596SOL    HW119421   0.613   3.232  17.732  0.9574  0.3128 -0.3088
 2596SOL    HW219422   0.579   3.376   0.002 -1.3327 -0.5333 -0.0393
 2597SOL     OW19423   1.752   1.123   7.290  0.9236 -0.2225 -0.1569
 2597SOL    HW119424   1.665   1.130   7.251  1.8964 -2.0285 -2.6092
 2597SOL    HW219425   1.767   1.216   7.307  0.4355 -0.2499  0.4201
 2598SOL     OW19426   3.767   0.921   6.165 -0.3179 -0.4223  0.3493
 2598SOL    HW119427   3.748   1.015   6.173  0.8768 -0.1318 -0.2360
 2598SOL    HW219428   3.709   0.886   6.233 -1.2157  0.7567  0.1829
 2599SOL     OW19429   2.144   2.809  11.565  0.0965 -0.0544 -0.2407
 2599SOL    HW119430   2.233   2.774  11.562 -0.4069 -1.5157  2.0119
 2599SOL    HW219431   2.157   2.856  11.648  0.6861  1.6020 -1.2757
 2600SOL     OW19432   0.853   1.458   2.099  0.1928 -0.1038 -0.1073
 2600SOL    HW119433   0.921   1.496   2.154  0.1237  0.7169 -0.6027
 2600SOL    HW219434   0.792   1.441   2.172 -1.3355 -1.2841 -1.6540
 2601SOL     OW19435   1.916   4.125   6.592  0.0360 -0.1706 -0.4185
 2601SOL    HW119436   1.983   4.098   6.654 -0.4239 -0.9356 -0.2529
 2601SOL    HW219437   1.941   4.063   6.523 -0.8343 -0.6088 -0.3381
 2602SOL     OW19438   4.686   2.887  15.027  0.5848  0.3788 -0.3322
 2602SOL    HW119439   4.599   2.863  15.057  1.2830 -0.5638  0.9471
 2602SOL    HW219440   4.675   2.948  14.953  2.0963  1.2664  0.1702
 2603SOL     OW19441   2.000   4.730  13.063  0.2142  0.0096 -0.2161
 2603SOL    HW119442   1.910   0.019  13.086  0.5653  1.3574 -0.3797
 2603SOL    HW219443   2.015   4.662  13.129 -0.9450 -1.1289 -1.1192
 2604SOL     OW19444   2.891   2.846   7.041 -0.6241 -0.3658 -0.0323
 2604SOL    HW119445   2.980   2.814   7.054 -0.5567  0.2215  0.9457
 2604SOL    HW219446   2.877   2.872   7.132 -1.9115  1.0479 -0.6474
 2605SOL     OW19447   1.106   2.692   5.539  0.9781  0.2377 -0.2328
 2605SOL    HW119448   1.054   2.718   5.615 -1.6788  1.5850 -2.5210
 2605SOL    HW219449   1.185   2.662   5.583  1.0491 -0.7505 -1.0196
 2606SOL     OW19450   0.074   3.248  17.590 -0.3237  0.3294 -0.5745
 2606SOL    HW119451   0.144   3.194  17.554 -0.2109 -0.7950  1.3057
 2606SOL    HW219452   0.123   3.321  17.625 -0.4054 -0.4772  1.2313
 2607SOL     OW19453   2.897   1.646   5.535 -0.3102 -0.4000  0.4294
 2607SOL    HW119454   2.950   1.585   5.484  1.8072 -0.2152  2.3885
 2607SOL    HW219455   2.963   1.715   5.546 -0.9238  0.4901 -1.4909
 2608SOL     OW19456   0.551   4.729   6.684 -0.1894  0.3183  0.7927
 2608SOL    HW119457   0.516   4.645   6.712  2.4722 -1.1270 -0.1628
 2608SOL    HW219458   0.475   0.017   6.631  0.5178 -0.6802 -0.7041
 2609SOL     OW19459   1.816   2.762   5.892 -0.0106 -0.1605 -0.1088
 2609SOL    HW119460   1.737   2.708   5.899  0.6056 -1.0283  0.1294
 2609SOL    HW219461   1.859   2.739   5.974 -0.8208  3.1700  1.2293
 2610SOL     OW19462   0.767   3.537  10.284 -1.0517  0.3525  0.0084
 2610SOL    HW119463   0.786   3.448  10.253 -0.7587  0.5799 -0.4632
 2610SOL    HW219464   0.787   3.529  10.377 -0.0456 -0.8921 -0.3102
 2611SOL     OW19465   0.883   1.195  11.381  0.6122 -0.1033  0.1594
 2611SOL    HW119466   0.953   1.212  11.318 -0.6041  1.4653 -0.7480
 2611SOL    HW219467   0.843   1.122  11.334 -1.0613  0.0349  1.3763
 2612SOL     OW19468   2.847   0.152   3.434 -0.6264  0.4734 -0.5258
 2612SOL    HW119469   2.837   0.071   3.483  1.2374  1.4587  1.4951
 2612SOL    HW219470   2.763   0.196   3.439 -0.7406 -0.0240  1.8891
 2613SOL     OW19471   3.803   2.953   3.802  0.3216 -0.2551  0.0221
 2613SOL    HW119472   3.763   2.929   3.886  1.7416 -1.2496  0.3977
 2613SOL    HW219473   3.805   2.869   3.757  3.3467  0.2683 -0.7774
 2614SOL     OW19474   1.272   2.456   2.354 -0.2088 -0.0939  0.0553
 2614SOL    HW119475   1.194   2.447   2.409 -1.2730 -1.0691 -1.6305
 2614SOL    HW219476   1.254   2.543   2.320 -0.0796  0.0161  0.2680
 2615SOL     OW19477   0.043   0.031   9.758 -0.3096 -0.2602 -0.1721
 2615SOL    HW119478   0.078   0.090   9.825 -0.2505  0.6255 -0.9877
 2615SOL    HW219479   0.047   4.685   9.805 -2.4843 -0.3968 -0.2322
 2616SOL     OW19480   4.127   1.533   2.747  0.6109  0.4516 -0.1217
 2616SOL    HW119481   4.052   1.512   2.803  1.4412  0.2972  0.9414
 2616SOL    HW219482   4.171   1.452   2.723 -0.7436  0.5847 -2.9782
 2617SOL     OW19483   1.804   3.373   6.155 -0.3055 -0.2645  0.1345
 2617SOL    HW119484   1.888   3.419   6.154  0.2009 -1.1686  1.1608
 2617SOL    HW219485   1.795   3.347   6.063 -0.8793  0.3587  0.0158
 2618SOL     OW19486   0.110   0.506   5.803 -0.1440 -0.0239 -0.0563
 2618SOL    HW119487   0.146   0.567   5.738 -0.0472 -0.1231 -0.0947
 2618SOL    HW219488   0.038   0.461   5.760  0.8107 -0.3619 -1.3079
 2619SOL     OW19489   2.203   3.829  10.377 -0.3553 -0.8137 -0.4160
 2619SOL    HW119490   2.189   3.750  10.325  0.4936 -2.1558  1.4123
 2619SOL    HW219491   2.148   3.897  10.338 -0.4161 -0.8234 -0.3476
 2620SOL     OW19492   2.551   0.786   3.182  0.2816  0.3224  0.6911
 2620SOL    HW119493   2.618   0.802   3.116 -0.7932  1.2782 -0.1708
 2620SOL    HW219494   2.478   0.758   3.127  0.6831 -0.9916  0.8123
 2621SOL     OW19495   0.493   2.066   6.693  0.2202  0.1839  0.4922
 2621SOL    HW119496   0.460   2.145   6.650  0.2036 -0.1727 -0.1495
 2621SOL    HW219497   0.576   2.064   6.646  0.3393  0.2720  0.6977
 2622SOL     OW19498   2.565   3.822   9.407 -0.0943 -0.0090  0.5836
 2622SOL    HW119499   2.634   3.835   9.472  0.5194  1.2094 -0.3254
 2622SOL    HW219500   2.619   3.766   9.351 -2.6711 -0.0126 -1.9035
 2623SOL     OW19501   3.109   1.332  17.409 -0.0292  0.4502  0.4025
 2623SOL    HW119502   3.166   1.408  17.418 -0.9350  1.0470  1.0795
 2623SOL    HW219503   3.055   1.357  17.334 -0.3741 -1.4063  0.0287
 2624SOL     OW19504   3.589   4.331   2.800 -0.6551 -0.0472 -0.4810
 2624SOL    HW119505   3.554   4.399   2.859  0.4027  1.1064 -1.1869
 2624SOL    HW219506   3.528   4.259   2.814  1.1691 -1.3877  0.6124
 2625SOL     OW19507   2.737   2.858   4.158 -0.0098  0.1034 -0.2817
 2625SOL    HW119508   2.825   2.831   4.184 -0.6424 -1.7661 -0.0970
 2625SOL    HW219509   2.747   2.953   4.149  0.9572 -0.1634 -2.1152
 2626SOL     OW19510   3.493   0.488   6.518 -0.0774  0.5122  0.0556
 2626SOL    HW119511   3.407   0.531   6.511 -1.7743 -2.8663  0.3192
 2626SOL    HW219512   3.513   0.469   6.427 -1.7563 -0.5659 -0.0771
 2627SOL     OW19513   3.860   1.000   2.835  0.0519 -0.1667  0.5456
 2627SOL    HW119514   3.798   0.931   2.857 -1.0849  0.0725 -1.9360
 2627SOL    HW219515   3.947   0.970   2.864 -0.8416 -2.9019  0.4232
 2628SOL     OW19516   1.029   0.904  15.673  0.1743  0.8236 -0.1695
 2628SOL    HW119517   1.060   0.931  15.759  4.2483  0.3425 -1.4380
 2628SOL    HW219518   0.935   0.918  15.671 -0.1529 -1.0358  1.8232
 2629SOL     OW19519   0.654   3.233  16.642 -0.3383  0.3002  0.0244
 2629SOL    HW119520   0.701   3.173  16.584  1.0224 -0.6067  2.0475
 2629SOL    HW219521   0.702   3.312  16.617  3.1653 -1.8636 -0.1522
 2630SOL     OW19522   3.911   1.162   2.629 -0.3442  0.7981 -0.2258
 2630SOL    HW119523   3.836   1.140   2.572 -1.2045 -0.3169  1.3274
 2630SOL    HW219524   3.889   1.117   2.711 -0.9860 -0.5147 -1.1033
 2631SOL     OW19525   0.509   3.080   4.517 -0.2193 -0.2871 -0.2615
 2631SOL    HW119526   0.424   3.094   4.476  0.0709 -0.0816 -0.7928
 2631SOL    HW219527   0.483   3.083   4.609  0.8009 -1.9113  0.0712
 2632SOL     OW19528   1.197   3.833  12.570 -0.2124  0.2728 -0.0224
 2632SOL    HW119529   1.104   3.858  12.576  0.2097  1.9491 -0.3242
 2632SOL    HW219530   1.231   3.891  12.638 -1.9081  0.4001  0.7360
 2633SOL     OW19531   0.821   4.185   7.763 -0.0508 -0.3629  0.4910
 2633SOL    HW119532   0.748   4.185   7.702  2.3584  0.8631 -2.4263
 2633SOL    HW219533   0.833   4.277   7.787  1.1625 -0.4254  0.1341
 2634SOL     OW19534   1.531   1.253  15.934  0.0435 -0.1424 -0.1050
 2634SOL    HW119535   1.511   1.169  15.974  1.4066 -0.8099 -0.8210
 2634SOL    HW219536   1.597   1.223  15.871 -0.7363 -0.9581 -0.5401
 2635SOL     OW19537   2.702   1.153   3.738 -0.0061 -0.3744  0.5558
 2635SOL    HW119538   2.688   1.194   3.652 -2.9626 -2.3175  0.1129
 2635SOL    HW219539   2.671   1.062   3.734 -2.5081  0.5137 -0.1323
 2636SOL     OW19540   3.869   4.418   7.149 -0.5775  0.3925 -0.2537
 2636SOL    HW119541   3.813   4.389   7.077 -0.0921  0.0293 -0.4886
 2636SOL    HW219542   3.907   4.332   7.168 -0.4926  0.7072  0.9846
 2637SOL     OW19543   1.399   2.337  17.210 -0.0887 -0.3307 -0.4410
 2637SOL    HW119544   1.318   2.310  17.254  0.0353 -0.5431 -0.3452
 2637SOL    HW219545   1.385   2.276  17.138 -1.0665 -0.3235 -0.2596
 2638SOL     OW19546   0.853   3.904   7.818 -0.5678 -0.1556  0.0126
 2638SOL    HW119547   0.834   3.998   7.821 -0.6802 -0.1690 -0.2865
 2638SOL    HW219548   0.946   3.903   7.840 -0.5522  1.2934  0.0122
 2639SOL     OW19549   4.463   3.244   6.604 -0.2016  0.4526 -0.3121
 2639SOL    HW119550   4.396   3.180   6.626 -2.7504  3.8763  1.8410
 2639SOL    HW219551   4.454   3.305   6.677  0.1908 -0.0884  0.1986
 2640SOL     OW19552   4.410   3.802   3.484  0.2624 -0.2367  0.3369
 2640SOL    HW119553   4.440   3.787   3.394  1.6162  0.3680  0.6912
 2640SOL    HW219554   4.427   3.719   3.530 -0.9453 -0.0721  1.0696
 2641SOL     OW19555   0.172   3.618   8.323  0.1969 -0.1558 -0.5846
 2641SOL    HW119556   0.101   3.580   8.272 -0.4331 -1.1256  1.0260
 2641SOL    HW219557   0.178   3.708   8.292  0.5614 -0.7056 -2.1448
 2642SOL     OW19558   4.160   3.390  13.144  0.0647  0.2369 -0.2548
 2642SOL    HW119559   4.118   3.457  13.198 -1.8338 -0.3973 -0.9216
 2642SOL    HW219560   4.170   3.444  13.066 -1.0530 -0.8709 -1.1747
 2643SOL     OW19561   0.224   2.256   3.975  0.4215  0.1931 -0.4003
 2643SOL    HW119562   0.263   2.340   3.997  1.6995 -0.3403 -0.6488
 2643SOL    HW219563   0.136   2.278   3.943 -0.2395 -1.2026  0.4737
 2644SOL     OW19564   0.474   1.180   6.729 -0.2492 -0.1314 -0.4972
 2644SOL    HW119565   0.487   1.270   6.759  0.0086 -0.3550  0.0629
 2644SOL    HW219566   0.451   1.134   6.810 -0.1670  2.6103  1.1010
 2645SOL     OW19567   0.414   1.422  16.501  0.3741  0.0614 -0.3249
 2645SOL    HW119568   0.486   1.421  16.437  0.7150 -2.1199  0.0760
 2645SOL    HW219569   0.344   1.399  16.440  0.8629  2.1677 -1.6702
 2646SOL     OW19570   4.404   0.732   8.463  0.7283 -0.2571 -0.0282
 2646SOL    HW119571   4.453   0.815   8.469  0.6135 -0.1477 -0.6922
 2646SOL    HW219572   4.316   0.768   8.453  0.6688  0.0929  1.5890
 2647SOL     OW19573   1.962   2.480   3.963 -0.1868  0.0857  0.3788
 2647SOL    HW119574   1.890   2.418   3.958  0.4616 -0.7283  1.2148
 2647SOL    HW219575   1.911   2.560   3.947  1.7189  2.0113  3.7529
 2648SOL     OW19576   3.803   2.601  16.888 -0.1222  0.2976 -0.2920
 2648SOL    HW119577   3.863   2.588  16.961 -0.5568 -0.5304 -0.0864
 2648SOL    HW219578   3.811   2.514  16.848  5.1526  0.9790 -0.7587
 2649SOL     OW19579   0.747   4.509   3.252 -0.0048  1.5421  0.4023
 2649SOL    HW119580   0.793   4.513   3.336 -1.4165  0.7516  1.1969
 2649SOL    HW219581   0.655   4.504   3.275 -0.2848 -1.1375 -1.3540
 2650SOL     OW19582   3.317   2.480   2.627 -0.5119 -0.5297 -0.0999
 2650SOL    HW119583   3.335   2.512   2.538  0.5641  1.2155  0.7527
 2650SOL    HW219584   3.379   2.411   2.648 -0.2597 -0.0706  0.6629
 2651SOL     OW19585   1.897   3.447   1.516 -0.2545 -0.0152 -0.1405
 2651SOL    HW119586   1.804   3.426   1.513  0.1399 -1.7830  0.1274
 2651SOL    HW219587   1.883   3.541   1.508 -1.1645 -0.2459 -1.3754
 2652SOL     OW19588   1.235   1.095   3.241 -0.5327  0.3728 -0.0322
 2652SOL    HW119589   1.276   1.038   3.305  1.0262  0.6800 -0.7665
 2652SOL    HW219590   1.306   1.123   3.183  0.5907 -0.1614  1.0970
 2653SOL     OW19591   0.724   1.682   6.287  0.7316  0.1690 -0.4013
 2653SOL    HW119592   0.790   1.731   6.238  0.0499  1.9165  0.4342
 2653SOL    HW219593   0.695   1.618   6.223  0.2878 -0.0367  0.0070
 2654SOL     OW19594   0.849   1.609   7.403 -0.3845 -0.0999 -0.5538
 2654SOL    HW119595   0.814   1.529   7.441 -2.1319  0.2960 -1.3395
 2654SOL    HW219596   0.812   1.609   7.314 -1.6984  0.3197 -0.0061
 2655SOL     OW19597   0.881   0.037   5.095 -0.2879 -0.1529  0.2688
 2655SOL    HW119598   0.786   0.041   5.104 -0.2835 -1.9725  1.0997
 2655SOL    HW219599   0.915   0.085   5.019  0.5303 -0.1212  0.6520
 2656SOL     OW19600   4.228   2.794   3.702  0.0335  0.0931  0.0714
 2656SOL    HW119601   4.153   2.777   3.759 -0.3637 -0.1281 -0.5242
 2656SOL    HW219602   4.227   2.733   3.628 -0.0645 -1.9821  1.7561
 2657SOL     OW19603   4.402   1.537  10.569  0.4637 -0.2914 -0.2725
 2657SOL    HW119604   4.317   1.530  10.524 -0.2063 -0.9640  1.0974
 2657SOL    HW219605   4.435   1.618  10.531 -1.0180  0.0445 -0.8459
 2658SOL     OW19606   4.476   3.768   3.212 -0.1229 -0.1396  0.2285
 2658SOL    HW119607   4.441   3.726   3.133  2.0301  0.2392 -0.9328
 2658SOL    HW219608   4.494   3.855   3.178  2.7251 -1.0266 -0.5301
 2659SOL     OW19609   2.742   2.167   1.562  0.4787  0.6867 -0.1506
 2659SOL    HW119610   2.832   2.190   1.538  0.7650  0.4866  0.7055
 2659SOL    HW219611   2.752   2.073   1.547  1.6141  0.6656  0.6777
 2660SOL     OW19612   2.368   2.123   6.213 -0.1936 -0.0809  0.5300
 2660SOL    HW119613   2.435   2.121   6.281  0.1176 -1.8934  0.1696
 2660SOL    HW219614   2.331   2.038   6.236  0.4190 -0.1518  1.2400
 2661SOL     OW19615   3.446   0.620  16.349 -0.4145 -0.5809 -0.3525
 2661SOL    HW119616   3.486   0.536  16.369  2.1587  1.1455  1.8550
 2661SOL    HW219617   3.395   0.603  16.271  0.1127 -0.6952 -0.6744
 2662SOL     OW19618   3.563   1.063   0.373  0.2662 -0.1102  0.3958
 2662SOL    HW119619   3.653   1.032   0.369  0.8803  1.7814 -0.8372
 2662SOL    HW219620   3.575   1.157   0.387 -0.4727  0.0668 -0.1425
 2663SOL     OW19621   4.445   1.530   5.481 -0.3995 -0.0418  0.0223
 2663SOL    HW119622   4.538   1.508   5.474 -1.3878 -3.5340 -2.0937
 2663SOL    HW219623   4.428   1.538   5.575  0.1985  1.3574  0.0095
 2664SOL     OW19624   0.170   3.270   3.967  0.7094 -0.9633  0.4591
 2664SOL    HW119625   0.189   3.336   3.900 -1.2362 -0.3697  0.5006
 2664SOL    HW219626   0.100   3.323   4.006  0.7675  0.4842 -1.4079
 2665SOL     OW19627   3.970   2.494   6.773 -0.4346 -0.3722 -0.1582
 2665SOL    HW119628   3.938   2.529   6.856  1.6135  0.0022  0.4603
 2665SOL    HW219629   3.955   2.401   6.787 -0.6678 -0.4427 -0.8852
 2666SOL     OW19630   2.138   3.118   4.988 -0.8632 -0.5880 -0.4651
 2666SOL    HW119631   2.047   3.089   4.999 -0.3653 -0.7178  3.3777
 2666SOL    HW219632   2.129   3.209   5.017  0.8231 -0.9085  1.0541
 2667SOL     OW19633   0.945   1.201   2.969 -0.8932 -0.0066 -0.4268
 2667SOL    HW119634   0.963   1.289   3.002  2.3154 -1.0231  0.4991
 2667SOL    HW219635   0.978   1.216   2.880  0.4754  0.2681  0.1321
 2668SOL     OW19636   1.436   0.816   3.784  0.2215  0.1168  0.4364
 2668SOL    HW119637   1.497   0.746   3.808  0.5210  0.1031 -0.3699
 2668SOL    HW219638   1.466   0.827   3.693 -1.7759  1.8312  0.0040
 2669SOL     OW19639   0.243   0.151   8.307  0.2735  0.3341  0.1014
 2669SOL    HW119640   0.316   0.111   8.353  0.0044  0.1390  0.3547
 2669SOL    HW219641   0.299   0.179   8.234  1.4167 -2.2164  0.0068
 2670SOL     OW19642   0.022   1.266   8.127  0.1305  0.3290  0.2892
 2670SOL    HW119643   4.683   1.268   8.070  0.0302 -2.2493  0.3066
 2670SOL    HW219644   0.097   1.266   8.068  1.7071 -0.3301  2.2635
 2671SOL     OW19645   0.045   4.093   9.914  0.3458 -0.0041  0.3670
 2671SOL    HW119646   0.077   4.115  10.002  0.0122  0.0986  0.4626
 2671SOL    HW219647   0.128   4.075   9.870  1.3472 -0.1019  2.2867
 2672SOL     OW19648   1.509   3.695   2.012 -0.2691  0.9889 -0.0702
 2672SOL    HW119649   1.579   3.740   1.963 -1.9059  2.4381 -1.1071
 2672SOL    HW219650   1.533   3.711   2.103  2.5313 -0.7211 -0.4970
 2673SOL     OW19651   1.981   0.685   7.157 -0.1154 -0.0030 -0.3104
 2673SOL    HW119652   2.022   0.684   7.071  0.1867 -0.0567 -0.1681
 2673SOL    HW219653   1.897   0.650   7.127 -1.0380 -0.9014  3.2455
 2674SOL     OW19654   4.209   1.272   6.071  0.1257 -0.2204 -0.4245
 2674SOL    HW119655   4.179   1.220   6.146  0.7765 -0.8906 -0.6297
 2674SOL    HW219656   4.129   1.279   6.019  0.5867  0.5393 -1.0242
 2675SOL     OW19657   2.828   4.156   4.663 -0.4894  0.5267 -0.3841
 2675SOL    HW119658   2.915   4.145   4.624  0.2912  3.8402  0.3726
 2675SOL    HW219659   2.837   4.240   4.708 -2.6544 -0.0641  1.1136
 2676SOL     OW19660   4.003   2.199   2.789 -0.1719 -0.3936  0.0603
 2676SOL    HW119661   3.985   2.246   2.870 -0.4852 -0.5938  0.1054
 2676SOL    HW219662   4.094   2.220   2.766  0.2578 -1.8498  0.4131
 2677SOL     OW19663   1.063   3.423   8.879 -0.2370 -0.7044 -0.0737
 2677SOL    HW119664   1.063   3.502   8.825 -2.3479 -0.6315  0.0002
 2677SOL    HW219665   1.034   3.465   8.960 -2.4714 -0.4979 -0.9732
 2678SOL     OW19666   3.872   0.024   3.580  0.0835 -0.6991 -0.2573
 2678SOL    HW119667   3.867   0.027   3.485 -0.3316  1.3365 -0.1712
 2678SOL    HW219668   3.955   4.716   3.598 -1.1583 -2.0227  2.1201
 2679SOL     OW19669   2.040   4.003  10.194  0.3790  0.3211  0.2552
 2679SOL    HW119670   1.983   4.060  10.246  1.5726  0.4422  1.4195
 2679SOL    HW219671   2.063   4.049  10.113 -0.5638 -1.8283 -1.2222
 2680SOL     OW19672   4.697   4.186   7.692  0.0465 -0.0697  0.4732
 2680SOL    HW119673   4.654   4.233   7.762  2.3225  1.5778  0.7793
 2680SOL    HW219674   4.732   4.114   7.745 -0.9445 -0.1195  1.0552
 2681SOL     OW19675   3.359   4.232   7.736 -0.4354  0.0691  0.2582
 2681SOL    HW119676   3.389   4.311   7.780  0.1969 -0.0813  0.1018
 2681SOL    HW219677   3.269   4.249   7.709 -0.7472 -0.8733  0.6893
 2682SOL     OW19678   3.940   3.614  13.012  0.3364  0.2321 -0.0888
 2682SOL    HW119679   3.963   3.700  12.976  1.0529  1.2112  2.7576
 2682SOL    HW219680   4.006   3.555  12.976 -1.0997 -1.5877  0.3066
 2683SOL     OW19681   2.224   0.720   0.807  0.0606  0.4122  0.3378
 2683SOL    HW119682   2.252   0.811   0.795  0.9238  0.2335  0.9656
 2683SOL    HW219683   2.240   0.677   0.723  0.7405 -1.2034  1.2915
 2684SOL     OW19684   0.879   2.412   7.068  0.7105 -0.3171 -0.8623
 2684SOL    HW119685   0.968   2.396   7.100 -0.0505 -0.3413  1.2168
 2684SOL    HW219686   0.876   2.326   7.025 -3.7318 -0.7802  0.4027
 2685SOL     OW19687   3.206   4.028   7.395  0.2632  0.4037 -0.6639
 2685SOL    HW119688   3.147   3.983   7.454  1.4468 -0.1153  0.1162
 2685SOL    HW219689   3.195   4.122   7.413 -0.5247 -0.3353  2.5867
 2686SOL     OW19690   1.201   0.358   2.165  0.0287  0.4372  0.0278
 2686SOL    HW119691   1.195   0.262   2.165 -0.8911  0.4931  0.2712
 2686SOL    HW219692   1.126   0.377   2.109 -0.7178  0.4479  1.0238
 2687SOL     OW19693   4.189   1.894  10.615  0.4069  0.1491  0.2640
 2687SOL    HW119694   4.244   1.880  10.537 -1.0234 -0.6168 -0.6082
 2687SOL    HW219695   4.156   1.983  10.599  0.5725  0.3179  0.8487
 2688SOL     OW19696   0.493   0.334   5.282 -0.1070 -0.0360  0.6944
 2688SOL    HW119697   0.554   0.388   5.331  0.2734 -0.9792  1.2737
 2688SOL    HW219698   0.412   0.338   5.333 -1.1484  1.6385 -1.0832
 2689SOL     OW19699   4.566   0.753   4.813  0.1956  0.0358 -0.4619
 2689SOL    HW119700   4.603   0.837   4.786  0.9671  0.3112  1.4517
 2689SOL    HW219701   4.629   0.693   4.773  1.6330  2.1061 -1.3097
 2690SOL     OW19702   1.722   1.203   5.444  0.2596  0.7520  0.0576
 2690SOL    HW119703   1.812   1.198   5.476  0.0755 -2.3440  0.0764
 2690SOL    HW219704   1.709   1.298   5.442  0.3489  0.7651  0.0962
 2691SOL     OW19705   2.284   3.848   5.874 -0.1355 -0.2335  0.3879
 2691SOL    HW119706   2.295   3.796   5.795 -1.2064  1.3715 -0.7975
 2691SOL    HW219707   2.204   3.811   5.911  0.6519 -2.5644 -0.2653
 2692SOL     OW19708   4.078   2.822   6.600  0.2705  0.1112  0.0697
 2692SOL    HW119709   4.019   2.810   6.675  0.9493  2.3050  0.9558
 2692SOL    HW219710   4.023   2.767   6.545  1.6601  0.3059 -1.5110
 2693SOL     OW19711   0.126   0.994   3.624 -0.1480  0.1698  0.0365
 2693SOL    HW119712   0.214   0.964   3.600  0.0207  0.6608  0.0207
 2693SOL    HW219713   0.123   1.070   3.565 -2.2962  0.0560  0.0004
 2694SOL     OW19714   2.485   0.158   8.243 -0.3769  0.3065  0.0899
 2694SOL    HW119715   2.414   0.203   8.196  0.9214  2.4155  0.1162
 2694SOL    HW219716   2.465   0.179   8.334 -3.5100  0.2584 -0.5808
 2695SOL     OW19717   0.792   4.295   9.476 -0.0531 -0.7678  0.0602
 2695SOL    HW119718   0.787   4.200   9.476 -0.9484 -0.7277 -0.7659
 2695SOL    HW219719   0.761   4.312   9.565  0.0394  3.1660 -0.6574
 2696SOL     OW19720   0.113   0.319   2.814  0.3473 -0.3619 -0.5630
 2696SOL    HW119721   0.075   0.395   2.768 -0.5190 -1.3527 -1.4999
 2696SOL    HW219722   0.153   0.267   2.745  1.5536 -0.7649  0.4439
 2697SOL     OW19723   0.489   0.815   4.229 -0.2118  0.1149 -0.5194
 2697SOL    HW119724   0.438   0.890   4.198  1.4766  0.9071 -1.3347
 2697SOL    HW219725   0.475   0.755   4.156  1.3915  0.8152 -1.3908
 2698SOL     OW19726   0.064   2.985   2.776 -0.6980  0.1714  0.3963
 2698SOL    HW119727   0.133   2.988   2.709 -0.2217  1.8436  0.9804
 2698SOL    HW219728   0.117   2.998   2.854  0.2779 -2.2603  0.1377
 2699SOL     OW19729   4.717   2.376   3.864 -0.1659  0.1178  0.4532
 2699SOL    HW119730   0.020   2.427   3.794  2.5931 -1.9764  0.5449
 2699SOL    HW219731   4.637   2.351   3.818  0.9733 -2.4186 -0.1247
 2700SOL     OW19732   4.641   3.736   6.023 -1.3126 -0.2437  0.2143
 2700SOL    HW119733   4.709   3.798   6.048 -0.6506 -0.9625  0.2149
 2700SOL    HW219734   4.601   3.718   6.108  0.2742 -2.9083  0.3872
 2701SOL     OW19735   4.318   4.343   4.562  0.4840 -0.0823  0.2744
 2701SOL    HW119736   4.313   4.258   4.518  0.2178  1.3253 -2.4116
 2701SOL    HW219737   4.266   4.331   4.641  0.8621  1.4136  0.7380
 2702SOL     OW19738   3.091   2.512   9.092 -0.3441 -0.0653 -0.0837
 2702SOL    HW119739   3.090   2.587   9.150  1.0614 -3.2940  4.0970
 2702SOL    HW219740   3.083   2.554   9.006 -2.7121  2.7251  1.5341
 2703SOL     OW19741   4.050   4.210   1.508  0.2762 -0.2383  0.4179
 2703SOL    HW119742   3.966   4.164   1.511  0.5022 -0.7493 -1.6242
 2703SOL    HW219743   4.081   4.176   1.424  2.1437 -1.4071  1.5848
 2704SOL     OW19744   3.519   4.221   7.332  0.1247 -0.0235 -0.7955
 2704SOL    HW119745   3.523   4.125   7.334 -0.5559  0.0103  1.9386
 2704SOL    HW219746   3.434   4.231   7.374 -1.2789 -0.6592 -3.4273
 2705SOL     OW19747   1.199   3.643   8.716 -0.3556  0.1650  0.5356
 2705SOL    HW119748   1.194   3.594   8.633  0.2903 -2.2099  1.8796
 2705SOL    HW219749   1.261   3.713   8.701  0.9745 -0.7169  1.8601
 2706SOL     OW19750   2.428   2.483   5.093  0.0518 -0.5401  0.2157
 2706SOL    HW119751   2.376   2.447   5.020 -0.3936 -0.3086  0.4170
 2706SOL    HW219752   2.515   2.453   5.068  1.2623  1.4446  2.1195
 2707SOL     OW19753   1.072   1.744  11.762 -0.0108  0.1652 -0.3494
 2707SOL    HW119754   1.061   1.654  11.792  1.6060 -0.6614 -2.2302
 2707SOL    HW219755   1.035   1.743  11.673  0.6179 -4.6460 -0.5591
 2708SOL     OW19756   1.637   3.422   1.114  0.4509 -0.3753 -0.0207
 2708SOL    HW119757   1.729   3.426   1.087  0.1362  2.4668 -0.6958
 2708SOL    HW219758   1.616   3.513   1.094  1.3589  0.1180  1.2890
 2709SOL     OW19759   2.266   1.893  15.250  0.4784  0.4708  0.3169
 2709SOL    HW119760   2.276   1.988  15.254  1.9574  0.1682  3.2907
 2709SOL    HW219761   2.212   1.876  15.173 -0.9685  0.4523  1.3254
 2710SOL     OW19762   3.321   1.362  17.002  0.2510  0.1406 -0.2852
 2710SOL    HW119763   3.323   1.300  16.929 -0.9301  0.3804 -0.5209
 2710SOL    HW219764   3.242   1.329  17.045  0.0790  0.1853 -0.5636
 2711SOL     OW19765   0.544   0.847   1.711 -0.1575  0.0714 -0.0411
 2711SOL    HW119766   0.589   0.872   1.631  1.0203  1.5528  1.0817
 2711SOL    HW219767   0.532   0.928   1.761  1.1817  1.1378 -1.4966
 2712SOL     OW19768   2.100   2.534  16.654 -0.0433  0.1423  0.2603
 2712SOL    HW119769   2.034   2.511  16.720  0.8958 -3.2963 -0.0297
 2712SOL    HW219770   2.042   2.549  16.579  0.4268 -0.8210 -0.2907
 2713SOL     OW19771   2.940   0.319   5.719 -0.2361 -0.0554  0.1397
 2713SOL    HW119772   3.031   0.308   5.748 -0.1400 -0.3658 -0.2741
 2713SOL    HW219773   2.951   0.361   5.633  0.0127 -2.9746 -1.2573
 2714SOL     OW19774   2.435   1.880  12.804 -0.0906 -0.2412 -0.1724
 2714SOL    HW119775   2.510   1.821  12.811  0.0099  0.1329  1.9229
 2714SOL    HW219776   2.409   1.895  12.895  1.6867 -3.4230  0.8433
 2715SOL     OW19777   1.977   0.655  13.405  0.0633  0.4346 -0.0148
 2715SOL    HW119778   2.013   0.743  13.399  0.4717  0.1962 -1.1321
 2715SOL    HW219779   2.012   0.618  13.324 -1.5839  0.5054 -0.7639
 2716SOL     OW19780   4.492   0.400   4.227 -0.0410  0.2436  0.1147
 2716SOL    HW119781   4.465   0.448   4.305  2.3015  1.6875  0.0233
 2716SOL    HW219782   4.407   0.392   4.184  1.0996 -1.8593 -1.7793
 2717SOL     OW19783   4.453   0.268  11.986  0.5148 -0.1835 -0.2025
 2717SOL    HW119784   4.474   0.315  11.905  0.4242 -0.1169 -0.1881
 2717SOL    HW219785   4.378   0.318  12.019  1.3044  0.8492  0.0393
 2718SOL     OW19786   0.918   2.286   0.750  0.0003 -0.1427  0.5315
 2718SOL    HW119787   0.854   2.336   0.801 -1.3566  1.2582 -2.5713
 2718SOL    HW219788   0.941   2.212   0.805  2.7979  0.8648  0.7109
 2719SOL     OW19789   2.370   0.947   8.055  0.5923 -0.4658  0.0300
 2719SOL    HW119790   2.406   0.863   8.083 -1.2262 -0.4009  2.6015
 2719SOL    HW219791   2.433   0.966   7.986 -0.3752  1.1683 -0.4001
 2720SOL     OW19792   3.457   4.577   3.596  0.1609 -0.1156 -0.6758
 2720SOL    HW119793   3.420   4.666   3.600  0.8141  0.2452 -2.4096
 2720SOL    HW219794   3.537   4.606   3.639 -0.9566 -0.6145  1.7463
 2721SOL     OW19795   4.007   4.325   8.774 -0.1258 -0.2714 -0.4060
 2721SOL    HW119796   3.937   4.360   8.828  1.5896  1.4088  0.7365
 2721SOL    HW219797   4.002   4.357   8.684 -1.5906 -1.0266 -0.5879
 2722SOL     OW19798   0.801   1.708   1.721  0.0043  0.1533 -0.2478
 2722SOL    HW119799   0.712   1.708   1.684  0.4474 -1.0541 -1.3231
 2722SOL    HW219800   0.780   1.707   1.815  0.2024 -1.4088 -0.2089
 2723SOL     OW19801   0.874   1.732  16.168  0.2405 -0.5363 -0.5234
 2723SOL    HW119802   0.843   1.816  16.202  0.5152 -0.1826 -1.1512
 2723SOL    HW219803   0.857   1.763  16.079 -1.4565  0.0737  0.0086
 2724SOL     OW19804   0.098   2.935  12.184 -0.3044  0.0193  0.8601
 2724SOL    HW119805   0.064   2.930  12.095  0.7021 -3.3167  0.6781
 2724SOL    HW219806   0.177   2.882  12.176 -0.6791 -0.4621  0.3884
 2725SOL     OW19807   2.141   0.692   4.653 -1.0041  0.3960  0.6858
 2725SOL    HW119808   2.216   0.734   4.610 -0.0587  0.1203  2.0487
 2725SOL    HW219809   2.096   0.754   4.711  1.1266  1.1301  1.5470
 2726SOL     OW19810   0.945   2.414   0.146 -0.3266 -0.0307  0.5431
 2726SOL    HW119811   0.913   2.504   0.159 -0.0547  0.3086 -1.0980
 2726SOL    HW219812   0.948   2.382   0.236 -0.0815  1.8976  1.2363
 2727SOL     OW19813   0.458   3.380   1.117 -0.0585 -0.3384  0.1172
 2727SOL    HW119814   0.373   3.346   1.091  0.1544 -1.0312  0.3355
 2727SOL    HW219815   0.499   3.386   1.031  1.2207  0.0714  0.7551
 2728SOL     OW19816   2.991   1.508  12.713  0.2901  0.6387  0.0037
 2728SOL    HW119817   2.901   1.484  12.688  0.3624 -2.1923  2.4740
 2728SOL    HW219818   2.999   1.588  12.661  3.2680 -0.1809 -0.7852
 2729SOL     OW19819   1.654   3.516   7.886  0.2159 -0.8103  0.0848
 2729SOL    HW119820   1.641   3.603   7.924 -1.1578 -1.2007  0.5200
 2729SOL    HW219821   1.713   3.521   7.811  0.2070 -0.3701  0.1026
 2730SOL     OW19822   1.502   1.886  14.365  0.2784 -0.4373 -0.0126
 2730SOL    HW119823   1.497   1.793  14.385 -1.4685  0.0901  1.9773
 2730SOL    HW219824   1.448   1.892  14.287 -2.0437  0.6734  1.6782
 2731SOL     OW19825   1.165   2.387   0.761 -0.2084  0.0531  0.7077
 2731SOL    HW119826   1.148   2.422   0.674  1.4133 -1.7001 -0.3225
 2731SOL    HW219827   1.089   2.331   0.773 -0.3766 -0.0703 -1.0587
 2732SOL     OW19828   1.384   2.893   1.433  0.1565 -0.6206  0.0582
 2732SOL    HW119829   1.440   2.968   1.418 -1.9246  1.3195  1.9865
 2732SOL    HW219830   1.316   2.921   1.372 -0.2169 -1.1393  0.2320
 2733SOL     OW19831   1.665   0.258  17.040  0.8287  0.4828  0.2274
 2733SOL    HW119832   1.745   0.209  17.061  0.1171 -1.0492 -0.6828
 2733SOL    HW219833   1.616   0.186  17.000 -1.0064  1.2369  1.1193
 2734SOL     OW19834   0.652   2.926   0.178  0.1458  0.2998  0.0300
 2734SOL    HW119835   0.696   2.894   0.100  0.2299 -0.4358  0.3735
 2734SOL    HW219836   0.579   2.866   0.195  1.3521 -1.9303 -2.7364
 2735SOL     OW19837   1.653   0.642   9.412  0.0210 -0.5227 -0.4240
 2735SOL    HW119838   1.735   0.663   9.458 -0.1630 -0.7809  0.0194
 2735SOL    HW219839   1.635   0.724   9.366 -2.0411 -1.7791 -1.8496
 2736SOL     OW19840   2.620   4.664   8.119  0.3439 -0.2482  0.3136
 2736SOL    HW119841   2.634   4.703   8.032  0.9102  0.3614  0.6785
 2736SOL    HW219842   2.563   4.733   8.153 -0.5805 -0.5446 -0.6480
 2737SOL     OW19843   3.091   1.360   3.572 -0.0096  0.4486  0.3399
 2737SOL    HW119844   3.046   1.276   3.577 -1.8645  1.3438 -1.2822
 2737SOL    HW219845   3.180   1.341   3.542 -0.7478 -0.7868 -1.0656
 2738SOL     OW19846   0.954   3.091   7.511 -0.5598 -0.0279  0.4736
 2738SOL    HW119847   0.918   3.120   7.427  0.3560  1.9805  0.7755
 2738SOL    HW219848   0.900   3.147   7.566 -0.4612 -0.0267  0.5683
 2739SOL     OW19849   4.553   2.559  13.529  0.5033  0.1775  0.2050
 2739SOL    HW119850   4.464   2.536  13.555 -0.1034  0.9698 -1.2306
 2739SOL    HW219851   4.600   2.495  13.583 -0.4499  0.2414  1.1135
 2740SOL     OW19852   3.996   4.072   5.707  0.5959  0.4491 -0.2310
 2740SOL    HW119853   4.005   4.023   5.626  0.7615  1.2691 -0.7123
 2740SOL    HW219854   4.067   4.033   5.759 -0.6368 -0.3822  0.8523
 2741SOL     OW19855   2.369   3.980   5.087  0.0431  0.2967  0.1795
 2741SOL    HW119856   2.358   4.005   5.179 -1.2066  1.3987 -0.2635
 2741SOL    HW219857   2.434   4.049   5.077  0.4559  0.2284  2.4175
 2742SOL     OW19858   4.182   0.668  12.764 -0.1000 -0.2376  0.5776
 2742SOL    HW119859   4.161   0.705  12.679 -0.6479 -2.6297 -0.3285
 2742SOL    HW219860   4.251   0.608  12.735 -0.2268 -0.2224  0.2424
 2743SOL     OW19861   3.157   3.610   8.968  0.3491  0.1210  0.8217
 2743SOL    HW119862   3.131   3.638   8.880 -0.1301  2.0093  1.5732
 2743SOL    HW219863   3.139   3.517   8.954  0.0511  0.5161 -1.4140
 2744SOL     OW19864   4.734   0.632   4.335  0.0541  0.4214  0.7832
 2744SOL    HW119865   0.017   0.578   4.258 -0.0083  0.8477  0.4657
 2744SOL    HW219866   4.668   0.692   4.299  1.2763  0.5347 -1.2797
 2745SOL     OW19867   3.458   3.779   1.979 -0.2170 -0.4925 -0.0968
 2745SOL    HW119868   3.376   3.814   2.013 -1.0189 -0.4359 -2.0480
 2745SOL    HW219869   3.480   3.731   2.058  2.9093 -0.0954 -0.7521
 2746SOL     OW19870   1.069   4.184   8.682 -0.3516  0.5766 -0.2471
 2746SOL    HW119871   1.057   4.089   8.671  1.1729  0.2369  0.9991
 2746SOL    HW219872   0.985   4.229   8.674 -1.4212 -0.9226  2.4121
 2747SOL     OW19873   4.387   1.021   8.408 -0.0379 -0.3174  0.7154
 2747SOL    HW119874   4.381   1.027   8.313  2.0327 -1.6807  0.4890
 2747SOL    HW219875   4.296   1.041   8.426 -0.6103 -0.3752 -2.1465
 2748SOL     OW19876   2.652   2.265   5.755 -0.2050  0.4845  0.3334
 2748SOL    HW119877   2.618   2.229   5.837  0.5675 -0.2298  0.3417
 2748SOL    HW219878   2.578   2.324   5.746 -1.1080 -0.5498  1.0049
 2749SOL     OW19879   4.252   0.529  11.218  0.2598  0.1775 -0.3142
 2749SOL    HW119880   4.324   0.494  11.271  0.5158 -0.2865 -0.9755
 2749SOL    HW219881   4.243   0.616  11.257  2.5825  0.0722  0.4417
 2750SOL     OW19882   4.452   2.824  11.762  0.4001  0.4844  0.2676
 2750SOL    HW119883   4.454   2.840  11.856 -0.0782 -1.1002  0.5445
 2750SOL    HW219884   4.537   2.860  11.736  0.5913 -0.0033  0.2206
 2751SOL     OW19885   4.240   1.093   7.195  0.7861 -0.0654  0.3044
 2751SOL    HW119886   4.287   1.009   7.193 -2.0696 -1.6103 -1.6377
 2751SOL    HW219887   4.264   1.133   7.112 -1.6511 -0.3948 -0.5710
 2752SOL     OW19888   3.280   4.482   8.569  0.3131 -0.5724  0.2535
 2752SOL    HW119889   3.358   4.464   8.517  0.6951  2.4342 -0.2352
 2752SOL    HW219890   3.259   4.389   8.579  0.0443 -0.4307  1.0540
 2753SOL     OW19891   3.131   0.743   4.006  0.0272  0.1178  0.7129
 2753SOL    HW119892   3.163   0.832   4.018 -0.5399  0.5425 -0.8349
 2753SOL    HW219893   3.208   0.692   4.031  0.6237  0.4477 -0.4446
 2754SOL     OW19894   2.075   2.569  16.053  0.4187  0.1050  0.3260
 2754SOL    HW119895   2.015   2.570  15.979  0.7260  0.9150  0.0807
 2754SOL    HW219896   2.089   2.662  16.072 -0.4755  0.3373 -0.1775
 2755SOL     OW19897   4.140   2.454   4.483  0.6109 -0.0951  0.4079
 2755SOL    HW119898   4.050   2.441   4.514  0.5243 -1.7923 -0.5369
 2755SOL    HW219899   4.159   2.548   4.493  0.8658 -0.1835  0.7180
 2756SOL     OW19900   0.798   3.091  16.462 -0.4225 -0.0824  0.3086
 2756SOL    HW119901   0.875   3.039  16.439 -1.4445 -0.3376 -2.5697
 2756SOL    HW219902   0.725   3.032  16.442 -2.0196  2.5383 -1.5327
 2757SOL     OW19903   4.406   0.163   0.943 -0.3332  0.0828 -0.2441
 2757SOL    HW119904   4.356   0.123   1.015  0.1836 -2.9037 -1.5499
 2757SOL    HW219905   4.495   0.134   0.962  0.5334  3.6574  1.1116
 2758SOL     OW19906   3.575   1.560   8.903  0.6046  0.4382  0.4038
 2758SOL    HW119907   3.593   1.652   8.924 -0.9388  1.0076 -0.7706
 2758SOL    HW219908   3.528   1.520   8.976 -1.3443  2.6517  0.3949
 2759SOL     OW19909   2.356   1.511   6.427  0.6760  0.2864 -0.3898
 2759SOL    HW119910   2.273   1.469   6.451  0.1622 -0.7525 -3.9392
 2759SOL    HW219911   2.351   1.585   6.487 -2.4294 -1.1321  1.1147
 2760SOL     OW19912   1.037   2.140  15.378  0.3097 -0.7967 -0.5477
 2760SOL    HW119913   0.977   2.205  15.343  0.4219 -0.2976  0.1801
 2760SOL    HW219914   1.046   2.180  15.465  2.7466 -1.0002 -0.6797
 2761SOL     OW19915   0.037   0.768   6.060  0.4192 -0.4751  0.0631
 2761SOL    HW119916   0.017   0.854   6.022 -1.6173 -1.5004 -1.1725
 2761SOL    HW219917   0.110   0.785   6.120 -1.0555  0.1486  1.6809
 2762SOL     OW19918   2.074   0.356   7.926  0.2405  0.5257  0.0462
 2762SOL    HW119919   2.079   0.376   7.833  0.1102  1.8288  0.3192
 2762SOL    HW219920   2.101   0.439   7.965  1.0236  0.2451  0.0968
 2763SOL     OW19921   0.790   1.505   3.633  0.1228 -0.3143  0.5809
 2763SOL    HW119922   0.815   1.585   3.681 -1.7164 -0.1982  1.3222
 2763SOL    HW219923   0.860   1.446   3.663  0.5570 -1.2226 -2.2948
 2764SOL     OW19924   0.648   2.512   2.491 -0.2720  0.3276  0.0137
 2764SOL    HW119925   0.552   2.507   2.484 -0.3002  1.9080 -0.6170
 2764SOL    HW219926   0.663   2.418   2.481  0.2397  0.4541 -0.3494
 2765SOL     OW19927   1.615   4.338   0.531  0.6768 -0.3585  0.0346
 2765SOL    HW119928   1.648   4.301   0.449 -0.8202  0.1090 -0.7787
 2765SOL    HW219929   1.527   4.370   0.510 -0.1637 -2.1293  0.8287
 2766SOL     OW19930   1.795   3.148  13.676  0.2045 -0.2640 -0.2319
 2766SOL    HW119931   1.891   3.143  13.678  0.1362 -1.4286 -0.1309
 2766SOL    HW219932   1.776   3.055  13.687  0.5125 -0.3460 -0.4002
 2767SOL     OW19933   3.629   0.623   4.148 -0.1523  0.0638 -0.2835
 2767SOL    HW119934   3.687   0.697   4.167  2.2582 -2.1605  1.1016
 2767SOL    HW219935   3.686   0.566   4.097 -0.2853 -1.0543  0.8200
 2768SOL     OW19936   2.113   2.471   2.114  0.4866  0.1512  0.1794
 2768SOL    HW119937   2.100   2.553   2.162  2.8690  0.0828  0.9359
 2768SOL    HW219938   2.079   2.500   2.030 -1.9668 -2.8949  0.1419
 2769SOL     OW19939   2.147   0.016  11.114 -0.1674 -0.7183 -0.0252
 2769SOL    HW119940   2.187   0.101  11.130  0.6570 -1.5535  2.2926
 2769SOL    HW219941   2.191   4.729  11.033  1.6569 -0.1674  0.8168
 2770SOL     OW19942   1.795   1.926   6.172 -0.6205 -0.1880  0.6649
 2770SOL    HW119943   1.807   1.994   6.106  2.6255 -1.4987 -0.0953
 2770SOL    HW219944   1.864   1.954   6.232 -0.7198 -1.0245  1.1756
 2771SOL     OW19945   3.871   4.542   7.764 -0.5234 -0.2981  0.2229
 2771SOL    HW119946   3.787   4.585   7.750 -1.1720 -1.6093  0.0150
 2771SOL    HW219947   3.934   4.580   7.702  0.6073 -0.4446  1.2989
 2772SOL     OW19948   2.879   3.876   6.195  0.2133 -0.3540 -0.1941
 2772SOL    HW119949   2.829   3.936   6.140  1.3480  1.0407  0.2954
 2772SOL    HW219950   2.920   3.931   6.262 -1.6975 -1.8049  2.1757
 2773SOL     OW19951   2.935   2.140   7.037 -0.0941  0.2359 -0.2386
 2773SOL    HW119952   2.883   2.218   7.019 -1.6641 -0.8037 -0.2086
 2773SOL    HW219953   2.986   2.140   6.956 -0.6374 -1.1125 -0.5927
 2774SOL     OW19954   3.582   1.720  13.666 -0.3848  0.2348 -0.0706
 2774SOL    HW119955   3.626   1.637  13.686 -1.1145  0.3344  1.9348
 2774SOL    HW219956   3.502   1.710  13.719 -1.3225  1.5050 -1.2492
 2775SOL     OW19957   1.654   3.457   8.682  0.0156  0.5766  0.3076
 2775SOL    HW119958   1.647   3.459   8.587 -1.5841 -2.0350  0.3810
 2775SOL    HW219959   1.651   3.550   8.704  1.3339  0.7260 -0.1249
 2776SOL     OW19960   2.355   3.157   0.469 -0.2451 -0.3025 -0.4891
 2776SOL    HW119961   2.445   3.186   0.452  0.0854 -0.1777  1.4688
 2776SOL    HW219962   2.355   3.081   0.411 -0.8980 -1.5882  1.1790
 2777SOL     OW19963   2.810   0.416   1.831 -0.3345  0.4569  0.7014
 2777SOL    HW119964   2.822   0.336   1.883  0.0422  0.2231  0.2535
 2777SOL    HW219965   2.718   0.439   1.848 -0.6057  0.2936 -0.4972
 2778SOL     OW19966   1.829   2.467  17.249 -0.2495 -0.2026 -0.8468
 2778SOL    HW119967   1.886   2.497  17.319 -1.4881  0.7344 -0.2280
 2778SOL    HW219968   1.743   2.477  17.290  1.3271 -1.6244  2.7765
 2779SOL     OW19969   0.814   2.927   6.713  0.1857 -0.2467  0.1220
 2779SOL    HW119970   0.787   3.018   6.705  0.0086 -0.1169  2.2472
 2779SOL    HW219971   0.811   2.904   6.620 -0.2208  0.1387  0.0366
 2780SOL     OW19972   1.429   0.213   6.194 -0.7616 -0.3692  0.0728
 2780SOL    HW119973   1.369   0.285   6.213 -0.8967 -0.1862 -1.0770
 2780SOL    HW219974   1.494   0.247   6.256  0.9906 -2.7944 -0.4021
 2781SOL     OW19975   1.779   1.821   8.395 -0.4283 -0.8364 -0.2662
 2781SOL    HW119976   1.730   1.900   8.370  1.7502  0.1700 -1.3469
 2781SOL    HW219977   1.849   1.815   8.330  1.6661 -2.6187  2.2055
 2782SOL     OW19978   3.966   2.851  13.522  0.4082 -0.1941 -0.7661
 2782SOL    HW119979   3.972   2.885  13.432  2.8747  0.6630 -0.2750
 2782SOL    HW219980   3.896   2.908  13.554  0.8033 -0.8768  1.3023
 2783SOL     OW19981   2.877   4.064  17.294  0.0025  0.5838 -0.0298
 2783SOL    HW119982   2.938   4.089  17.224 -0.8006  1.6169 -0.3636
 2783SOL    HW219983   2.835   3.987  17.256  0.5634 -0.4412  1.4272
 2784SOL     OW19984   1.670   2.944   5.354  0.2207 -0.1930 -0.4019
 2784SOL    HW119985   1.760   2.955   5.386  0.2270 -0.8173 -0.2053
 2784SOL    HW219986   1.641   3.033   5.373  1.5358  0.5356 -1.8645
 2785SOL     OW19987   1.469   3.946  14.082 -0.0764  0.1300  0.3386
 2785SOL    HW119988   1.383   3.932  14.042  0.1411  3.2938 -1.2856
 2785SOL    HW219989   1.488   3.868  14.133  1.8282  1.0253  0.9698
 2786SOL     OW19990   3.677   1.097   6.630  0.1479 -0.3146 -0.3422
 2786SOL    HW119991   3.627   1.110   6.710 -0.5836 -3.4718 -0.3031
 2786SOL    HW219992   3.704   1.005   6.633  0.0757 -0.3203  0.1516
 2787SOL     OW19993   1.898   2.300   7.096 -0.1072  0.6083  0.7936
 2787SOL    HW119994   1.876   2.330   7.184  0.1066 -0.0693  1.0780
 2787SOL    HW219995   1.918   2.208   7.114  2.5944  1.3125  1.2841
 2788SOL     OW19996   2.612   4.420   1.358 -0.3948 -0.3842  0.0694
 2788SOL    HW119997   2.543   4.365   1.394  1.0086 -1.2988  1.3971
 2788SOL    HW219998   2.604   4.393   1.267  2.7134  1.5985 -0.8145
 2789SOL     OW19999   3.622   1.845   3.361  0.5405 -0.0862 -0.1348
 2789SOL    HW120000   3.566   1.869   3.286 -0.6473 -0.6863  0.5530
 2789SOL    HW220001   3.604   1.752   3.380 -0.6924  0.4173  1.1522
 2790SOL     OW20002   3.964   2.140   1.488  0.0984  0.0304  0.3025
 2790SOL    HW120003   3.963   2.147   1.392  1.0994  0.6119  0.3347
 2790SOL    HW220004   3.948   2.047   1.503  0.7514 -0.1522 -0.1295
 2791SOL     OW20005   3.344   0.008   8.093 -0.1733  0.0057  0.3853
 2791SOL    HW120006   3.347   0.099   8.063  0.8375 -0.5129 -1.0790
 2791SOL    HW220007   3.314   4.697   8.016  0.4489  2.2380 -1.2430
 2792SOL     OW20008   2.886   0.644   8.025 -1.2892  0.0994  0.5223
 2792SOL    HW120009   2.960   0.648   8.085  0.4301 -0.5467 -1.5583
 2792SOL    HW220010   2.869   0.737   8.011  0.1983  0.1586 -0.8732
 2793SOL     OW20011   0.754   0.305  10.999  0.0070  0.2591 -0.4133
 2793SOL    HW120012   0.659   0.307  10.989 -0.2144  0.8785  1.7943
 2793SOL    HW220013   0.760   0.231  11.060 -0.3294 -0.2964 -1.0489
 2794SOL     OW20014   2.011   3.526   8.067 -0.2637 -1.0388 -0.8278
 2794SOL    HW120015   1.984   3.480   8.147  0.5128  1.2080  0.7345
 2794SOL    HW220016   1.980   3.459   8.007 -0.9366 -0.1540 -1.4637
 2795SOL     OW20017   1.117   3.748   7.148 -0.0728 -0.4230 -0.5864
 2795SOL    HW120018   1.199   3.797   7.155 -0.6067  0.7308 -2.3204
 2795SOL    HW220019   1.117   3.687   7.221  1.1411  0.8738  0.5125
 2796SOL     OW20020   2.587   2.118  10.430 -0.1105 -0.5747  0.3823
 2796SOL    HW120021   2.517   2.053  10.424 -1.9996  1.5105  0.1284
 2796SOL    HW220022   2.546   2.188  10.380  2.5097 -0.2035 -1.2197
 2797SOL     OW20023   1.941   0.457   5.838  0.2841 -0.2625  0.3753
 2797SOL    HW120024   1.925   0.466   5.932  0.9216 -1.0708  0.5605
 2797SOL    HW220025   1.970   0.366   5.833  1.0081  0.0506 -1.0714
 2798SOL     OW20026   1.505   1.542   4.466 -0.3029 -0.0531 -0.5182
 2798SOL    HW120027   1.479   1.478   4.400 -0.6521 -0.5422  0.0973
 2798SOL    HW220028   1.421   1.577   4.496 -1.0704 -1.7322 -0.6885
 2799SOL     OW20029   0.101   4.095   9.022 -0.7102  0.5489 -0.3738
 2799SOL    HW120030   0.159   4.170   9.033  0.9145 -0.7576  0.0709
 2799SOL    HW220031   0.148   4.014   9.002 -0.3542  0.2369  1.7300
 2800SOL     OW20032   3.551   2.632   0.050  0.3468  0.4808 -0.0087
 2800SOL    HW120033   3.512   2.552   0.012  2.8172 -0.8356  0.2570
 2800SOL    HW220034   3.487   2.697   0.021  1.1072  1.5170  0.6740
 2801SOL     OW20035   2.011   1.001   2.607  0.3231  0.2054 -0.7764
 2801SOL    HW120036   1.970   1.082   2.637 -0.9752 -0.9437  0.5813
 2801SOL    HW220037   2.018   0.956   2.692 -0.0752  1.3775 -0.1182
 2802SOL     OW20038   1.879   1.154   1.213  0.7055 -0.0033  0.2739
 2802SOL    HW120039   1.972   1.172   1.225  1.2354 -2.3110 -0.5128
 2802SOL    HW220040   1.888   1.065   1.179 -1.6989  0.7530 -2.3511
 2803SOL     OW20041   3.165   0.468   4.998  0.7190  0.5823  0.4163
 2803SOL    HW120042   3.153   0.478   4.903 -0.7439 -0.0188  0.5322
 2803SOL    HW220043   3.085   0.501   5.038 -0.7578 -0.1623 -1.8839
 2804SOL     OW20044   3.803   3.922   1.898  0.4703  0.5980  0.2097
 2804SOL    HW120045   3.845   3.911   1.983  0.9281 -0.0787 -0.1061
 2804SOL    HW220046   3.823   3.843   1.848 -0.5523 -0.3782  1.3723
 2805SOL     OW20047   0.960   1.314   1.863 -0.1265  0.6340  0.5714
 2805SOL    HW120048   0.932   1.360   1.942 -0.8792  0.6084  0.3205
 2805SOL    HW220049   1.033   1.262   1.896 -1.2015 -1.8169 -0.8598
 2806SOL     OW20050   0.546   3.913   1.975  0.1791  0.2505  0.7671
 2806SOL    HW120051   0.526   3.953   1.891  0.2272  0.4696  0.8594
 2806SOL    HW220052   0.457   3.911   2.011  0.9507 -2.4190  2.5644
 2807SOL     OW20053   2.096   2.638   4.847  0.2541  0.0850 -0.5316
 2807SOL    HW120054   2.146   2.558   4.859 -1.6303 -1.1873 -1.1692
 2807SOL    HW220055   2.059   2.630   4.759 -0.3217 -0.3364 -0.2509
 2808SOL     OW20056   3.445   1.971  16.112  0.1982 -0.6392 -0.9342
 2808SOL    HW120057   3.377   1.906  16.092 -1.1496  0.0420  1.3918
 2808SOL    HW220058   3.406   2.052  16.080  0.0160 -0.4511 -0.2403
 2809SOL     OW20059   4.586   0.378   7.301 -0.2172  0.2817 -0.2493
 2809SOL    HW120060   4.661   0.335   7.259 -0.1023  2.2771 -2.0832
 2809SOL    HW220061   4.602   0.354   7.392  1.0006  1.0748 -0.2525
 2810SOL     OW20062   2.717   1.203  14.445  0.1667 -0.4920  0.1087
 2810SOL    HW120063   2.622   1.199  14.440  0.0286  2.7707 -0.0456
 2810SOL    HW220064   2.731   1.205  14.350  2.0997  1.2882  0.4263
 2811SOL     OW20065   4.049   2.698   4.851 -0.4399  0.1673 -0.0499
 2811SOL    HW120066   4.108   2.752   4.904  1.8540 -2.1803 -0.2443
 2811SOL    HW220067   4.113   2.659   4.792 -0.9343  2.1773 -1.9160
 2812SOL     OW20068   3.161   3.183   1.114 -0.3601 -0.2213  0.2084
 2812SOL    HW120069   3.251   3.152   1.107 -0.4298 -0.4094  0.1429
 2812SOL    HW220070   3.118   3.101   1.138 -0.3046 -0.9336 -2.1182
 2813SOL     OW20071   4.694   3.408  11.643  0.0150 -0.6140 -0.2888
 2813SOL    HW120072   4.614   3.355  11.644 -1.4153  1.5367  2.0238
 2813SOL    HW220073   4.721   3.410  11.552  0.9183  1.9646  0.0541
 2814SOL     OW20074   1.633   2.916   3.882  0.2478  0.4651  0.2459
 2814SOL    HW120075   1.660   2.927   3.791 -0.0967  1.5303  0.2738
 2814SOL    HW220076   1.635   3.006   3.913  2.6387  0.4036  0.2809
 2815SOL     OW20077   1.304   3.258   7.624 -0.2518  0.7546 -0.5376
 2815SOL    HW120078   1.272   3.207   7.549 -0.9441 -0.0199  0.2820
 2815SOL    HW220079   1.232   3.243   7.685 -0.4125  4.3411  0.1116
 2816SOL     OW20080   0.011   3.818   2.291 -0.1158  0.4590  0.6390
 2816SOL    HW120081   4.657   3.847   2.286 -0.2372  0.2661  1.6739
 2816SOL    HW220082   0.045   3.900   2.328  1.1598  1.7054 -3.3684
 2817SOL     OW20083   0.451   1.488   4.206  0.2858  0.0403  0.3853
 2817SOL    HW120084   0.456   1.574   4.164 -0.4243 -0.2481 -0.2873
 2817SOL    HW220085   0.368   1.451   4.179  1.1908 -1.1052 -0.8231
 2818SOL     OW20086   0.559   2.816   3.406 -0.3222  0.4373  0.2047
 2818SOL    HW120087   0.498   2.887   3.426  1.5295  1.5237  2.0547
 2818SOL    HW220088   0.542   2.812   3.312 -0.6093  1.2114  0.2230
 2819SOL     OW20089   0.068   0.415   4.962  0.9393  0.5400 -0.3896
 2819SOL    HW120090   0.001   0.355   4.930 -0.1613  1.8973 -0.6222
 2819SOL    HW220091   0.145   0.361   4.980  0.8450  1.8664  4.0030
 2820SOL     OW20092   3.021   2.098   9.460  0.0942  0.3009  0.3521
 2820SOL    HW120093   3.105   2.138   9.482  0.6214 -0.9627  0.6147
 2820SOL    HW220094   3.048   2.043   9.386  2.1560  0.1663  1.2072
 2821SOL     OW20095   0.941   0.157  16.335 -0.7680  0.8341 -0.0518
 2821SOL    HW120096   0.902   0.223  16.392 -0.5252  1.9294 -1.1648
 2821SOL    HW220097   0.909   0.186  16.250 -1.8269  0.8760  0.3555
 2822SOL     OW20098   3.624   2.593  11.481 -0.3741  0.6093 -0.9666
 2822SOL    HW120099   3.677   2.672  11.489 -0.2173  0.6900 -2.9719
 2822SOL    HW220100   3.537   2.633  11.474 -1.0556 -0.4467  1.2191
 2823SOL     OW20101   2.081   2.587  15.305  0.1979  0.1000  0.6099
 2823SOL    HW120102   2.107   2.669  15.263 -1.1019  0.0078 -0.3667
 2823SOL    HW220103   2.158   2.568  15.358  0.9115  0.0404 -0.4508
 2824SOL     OW20104   1.062   3.471   4.931  0.1430  0.4799 -0.0831
 2824SOL    HW120105   0.985   3.441   4.883  0.3268 -2.6808  1.6085
 2824SOL    HW220106   1.050   3.429   5.017 -0.9751 -0.9252 -0.9287
 2825SOL     OW20107   1.222   1.782   5.901 -0.4488 -0.7893  0.3991
 2825SOL    HW120108   1.240   1.843   5.972 -0.0456  1.0117 -1.2363
 2825SOL    HW220109   1.179   1.835   5.834 -1.8442 -0.9283  1.1798
 2826SOL     OW20110   4.683   1.892   7.977 -0.2629 -0.0911  0.9736
 2826SOL    HW120111   0.022   1.923   7.927 -1.8732 -0.0684 -1.4753
 2826SOL    HW220112   4.726   1.883   8.062  1.0561 -0.0115  0.3171
 2827SOL     OW20113   2.127   1.890   2.024 -0.8034  0.2087  0.3549
 2827SOL    HW120114   2.122   1.804   2.064 -0.2693  0.0356  0.0483
 2827SOL    HW220115   2.156   1.877   1.933 -1.6747 -2.0904  0.4054
 2828SOL     OW20116   2.447   2.398   3.438  0.4055 -0.2366  0.8229
 2828SOL    HW120117   2.421   2.489   3.423 -0.2258 -1.0121 -2.9639
 2828SOL    HW220118   2.539   2.421   3.451  1.2440 -2.1523 -1.6326
 2829SOL     OW20119   0.693   1.015  12.587  0.3994  0.1098  0.2344
 2829SOL    HW120120   0.743   1.092  12.616 -0.7778  0.4547  1.3112
 2829SOL    HW220121   0.715   1.002  12.495 -1.2477 -0.8866 -0.0043
 2830SOL     OW20122   2.326   3.185   8.076  0.9663 -0.3933  0.4860
 2830SOL    HW120123   2.360   3.184   8.166  2.2390 -3.0911 -0.0454
 2830SOL    HW220124   2.407   3.193   8.026  1.5687  2.0251  1.8215
 2831SOL     OW20125   1.571   0.742  10.514  0.0577 -0.0721  0.5451
 2831SOL    HW120126   1.507   0.807  10.483  0.5418  1.1485  2.0917
 2831SOL    HW220127   1.560   0.676  10.447  1.2694  2.4580 -2.1429
 2832SOL     OW20128   1.582   2.268   2.132 -0.3879  1.1980  0.1967
 2832SOL    HW120129   1.583   2.174   2.145  0.2467  1.1004 -0.5248
 2832SOL    HW220130   1.581   2.264   2.036 -0.2742 -0.5120  0.2702
 2833SOL     OW20131   1.363   4.619   3.524 -0.1141  0.1798  0.0407
 2833SOL    HW120132   1.414   4.694   3.496 -1.2354 -0.0474 -2.5630
 2833SOL    HW220133   1.334   4.592   3.437 -1.3389  3.1259 -0.4702
 2834SOL     OW20134   2.581   2.894   7.079 -0.1689  0.3424  0.3890
 2834SOL    HW120135   2.535   2.904   7.163  1.6011 -0.5664  1.4754
 2834SOL    HW220136   2.547   2.808   7.054 -0.4316  1.2987 -2.5218
 2835SOL     OW20137   4.306   3.806   4.077  0.1039 -0.3165  0.7329
 2835SOL    HW120138   4.379   3.798   4.016 -0.4592  0.4007 -0.0218
 2835SOL    HW220139   4.316   3.720   4.119 -2.0091 -0.9269  0.0268
 2836SOL     OW20140   4.330   1.369   5.078  0.3351  0.0835  0.4827
 2836SOL    HW120141   4.345   1.461   5.097 -1.2170  0.7635 -1.5711
 2836SOL    HW220142   4.285   1.339   5.157  1.3551 -0.1518  0.9654
 2837SOL     OW20143   3.201   1.871  15.966 -0.4668  0.1024  0.9845
 2837SOL    HW120144   3.131   1.901  15.908  0.5787 -1.8379 -1.2736
 2837SOL    HW220145   3.162   1.872  16.053  0.2895  1.0996  1.3127
 2838SOL     OW20146   2.684   4.508   6.166 -0.0642 -0.0244  0.1275
 2838SOL    HW120147   2.696   4.579   6.104  1.1290 -0.7717 -0.4998
 2838SOL    HW220148   2.766   4.509   6.217 -2.8380  0.7885  4.6126
 2839SOL     OW20149   0.354   2.082   5.471  0.1537 -0.2846  0.0743
 2839SOL    HW120150   0.356   2.174   5.442 -2.0280  0.1569  1.3345
 2839SOL    HW220151   0.406   2.087   5.551  0.1513 -2.4189  0.1968
 2840SOL     OW20152   4.124   0.469   3.070 -0.0068  0.5422  0.4427
 2840SOL    HW120153   4.172   0.429   2.998 -2.6737  0.5806 -1.3781
 2840SOL    HW220154   4.149   0.410   3.140 -0.9679 -1.9077 -1.2895
 2841SOL     OW20155   0.252   2.869   5.799 -0.2468  0.1451  0.5763
 2841SOL    HW120156   0.285   2.957   5.781 -1.6288  0.1376 -1.9420
 2841SOL    HW220157   0.260   2.831   5.712  1.6228  1.5283  0.1573
 2842SOL     OW20158   0.101   0.292  14.824  0.0488 -0.0297  0.0154
 2842SOL    HW120159   0.149   0.322  14.746 -0.4261 -0.2474 -0.3602
 2842SOL    HW220160   0.025   0.350  14.823  1.1045  1.3436 -0.8598
 2843SOL     OW20161   4.559   1.704   4.170 -0.1950  0.2706 -0.0847
 2843SOL    HW120162   4.583   1.771   4.234  0.8869  0.5940 -0.8152
 2843SOL    HW220163   4.635   1.648   4.156 -0.3024  0.0513  0.2078
 2844SOL     OW20164   1.422   1.267   3.979 -0.4124  0.0489  0.2812
 2844SOL    HW120165   1.417   1.174   4.002 -0.8637 -0.0927 -0.4296
 2844SOL    HW220166   1.329   1.282   3.967 -0.6993 -0.3891  1.8664
 2845SOL     OW20167   4.484   0.554  16.312  0.3607 -0.1867 -0.2676
 2845SOL    HW120168   4.564   0.604  16.332  0.2387 -0.0796 -0.0487
 2845SOL    HW220169   4.482   0.485  16.379  0.3207  0.6870  0.6400
 2846SOL     OW20170   1.622   0.687   7.542  0.5819  0.6598  0.3647
 2846SOL    HW120171   1.594   0.764   7.493  4.0135  1.6589 -0.0062
 2846SOL    HW220172   1.552   0.623   7.528 -1.0666  2.3265  0.9446
 2847SOL     OW20173   2.178   0.524  12.187  0.8518  0.1160 -0.1854
 2847SOL    HW120174   2.223   0.503  12.106 -0.5179  0.6331 -1.0866
 2847SOL    HW220175   2.236   0.593  12.219  0.7276  0.5256 -0.8595
 2848SOL     OW20176   3.875   3.489   4.615  0.1404 -0.2398 -0.0731
 2848SOL    HW120177   3.814   3.476   4.542  0.9141  0.7155 -0.8877
 2848SOL    HW220178   3.890   3.582   4.602  0.5149  0.0105  2.0795
 2849SOL     OW20179   0.628   0.044   9.013 -0.5343 -0.0305 -0.5438
 2849SOL    HW120180   0.623   0.138   8.994 -1.2398  0.1398  0.5004
 2849SOL    HW220181   0.542   0.007   8.997 -0.5435 -0.3410  0.2543
 2850SOL     OW20182   0.998   3.176   3.165 -0.8763 -0.0260  0.3799
 2850SOL    HW120183   1.044   3.138   3.240  0.7749  1.1294 -0.0529
 2850SOL    HW220184   0.934   3.106   3.154 -0.1231 -0.4446 -1.2626
 2851SOL     OW20185   4.374   3.266   3.100  0.6822  0.6131  0.3704
 2851SOL    HW120186   4.452   3.260   3.045 -0.2208  1.3306 -0.9835
 2851SOL    HW220187   4.401   3.259   3.191 -0.6008 -1.6674  0.5707
 2852SOL     OW20188   1.800   3.076   6.498 -0.4695  0.2156 -0.3125
 2852SOL    HW120189   1.859   3.024   6.552 -1.6136 -1.5943 -0.8049
 2852SOL    HW220190   1.821   3.055   6.407  2.1349 -3.3361  1.1221
 2853SOL     OW20191   2.648   3.429   3.183  0.4453 -0.6065 -0.0364
 2853SOL    HW120192   2.588   3.397   3.115  1.6343 -0.4937 -1.1395
 2853SOL    HW220193   2.596   3.446   3.262  1.0337 -0.5099  0.3285
 2854SOL     OW20194   2.364   4.222   7.488 -0.1533  0.0433 -0.5224
 2854SOL    HW120195   2.337   4.131   7.474  0.5543 -0.2292 -0.1005
 2854SOL    HW220196   2.393   4.199   7.576  1.1010  2.5694 -0.2972
 2855SOL     OW20197   3.662   2.586   7.291  0.3676  0.3048 -0.4562
 2855SOL    HW120198   3.751   2.577   7.257  0.8608 -1.4750  1.2730
 2855SOL    HW220199   3.639   2.496   7.315  0.7023  0.0278 -1.1791
 2856SOL     OW20200   1.691   0.663   9.099 -0.4894  0.2160 -0.0500
 2856SOL    HW120201   1.645   0.678   9.017 -1.7163  0.2231  0.6291
 2856SOL    HW220202   1.673   0.570   9.108 -0.4202  0.3004  0.9921
 2857SOL     OW20203   4.481   2.318  17.378 -0.3252  0.1680 -0.2545
 2857SOL    HW120204   4.516   2.364  17.454 -0.9133 -0.1974  0.2330
 2857SOL    HW220205   4.544   2.355  17.316 -1.4419  1.2208 -0.7669
 2858SOL     OW20206   2.798   1.943  13.067  0.0694 -0.0064  0.3390
 2858SOL    HW120207   2.877   1.916  13.113 -0.2523 -0.2665  0.7395
 2858SOL    HW220208   2.794   2.034  13.095  0.7940  0.7718 -2.0539
 2859SOL     OW20209   1.648   3.893   1.578 -0.0668 -0.2204  0.1605
 2859SOL    HW120210   1.653   3.810   1.624  0.1971  0.0913  0.6899
 2859SOL    HW220211   1.688   3.953   1.641  1.8491 -0.7759 -0.5102
 2860SOL     OW20212   2.130   0.951   5.333  0.3841 -0.2476 -0.4227
 2860SOL    HW120213   2.095   0.862   5.329  1.2102 -0.4834 -2.4214
 2860SOL    HW220214   2.215   0.930   5.372  0.1308  1.8439  1.2632
 2861SOL     OW20215   3.750   2.129   8.129  0.1594 -0.1892 -0.4042
 2861SOL    HW120216   3.770   2.064   8.196  1.2534  1.5930  0.9771
 2861SOL    HW220217   3.659   2.155   8.140 -0.0010 -1.8514  2.1446
 2862SOL     OW20218   0.573   1.996   7.074 -0.5070 -0.4752 -0.1248
 2862SOL    HW120219   0.547   2.055   7.145  1.4347 -0.4550  0.5801
 2862SOL    HW220220   0.514   2.032   7.009 -0.4507 -0.8446 -0.3815
 2863SOL     OW20221   2.694   2.322  10.561 -0.4552  0.0353 -0.1575
 2863SOL    HW120222   2.779   2.280  10.546  0.4634  1.6930  0.4423
 2863SOL    HW220223   2.644   2.247  10.529 -0.4851 -0.5284  1.2317
 2864SOL     OW20224   1.862   1.293   3.441  0.0871 -0.3421  0.5211
 2864SOL    HW120225   1.804   1.272   3.514  2.7002 -2.5810  1.9775
 2864SOL    HW220226   1.807   1.282   3.363  0.5491  0.9416  0.0138
 2865SOL     OW20227   4.137   2.215   3.185 -0.0202  0.4272  0.0500
 2865SOL    HW120228   4.163   2.269   3.111 -0.2162  0.1482 -0.2257
 2865SOL    HW220229   4.219   2.208   3.234  0.8405  1.5726 -1.2523
 2866SOL     OW20230   4.522   2.250   7.874  1.1569 -0.2873  0.0504
 2866SOL    HW120231   4.548   2.160   7.893 -0.6760 -1.0471 -1.0343
 2866SOL    HW220232   4.600   2.283   7.918  1.5793  2.0416 -2.5188
 2867SOL     OW20233   3.781   1.620   6.913  0.0863 -0.0847  0.2028
 2867SOL    HW120234   3.738   1.664   6.839  0.2362  0.5459  0.5001
 2867SOL    HW220235   3.854   1.680   6.928 -1.3153  2.2237 -2.1230
 2868SOL     OW20236   2.483   3.206  13.981 -0.3167  0.0645 -0.1129
 2868SOL    HW120237   2.568   3.251  13.985  0.2083 -0.9550  0.2331
 2868SOL    HW220238   2.505   3.113  13.972  1.5285  0.4195  0.5823
 2869SOL     OW20239   2.342   3.199   9.548  0.4176 -0.2819  0.1472
 2869SOL    HW120240   2.366   3.290   9.565 -0.7987 -0.0411  0.6201
 2869SOL    HW220241   2.267   3.212   9.490 -0.3339 -0.8698  0.9943
 2870SOL     OW20242   4.119   4.324   2.905  0.5999 -0.3551 -0.0340
 2870SOL    HW120243   4.156   4.298   2.989  0.4475 -1.8354 -0.4296
 2870SOL    HW220244   4.055   4.382   2.945 -1.0265 -1.8163 -0.5527
 2871SOL     OW20245   2.705   3.011   2.002 -0.8915 -0.1419 -0.1692
 2871SOL    HW120246   2.679   2.920   1.994  2.1033 -1.0467  0.3077
 2871SOL    HW220247   2.637   3.056   1.951  2.1686  1.3162 -2.9582
 2872SOL     OW20248   1.304   2.918  17.659 -0.1040  0.5099  0.8756
 2872SOL    HW120249   1.359   2.984  17.701  1.9231  0.4416 -1.6748
 2872SOL    HW220250   1.300   2.853  17.730 -0.9069 -3.2795 -2.6763
 2873SOL     OW20251   2.605   3.719   6.203  1.0276  0.8668 -0.3737
 2873SOL    HW120252   2.593   3.648   6.140  1.4326 -0.1622  0.7108
 2873SOL    HW220253   2.700   3.730   6.199  0.9303  1.9324  0.3178
 2874SOL     OW20254   3.825   1.452  10.381  0.6608 -0.0152 -0.3057
 2874SOL    HW120255   3.854   1.502  10.457  0.0449 -0.1542  0.0161
 2874SOL    HW220256   3.888   1.380  10.384 -0.3961 -0.8876  0.8497
 2875SOL     OW20257   0.049   2.631   7.453  0.5645  0.1882 -0.5690
 2875SOL    HW120258   0.081   2.551   7.495  1.8246  0.9820 -0.0551
 2875SOL    HW220259   0.008   2.671   7.530 -0.0922 -3.0772  0.7759
 2876SOL     OW20260   1.312   4.574  17.028  0.4281  0.2804  0.1842
 2876SOL    HW120261   1.341   4.559  16.939 -1.1041 -1.4759 -0.0091
 2876SOL    HW220262   1.283   4.484  17.041 -1.9508  1.0325  0.1390
 2877SOL     OW20263   1.781   4.718   2.940 -0.0683  0.2033 -0.0347
 2877SOL    HW120264   1.850   4.707   2.874 -0.1117  0.1670 -0.0739
 2877SOL    HW220265   1.835   0.001   3.016 -1.2812  0.4267  0.7534
 2878SOL     OW20266   1.942   2.546   9.431  0.3038  0.1148  0.6026
 2878SOL    HW120267   2.027   2.563   9.391  0.0661 -0.1908 -0.0347
 2878SOL    HW220268   1.887   2.618   9.399 -0.8964 -1.3099 -0.5568
 2879SOL     OW20269   2.000   4.562   6.174 -0.7712 -0.1911  0.1296
 2879SOL    HW120270   1.957   4.612   6.243 -2.5946 -1.1986 -0.2831
 2879SOL    HW220271   2.012   4.475   6.211 -3.0656 -0.4047  0.3506
 2880SOL     OW20272   0.671   0.152   8.410 -0.6602  0.2353  0.5963
 2880SOL    HW120273   0.577   0.135   8.422 -0.6389 -0.2885  0.0219
 2880SOL    HW220274   0.676   0.244   8.385 -2.3275  0.6497  1.7836
 2881SOL     OW20275   2.761   3.124   4.524 -0.2289 -0.1518  0.4221
 2881SOL    HW120276   2.754   3.199   4.465 -0.0534 -0.4598  0.0140
 2881SOL    HW220277   2.728   3.169   4.602  0.8576  0.2523  0.6398
 2882SOL     OW20278   2.113   1.846   8.416 -0.3698 -0.0665 -0.3071
 2882SOL    HW120279   2.112   1.767   8.469 -1.6624 -0.7597 -1.3740
 2882SOL    HW220280   2.108   1.914   8.483 -0.2450 -1.2782  0.9305
 2883SOL     OW20281   1.672   1.245   6.829 -0.0881 -0.2179 -0.0172
 2883SOL    HW120282   1.691   1.218   6.740  0.9186 -1.6327  0.6228
 2883SOL    HW220283   1.693   1.166   6.879 -1.9248 -0.1803  0.8148
 2884SOL     OW20284   2.743   2.508   0.128 -0.0309  0.4159 -0.6231
 2884SOL    HW120285   2.758   2.602   0.119  0.5774  0.4276  0.5253
 2884SOL    HW220286   2.670   2.510   0.190  0.7785  0.9107  0.3144
 2885SOL     OW20287   1.222   0.057  16.826 -0.4475 -0.4521 -0.2200
 2885SOL    HW120288   1.215   4.723  16.763  2.3785 -1.1542  0.2706
 2885SOL    HW220289   1.229   0.132  16.767  1.6366 -0.9323 -0.5789
 2886SOL     OW20290   0.449   0.120   2.834 -1.1940  0.5348  0.1489
 2886SOL    HW120291   0.429   0.133   2.741 -1.5356  1.9208  0.4269
 2886SOL    HW220292   0.424   0.208   2.859  0.7351  1.7513 -2.1732
 2887SOL     OW20293   0.305   2.130   6.375 -0.1884 -0.9217 -0.0108
 2887SOL    HW120294   0.370   2.186   6.418  0.6057 -0.5720 -1.6651
 2887SOL    HW220295   0.370   2.068   6.341 -0.1866  0.1852 -2.0122
 2888SOL     OW20296   0.292   2.214   2.907  0.1858 -0.5529 -0.1443
 2888SOL    HW120297   0.333   2.129   2.920 -0.5334 -1.0953 -1.3613
 2888SOL    HW220298   0.280   2.229   3.001  1.9011  1.1099 -0.1908
 2889SOL     OW20299   3.825   0.528   2.457  0.6909 -0.0225  0.4361
 2889SOL    HW120300   3.913   0.525   2.420  0.2961  0.6991 -0.5397
 2889SOL    HW220301   3.837   0.585   2.534 -0.1387  1.5664 -0.5986
 2890SOL     OW20302   2.200   1.491   9.853  0.5078  0.5163  0.0865
 2890SOL    HW120303   2.124   1.445   9.819 -0.4752  2.0187  0.2084
 2890SOL    HW220304   2.258   1.474   9.780 -0.1687 -1.1224 -0.0676
 2891SOL     OW20305   2.977   4.080  14.240 -0.5412 -0.1652  0.1942
 2891SOL    HW120306   2.982   4.172  14.213 -1.8238 -0.6792 -1.7787
 2891SOL    HW220307   3.057   4.037  14.209  0.5610  0.7725  1.7254
 2892SOL     OW20308   1.517   1.394  12.083 -0.6679  0.4312  0.2343
 2892SOL    HW120309   1.544   1.391  11.992  0.9041  2.2078  0.6580
 2892SOL    HW220310   1.455   1.321  12.089 -1.8624  1.1170 -3.7401
 2893SOL     OW20311   0.206   3.125   0.457 -0.3759 -0.1675 -0.1381
 2893SOL    HW120312   0.294   3.162   0.453 -1.7310  3.3716  2.8710
 2893SOL    HW220313   0.149   3.200   0.440 -1.6883 -0.8908  1.1719
 2894SOL     OW20314   3.628   1.882   7.002 -0.0636  0.3308 -0.1886
 2894SOL    HW120315   3.674   1.831   7.068  0.3957  1.5295  0.4188
 2894SOL    HW220316   3.597   1.959   7.049 -2.0944 -0.3752 -0.3869
 2895SOL     OW20317   1.593   3.937   2.407  0.3119  0.3303 -0.5424
 2895SOL    HW120318   1.627   3.997   2.340 -0.7881  1.7673  0.1928
 2895SOL    HW220319   1.578   3.991   2.484 -2.6221 -1.3409  0.0409
 2896SOL     OW20320   2.346   1.052   2.602 -0.4918 -0.3440 -0.3993
 2896SOL    HW120321   2.397   0.985   2.647 -0.9502  0.2071  0.9498
 2896SOL    HW220322   2.411   1.076   2.536  0.1423  0.6833  0.6055
 2897SOL     OW20323   0.227   1.111   7.769  0.3672  0.6499 -1.1812
 2897SOL    HW120324   0.223   1.173   7.697  0.3950  1.5188 -0.4318
 2897SOL    HW220325   0.182   1.033   7.736 -0.6568 -0.0125  1.7451
 2898SOL     OW20326   3.934   3.046  14.371  0.3932  0.0639  0.3963
 2898SOL    HW120327   4.015   2.996  14.363 -0.5383 -1.2354 -1.1988
 2898SOL    HW220328   3.950   3.103  14.296  1.5058  0.7964  1.1970
 2899SOL     OW20329   4.243   4.451   8.044  0.0597  0.0929  0.1843
 2899SOL    HW120330   4.178   4.518   8.021  2.3307  1.3362 -2.7741
 2899SOL    HW220331   4.288   4.451   7.959  1.7339 -0.0038  1.0682
 2900SOL     OW20332   2.690   4.712  13.384  0.9845  0.4019  0.2497
 2900SOL    HW120333   2.759   0.023  13.429 -0.4542  2.3192  0.4156
 2900SOL    HW220334   2.728   4.647  13.325 -0.2021 -0.7265  0.7153
 2901SOL     OW20335   3.489   2.174   8.101 -0.2939  0.3344 -0.3183
 2901SOL    HW120336   3.499   2.261   8.061  0.6847 -0.8030 -2.5777
 2901SOL    HW220337   3.416   2.126   8.062 -1.3980  0.7409  1.2913
 2902SOL     OW20338   3.065   0.590   8.279 -0.0282 -0.6975  0.0837
 2902SOL    HW120339   3.151   0.614   8.314  0.1194  1.5166 -1.8112
 2902SOL    HW220340   3.014   0.655   8.326 -0.0691 -0.6882  0.0264
 2903SOL     OW20341   0.422   4.004   6.523  0.2971 -0.1616 -0.2047
 2903SOL    HW120342   0.499   4.039   6.567  1.2488 -0.0713 -1.9175
 2903SOL    HW220343   0.407   3.919   6.564 -0.8879  0.1895  0.0860
 2904SOL     OW20344   2.138   0.713   6.519  0.1169  0.0564  0.0532
 2904SOL    HW120345   2.146   0.659   6.441  0.9191 -0.9428  0.8356
 2904SOL    HW220346   2.184   0.661   6.585 -0.8146  0.4111  1.0008
 2905SOL     OW20347   0.761   3.090   0.905  0.3361  0.7900  0.6355
 2905SOL    HW120348   0.678   3.071   0.862  1.1302 -1.1098 -0.0811
 2905SOL    HW220349   0.795   3.170   0.866 -0.7240  0.6787 -0.4904
 2906SOL     OW20350   0.427   4.223   1.321 -0.5377  0.1357 -0.2556
 2906SOL    HW120351   0.365   4.268   1.378 -1.0085  0.5363 -1.0816
 2906SOL    HW220352   0.490   4.195   1.386  1.3613 -0.8575 -2.5122
 2907SOL     OW20353   4.385   2.858   0.446 -0.1316 -0.0198  0.5825
 2907SOL    HW120354   4.371   2.886   0.537 -1.5170 -1.0045  0.6793
 2907SOL    HW220355   4.478   2.838   0.440 -0.7903 -3.3289  1.2412
 2908SOL     OW20356   1.368   1.484   6.503 -0.2791 -0.0279  0.2146
 2908SOL    HW120357   1.367   1.407   6.559 -0.1810  0.6961  1.2245
 2908SOL    HW220358   1.320   1.461   6.424  2.2259 -2.6767 -0.5228
 2909SOL     OW20359   4.056   4.323  12.431 -0.1343 -0.0840  0.1477
 2909SOL    HW120360   3.983   4.260  12.427  1.0995 -1.4208 -1.4752
 2909SOL    HW220361   4.092   4.291  12.514 -1.3109  0.6590  0.9427
 2910SOL     OW20362   1.881   2.983   0.595  0.2481  0.1359 -0.0733
 2910SOL    HW120363   1.876   2.976   0.690 -0.3084  0.4661 -0.0792
 2910SOL    HW220364   1.976   2.973   0.583  0.0125 -2.0808 -0.1113
 2911SOL     OW20365   0.228   0.469   9.895  0.3614 -0.0308 -0.7936
 2911SOL    HW120366   0.208   0.487   9.987  1.6948 -1.7145 -0.1808
 2911SOL    HW220367   0.291   0.537   9.869  2.9694 -1.7328  1.1168
 2912SOL     OW20368   0.987   0.747  16.117  0.5156 -0.4141 -0.0559
 2912SOL    HW120369   0.915   0.799  16.082 -0.0048 -0.0976  1.4981
 2912SOL    HW220370   0.945   0.666  16.147  1.7587 -0.2285  2.1847
 2913SOL     OW20371   3.377   0.090   0.481  0.1838 -0.8633  0.2716
 2913SOL    HW120372   3.351   0.002   0.510  0.1759 -1.9285 -2.9979
 2913SOL    HW220373   3.466   0.073   0.452  0.1133 -0.6372 -0.0842
 2914SOL     OW20374   3.251   2.216   3.656  0.3303 -0.7630 -0.1341
 2914SOL    HW120375   3.248   2.294   3.601  0.7057  0.7051  1.9254
 2914SOL    HW220376   3.168   2.227   3.703  1.0062 -0.3136  0.9466
 2915SOL     OW20377   2.098   2.889  15.863  0.1898 -0.2301 -0.4263
 2915SOL    HW120378   2.119   2.879  15.956 -0.5379  1.0277 -0.1228
 2915SOL    HW220379   2.120   2.801  15.834 -0.5003 -0.9140  1.1251
 2916SOL     OW20380   2.356   3.188   8.343 -0.2490 -0.0459  0.9701
 2916SOL    HW120381   2.320   3.196   8.431  0.5006  1.2965  1.1592
 2916SOL    HW220382   2.449   3.179   8.365 -0.2336  0.6760  1.2173
 2917SOL     OW20383   0.855   0.215  17.245 -0.0255  0.2818  0.0895
 2917SOL    HW120384   0.855   0.168  17.328 -1.1666  0.7935  0.3681
 2917SOL    HW220385   0.846   0.301  17.286  1.0502  0.1429  0.6173
 2918SOL     OW20386   0.466   1.392  13.197  0.2886 -0.3637  0.5264
 2918SOL    HW120387   0.417   1.456  13.248 -0.5355 -0.3133 -0.3408
 2918SOL    HW220388   0.555   1.428  13.196 -0.5491  1.6894  0.5815
 2919SOL     OW20389   1.563   3.197  12.516  0.0522  0.5988 -0.3575
 2919SOL    HW120390   1.501   3.184  12.445 -2.2213 -0.2844  1.7725
 2919SOL    HW220391   1.545   3.291  12.517 -1.8693  0.2339 -1.5109
 2920SOL     OW20392   1.068   2.706  14.873 -0.0511  0.4617  0.1165
 2920SOL    HW120393   1.107   2.633  14.826  2.5087  2.1800 -0.4196
 2920SOL    HW220394   0.977   2.709  14.844  0.0353  0.4621 -0.1510
 2921SOL     OW20395   3.221   3.832  16.511  0.0346  0.8603  0.0305
 2921SOL    HW120396   3.269   3.857  16.589 -0.6704 -1.4102  1.2049
 2921SOL    HW220397   3.277   3.823  16.433  0.0562 -1.0362  0.2672
 2922SOL     OW20398   2.533   1.550   3.353 -0.2722  0.2912 -0.0250
 2922SOL    HW120399   2.576   1.605   3.287  1.6020 -1.7184 -0.4709
 2922SOL    HW220400   2.445   1.560   3.318  0.2694 -1.8853 -2.0314
 2923SOL     OW20401   1.637   1.670   1.201  0.9035 -0.4617 -0.9650
 2923SOL    HW120402   1.666   1.751   1.243 -1.2919  0.1962 -0.7503
 2923SOL    HW220403   1.672   1.676   1.112 -0.3043  1.1475 -1.3178
 2924SOL     OW20404   3.208   1.631  16.225 -0.0858 -0.1217 -0.2507
 2924SOL    HW120405   3.276   1.644  16.291 -0.3297  0.1284 -0.0487
 2924SOL    HW220406   3.130   1.670  16.265 -0.5865 -2.6359  1.2520
 2925SOL     OW20407   3.558   4.627  15.968 -0.4149  0.3472  0.1850
 2925SOL    HW120408   3.537   4.534  15.958 -1.7437  0.5973  0.5537
 2925SOL    HW220409   3.529   4.668  15.886  0.3848  0.2770 -0.1318
 2926SOL     OW20410   3.874   1.291   6.625 -0.3085  0.4254 -0.1761
 2926SOL    HW120411   3.819   1.212   6.628  0.1128  0.0898 -1.2551
 2926SOL    HW220412   3.860   1.331   6.710 -2.0694  1.7625 -1.1041
 2927SOL     OW20413   0.329   3.966   9.168 -0.3014  0.5123  0.0996
 2927SOL    HW120414   0.377   3.918   9.100  0.0028  0.0535  0.6350
 2927SOL    HW220415   0.404   4.009   9.209 -0.6646 -0.6541  1.9730
 2928SOL     OW20416   3.535   2.407   2.885 -0.1010  0.2339  0.0124
 2928SOL    HW120417   3.487   2.367   2.957  2.3757 -0.7919  1.1132
 2928SOL    HW220418   3.623   2.407   2.924 -0.6983 -3.3154  1.3446
 2929SOL     OW20419   1.450   4.035   4.635 -0.5359 -0.3448 -0.2491
 2929SOL    HW120420   1.492   4.059   4.717 -3.0565 -0.9252  1.1839
 2929SOL    HW220421   1.362   4.071   4.640 -1.2953 -2.6025  2.1904
 2930SOL     OW20422   3.042   0.010   1.851 -0.5194 -0.1469 -0.0595
 2930SOL    HW120423   3.002   4.660   1.851  0.6140 -0.6532  2.0731
 2930SOL    HW220424   3.054   0.013   1.946 -2.2211 -2.3393  0.2057
 2931SOL     OW20425   0.898   0.455   8.164  0.1022  0.1332  0.4170
 2931SOL    HW120426   0.902   0.493   8.076 -0.2735  0.7781  0.6735
 2931SOL    HW220427   0.944   0.372   8.154  0.4805  0.1517  2.0353
 2932SOL     OW20428   1.111   3.572   0.864 -0.4859  0.0038 -0.2830
 2932SOL    HW120429   1.122   3.588   0.957 -0.5456 -3.4725  0.3060
 2932SOL    HW220430   1.019   3.587   0.842  0.2907  1.2868 -2.6769
 2933SOL     OW20431   4.278   2.145   8.370  0.0062  0.2656 -0.5932
 2933SOL    HW120432   4.244   2.222   8.325 -1.7860 -0.6611 -0.7904
 2933SOL    HW220433   4.199   2.093   8.362  0.2608 -0.0390 -1.1177
 2934SOL     OW20434   1.108   2.729   1.086  0.0546 -0.3605  0.7331
 2934SOL    HW120435   1.130   2.793   1.154  1.1920 -0.4363  0.4287
 2934SOL    HW220436   1.057   2.772   1.018  1.4661  1.2470  0.6874
 2935SOL     OW20437   3.782   1.136   7.699 -0.0615  0.3690 -0.4815
 2935SOL    HW120438   3.756   1.143   7.607 -0.4561  0.2703 -0.3744
 2935SOL    HW220439   3.864   1.187   7.698  1.2917 -1.8118 -0.8098
 2936SOL     OW20440   2.140   1.793   2.982 -0.4154 -0.8042  0.0421
 2936SOL    HW120441   2.210   1.796   2.917 -0.6528 -0.2493 -0.1868
 2936SOL    HW220442   2.197   1.785   3.059  0.0170 -1.3527 -0.3372
 2937SOL     OW20443   0.851   4.265  15.436 -0.8227 -0.1251  0.2197
 2937SOL    HW120444   0.834   4.170  15.433 -3.4657  0.3159  1.2146
 2937SOL    HW220445   0.782   4.288  15.498 -2.2427  1.1353 -1.8456
 2938SOL     OW20446   1.945   0.014   9.856  0.3007  0.0458  0.3079
 2938SOL    HW120447   1.905   4.720   9.937 -0.3829 -0.1345 -0.0886
 2938SOL    HW220448   1.982   0.096   9.887  1.4968 -0.3929  0.0406
 2939SOL     OW20449   1.623   3.914   4.483 -0.0949 -0.1334  0.5220
 2939SOL    HW120450   1.663   3.861   4.553 -1.0216  0.4783  1.5122
 2939SOL    HW220451   1.582   3.981   4.537  2.4179  0.6292  1.5070
 2940SOL     OW20452   4.314   2.470  14.378  0.1608 -0.0553 -0.0329
 2940SOL    HW120453   4.332   2.501  14.467 -0.8587 -0.2588  0.2437
 2940SOL    HW220454   4.390   2.500  14.328 -0.5356  4.3441  1.5256
 2941SOL     OW20455   4.673   1.796   6.666  0.0575 -0.1149 -0.3764
 2941SOL    HW120456   4.714   1.720   6.710 -1.6682  0.9078  2.9854
 2941SOL    HW220457   4.629   1.752   6.593  0.7286 -2.6498  0.7439
 2942SOL     OW20458   3.868   3.966   5.444  0.2384  0.1583  0.6209
 2942SOL    HW120459   3.789   3.928   5.407 -0.8023  1.4574  1.5021
 2942SOL    HW220460   3.925   3.892   5.423 -0.1061 -0.1956  0.9677
 2943SOL     OW20461   2.995   1.907   2.907  0.2205  0.2968 -0.0346
 2943SOL    HW120462   3.034   1.995   2.906 -0.6619  0.7170  1.5135
 2943SOL    HW220463   2.958   1.904   2.818 -0.0175 -0.9460  0.1076
 2944SOL     OW20464   3.416   1.913   8.008  0.0664 -0.5883  0.1704
 2944SOL    HW120465   3.431   1.819   8.023 -0.7312 -0.4367  1.8141
 2944SOL    HW220466   3.503   1.946   8.029 -0.2036 -0.4680  1.0743
 2945SOL     OW20467   2.265   0.218   8.047  0.1219  0.2968 -0.7670
 2945SOL    HW120468   2.307   0.304   8.054  0.1985  0.2432 -0.5615
 2945SOL    HW220469   2.181   0.248   8.013 -0.8950  1.3669  2.7022
 2946SOL     OW20470   3.742   1.363   8.761  0.2076  0.0453 -0.6511
 2946SOL    HW120471   3.711   1.376   8.671  0.3216 -0.2518 -0.7345
 2946SOL    HW220472   3.680   1.423   8.802  3.9617  3.1464  0.4393
 2947SOL     OW20473   3.756   1.022   8.643  0.1928  0.2228 -0.3600
 2947SOL    HW120474   3.759   0.932   8.611  2.3177 -0.5833  2.0717
 2947SOL    HW220475   3.694   1.024   8.715  0.1816 -0.7718 -0.3515
 2948SOL     OW20476   3.489   2.585  15.739 -0.3508 -0.1099  0.0488
 2948SOL    HW120477   3.408   2.561  15.784 -0.7305 -0.7630 -0.9764
 2948SOL    HW220478   3.548   2.532  15.791  1.8812  1.6661 -0.6761
 2949SOL     OW20479   3.974   3.048   8.189  0.2886 -0.1755  0.3033
 2949SOL    HW120480   3.953   2.965   8.147  0.5934 -1.4127  2.6172
 2949SOL    HW220481   3.913   3.104   8.141  1.4185  1.5301  0.8450
 2950SOL     OW20482   3.797   0.226   3.815  0.3434 -0.2161  0.4942
 2950SOL    HW120483   3.790   0.212   3.720  1.2918 -0.9714  0.5375
 2950SOL    HW220484   3.709   0.262   3.828 -0.0596 -0.1640 -2.2447
 2951SOL     OW20485   0.998   2.232   1.567  0.7197  0.0148 -1.0387
 2951SOL    HW120486   0.947   2.180   1.628  2.2758 -0.0215  0.2346
 2951SOL    HW220487   1.072   2.245   1.626 -0.3556 -1.1581  0.5551
 2952SOL     OW20488   0.388   2.356  14.146 -0.1768 -0.7342  0.1599
 2952SOL    HW120489   0.361   2.407  14.069 -0.4932  0.4768  1.0669
 2952SOL    HW220490   0.454   2.418  14.175  0.3697 -0.1004 -2.4311
 2953SOL     OW20491   0.230   4.558   5.368 -0.2752  0.7600  0.1498
 2953SOL    HW120492   0.276   4.516   5.441 -0.4904 -0.5207 -0.4452
 2953SOL    HW220493   0.182   4.481   5.338  0.2892  0.6395 -0.4431
 2954SOL     OW20494   2.414   2.662  12.312  0.3033 -0.8205 -0.3684
 2954SOL    HW120495   2.508   2.682  12.312 -0.0586  0.9238  2.1779
 2954SOL    HW220496   2.396   2.618  12.229  0.6219 -0.5567 -0.5795
 2955SOL     OW20497   0.771   3.519   4.345 -1.1654 -0.5424  0.2276
 2955SOL    HW120498   0.761   3.433   4.386  1.3723 -0.1962  1.6027
 2955SOL    HW220499   0.749   3.579   4.417  1.8653  0.3323  0.4420
 2956SOL     OW20500   2.741   0.307   5.882  0.5369 -0.3049  0.1819
 2956SOL    HW120501   2.659   0.308   5.832  0.2135 -0.1251  0.7170
 2956SOL    HW220502   2.806   0.329   5.815  1.5882  0.7831  1.5623
 2957SOL     OW20503   4.534   0.353   3.577  0.6330  0.7450  0.5837
 2957SOL    HW120504   4.473   0.355   3.651  1.3774 -2.2326  1.3133
 2957SOL    HW220505   4.479   0.391   3.510 -0.3784  0.3570  1.1999
 2958SOL     OW20506   3.231   4.218   7.065  0.0475  0.0099 -0.0756
 2958SOL    HW120507   3.155   4.196   7.119 -0.2413 -0.7530 -0.7730
 2958SOL    HW220508   3.251   4.132   7.028 -1.2143 -0.9430  1.4675
 2959SOL     OW20509   3.923   0.444   8.634 -0.1094 -0.0932 -0.0679
 2959SOL    HW120510   3.914   0.452   8.539 -0.1021 -1.2758 -0.1735
 2959SOL    HW220511   3.830   0.439   8.657  0.0656 -0.4694  0.5542
 2960SOL     OW20512   4.150   2.251   4.265 -0.0959 -0.2510 -0.2071
 2960SOL    HW120513   4.168   2.336   4.225  1.2502 -0.8537 -0.8743
 2960SOL    HW220514   4.165   2.274   4.357 -0.0861 -0.9156 -0.0436
 2961SOL     OW20515   2.362   3.712  14.634  0.0549 -0.0054  0.5359
 2961SOL    HW120516   2.436   3.770  14.618 -0.6618  0.8679  0.3616
 2961SOL    HW220517   2.320   3.760  14.705 -1.9013  0.9910 -1.2784
 2962SOL     OW20518   4.038   2.266   5.259 -0.8622 -0.4224  0.4784
 2962SOL    HW120519   4.094   2.192   5.236  0.4341  1.6939 -3.2284
 2962SOL    HW220520   4.090   2.299   5.333  0.5309 -0.6470 -0.3954
 2963SOL     OW20521   1.653   2.355  17.578  0.7417  0.0932  0.3058
 2963SOL    HW120522   1.612   2.335  17.495 -1.0331  0.6079  1.0668
 2963SOL    HW220523   1.694   2.271  17.599 -0.3549 -0.4576  0.1932
 2964SOL     OW20524   4.700   4.293  11.250  0.7632 -0.0176  0.2030
 2964SOL    HW120525   0.021   4.358  11.290 -0.4743  0.5831  1.0269
 2964SOL    HW220526   4.646   4.353  11.199  1.4512 -0.5101 -1.0816
 2965SOL     OW20527   0.276   2.586   7.349 -0.2742 -0.0206  0.1421
 2965SOL    HW120528   0.331   2.651   7.391 -0.5062 -0.7938  1.6565
 2965SOL    HW220529   0.188   2.621   7.368 -0.6330 -1.1795  0.6324
 2966SOL     OW20530   3.449   3.744   5.110  0.0494 -0.2190  0.3273
 2966SOL    HW120531   3.540   3.716   5.116 -0.3186 -1.5659 -0.2710
 2966SOL    HW220532   3.412   3.662   5.076 -0.4939  0.1059  0.1338
 2967SOL     OW20533   1.226   2.441   3.064  0.0257 -0.2245 -0.1918
 2967SOL    HW120534   1.145   2.406   3.027  0.3515 -1.6290  0.3939
 2967SOL    HW220535   1.216   2.410   3.154  1.0579  1.6426  0.5611
 2968SOL     OW20536   0.533   1.433   7.699  0.7823  0.1537  0.4584
 2968SOL    HW120537   0.571   1.495   7.760 -1.5058  0.0949  1.9325
 2968SOL    HW220538   0.440   1.435   7.722  1.0078 -0.9727  1.4469
 2969SOL     OW20539   2.619   1.902   2.583  0.4029 -0.9071 -0.1870
 2969SOL    HW120540   2.567   1.978   2.555  1.5567 -0.6870 -1.6937
 2969SOL    HW220541   2.594   1.858   2.502  1.0972  0.5843 -1.1963
 2970SOL     OW20542   2.189   0.441   0.286  0.8867  0.0473  0.3358
 2970SOL    HW120543   2.170   0.354   0.251  1.0701  0.9479 -2.0024
 2970SOL    HW220544   2.152   0.434   0.374 -0.7632  2.0189 -0.1946
 2971SOL     OW20545   1.229   2.910   5.089 -0.3832  0.8339 -0.2633
 2971SOL    HW120546   1.299   2.926   5.152  0.9681 -0.9224 -1.3009
 2971SOL    HW220547   1.154   2.900   5.148  0.3846 -0.4203  0.4974
 2972SOL     OW20548   0.643   0.640   2.780 -0.3844 -0.1931 -0.1795
 2972SOL    HW120549   0.679   0.562   2.822  0.9133  1.1470  1.1809
 2972SOL    HW220550   0.699   0.703   2.825  0.5235 -0.4985 -0.8827
 2973SOL     OW20551   3.338   1.691   7.283  0.0125 -0.2942  0.3396
 2973SOL    HW120552   3.331   1.617   7.343 -1.5970 -0.6863 -0.3366
 2973SOL    HW220553   3.382   1.746   7.348  0.2272 -1.0788  0.8577
 2974SOL     OW20554   3.465   4.669   2.857  0.1589  0.0271  0.0489
 2974SOL    HW120555   3.438   0.022   2.872  3.5250  0.9421  0.5622
 2974SOL    HW220556   3.445   4.629   2.942  1.1421 -1.0620 -0.2344
 2975SOL     OW20557   3.344   3.014   6.453 -0.3296 -0.6099  0.1942
 2975SOL    HW120558   3.389   3.073   6.514 -1.6065 -0.2849  0.8114
 2975SOL    HW220559   3.293   3.072   6.396 -0.4312 -1.2398 -0.3572
 2976SOL     OW20560   2.002   0.580  16.730 -0.1854 -0.3402  0.0069
 2976SOL    HW120561   1.914   0.552  16.705 -1.3994  0.3238  3.6749
 2976SOL    HW220562   2.058   0.505  16.754  1.1129 -0.0176 -1.9647
 2977SOL     OW20563   1.860   2.270   1.855 -0.2662 -0.2355  0.1208
 2977SOL    HW120564   1.929   2.224   1.903 -1.4524 -0.9629  1.1455
 2977SOL    HW220565   1.843   2.210   1.783  0.5674  0.4178 -0.6237
 2978SOL     OW20566   4.148   0.409   9.564 -0.4036  0.0461 -0.2091
 2978SOL    HW120567   4.216   0.402   9.631  0.6604 -1.2771 -1.4236
 2978SOL    HW220568   4.168   0.326   9.521  0.9333 -1.0516  2.5190
 2979SOL     OW20569   1.590   4.661  14.606  0.8438 -0.7763 -0.2810
 2979SOL    HW120570   1.563   4.574  14.576 -0.7657 -1.0921  2.1015
 2979SOL    HW220571   1.670   4.675  14.556 -0.3769  0.9524 -1.7398
 2980SOL     OW20572   2.243   4.251  12.048 -0.3139  0.7159 -0.6236
 2980SOL    HW120573   2.266   4.322  11.988 -1.0293  1.3964 -0.0843
 2980SOL    HW220574   2.274   4.170  12.007 -2.1723 -0.7105  0.7909
 2981SOL     OW20575   3.438   3.381   8.866  0.0875 -0.7190  0.1841
 2981SOL    HW120576   3.505   3.345   8.808 -1.8194 -2.5214 -0.9301
 2981SOL    HW220577   3.449   3.475   8.852  1.4449 -1.0148 -0.6906
 2982SOL     OW20578   0.152   0.567  14.073  0.4367 -0.2339  0.1008
 2982SOL    HW120579   0.233   0.581  14.122 -0.0332 -0.4829  0.9653
 2982SOL    HW220580   0.093   0.542  14.145  1.1597 -1.8011  0.1607
 2983SOL     OW20581   0.765   4.135   5.250 -0.3018  0.3612 -0.1368
 2983SOL    HW120582   0.836   4.194   5.224 -0.1954 -1.2562 -3.5376
 2983SOL    HW220583   0.688   4.184   5.219 -2.0368 -2.3133 -0.0416
 2984SOL     OW20584   3.272   3.457   5.207 -0.5014 -0.1695  0.1855
 2984SOL    HW120585   3.237   3.497   5.128  2.3418 -0.6556 -1.3165
 2984SOL    HW220586   3.210   3.384   5.206 -2.1436  1.2238  0.2311
 2985SOL     OW20587   2.633   3.148  15.611 -0.2302  0.3288  0.3323
 2985SOL    HW120588   2.570   3.218  15.597 -2.2661 -1.7113 -0.7133
 2985SOL    HW220589   2.711   3.190  15.647  1.7122 -2.8036 -0.1517
 2986SOL     OW20590   3.081   2.680   1.205 -0.3562 -0.3011  0.1365
 2986SOL    HW120591   3.007   2.659   1.263 -0.8657  0.6928 -0.1485
 2986SOL    HW220592   3.078   2.595   1.161  0.8562 -1.4587  2.2703
 2987SOL     OW20593   2.112   0.202   5.883 -0.0262  0.3550  0.1305
 2987SOL    HW120594   2.113   0.149   5.803 -0.5050  1.5645 -0.6639
 2987SOL    HW220595   2.144   0.134   5.943 -4.1080 -0.4737  1.3952
 2988SOL     OW20596   2.026   1.985   1.604  0.3976 -0.3887  0.5222
 2988SOL    HW120597   1.931   1.992   1.604  0.3628 -0.8538  0.4050
 2988SOL    HW220598   2.026   1.961   1.511 -1.3494  0.5151  0.3082
 2989SOL     OW20599   0.258   3.284  14.949 -0.3425 -0.1078  0.0960
 2989SOL    HW120600   0.298   3.211  14.996  2.1605  1.2296  0.0385
 2989SOL    HW220601   0.192   3.317  15.009 -1.2291 -2.0021  0.1452
 2990SOL     OW20602   1.877   1.318   1.471  0.0629 -0.3292 -0.1403
 2990SOL    HW120603   1.888   1.278   1.385  0.0216  1.2687 -0.8921
 2990SOL    HW220604   1.850   1.238   1.515  0.9236  0.6941  2.2324
 2991SOL     OW20605   4.008   1.946   9.434 -0.4654  0.4040  0.1022
 2991SOL    HW120606   4.049   1.860   9.424 -0.3906  0.6957 -2.2038
 2991SOL    HW220607   4.035   1.970   9.522  0.9386  0.9970 -0.4907
 2992SOL     OW20608   1.209   3.081   4.872 -0.8236 -0.0889  0.2653
 2992SOL    HW120609   1.118   3.096   4.898 -0.9571  1.1284 -0.9389
 2992SOL    HW220610   1.242   3.014   4.932 -1.4465 -0.5715  0.0667
 2993SOL     OW20611   3.715   3.780   7.941 -0.3141  0.1899 -0.1842
 2993SOL    HW120612   3.651   3.796   7.873 -0.6484 -0.8598 -0.1209
 2993SOL    HW220613   3.719   3.686   7.962  0.8740  0.4951  0.9850
 2994SOL     OW20614   2.885   2.467   5.494  0.3252  0.5213 -0.0159
 2994SOL    HW120615   2.840   2.501   5.416 -1.3538  2.6828  1.9075
 2994SOL    HW220616   2.972   2.506   5.488  0.7107 -0.5046 -1.1694
 2995SOL     OW20617   0.610   3.458   2.170 -0.5349 -0.1112  0.1949
 2995SOL    HW120618   0.582   3.462   2.079  2.2602 -0.5621 -0.6939
 2995SOL    HW220619   0.533   3.500   2.209 -1.0075 -0.6499 -0.1586
 2996SOL     OW20620   1.710   4.099  12.831 -0.0642 -0.1969 -1.1200
 2996SOL    HW120621   1.648   4.168  12.855 -1.1510 -2.0654  1.4956
 2996SOL    HW220622   1.786   4.156  12.819 -2.3842  2.9948 -0.6736
 2997SOL     OW20623   0.710   0.712   3.785 -0.0602  0.0759 -0.1479
 2997SOL    HW120624   0.640   0.697   3.847  0.2871 -2.2576 -0.3207
 2997SOL    HW220625   0.723   0.806   3.798 -1.1199  0.1553  0.3474
 2998SOL     OW20626   0.970   3.132   5.009  0.0244 -0.1593 -0.5538
 2998SOL    HW120627   0.891   3.118   4.957  0.0342  0.5340 -0.7564
 2998SOL    HW220628   0.968   3.053   5.062  1.4987 -0.9930 -1.7339
 2999SOL     OW20629   1.015   3.960   2.717 -0.2482 -0.1116 -0.3331
 2999SOL    HW120630   1.072   3.896   2.758  0.5203  1.4774  1.0793
 2999SOL    HW220631   0.927   3.942   2.751 -0.4625 -2.4882 -2.2132
 3000SOL     OW20632   1.399   3.040  15.094 -0.0664 -0.3358  0.0911
 3000SOL    HW120633   1.377   3.131  15.075 -0.9048 -0.2603  1.3977
 3000SOL    HW220634   1.433   3.015  15.008 -2.7935 -4.2870  0.1667
 3001SOL     OW20635   3.962   2.583   0.636  0.7731 -0.0232  0.3163
 3001SOL    HW120636   3.902   2.556   0.566  1.7832 -0.6279 -0.3244
 3001SOL    HW220637   3.904   2.616   0.704  0.1399 -2.2200  0.8246
 3002SOL     OW20638   1.409   0.125   9.078  0.3349 -0.0595  0.1165
 3002SOL    HW120639   1.493   0.085   9.104 -0.9183 -2.7997 -0.0310
 3002SOL    HW220640   1.398   0.188   9.149 -0.7247 -1.7989  1.5163
 3003SOL     OW20641   1.847   2.100   3.321 -0.0814  0.3257 -0.1444
 3003SOL    HW120642   1.783   2.030   3.334 -1.4551  1.3686 -1.2982
 3003SOL    HW220643   1.887   2.111   3.407 -1.5889 -0.6355  0.6643
 3004SOL     OW20644   1.183   2.959   1.254  0.0614 -0.5588 -0.3502
 3004SOL    HW120645   1.142   3.018   1.317  2.2744 -0.6129  1.1168
 3004SOL    HW220646   1.210   3.024   1.189 -1.3373  0.5211  0.1388
 3005SOL     OW20647   3.657   1.290   3.350 -0.2985  0.7274  0.0009
 3005SOL    HW120648   3.649   1.227   3.422  0.9826 -0.6266 -1.0292
 3005SOL    HW220649   3.744   1.322   3.374  0.2502 -1.2670  0.6916
 3006SOL     OW20650   1.551   4.052  15.679 -0.1392  0.7688  0.4661
 3006SOL    HW120651   1.624   4.103  15.644  1.9159 -1.2978  1.7538
 3006SOL    HW220652   1.478   4.114  15.672  0.6244  1.6479  0.2797
 3007SOL     OW20653   1.151   2.180   5.070  0.3184 -0.1627 -0.2624
 3007SOL    HW120654   1.211   2.213   5.003 -0.3022  0.4772 -0.5018
 3007SOL    HW220655   1.067   2.211   5.037  0.5731 -1.6104 -2.2545
 3008SOL     OW20656   2.454   1.397   7.619  0.1747 -0.4774 -0.1548
 3008SOL    HW120657   2.495   1.445   7.547 -2.4425 -1.5485 -2.3345
 3008SOL    HW220658   2.509   1.438   7.686 -0.9626 -1.8163  1.6101
 3009SOL     OW20659   3.561   1.791   8.367 -0.3029 -0.4124  0.3088
 3009SOL    HW120660   3.492   1.775   8.431  0.2704 -0.3871  0.9236
 3009SOL    HW220661   3.609   1.709   8.353 -0.6347 -0.2738 -1.7208
 3010SOL     OW20662   0.587   3.088  17.610 -0.2136  0.1713 -0.0338
 3010SOL    HW120663   0.531   3.012  17.599  0.6197 -0.3037 -0.9615
 3010SOL    HW220664   0.668   3.055  17.570 -1.6239 -0.1775 -2.5686
 3011SOL     OW20665   2.910   2.198  14.726 -0.3574 -0.3489 -0.0271
 3011SOL    HW120666   2.876   2.151  14.650  1.9437  1.8037 -2.4120
 3011SOL    HW220667   2.874   2.284  14.703 -0.1574  0.0782  1.2520
 3012SOL     OW20668   2.659   0.311  15.453 -0.4568 -0.2611  0.7610
 3012SOL    HW120669   2.704   0.342  15.374 -1.4342 -0.1432  0.2482
 3012SOL    HW220670   2.730   0.273  15.505 -0.3179 -0.1183  0.6753
 3013SOL     OW20671   2.063   0.204  13.464  0.5045  0.6293  0.1288
 3013SOL    HW120672   2.132   0.257  13.424  0.4008  0.6309 -0.0476
 3013SOL    HW220673   2.125   0.134  13.485 -0.4872 -0.0115  0.8973
 3014SOL     OW20674   4.643   2.468  14.071  0.7763  0.4150 -0.6287
 3014SOL    HW120675   4.698   2.536  14.032  1.5883  0.5422  0.7221
 3014SOL    HW220676   4.626   2.399  14.007 -0.6134 -0.0889  0.2824
 3015SOL     OW20677   3.229   4.640  12.358  0.4397 -0.0701  0.0112
 3015SOL    HW120678   3.262   4.667  12.444  1.4095  2.4638 -1.1788
 3015SOL    HW220679   3.143   4.681  12.356  0.9800  1.0363 -0.0398
 3016SOL     OW20680   1.770   0.069   6.471  0.0687  0.1996  0.3077
 3016SOL    HW120681   1.757   0.023   6.553 -1.6894  1.0251  0.5014
 3016SOL    HW220682   1.866   0.076   6.468 -0.0183  0.6059 -1.4457
 3017SOL     OW20683   0.565   4.682  13.851  0.3918 -0.5744  0.5290
 3017SOL    HW120684   0.525   4.733  13.921 -1.5380 -1.7243  0.2517
 3017SOL    HW220685   0.518   4.599  13.858 -0.3943 -0.2223 -0.6538
 3018SOL     OW20686   3.085   2.690   9.372  0.5607 -0.5866 -0.1967
 3018SOL    HW120687   2.994   2.686   9.402  0.7228  1.7989  0.6661
 3018SOL    HW220688   3.067   2.740   9.292  0.9044  2.2009  1.4487
 3019SOL     OW20689   1.680   1.246  12.408  0.9322  0.0942 -0.5518
 3019SOL    HW120690   1.593   1.279  12.384  1.1404  1.1432  0.1099
 3019SOL    HW220691   1.665   1.152  12.417  2.1888  0.0465  1.0322
 3020SOL     OW20692   0.279   3.093   4.413 -0.1638 -0.0070  0.2602
 3020SOL    HW120693   0.297   3.114   4.321  0.1887  0.2533  0.3872
 3020SOL    HW220694   0.200   3.146   4.425 -1.2226 -1.1180 -1.6847
 3021SOL     OW20695   0.456   2.757   7.450  0.0319 -0.6625 -0.3238
 3021SOL    HW120696   0.551   2.761   7.437  0.1710  0.2174  0.9708
 3021SOL    HW220697   0.424   2.839   7.413 -2.7986 -1.5337  0.2276
 3022SOL     OW20698   1.329   2.671   8.447  0.6340 -0.2165  0.0514
 3022SOL    HW120699   1.358   2.702   8.361  0.7503 -1.0014 -0.1972
 3022SOL    HW220700   1.410   2.654   8.496  1.4984  0.1727 -1.2281
 3023SOL     OW20701   4.196   4.183   5.227  0.4690  0.3234  0.2662
 3023SOL    HW120702   4.260   4.128   5.273 -0.3188 -0.6647  0.1734
 3023SOL    HW220703   4.130   4.192   5.296  3.4929  0.4086  3.1561
 3024SOL     OW20704   0.550   3.656   5.145 -0.0930  0.0418 -0.0308
 3024SOL    HW120705   0.476   3.621   5.195  0.0004  0.6546  0.5270
 3024SOL    HW220706   0.578   3.720   5.210  0.1717  1.1152 -1.1982
 3025SOL     OW20707   1.439   3.650   8.109 -0.2973  0.0945  0.2602
 3025SOL    HW120708   1.426   3.665   8.202 -0.8326 -0.2827  0.2419
 3025SOL    HW220709   1.489   3.729   8.089  1.2597 -0.7057  0.9839
 3026SOL     OW20710   0.920   1.734  12.838 -0.0820 -0.0171 -0.1931
 3026SOL    HW120711   0.909   1.653  12.788 -0.6756  0.9305 -1.6157
 3026SOL    HW220712   1.015   1.744  12.840  0.0219 -1.3179  0.8921
 3027SOL     OW20713   3.808   1.816  15.098  0.2825 -0.0909 -0.3905
 3027SOL    HW120714   3.827   1.899  15.141  0.4002 -1.3344  1.9294
 3027SOL    HW220715   3.720   1.791  15.125  0.3250  0.2453  0.0453
 3028SOL     OW20716   2.950   3.570  14.768 -0.2600  0.4856 -0.2654
 3028SOL    HW120717   2.983   3.493  14.723  1.1432  0.8578  0.1236
 3028SOL    HW220718   2.856   3.553  14.761 -0.2136  0.1911 -0.1804
 3029SOL     OW20719   4.625   3.036   0.524  0.1474  0.2272  0.1858
 3029SOL    HW120720   4.601   3.093   0.451  0.0781 -0.1645 -0.1008
 3029SOL    HW220721   4.694   2.987   0.479  0.4363  2.1516 -1.4422
 3030SOL     OW20722   1.444   4.664  13.624  0.4258  0.1979 -0.3831
 3030SOL    HW120723   1.382   4.611  13.673  1.1500 -0.3419 -0.0591
 3030SOL    HW220724   1.442   4.626  13.536  0.5713  0.9876 -0.7303
 3031SOL     OW20725   3.977   0.444   1.660  0.0291 -0.1898 -0.3311
 3031SOL    HW120726   3.949   0.535   1.672 -1.7997 -0.5997 -1.4065
 3031SOL    HW220727   4.013   0.412   1.742 -0.9592  0.8114  0.4813
 3032SOL     OW20728   3.725   0.398  13.560 -0.2714  0.1974  0.2345
 3032SOL    HW120729   3.748   0.397  13.653  3.6132 -0.4911 -0.7648
 3032SOL    HW220730   3.645   0.345  13.569 -0.9749  1.1983 -0.1267
 3033SOL     OW20731   4.554   1.338  16.294 -0.0753  0.1856  0.4085
 3033SOL    HW120732   4.630   1.280  16.303 -0.2811 -0.0976  0.2865
 3033SOL    HW220733   4.561   1.376  16.382 -0.1585 -0.6297  0.7585
 3034SOL     OW20734   3.149   4.490  14.989  0.2077 -0.1102  0.1972
 3034SOL    HW120735   3.060   4.456  14.997  0.7823 -2.0343 -1.8449
 3034SOL    HW220736   3.185   4.483  15.078 -0.9192  1.2816  0.7745
 3035SOL     OW20737   2.486   1.121   2.365 -1.1474  0.0360 -0.1363
 3035SOL    HW120738   2.566   1.073   2.342 -0.5050  1.1134 -0.1573
 3035SOL    HW220739   2.523   1.205   2.339  0.9771 -1.3235 -1.5041
 3036SOL     OW20740   3.918   0.362   9.683  0.5383 -0.0682 -0.2057
 3036SOL    HW120741   3.976   0.361   9.758  0.0254  0.7985  0.2078
 3036SOL    HW220742   3.982   0.380   9.614 -0.9637 -2.8285 -2.3346
 3037SOL     OW20743   2.532   0.603  13.821 -0.7923  0.8141  0.2149
 3037SOL    HW120744   2.461   0.553  13.782 -0.2474  1.3464 -1.4821
 3037SOL    HW220745   2.527   0.557  13.905 -1.6150  3.0591  1.4099
 3038SOL     OW20746   0.500   3.429  15.141 -0.8131 -0.4486 -0.2416
 3038SOL    HW120747   0.458   3.436  15.055 -1.9133  1.5231  0.4635
 3038SOL    HW220748   0.593   3.444  15.126 -0.5650 -0.2048  1.5531
 3039SOL     OW20749   3.693   4.644   3.729  0.0196  0.1573  0.0537
 3039SOL    HW120750   3.750   4.694   3.671  1.0485 -1.5442 -0.4027
 3039SOL    HW220751   3.760   4.588   3.770  0.9412  0.2033 -1.3881
 3040SOL     OW20752   1.907   0.787   8.721  0.4340 -0.7786  0.2422
 3040SOL    HW120753   1.987   0.788   8.773 -1.5336 -1.6426  3.2958
 3040SOL    HW220754   1.861   0.861   8.762 -0.7518  0.8397 -3.9884
 3041SOL     OW20755   1.995   0.612  12.758  0.0003 -0.2776 -0.1345
 3041SOL    HW120756   1.967   0.674  12.826  0.3212 -0.4535  0.1579
 3041SOL    HW220757   2.081   0.586  12.791 -0.2047  1.8352  2.0848
 3042SOL     OW20758   2.558   0.131   0.032  0.0273  0.0745 -0.0165
 3042SOL    HW120759   2.590   0.077  17.705  3.6338  1.4771  0.5777
 3042SOL    HW220760   2.466   0.106   0.022 -0.6372  2.7323 -0.5352
 3043SOL     OW20761   3.825   3.435   7.061 -0.6704 -0.1304  0.1791
 3043SOL    HW120762   3.788   3.480   6.986 -1.9100  0.4168  1.1139
 3043SOL    HW220763   3.744   3.399   7.098  0.7744 -3.6435 -0.0213
 3044SOL     OW20764   4.088   3.447   3.610 -0.0959  0.4072  0.4050
 3044SOL    HW120765   3.993   3.446   3.625 -0.0108  0.4582  0.9412
 3044SOL    HW220766   4.088   3.383   3.538 -0.7412  0.9511 -0.0794
 3045SOL     OW20767   2.186   3.136  11.375 -0.6517  0.0960  0.0712
 3045SOL    HW120768   2.275   3.137  11.409 -0.5174  0.4837 -0.3004
 3045SOL    HW220769   2.168   3.229  11.362 -0.2775 -0.1817 -2.4650
 3046SOL     OW20770   2.487   2.140   4.659  0.3778 -0.1515  0.1930
 3046SOL    HW120771   2.515   2.087   4.734  0.9980 -1.1001 -0.7172
 3046SOL    HW220772   2.577   2.154   4.628  0.5915 -0.0614  0.8482
 3047SOL     OW20773   2.427   0.476   8.451 -0.1062 -0.0608  0.1249
 3047SOL    HW120774   2.394   0.525   8.526 -0.7537  0.8459 -0.7588
 3047SOL    HW220775   2.381   0.395   8.475 -0.1470  0.0180  0.3127
 3048SOL     OW20776   4.054   0.915  15.326  0.2727  0.5009 -0.0166
 3048SOL    HW120777   4.083   0.849  15.388  1.7198 -0.0393 -1.2598
 3048SOL    HW220778   3.999   0.966  15.385  0.3696  0.3330  0.2195
 3049SOL     OW20779   2.372   0.721  12.232 -0.0388 -0.4662  0.3179
 3049SOL    HW120780   2.356   0.815  12.244  0.3729 -0.2526 -0.7837
 3049SOL    HW220781   2.447   0.711  12.174 -0.0880  1.8806 -0.1615
 3050SOL     OW20782   3.584   4.381   1.823 -0.3468  0.1462 -0.0913
 3050SOL    HW120783   3.619   4.293   1.834  0.3343  0.6507  1.6434
 3050SOL    HW220784   3.495   4.378   1.788 -1.0531 -0.8701  1.8023
 3051SOL     OW20785   0.902   0.025   7.401  0.6826 -0.1685 -0.4629
 3051SOL    HW120786   0.970   0.092   7.411  1.2136 -0.5788 -1.3466
 3051SOL    HW220787   0.898   0.023   7.305 -1.8078 -2.5547 -0.2980
 3052SOL     OW20788   0.027   0.086   5.738  0.2053 -0.0985  0.1345
 3052SOL    HW120789   0.122   0.092   5.735 -0.0915  3.2694 -2.2135
 3052SOL    HW220790   0.005   0.179   5.735  0.5622  0.0150  1.0110
 3053SOL     OW20791   2.123   1.207  13.494 -0.0666  0.2856  0.4292
 3053SOL    HW120792   2.095   1.245  13.578 -3.2392 -3.3939  1.0471
 3053SOL    HW220793   2.062   1.134  13.486  1.0620 -0.7363  1.0450
 3054SOL     OW20794   2.977   0.247   6.477 -0.3668 -0.2536 -0.1241
 3054SOL    HW120795   3.061   0.236   6.522 -0.2342  0.0945 -0.2856
 3054SOL    HW220796   2.936   0.162   6.495 -0.3506 -0.1905  0.2077
 3055SOL     OW20797   1.641   3.020  10.211 -0.5212  0.2622 -0.1801
 3055SOL    HW120798   1.614   2.958  10.279  0.1709  0.8048  0.5905
 3055SOL    HW220799   1.735   3.000  10.210 -0.3882  0.9351 -1.6478
 3056SOL     OW20800   0.560   3.427  11.068  0.7088 -0.2494  0.5294
 3056SOL    HW120801   0.557   3.398  10.977  0.2091  1.5994 -0.0334
 3056SOL    HW220802   0.641   3.387  11.099  1.6193  2.2511  1.3142
 3057SOL     OW20803   1.143   3.041  11.618 -0.4598  0.3474 -0.7007
 3057SOL    HW120804   1.171   2.954  11.589 -3.0992 -0.5293 -0.5853
 3057SOL    HW220805   1.187   3.097  11.554 -0.6536  0.3900 -0.7953
 3058SOL     OW20806   0.975   2.205   6.632  0.0219 -0.4622  0.3945
 3058SOL    HW120807   1.050   2.263   6.633 -1.9434  2.0772  0.3372
 3058SOL    HW220808   0.908   2.266   6.602 -0.3303  0.0330  2.1849
 3059SOL     OW20809   2.123   3.783   3.563  0.1389  0.0388 -0.3371
 3059SOL    HW120810   2.065   3.846   3.605 -0.4979 -1.1019  0.4813
 3059SOL    HW220811   2.201   3.783   3.618 -0.6591 -3.4712  0.8027
 3060SOL     OW20812   0.402   4.292   9.422  0.1436 -0.5493 -0.5772
 3060SOL    HW120813   0.444   4.209   9.445 -1.4759 -1.6205 -1.4870
 3060SOL    HW220814   0.405   4.298   9.326  0.9222  1.0801 -0.4532
 3061SOL     OW20815   4.269   3.993   6.127 -0.3834  0.0468 -0.2959
 3061SOL    HW120816   4.214   3.933   6.076  0.5466 -2.2239  1.3182
 3061SOL    HW220817   4.248   3.960   6.215 -2.2107 -1.4642 -1.3003
 3062SOL     OW20818   3.030   2.756   8.616  0.2801 -0.0877  0.2374
 3062SOL    HW120819   2.990   2.766   8.530 -0.4700 -0.7179  0.5107
 3062SOL    HW220820   3.012   2.662   8.624  0.8448 -0.2989 -1.0206
 3063SOL     OW20821   2.575   4.118   9.349  0.6747 -0.2049 -0.2213
 3063SOL    HW120822   2.570   4.027   9.378  0.2993  0.3127  1.3000
 3063SOL    HW220823   2.670   4.127   9.336  0.3478  1.7602 -1.1930
 3064SOL     OW20824   2.676   0.200   4.031  0.7387  0.2237  0.4832
 3064SOL    HW120825   2.609   0.132   4.034 -0.8951  1.6931 -1.7686
 3064SOL    HW220826   2.628   0.270   3.987  0.7219  0.3692  0.7351
 3065SOL     OW20827   1.652   1.291   1.744 -0.8732  0.1616  0.1388
 3065SOL    HW120828   1.653   1.363   1.681 -1.6316 -0.0104 -0.0704
 3065SOL    HW220829   1.594   1.332   1.808 -0.3229 -1.2386  1.5466
 3066SOL     OW20830   1.187   0.732   3.569  0.8784  0.0115  0.8005
 3066SOL    HW120831   1.263   0.787   3.586  1.9349 -1.2358  0.1346
 3066SOL    HW220832   1.220   0.666   3.508  0.9910  0.8392 -0.0315
 3067SOL     OW20833   4.041   3.745   0.760  0.5523  0.2531 -0.7710
 3067SOL    HW120834   4.113   3.693   0.797  0.6906 -0.9954 -2.7752
 3067SOL    HW220835   4.050   3.819   0.820  1.5240  1.4228 -2.3328
 3068SOL     OW20836   2.982   1.901  15.803  0.5018 -0.2595  0.1986
 3068SOL    HW120837   2.917   1.836  15.831 -2.7841  1.5423 -3.2310
 3068SOL    HW220838   3.030   1.855  15.734 -1.0905  2.6143 -2.8322
 3069SOL     OW20839   0.190   3.590   7.092 -0.3217 -0.5235  0.1662
 3069SOL    HW120840   0.231   3.509   7.123 -0.3275 -0.7587 -0.4327
 3069SOL    HW220841   0.215   3.662   7.149  0.6188 -2.4455  2.1689
 3070SOL     OW20842   0.175   1.094   2.367 -0.2849 -0.0064  0.1892
 3070SOL    HW120843   0.091   1.138   2.364 -1.2838 -1.9170 -0.0456
 3070SOL    HW220844   0.158   1.008   2.406 -2.8921 -0.8376 -2.7777
 3071SOL     OW20845   2.130   0.704   6.887 -0.1268 -0.4507 -0.6288
 3071SOL    HW120846   2.139   0.644   6.814 -0.5722 -0.5178 -0.6304
 3071SOL    HW220847   2.218   0.713   6.922 -1.3385  0.2773  2.3205
 3072SOL     OW20848   1.189   4.461   5.306 -0.3292  0.1621 -0.8105
 3072SOL    HW120849   1.134   4.487   5.232  1.0587  2.2345 -1.1171
 3072SOL    HW220850   1.234   4.386   5.268  1.8849  0.7343  0.6986
 3073SOL     OW20851   2.146   2.810   3.882 -0.1818  0.6242 -0.2482
 3073SOL    HW120852   2.211   2.741   3.897 -0.8177  0.0765 -0.0408
 3073SOL    HW220853   2.061   2.767   3.872  0.9109 -1.7604  0.7365
 3074SOL     OW20854   0.997   3.350   5.773  0.4250 -0.5298 -0.1284
 3074SOL    HW120855   1.006   3.395   5.689  3.2820 -0.0239  0.4530
 3074SOL    HW220856   0.962   3.421   5.826 -0.0081  0.7631 -2.1605
 3075SOL     OW20857   0.901   0.836  13.918 -0.3306 -0.1438 -0.3726
 3075SOL    HW120858   0.865   0.862  14.002 -1.5932 -2.1390 -0.3024
 3075SOL    HW220859   0.824   0.795  13.879  0.5337 -1.4966 -0.6708
 3076SOL     OW20860   0.325   1.913   6.101 -0.5093  0.4772 -1.0225
 3076SOL    HW120861   0.404   1.906   6.154 -1.3514 -0.3810  0.1197
 3076SOL    HW220862   0.355   1.899   6.012  0.8450 -1.7305 -0.2228
 3077SOL     OW20863   2.651   0.458   8.110  0.2889  0.6212 -0.6269
 3077SOL    HW120864   2.728   0.447   8.165 -1.1255 -1.8590  0.8644
 3077SOL    HW220865   2.685   0.534   8.062  2.1604  1.6104  2.2967
 3078SOL     OW20866   0.578   0.695   5.977  0.0745 -0.2970 -0.1991
 3078SOL    HW120867   0.611   0.749   6.049 -1.3106  2.0628 -1.3334
 3078SOL    HW220868   0.517   0.752   5.929 -0.4691 -1.5799 -1.0387
 3079SOL     OW20869   3.996   3.290   3.887  0.2440  0.4285 -0.2113
 3079SOL    HW120870   3.927   3.265   3.825 -0.1068 -0.5717  0.5907
 3079SOL    HW220871   4.063   3.282   3.819 -1.7557 -0.0054 -2.1579
 3080SOL     OW20872   3.265   4.143   0.639  0.1001 -0.4031  0.0358
 3080SOL    HW120873   3.222   4.092   0.569  0.0605 -0.6172  0.2164
 3080SOL    HW220874   3.354   4.108   0.626 -0.3332 -2.0690  1.7000
 3081SOL     OW20875   0.129   4.323   9.669 -0.0120 -0.3048  0.2192
 3081SOL    HW120876   0.128   4.230   9.648 -0.2184 -0.6146  1.6354
 3081SOL    HW220877   0.151   4.352   9.580 -2.1203  1.1700  0.1651
 3082SOL     OW20878   2.855   0.253  15.597  0.2209  0.8149  0.0117
 3082SOL    HW120879   2.899   0.300  15.667  0.2841  4.0763 -2.1883
 3082SOL    HW220880   2.877   0.163  15.621 -2.0162 -0.5699 -2.9996
 3083SOL     OW20881   2.046   0.941   3.639  0.0431 -0.4491  0.7303
 3083SOL    HW120882   2.133   0.975   3.619 -0.2018 -0.5378 -0.4754
 3083SOL    HW220883   2.042   0.878   3.567 -1.7420  2.7121 -1.9106
 3084SOL     OW20884   0.852   0.660  11.116 -0.2737 -0.0356 -0.0395
 3084SOL    HW120885   0.936   0.701  11.138 -0.7544  1.3319 -0.7589
 3084SOL    HW220886   0.884   0.572  11.101  0.7777  0.5741 -1.3817
 3085SOL     OW20887   0.620   2.915   2.038  0.1610 -0.4835  0.5412
 3085SOL    HW120888   0.583   2.832   2.009 -0.5933 -0.1179  0.4817
 3085SOL    HW220889   0.696   2.902   1.981 -0.5737  0.5761 -0.6742
 3086SOL     OW20890   3.517   1.276   4.985  0.0875 -0.4837 -0.6022
 3086SOL    HW120891   3.518   1.328   4.904 -1.0940  2.1399  1.0522
 3086SOL    HW220892   3.599   1.227   4.981  0.4548  0.0402  0.3907
 3087SOL     OW20893   1.433   3.528   7.565  0.1646  0.1157  0.2719
 3087SOL    HW120894   1.457   3.521   7.473  1.3129  0.7876  0.5258
 3087SOL    HW220895   1.383   3.447   7.574 -0.2364  0.4623  1.2038
 3088SOL     OW20896   2.674   3.492   1.742 -0.2377  0.7572 -0.0503
 3088SOL    HW120897   2.699   3.576   1.702 -0.5483  0.6934 -0.3803
 3088SOL    HW220898   2.738   3.496   1.813 -0.1278 -0.5134 -0.0676
 3089SOL     OW20899   4.235   1.744  16.126 -0.1113  0.2536  0.1677
 3089SOL    HW120900   4.260   1.653  16.138  0.6774 -0.0643 -3.8446
 3089SOL    HW220901   4.325   1.775  16.120 -0.1943  0.2230 -1.2730
 3090SOL     OW20902   1.212   4.515   6.937 -0.3402  0.6212  0.0993
 3090SOL    HW120903   1.165   4.598   6.939 -1.0175  0.2772 -1.5993
 3090SOL    HW220904   1.172   4.468   7.011  1.1915 -1.9036 -0.6529
 3091SOL     OW20905   0.348   2.508   3.120 -0.3445 -0.4902 -0.4008
 3091SOL    HW120906   0.315   2.419   3.114 -0.7816 -0.4696  2.0252
 3091SOL    HW220907   0.442   2.488   3.120 -0.5796 -1.5778 -0.8284
 3092SOL     OW20908   4.108   3.675   5.786  0.8625 -0.3228 -0.1033
 3092SOL    HW120909   4.052   3.621   5.842  1.4712  0.5904  1.3922
 3092SOL    HW220910   4.090   3.766   5.811 -0.2760 -0.7244  0.5494
 3093SOL     OW20911   2.684   0.930   8.126  0.5632 -0.7095  0.3864
 3093SOL    HW120912   2.652   1.019   8.112  0.4448 -1.0538 -1.5348
 3093SOL    HW220913   2.623   0.881   8.182  0.9853 -0.9359  0.6531
 3094SOL     OW20914   2.660   0.689   9.521  0.1739 -0.1552  0.7066
 3094SOL    HW120915   2.651   0.763   9.582  1.2680 -0.2312  0.9575
 3094SOL    HW220916   2.715   0.731   9.455  0.2214  4.2609  3.5516
 3095SOL     OW20917   2.719   0.901   4.242 -0.0013 -0.6296  0.3294
 3095SOL    HW120918   2.800   0.951   4.230 -0.2604  0.0925  1.6655
 3095SOL    HW220919   2.719   0.838   4.170 -2.6974 -2.0275  1.5846
 3096SOL     OW20920   2.027   3.300  16.239 -0.1442  0.3445  0.4817
 3096SOL    HW120921   2.028   3.304  16.335 -0.3733 -1.5023  0.5578
 3096SOL    HW220922   2.064   3.385  16.214  0.3014 -0.0043 -0.0353
 3097SOL     OW20923   3.049   3.010   6.743  0.4774 -0.2724  0.0734
 3097SOL    HW120924   2.992   2.968   6.807  0.7366 -0.8977 -0.1124
 3097SOL    HW220925   2.984   3.040   6.680  2.3690  1.2785 -1.1391
 3098SOL     OW20926   2.017   1.932  12.030  0.3056 -0.0731 -0.4304
 3098SOL    HW120927   1.951   1.994  12.062  0.4618 -0.3628  0.4576
 3098SOL    HW220928   1.978   1.849  12.004  1.2569 -1.2839  2.0153
 3099SOL     OW20929   3.700   1.524  11.906 -0.6246  0.2597  0.0464
 3099SOL    HW120930   3.668   1.605  11.867 -1.9031 -0.9431 -1.3801
 3099SOL    HW220931   3.645   1.458  11.865 -1.4676  1.3840 -0.6321
 3100SOL     OW20932   1.724   4.100   8.395 -0.3735  0.5489  0.0237
 3100SOL    HW120933   1.696   4.023   8.345  2.1724  0.2043 -0.8725
 3100SOL    HW220934   1.807   4.068   8.431 -0.6706  0.3294  0.5202
 3101SOL     OW20935   1.181   2.862   6.069  0.8180 -0.1708  0.0278
 3101SOL    HW120936   1.193   2.948   6.111  0.4521  0.7968 -1.8471
 3101SOL    HW220937   1.086   2.849   6.069  0.5631  1.7369 -0.5822
 3102SOL     OW20938   1.766   2.161   1.199  0.5740  0.0604 -0.0789
 3102SOL    HW120939   1.671   2.170   1.197  0.5976 -0.0153 -2.1612
 3102SOL    HW220940   1.797   2.251   1.208 -1.5843  0.8739 -0.7314
 3103SOL     OW20941   3.048   0.236   7.197  0.3714 -0.0087  0.3570
 3103SOL    HW120942   3.023   0.237   7.105  0.3800 -0.6339  0.3473
 3103SOL    HW220943   3.070   0.325   7.224  0.7998  0.0362 -0.1361
 3104SOL     OW20944   1.178   0.724   3.105 -0.0986  0.0681 -0.1319
 3104SOL    HW120945   1.133   0.658   3.156 -0.9640  0.2571 -0.6454
 3104SOL    HW220946   1.103   0.783   3.094 -0.5562 -0.6801 -1.0305
 3105SOL     OW20947   2.123   2.869  16.121 -0.3752 -0.0423 -0.0737
 3105SOL    HW120948   2.046   2.908  16.162 -0.1029  0.0477  0.3509
 3105SOL    HW220949   2.184   2.857  16.194  0.6706  1.4340 -0.7242
 3106SOL     OW20950   1.208   4.223  12.323  0.9783 -0.1258  0.2789
 3106SOL    HW120951   1.161   4.306  12.331 -1.2317 -1.4901  1.6707
 3106SOL    HW220952   1.242   4.232  12.234 -1.1519  1.9691 -0.3227
 3107SOL     OW20953   4.439   3.598   3.647  0.4509  0.0901 -0.6361
 3107SOL    HW120954   4.395   3.567   3.726  1.8593 -0.4258 -0.0615
 3107SOL    HW220955   4.467   3.521   3.598 -1.7087 -0.8736 -0.3304
 3108SOL     OW20956   0.333   1.169   9.134  0.3815  0.6722  0.1740
 3108SOL    HW120957   0.324   1.112   9.210 -0.8704  0.1497 -0.3621
 3108SOL    HW220958   0.249   1.155   9.089  2.2014 -2.3108 -2.3413
 3109SOL     OW20959   4.055   0.008   6.227  0.5479  0.2110 -0.0168
 3109SOL    HW120960   4.023   4.689   6.298 -2.2115  0.5141 -1.0146
 3109SOL    HW220961   3.997   4.723   6.155 -1.4599  1.4437  1.2053
 3110SOL     OW20962   2.039   1.984   9.155 -0.0322  0.2150  0.0733
 3110SOL    HW120963   2.030   1.975   9.061 -0.3843  2.7895 -0.1355
 3110SOL    HW220964   2.061   2.077   9.161 -2.6893  0.8382 -0.0111
 3111SOL     OW20965   3.943   1.753   4.675  0.2987  0.1173  0.4624
 3111SOL    HW120966   3.932   1.772   4.768  0.3946 -1.2819  0.7460
 3111SOL    HW220967   3.990   1.671   4.682  0.0483 -0.1223 -0.6522
 3112SOL     OW20968   2.623   4.573  17.178 -0.2729 -0.0168 -0.4567
 3112SOL    HW120969   2.556   4.624  17.222 -0.2390  1.4027 -2.0557
 3112SOL    HW220970   2.665   4.522  17.248 -0.3142  1.3993  0.6011
 3113SOL     OW20971   0.299   0.110   5.733 -0.2221  0.1508 -0.0635
 3113SOL    HW120972   0.351   0.091   5.655  1.6328  2.0357  0.6914
 3113SOL    HW220973   0.323   0.200   5.755 -1.9889  0.2374  1.5271
 3114SOL     OW20974   0.790   3.673   2.982  0.1711  0.5053  0.0906
 3114SOL    HW120975   0.723   3.697   3.046 -1.2015  0.8675 -1.4675
 3114SOL    HW220976   0.795   3.759   2.939  2.0133 -0.0306 -0.7589
 3115SOL     OW20977   3.989   3.734   7.182 -0.0623 -0.2093  0.5815
 3115SOL    HW120978   4.023   3.659   7.133  0.9213 -0.8059  2.1512
 3115SOL    HW220979   4.008   3.808   7.124 -1.0226 -3.0271 -3.2965
 3116SOL     OW20980   3.792   3.943   0.921 -0.3509 -0.1363 -0.4468
 3116SOL    HW120981   3.755   4.004   0.984 -0.0876 -0.1278 -0.3008
 3116SOL    HW220982   3.843   3.882   0.974 -2.2447 -1.7352 -0.4886
 3117SOL     OW20983   2.850   3.611   0.027  0.0093  0.1500  0.2352
 3117SOL    HW120984   2.936   3.603   0.069 -1.1825 -2.5387  2.1868
 3117SOL    HW220985   2.875   3.650  17.689 -4.2651  1.3497 -0.4775
 3118SOL     OW20986   2.946   1.724  17.354 -0.3432  0.5861  0.4179
 3118SOL    HW120987   3.001   1.683  17.287 -0.1794 -0.3095  1.1001
 3118SOL    HW220988   2.959   1.818  17.339 -0.4205  0.3135 -1.3600
 3119SOL     OW20989   3.399   1.443  13.969 -0.0492 -0.2940  0.3730
 3119SOL    HW120990   3.423   1.489  14.049 -0.3135  1.0686 -0.3408
 3119SOL    HW220991   3.304   1.438  13.977  0.0800 -2.0354  0.8354
 3120SOL     OW20992   3.803   1.537   0.318  0.3005 -0.5918 -0.2289
 3120SOL    HW120993   3.729   1.593   0.293  1.4462 -0.6856 -3.7539
 3120SOL    HW220994   3.876   1.597   0.334 -2.0276  1.3844  2.9679
 3121SOL     OW20995   0.288   4.207  13.406  0.3547  0.0304 -0.5867
 3121SOL    HW120996   0.194   4.192  13.414  0.6148 -2.1651 -1.6528
 3121SOL    HW220997   0.302   4.244  13.493  1.5491 -0.4771 -0.5547
 3122SOL     OW20998   2.962   0.605   3.465 -0.3142  0.2502  0.9906
 3122SOL    HW120999   3.009   0.689   3.464  0.4875 -0.1926  1.7047
 3122SOL    HW221000   2.882   0.641   3.426  2.0299  0.5657 -3.4975
 3123SOL     OW21001   0.089   0.904   3.048 -0.7959  0.0931 -0.2953
 3123SOL    HW121002   0.153   0.913   3.119  0.3076 -2.2249 -0.9823
 3123SOL    HW221003   0.143   0.938   2.977 -0.6837 -0.3581 -0.4254
 3124SOL     OW21004   1.646   4.649   7.221 -0.4954  0.2288 -0.2747
 3124SOL    HW121005   1.703   4.589   7.171 -2.0981 -2.5792  1.2925
 3124SOL    HW221006   1.663   4.734   7.180 -1.4409  0.4480 -0.2038
 3125SOL     OW21007   4.235   3.352   1.615  0.4350  0.3426  0.1992
 3125SOL    HW121008   4.307   3.311   1.662  0.4280 -0.0981 -0.1760
 3125SOL    HW221009   4.265   3.372   1.526 -1.7618  1.1844 -0.3616
 3126SOL     OW21010   0.239   0.076   6.270 -0.1317 -0.1777  0.4663
 3126SOL    HW121011   0.157   0.084   6.221 -1.1407  1.6084  2.4204
 3126SOL    HW221012   0.297   0.114   6.204 -2.0742  0.5080 -0.8781
 3127SOL     OW21013   1.826   3.574   4.039 -0.1187 -0.3468 -0.2438
 3127SOL    HW121014   1.912   3.566   4.081  0.1038 -2.4836 -1.0836
 3127SOL    HW221015   1.775   3.559   4.119 -0.4506 -0.5538 -0.4965
 3128SOL     OW21016   2.310   3.347  15.943 -0.4136 -0.5954  0.1410
 3128SOL    HW121017   2.256   3.271  15.964  0.8188 -0.9467  2.0419
 3128SOL    HW221018   2.278   3.405  16.012 -0.4820  2.2519 -2.2928
 3129SOL     OW21019   3.811   0.016  15.953  0.0884  0.1287 -0.2577
 3129SOL    HW121020   3.888   4.701  15.978  0.2864  0.0496 -1.0287
 3129SOL    HW221021   3.746   4.690  15.982  1.0722 -0.5660  0.4747
 3130SOL     OW21022   3.446   1.488   2.160  0.2686  0.7496 -0.1437
 3130SOL    HW121023   3.539   1.511   2.162  0.9702 -2.1735  0.5425
 3130SOL    HW221024   3.417   1.546   2.090 -2.2893 -0.7979 -0.3670
 3131SOL     OW21025   2.928   2.475   1.801  0.1128  0.3834  0.2619
 3131SOL    HW121026   2.861   2.486   1.733 -2.0888 -0.0155  2.4081
 3131SOL    HW221027   2.970   2.393   1.776  0.0512 -0.2387  2.2430
 3132SOL     OW21028   3.700   0.064   5.275 -0.2473 -0.2098 -0.2675
 3132SOL    HW121029   3.771   0.068   5.338 -0.2495 -0.1721 -0.2678
 3132SOL    HW221030   3.681   4.707   5.272  2.3211 -0.7556  0.6068
 3133SOL     OW21031   0.874   3.651   7.929 -0.1741 -0.3870  0.1053
 3133SOL    HW121032   0.957   3.605   7.922 -0.5129 -0.7600 -1.5620
 3133SOL    HW221033   0.890   3.741   7.898 -2.1896 -0.1316 -0.2107
 3134SOL     OW21034   3.125   1.099  10.369 -0.2302  0.0681 -0.3827
 3134SOL    HW121035   3.050   1.079  10.425  0.1507 -0.3102 -0.0049
 3134SOL    HW221036   3.094   1.053  10.290  1.5251 -0.9079 -0.5023
 3135SOL     OW21037   3.366   0.817   2.054 -0.0983 -0.0662 -0.0580
 3135SOL    HW121038   3.331   0.837   2.141 -1.2241  2.1604 -1.0100
 3135SOL    HW221039   3.292   0.773   2.014 -0.7852 -0.3804  1.5629
 3136SOL     OW21040   0.364   1.627  10.917 -0.1594 -0.4170 -0.1296
 3136SOL    HW121041   0.329   1.590  10.836  2.7011  0.4044 -1.7404
 3136SOL    HW221042   0.354   1.557  10.983  0.0560 -0.5554 -0.2437
 3137SOL     OW21043   1.602   0.957   1.422 -0.7247 -0.3484  0.0930
 3137SOL    HW121044   1.673   0.919   1.370 -1.5468 -1.9802  0.1587
 3137SOL    HW221045   1.649   1.016   1.480 -0.3189 -0.8615  0.2838
 3138SOL     OW21046   0.161   3.675   5.710 -0.2388 -0.1898  0.3663
 3138SOL    HW121047   0.203   3.756   5.738 -2.2884  0.8647  0.3852
 3138SOL    HW221048   0.123   3.628   5.784 -2.4708  2.2590  0.7915
 3139SOL     OW21049   4.727   2.263   5.737  0.0640 -0.1539 -0.2139
 3139SOL    HW121050   0.026   2.329   5.797  0.0051 -0.3485  0.0320
 3139SOL    HW221051   0.030   2.287   5.653  1.0950 -0.5631  0.1539
 3140SOL     OW21052   3.104   4.552  10.931  0.1496 -0.2702  0.1917
 3140SOL    HW121053   3.195   4.527  10.951  0.5312  0.6288 -0.4099
 3140SOL    HW221054   3.056   4.469  10.932 -0.1887 -0.0758 -0.3814
 3141SOL     OW21055   3.524   4.027  11.725  0.0452  0.4602 -0.2182
 3141SOL    HW121056   3.471   4.096  11.766 -0.4778  0.6544 -1.2292
 3141SOL    HW221057   3.609   4.071  11.724  0.3272 -0.0736  0.3013
 3142SOL     OW21058   0.374   0.197  16.259 -0.1541 -0.7548  0.0533
 3142SOL    HW121059   0.294   0.248  16.251  0.0569 -0.1742  1.6812
 3142SOL    HW221060   0.345   0.106  16.252 -0.6078 -0.6557  0.6335
 3143SOL     OW21061   4.586   3.335   6.085 -0.6473 -0.2568  0.4907
 3143SOL    HW121062   4.515   3.398   6.082  0.5831  1.1290  0.8104
 3143SOL    HW221063   4.597   3.335   6.180  0.3500  3.0419  0.3663
 3144SOL     OW21064   0.891   0.768   9.729 -0.6278 -0.1786  0.6635
 3144SOL    HW121065   0.950   0.747   9.801  1.2636  0.6426 -0.6646
 3144SOL    HW221066   0.951   0.773   9.655 -2.1926 -1.4167 -0.7023
 3145SOL     OW21067   0.127   3.640   2.087 -0.1358 -0.2209  0.2503
 3145SOL    HW121068   0.088   3.696   2.153 -2.3153 -0.6933 -0.6418
 3145SOL    HW221069   0.070   3.564   2.082  0.5903 -0.7940  0.5698
 3146SOL     OW21070   1.044   3.267  10.533 -0.0911  0.2761 -0.2120
 3146SOL    HW121071   0.962   3.219  10.542  0.8764 -1.6005 -1.2471
 3146SOL    HW221072   1.082   3.262  10.621  2.7192 -1.2160 -1.5067
 3147SOL     OW21073   2.724   4.105   0.510 -0.0099 -0.1237 -0.5010
 3147SOL    HW121074   2.670   4.183   0.519  1.0737  0.5343  0.3393
 3147SOL    HW221075   2.668   4.057   0.449 -1.2808 -0.4473  0.9400
 3148SOL     OW21076   1.536   1.907   9.455  0.2037 -0.0167  0.2377
 3148SOL    HW121077   1.561   1.815   9.462  0.5118  0.0064 -0.6206
 3148SOL    HW221078   1.623   1.944   9.467  0.3343 -0.5751  1.0183
 3149SOL     OW21079   4.654   4.414   9.070  0.0855 -0.0722 -0.2300
 3149SOL    HW121080   4.678   4.452   9.155  1.1931  0.2139 -0.6721
 3149SOL    HW221081   4.573   4.454   9.038  0.3011 -0.9793 -1.8526
 3150SOL     OW21082   1.157   3.708   2.545 -0.5266 -0.2646 -0.7755
 3150SOL    HW121083   1.162   3.632   2.604  1.0121  0.0226 -0.5502
 3150SOL    HW221084   1.141   3.678   2.456  1.1235  0.4567 -1.3141
 3151SOL     OW21085   1.672   0.278  15.352  0.1690 -0.0858  0.0356
 3151SOL    HW121086   1.617   0.222  15.298  0.2164 -1.6505  1.6170
 3151SOL    HW221087   1.731   0.304  15.281  0.8841 -0.1762  0.5954
 3152SOL     OW21088   3.848   0.945   3.251  0.2844 -0.6069 -0.4330
 3152SOL    HW121089   3.907   1.014   3.224 -2.4360  1.2765 -1.5708
 3152SOL    HW221090   3.841   0.962   3.344 -1.1616 -0.1365 -0.6191
 3153SOL     OW21091   0.157   0.096   4.471  0.4044  0.5370 -0.0608
 3153SOL    HW121092   0.141   0.127   4.382  0.0011  0.1055 -0.1420
 3153SOL    HW221093   0.252   0.090   4.471  0.5938  3.4756 -0.4908
 3154SOL     OW21094   0.938   0.255   7.195 -0.6338 -0.2529 -0.5917
 3154SOL    HW121095   0.884   0.303   7.257  2.8262  2.4357  0.3214
 3154SOL    HW221096   0.898   0.294   7.117 -1.8268  0.8072  0.5604
 3155SOL     OW21097   2.728   0.187   4.294 -0.1344 -0.2468 -0.1007
 3155SOL    HW121098   2.731   0.209   4.201  1.2704 -0.5690 -0.1280
 3155SOL    HW221099   2.665   0.114   4.292  1.4606 -1.6251 -0.2240
 3156SOL     OW21100   1.928   3.263   0.603  0.0847  0.2273 -0.1801
 3156SOL    HW121101   2.019   3.246   0.628 -0.6281  0.3603  2.5122
 3156SOL    HW221102   1.895   3.177   0.577 -0.7415  0.2010  0.9473
 3157SOL     OW21103   2.641   0.964  16.647  0.4134 -0.6216  0.0035
 3157SOL    HW121104   2.550   0.936  16.648 -0.4305  2.0620 -0.0661
 3157SOL    HW221105   2.652   0.993  16.737 -0.2159  1.5419 -0.6114
 3158SOL     OW21106   3.526   3.995   9.311  0.0921 -0.2307 -0.3046
 3158SOL    HW121107   3.491   4.077   9.345  0.2075 -0.0186 -0.6914
 3158SOL    HW221108   3.616   3.999   9.342 -0.5485  0.1418  1.4720
 3159SOL     OW21109   0.482   3.045  13.200  0.1818  0.1286  0.6151
 3159SOL    HW121110   0.396   3.057  13.159  0.0851  0.7794  1.0084
 3159SOL    HW221111   0.464   3.047  13.294 -0.6181 -0.0382  0.4674
 3160SOL     OW21112   2.906   0.168  14.152  0.2177  0.0618 -0.2267
 3160SOL    HW121113   2.875   0.190  14.240  1.5837 -2.8381  0.9754
 3160SOL    HW221114   2.845   0.225  14.105 -1.1010 -1.5676 -0.4994
 3161SOL     OW21115   3.590   4.645   2.468  0.5498 -0.1809 -0.0116
 3161SOL    HW121116   3.564   4.710   2.534  0.7920 -0.9155  0.8012
 3161SOL    HW221117   3.502   4.619   2.440  0.5100  0.4188 -0.4363
 3162SOL     OW21118   0.309   4.021   7.858  0.0063  0.3821 -0.1648
 3162SOL    HW121119   0.217   4.049   7.864 -0.9280 -2.6447 -0.3449
 3162SOL    HW221120   0.301   3.931   7.889 -0.0005  1.0906  1.8689
 3163SOL     OW21121   3.389   2.947  16.938  0.2438 -0.0054 -0.3243
 3163SOL    HW121122   3.304   2.909  16.960 -0.1652 -0.1254 -2.1155
 3163SOL    HW221123   3.383   3.024  16.880  0.7570  0.9947  0.9721
 3164SOL     OW21124   1.407   0.239   6.690 -0.0646  0.2128  0.3276
 3164SOL    HW121125   1.314   0.236   6.670  0.1950 -1.6315 -0.6567
 3164SOL    HW221126   1.434   0.308   6.630  0.4142 -0.7097 -0.5373
 3165SOL     OW21127   2.578   1.358   1.824 -0.6653  0.1725 -0.4112
 3165SOL    HW121128   2.552   1.384   1.912 -2.5048 -0.2041 -0.8317
 3165SOL    HW221129   2.495   1.328   1.786 -0.6722  0.2775 -0.4800
 3166SOL     OW21130   4.631   4.612   5.653 -0.2831  0.0564  0.0100
 3166SOL    HW121131   4.592   4.668   5.587  0.4751  1.0666  0.4251
 3166SOL    HW221132   4.684   4.677   5.698 -0.5764 -1.0353  1.9436
 3167SOL     OW21133   1.553   2.810   1.198 -0.1392 -0.2371  0.3075
 3167SOL    HW121134   1.491   2.774   1.261 -0.2944  0.1569  0.3802
 3167SOL    HW221135   1.568   2.725   1.156  2.2144  0.5393 -0.4552
 3168SOL     OW21136   3.810   1.770  15.582 -0.3949  0.1120  0.2581
 3168SOL    HW121137   3.890   1.789  15.632 -0.4058 -3.4064  1.5933
 3168SOL    HW221138   3.747   1.756  15.652  1.3235 -2.6464  1.2811
 3169SOL     OW21139   1.801   4.444   7.043 -0.1671  0.2787 -0.2730
 3169SOL    HW121140   1.869   4.383   7.014 -2.9899 -3.9795  2.1123
 3169SOL    HW221141   1.794   4.512   6.976  0.7245  0.8774  0.2294
 3170SOL     OW21142   0.030   2.741  13.690  0.2956 -0.0310  0.2571
 3170SOL    HW121143   0.023   2.836  13.678 -1.1872 -0.0139  1.2956
 3170SOL    HW221144   4.682   2.707  13.662  1.0689 -0.0152 -2.1335
 3171SOL     OW21145   0.365   1.467  13.694  0.0633  0.3296 -0.6174
 3171SOL    HW121146   0.424   1.431  13.761  2.0181 -0.6565 -2.8595
 3171SOL    HW221147   0.278   1.435  13.716  0.3612  0.5047  0.8388
 3172SOL     OW21148   4.682   3.396   8.240 -0.0131  0.0982 -0.5954
 3172SOL    HW121149   4.661   3.412   8.332  2.0732 -0.2749 -0.0578
 3172SOL    HW221150   4.596   3.402   8.200  0.4844 -2.5616 -2.1089
 3173SOL     OW21151   2.929   1.009  15.413  0.2931  0.0317  0.3362
 3173SOL    HW121152   2.933   0.943  15.483 -2.3946  0.7632  1.1495
 3173SOL    HW221153   2.839   1.004  15.382  0.2768 -0.3360  0.4436
 3174SOL     OW21154   1.671   0.531   4.091  0.3303 -0.1089  0.0758
 3174SOL    HW121155   1.686   0.440   4.065 -0.5177 -0.5082  0.9912
 3174SOL    HW221156   1.627   0.515   4.174  1.1483  0.8016  0.6952
 3175SOL     OW21157   3.968   2.817   1.739 -0.9322  0.0445 -0.3578
 3175SOL    HW121158   3.965   2.870   1.818  1.0473  0.7002 -0.7292
 3175SOL    HW221159   3.912   2.859   1.674 -2.5283 -2.4613 -0.6087
 3176SOL     OW21160   3.222   3.452  16.072 -0.3102  0.1828  0.0004
 3176SOL    HW121161   3.205   3.363  16.102 -0.4065  0.3494  0.4290
 3176SOL    HW221162   3.266   3.491  16.147 -0.0031  2.5914 -1.4013
 3177SOL     OW21163   2.388   1.298   3.146  0.8905  0.2631 -0.4804
 3177SOL    HW121164   2.339   1.290   3.228  0.8764  0.7251 -0.4444
 3177SOL    HW221165   2.466   1.243   3.151  1.0140  0.2704 -2.3303
 3178SOL     OW21166   3.737   0.822   1.500  0.3823  0.4729  0.2233
 3178SOL    HW121167   3.737   0.749   1.562 -1.5402 -0.4432 -0.8672
 3178SOL    HW221168   3.674   0.879   1.543 -1.0872 -0.1418 -1.1010
 3179SOL     OW21169   3.303   3.521  10.013 -0.1938 -0.3911 -0.0057
 3179SOL    HW121170   3.290   3.589   9.947 -0.5572 -1.9510 -1.5403
 3179SOL    HW221171   3.237   3.454   9.993 -1.4390  0.8294  0.0499
 3180SOL     OW21172   3.011   4.602  16.391 -0.0317  0.2304 -0.2591
 3180SOL    HW121173   3.069   4.569  16.322  1.1041  0.2542  0.6923
 3180SOL    HW221174   2.998   4.694  16.370  0.4416  0.4523  0.4502
 3181SOL     OW21175   4.516   1.754   4.669 -0.4754  0.3249 -0.1727
 3181SOL    HW121176   4.574   1.678   4.677  0.2998  0.7045 -2.1489
 3181SOL    HW221177   4.431   1.716   4.646  0.7450 -1.7131 -1.2941
 3182SOL     OW21178   3.751   1.202   4.889 -0.1235 -0.3755 -0.4920
 3182SOL    HW121179   3.825   1.189   4.949 -1.8950 -0.0080  1.7544
 3182SOL    HW221180   3.800   1.188   4.808 -0.1823 -2.8458 -0.1121
 3183SOL     OW21181   1.862   1.472  11.046  0.1170  0.3684 -0.0510
 3183SOL    HW121182   1.809   1.440  10.973  1.1740  2.6357 -1.8471
 3183SOL    HW221183   1.814   1.550  11.074  0.5529 -0.2396  2.3619
 3184SOL     OW21184   1.909   0.297   7.322 -0.1506  0.0132  0.1100
 3184SOL    HW121185   1.985   0.291   7.380  0.1171  0.8612 -0.1455
 3184SOL    HW221186   1.832   0.293   7.379  1.2981 -1.3947  1.9539
 3185SOL     OW21187   3.759   4.719   3.330  0.4890  0.1024  0.2803
 3185SOL    HW121188   3.716   4.634   3.322  1.9145 -0.5959  0.0365
 3185SOL    HW221189   3.714   0.028   3.258 -0.0644 -1.8473 -0.6120
 3186SOL     OW21190   0.426   4.372  13.212 -0.0815 -0.3483  0.0599
 3186SOL    HW121191   0.393   4.335  13.293 -1.1793 -0.2324 -0.3323
 3186SOL    HW221192   0.513   4.332  13.205 -0.9097 -1.7243 -2.1753
 3187SOL     OW21193   4.106   2.728   4.527 -0.4367 -0.7011 -0.6600
 3187SOL    HW121194   4.168   2.758   4.593 -1.5317  0.3032 -0.0960
 3187SOL    HW221195   4.101   2.808   4.475  1.6568 -0.1196  0.0515
 3188SOL     OW21196   2.333   3.909   6.888  0.0767 -0.7472  0.5615
 3188SOL    HW121197   2.412   3.883   6.841 -1.1827  0.0169 -2.0185
 3188SOL    HW221198   2.363   3.896   6.978  1.7312 -0.5878  0.0246
 3189SOL     OW21199   2.658   1.209  11.862  0.0888  0.1813  0.1582
 3189SOL    HW121200   2.641   1.258  11.782 -0.5382  0.7187  0.6171
 3189SOL    HW221201   2.735   1.160  11.834 -2.3165 -2.2732 -2.0368
 3190SOL     OW21202   0.802   2.414   6.581 -0.4493 -0.4351 -1.0266
 3190SOL    HW121203   0.779   2.437   6.670 -3.5360 -2.6238 -1.2697
 3190SOL    HW221204   0.839   2.489   6.533 -1.0823  1.7432  1.8932
 3191SOL     OW21205   3.764   4.082   6.918 -0.7568 -0.1125 -0.6409
 3191SOL    HW121206   3.859   4.067   6.912 -0.5740 -0.2145  2.2967
 3191SOL    HW221207   3.735   3.999   6.956 -1.6433  1.5117  2.1751
 3192SOL     OW21208   1.478   3.686  12.645 -0.2197  0.5422  0.4274
 3192SOL    HW121209   1.385   3.704  12.655 -0.3791 -0.3804  0.6114
 3192SOL    HW221210   1.516   3.773  12.658  0.3426  0.7791 -2.7820
 3193SOL     OW21211   0.074   2.319  17.434  0.1769  0.6004  0.4502
 3193SOL    HW121212   0.052   2.226  17.437  3.4472 -0.1194  1.8722
 3193SOL    HW221213   4.735   2.369  17.404  0.9153  2.0655  0.9691
 3194SOL     OW21214   3.029   2.095   5.725  0.4347  0.0368 -0.2460
 3194SOL    HW121215   3.025   2.187   5.749  1.7307  0.3673 -1.3262
 3194SOL    HW221216   3.113   2.068   5.761  0.9112 -0.6069 -1.8524
 3195SOL     OW21217   2.613   2.232   9.142  0.2119 -0.6829 -0.7243
 3195SOL    HW121218   2.699   2.263   9.113 -0.2842  0.7289 -0.7122
 3195SOL    HW221219   2.644   2.164   9.202  1.7440  1.5598  1.0529
 3196SOL     OW21220   1.075   3.741   0.146  0.9378 -0.0327 -0.7797
 3196SOL    HW121221   1.157   3.787   0.124 -0.5218  2.2190 -1.5608
 3196SOL    HW221222   1.065   3.772   0.236  0.8304 -0.3166 -0.6953
 3197SOL     OW21223   2.312   3.151   1.081 -0.1251 -0.2866 -0.2582
 3197SOL    HW121224   2.396   3.193   1.061  0.1468 -0.5051  0.4330
 3197SOL    HW221225   2.270   3.220   1.134 -0.5967 -0.4416 -0.4310
 3198SOL     OW21226   2.874   3.321   9.597  0.1306 -0.2813 -0.0140
 3198SOL    HW121227   2.951   3.302   9.543 -1.1595 -0.9024 -1.6489
 3198SOL    HW221228   2.893   3.294   9.687 -2.3079 -0.3799  0.4930
 3199SOL     OW21229   4.676   3.573  16.123  0.0078  0.0737 -0.0010
 3199SOL    HW121230   4.602   3.630  16.103  0.7759  0.1087 -2.7129
 3199SOL    HW221231   4.712   3.599  16.208  0.6544  0.1482 -0.2986
 3200SOL     OW21232   1.281   3.644   5.656  0.5754  0.6016 -0.0796
 3200SOL    HW121233   1.346   3.575   5.646  0.1919  0.6805 -2.9624
 3200SOL    HW221234   1.209   3.609   5.604 -0.1040 -0.7007  1.7139
 3201SOL     OW21235   2.436   1.189   3.839 -0.0677 -0.2352  0.4141
 3201SOL    HW121236   2.526   1.201   3.809 -0.4789  3.3714  0.6037
 3201SOL    HW221237   2.431   1.243   3.918  1.2313 -1.6863  1.4672
 3202SOL     OW21238   1.908   1.247   4.072 -0.1132 -0.9723  0.1228
 3202SOL    HW121239   1.982   1.186   4.076 -0.2518 -1.1272  0.3127
 3202SOL    HW221240   1.833   1.187   4.075 -2.6141  2.0750 -1.0126
 3203SOL     OW21241   3.962   3.605  15.789 -0.6031  0.2465  0.4747
 3203SOL    HW121242   3.993   3.673  15.730 -0.4043  1.3546  1.8396
 3203SOL    HW221243   3.913   3.653  15.855  1.1925  0.2725  1.8036
 3204SOL     OW21244   4.727   3.934   3.760 -0.3848  0.1850 -0.3578
 3204SOL    HW121245   4.680   3.957   3.679 -2.7328  0.6236  1.1407
 3204SOL    HW221246   0.079   3.964   3.739 -1.0538  1.7771 -0.9431
 3205SOL     OW21247   4.600   0.143  14.137 -0.3865  0.0252  0.6962
 3205SOL    HW121248   4.586   0.053  14.167 -0.7234 -0.6716 -1.5537
 3205SOL    HW221249   4.543   0.187  14.200 -1.0947  1.7653 -1.1550
 3206SOL     OW21250   0.890   0.506   4.333  0.2797 -0.0144 -0.1707
 3206SOL    HW121251   0.872   0.546   4.248 -1.7553  0.2652  0.3899
 3206SOL    HW221252   0.850   0.560   4.401  0.7934  1.9061 -1.4020
 3207SOL     OW21253   1.014   0.309   2.593  0.0599 -0.1596  0.3567
 3207SOL    HW121254   1.058   0.225   2.599 -0.6085 -0.6922 -2.0493
 3207SOL    HW221255   1.073   0.345   2.526  1.6717 -2.9394  0.3209
 3208SOL     OW21256   3.926   0.791   1.080 -0.2371  0.5906 -0.0996
 3208SOL    HW121257   3.854   0.758   1.136  0.7148  1.7574  1.8141
 3208SOL    HW221258   3.997   0.737   1.115 -0.9961  0.6000  1.4769
 3209SOL     OW21259   3.852   0.537   8.380 -0.2556  0.2770 -0.4018
 3209SOL    HW121260   3.784   0.494   8.328 -0.3375 -1.4330  1.1407
 3209SOL    HW221261   3.913   0.557   8.309  0.2568  1.8400  0.4743
 3210SOL     OW21262   1.736   0.553  14.287 -0.0645 -0.0361 -0.5808
 3210SOL    HW121263   1.693   0.522  14.207 -0.0636  1.2445 -1.0965
 3210SOL    HW221264   1.696   0.636  14.312 -3.1222 -1.4365 -0.9135
 3211SOL     OW21265   0.082   0.007   9.142 -0.0822 -0.1344 -0.2216
 3211SOL    HW121266   0.026   4.707   9.210  1.8046  0.3012  1.6064
 3211SOL    HW221267   0.141   0.064   9.191 -1.3623  0.1309  1.0170
 3212SOL     OW21268   1.027   1.288   7.359 -0.2836 -0.0375 -0.3554
 3212SOL    HW121269   0.988   1.282   7.446  0.0148  0.6954 -0.1740
 3212SOL    HW221270   0.954   1.266   7.299 -0.2918 -0.2349 -0.2750
 3213SOL     OW21271   2.850   3.713   2.813  0.0315 -0.2247  0.5230
 3213SOL    HW121272   2.887   3.735   2.898  0.5799  0.4058  0.1174
 3213SOL    HW221273   2.905   3.762   2.752  2.2887  0.9044  3.4685
 3214SOL     OW21274   4.624   0.020  12.996 -0.4167  0.2634 -0.1197
 3214SOL    HW121275   4.682   0.081  13.043 -1.3048  1.9563 -1.2413
 3214SOL    HW221276   4.685   4.704  12.945 -0.0970  1.1312 -0.6402
 3215SOL     OW21277   1.172   1.292   7.945 -0.7146 -0.6361  0.3023
 3215SOL    HW121278   1.110   1.362   7.929  1.7272  1.4471 -0.1347
 3215SOL    HW221279   1.244   1.313   7.885  0.5299 -1.7884  1.4005
 3216SOL     OW21280   4.141   3.611   6.530  0.5927 -0.0820  0.3822
 3216SOL    HW121281   4.093   3.677   6.580  0.6984  1.5610 -1.7169
 3216SOL    HW221282   4.079   3.538   6.536  0.6577 -0.0472  1.5049
 3217SOL     OW21283   4.448   4.138   3.753 -0.0155  0.1488 -0.5439
 3217SOL    HW121284   4.404   4.176   3.829  1.1877  0.6243 -0.0806
 3217SOL    HW221285   4.390   4.066   3.728  0.2542 -0.9384  1.9254
 3218SOL     OW21286   0.879   0.667  15.774  0.4791 -0.3746  0.7587
 3218SOL    HW121287   0.954   0.638  15.722 -0.7410 -1.1948 -0.5572
 3218SOL    HW221288   0.850   0.741  15.721  1.6411 -0.7871 -0.4756
 3219SOL     OW21289   2.819   1.329   3.936 -0.3785  0.6044 -0.3088
 3219SOL    HW121290   2.789   1.268   3.869  1.3096 -1.3394  0.7333
 3219SOL    HW221291   2.912   1.307   3.941 -0.0252  1.8719 -1.1837
 3220SOL     OW21292   1.105   3.542   6.196  1.0722  0.2801 -0.1037
 3220SOL    HW121293   1.098   3.451   6.223  1.1333  0.4900  0.6249
 3220SOL    HW221294   1.181   3.534   6.138  3.2305  0.2959  2.7062
 3221SOL     OW21295   2.477   2.399  14.182 -0.0308 -0.3440  0.1608
 3221SOL    HW121296   2.388   2.434  14.180 -1.2691 -3.4788 -0.0241
 3221SOL    HW221297   2.524   2.477  14.151  0.0795 -1.0342 -1.4531
 3222SOL     OW21298   4.477   2.390  10.461 -0.6725 -0.6394  0.1250
 3222SOL    HW121299   4.497   2.388  10.368  1.4353 -1.7263  0.5980
 3222SOL    HW221300   4.404   2.452  10.468 -0.1153 -0.2672  2.7251
 3223SOL     OW21301   2.425   0.599   0.288  0.5153  0.3464 -0.4643
 3223SOL    HW121302   2.507   0.586   0.240 -0.2759 -2.6633 -0.9754
 3223SOL    HW221303   2.379   0.519   0.261 -0.3605  0.6764  0.0440
 3224SOL     OW21304   2.016   4.278   4.397 -0.5012  0.9158  0.4717
 3224SOL    HW121305   1.995   4.186   4.380  0.8403  0.0458  3.5893
 3224SOL    HW221306   1.929   4.317   4.394 -0.0018  2.0058  0.1655
 3225SOL     OW21307   4.188   4.378  17.090  0.2660  0.6221 -0.1419
 3225SOL    HW121308   4.177   4.386  16.996  3.0408 -0.0200 -0.5327
 3225SOL    HW221309   4.267   4.324  17.097  1.0732  1.9028  0.7525
 3226SOL     OW21310   0.756   2.049   1.109 -0.2407  0.0201 -0.3185
 3226SOL    HW121311   0.729   2.138   1.087 -0.9998 -0.2798 -0.5904
 3226SOL    HW221312   0.763   2.052   1.205 -0.3693  0.2282 -0.3149
 3227SOL     OW21313   2.785   4.641   6.768  0.1428  0.0300  0.2303
 3227SOL    HW121314   2.879   4.631   6.781  0.3122  0.0733 -0.9456
 3227SOL    HW221315   2.766   4.619   6.859 -0.3199  1.0051  0.3706
 3228SOL     OW21316   4.689   3.222   2.559  0.0315 -0.2169  0.0359
 3228SOL    HW121317   4.595   3.223   2.577  0.0322  0.6507 -0.0424
 3228SOL    HW221318   4.723   3.154   2.618 -2.7107 -0.6918  1.0819
 3229SOL     OW21319   2.959   0.485   8.602  0.1515 -0.8747 -0.0798
 3229SOL    HW121320   2.873   0.456   8.570 -0.2147  0.7217 -0.5492
 3229SOL    HW221321   2.972   0.565   8.550 -1.9766  0.6366  1.7150
 3230SOL     OW21322   1.061   2.116   5.896 -0.5273  0.2623  0.2195
 3230SOL    HW121323   1.142   2.164   5.915 -1.4379  1.7812  0.3071
 3230SOL    HW221324   1.007   2.175   5.842  0.6629  0.0329 -1.2224
 3231SOL     OW21325   0.864   3.066   2.388  0.5509 -0.0733  0.2254
 3231SOL    HW121326   0.818   3.143   2.355  2.3280  0.8479 -0.0969
 3231SOL    HW221327   0.792   3.007   2.366  0.2446  0.5487 -0.4485
 3232SOL     OW21328   3.682   1.352  11.127 -0.2974 -0.1467 -0.1008
 3232SOL    HW121329   3.680   1.439  11.086  1.8821  0.4971  1.1591
 3232SOL    HW221330   3.634   1.310  11.055  0.7699 -0.7481 -0.4636
 3233SOL     OW21331   3.357   2.660   4.043  0.1710  0.1165  0.1151
 3233SOL    HW121332   3.380   2.651   4.135 -2.6875  0.0156  0.8429
 3233SOL    HW221333   3.426   2.611   3.998  0.2880  1.4859 -1.1998
 3234SOL     OW21334   3.343   0.655   0.987 -0.4179  0.1543 -0.0579
 3234SOL    HW121335   3.262   0.704   0.977  0.6351  1.9084 -0.0455
 3234SOL    HW221336   3.319   0.582   1.045  1.7973 -0.6125 -0.0905
 3235SOL     OW21337   3.561   3.375   2.582  0.3276 -0.0607  0.2849
 3235SOL    HW121338   3.541   3.411   2.668  0.9512 -1.3008  0.9460
 3235SOL    HW221339   3.607   3.451   2.546  0.0948 -0.8765 -1.7360
 3236SOL     OW21340   2.542   3.949   0.381 -0.5273  0.0799  0.0929
 3236SOL    HW121341   2.489   3.923   0.457  2.3638 -1.9331  1.4273
 3236SOL    HW221342   2.598   3.875   0.360 -0.3080  0.4485 -0.6143
 3237SOL     OW21343   4.254   3.078   6.655  0.2649  0.2173  0.0833
 3237SOL    HW121344   4.178   3.137   6.657  0.6464  0.6680  1.5175
 3237SOL    HW221345   4.209   2.994   6.659  0.4505  0.2358  2.7892
 3238SOL     OW21346   2.278   1.215   9.284  0.0274  0.3614  0.6218
 3238SOL    HW121347   2.333   1.143   9.316 -0.3352  0.9078  2.4657
 3238SOL    HW221348   2.242   1.252   9.365  0.2805  1.0915  0.3981
 3239SOL     OW21349   3.469   0.191   5.579 -0.0281 -0.3875 -0.4387
 3239SOL    HW121350   3.446   0.135   5.653 -1.7552  0.0908 -0.6269
 3239SOL    HW221351   3.480   0.122   5.514  1.1839 -1.0477  0.4775
 3240SOL     OW21352   3.269   1.456  16.728  0.4900 -0.0149 -0.0277
 3240SOL    HW121353   3.303   1.368  16.716  3.3867  0.7796  2.3864
 3240SOL    HW221354   3.262   1.457  16.823 -0.3970  0.2197 -0.0920
 3241SOL     OW21355   1.251   1.419  14.370 -0.0673  0.0998  0.1296
 3241SOL    HW121356   1.165   1.418  14.413 -0.1215 -2.5210 -0.0871
 3241SOL    HW221357   1.221   1.405  14.281 -0.1374 -5.0727  0.9784
 3242SOL     OW21358   1.928   1.521  13.291  0.3289  0.5472  0.2255
 3242SOL    HW121359   1.973   1.437  13.300 -1.4490 -0.2943  1.1695
 3242SOL    HW221360   1.857   1.500  13.351  0.1698 -0.8223 -0.4388
 3243SOL     OW21361   3.103   2.098   1.101  0.3410  0.2410  0.0619
 3243SOL    HW121362   3.174   2.089   1.037  2.1900 -0.8965  2.2814
 3243SOL    HW221363   3.155   2.117   1.179  0.2960  3.4540 -0.6812
 3244SOL     OW21364   0.308   3.577   5.487 -0.6263 -0.6507 -0.1678
 3244SOL    HW121365   0.371   3.648   5.499 -1.2409 -0.1779  0.2358
 3244SOL    HW221366   0.246   3.608   5.553  2.7275 -0.6903  2.9638
 3245SOL     OW21367   3.378   1.394   8.345 -0.2712 -0.1165  0.3304
 3245SOL    HW121368   3.350   1.312   8.305  2.2104 -0.1142 -1.4187
 3245SOL    HW221369   3.329   1.460   8.295 -0.9151 -0.7439  0.1480
 3246SOL     OW21370   3.967   3.261   1.517 -0.4028 -0.5753 -0.5181
 3246SOL    HW121371   4.051   3.289   1.553 -0.6478 -0.4123 -0.0663
 3246SOL    HW221372   3.914   3.332   1.482 -1.0452 -0.9172 -0.2390
 3247SOL     OW21373   4.684   4.602   2.338 -0.5567  0.2311  0.2637
 3247SOL    HW121374   4.723   4.690   2.342 -1.1729  0.5868 -1.6582
 3247SOL    HW221375   4.725   4.567   2.418  0.6503 -0.3398 -0.6064
 3248SOL     OW21376   2.640   4.169   0.060 -0.0391 -0.1395  0.5490
 3248SOL    HW121377   2.665   4.085   0.098 -1.1759 -1.6201 -1.9611
 3248SOL    HW221378   2.718   4.180   0.006  0.7354 -0.1743  1.6799
 3249SOL     OW21379   2.327   3.704   6.186 -0.3330  0.3761 -0.0077
 3249SOL    HW121380   2.302   3.659   6.105 -1.3132  2.1050 -0.6586
 3249SOL    HW221381   2.421   3.712   6.168 -0.4243  2.8608  0.7330
 3250SOL     OW21382   1.782   2.534  12.015  0.0698 -0.2269 -0.2975
 3250SOL    HW121383   1.864   2.503  11.978  0.5084  0.5619  0.0285
 3250SOL    HW221384   1.797   2.491  12.099  1.6080 -1.1901 -1.0532
 3251SOL     OW21385   1.218   0.437   2.439 -0.3235  0.2412  0.1580
 3251SOL    HW121386   1.294   0.378   2.438  1.4186  2.4611  0.8764
 3251SOL    HW221387   1.197   0.436   2.346 -0.4746 -2.3839  0.2076
 3252SOL     OW21388   3.086   4.241   7.692 -0.9083 -0.0041 -0.1448
 3252SOL    HW121389   3.036   4.255   7.611 -0.3981  2.7314  0.0483
 3252SOL    HW221390   3.042   4.294   7.759 -0.1296  3.0066 -2.0262
 3253SOL     OW21391   3.445   3.108   1.648 -0.2579 -0.0549  0.1572
 3253SOL    HW121392   3.530   3.094   1.688  1.0055 -0.1864 -2.6058
 3253SOL    HW221393   3.379   3.131   1.714  0.4395 -1.0041  1.1635
 3254SOL     OW21394   1.429   0.742   3.205 -0.0940  0.2425  0.6850
 3254SOL    HW121395   1.441   0.647   3.210  0.4357  0.3434  1.3787
 3254SOL    HW221396   1.340   0.739   3.171 -0.0447  0.8029  0.5168
 3255SOL     OW21397   1.604   4.711   8.475  0.5409 -0.6211 -0.1244
 3255SOL    HW121398   1.567   4.624   8.486 -0.8164  0.2049  1.8054
 3255SOL    HW221399   1.619   4.732   8.567  0.8744 -0.8089 -0.1360
 3256SOL     OW21400   1.239   0.638   0.097 -0.3025  0.0548 -0.0989
 3256SOL    HW121401   1.293   0.576   0.048 -0.4470 -1.4252  1.6148
 3256SOL    HW221402   1.227   0.594   0.181 -1.3721 -0.0679 -0.3137
 3257SOL     OW21403   4.610   0.385   8.907 -0.6732  0.3944 -0.2442
 3257SOL    HW121404   4.518   0.402   8.886 -1.0141  0.0882  0.9983
 3257SOL    HW221405   4.618   0.316   8.973 -1.1378  1.0465  0.4901
 3258SOL     OW21406   1.397   4.494   3.286  0.0895 -0.3916 -0.3098
 3258SOL    HW121407   1.487   4.470   3.308  0.0706 -0.2464 -0.0751
 3258SOL    HW221408   1.350   4.421   3.326 -0.7079 -0.5750 -1.5947
 3259SOL     OW21409   4.347   1.783   6.883 -0.1929  0.4556 -0.4273
 3259SOL    HW121410   4.350   1.854   6.818  0.0188  1.4901  0.7178
 3259SOL    HW221411   4.387   1.708   6.839 -3.2242 -2.0445  1.1006
 3260SOL     OW21412   3.569   0.191   9.371  0.2611  0.1750 -0.0542
 3260SOL    HW121413   3.612   0.261   9.419 -3.2436  1.4081  1.2549
 3260SOL    HW221414   3.592   0.114   9.424  0.2458 -1.5265 -2.5043
 3261SOL     OW21415   0.872   4.334   8.104  0.0590 -0.0296  0.1368
 3261SOL    HW121416   0.888   4.377   8.020 -0.7601  1.9527  0.9869
 3261SOL    HW221417   0.870   4.241   8.082 -0.5494  0.1938 -0.7299
 3262SOL     OW21418   1.215   1.139   1.653  0.5013 -0.9228 -0.1537
 3262SOL    HW121419   1.178   1.200   1.589 -0.2225 -0.4104  0.7634
 3262SOL    HW221420   1.211   1.055   1.606 -3.4910 -1.5148  1.2065
 3263SOL     OW21421   4.606   1.791   3.419  0.2486  0.1401 -0.1306
 3263SOL    HW121422   4.537   1.858   3.425 -1.0155 -1.3019  1.3030
 3263SOL    HW221423   4.642   1.823   3.336 -2.8878  1.9932 -0.7926
 3264SOL     OW21424   1.538   4.073   6.306  0.0317  0.1698 -0.2166
 3264SOL    HW121425   1.574   4.142   6.251  2.1442 -1.7416 -1.2064
 3264SOL    HW221426   1.455   4.118   6.326  0.1068 -0.2672  1.0779
 3265SOL     OW21427   1.592   3.509   6.979  0.7914  0.4979  0.0765
 3265SOL    HW121428   1.628   3.597   6.989 -0.6264  1.4132 -3.0087
 3265SOL    HW221429   1.618   3.484   6.890  0.4084  0.9471 -0.1577
 3266SOL     OW21430   1.633   2.112   8.041  0.1353 -0.5672 -0.4234
 3266SOL    HW121431   1.615   2.132   8.133 -0.6686 -2.2921 -0.1935
 3266SOL    HW221432   1.605   2.020   8.044 -0.4107 -0.4444 -1.6452
 3267SOL     OW21433   4.038   0.103  15.724 -0.2683  0.3661 -0.1969
 3267SOL    HW121434   4.085   0.090  15.641 -0.4352 -4.5956  0.4975
 3267SOL    HW221435   4.047   0.198  15.738 -0.9496  0.3796  0.1562
 3268SOL     OW21436   0.359   0.261   7.870  0.3580  0.6970  0.1254
 3268SOL    HW121437   0.309   0.221   7.940  1.0427 -0.8019 -0.2306
 3268SOL    HW221438   0.343   0.192   7.805  0.7800  0.3687  0.3748
 3269SOL     OW21439   0.927   1.218   9.147  0.1478 -0.6567  0.2548
 3269SOL    HW121440   0.933   1.213   9.052 -0.9314  4.4260 -0.0620
 3269SOL    HW221441   1.016   1.237   9.174  0.3474  1.0205 -1.5807
 3270SOL     OW21442   4.227   4.634  12.166  0.0417 -0.8577 -0.1526
 3270SOL    HW121443   4.246   4.572  12.237  1.2472 -0.6539 -0.2941
 3270SOL    HW221444   4.226   4.721  12.204  2.4644 -0.8919  0.0189
 3271SOL     OW21445   3.774   2.434   4.051 -0.7021 -0.0371 -0.0930
 3271SOL    HW121446   3.749   2.482   4.129  2.1135 -2.0611  2.0391
 3271SOL    HW221447   3.732   2.351   4.073 -0.0304 -0.7877 -1.5932
 3272SOL     OW21448   3.645   2.733  11.798 -0.4661  0.1012  0.1379
 3272SOL    HW121449   3.634   2.819  11.838  2.1400  0.2078  0.6096
 3272SOL    HW221450   3.722   2.751  11.744 -0.3616  0.1374  0.2999
 3273SOL     OW21451   2.674   3.943   8.052  0.1273  0.7237 -0.0440
 3273SOL    HW121452   2.587   3.951   8.092  0.0301 -0.3169 -0.0520
 3273SOL    HW221453   2.708   3.859   8.082  0.4433  0.1020 -2.1609
 3274SOL     OW21454   4.679   1.827   4.406 -0.4196  0.0350 -0.2588
 3274SOL    HW121455   4.691   1.754   4.467 -0.0985  0.0250 -0.3320
 3274SOL    HW221456   4.622   1.889   4.452 -1.3536 -0.4527 -0.7723
 3275SOL     OW21457   4.576   0.425   5.726 -0.0649  0.0714 -0.2059
 3275SOL    HW121458   4.509   0.489   5.702  0.1056 -0.2068 -1.4272
 3275SOL    HW221459   4.578   0.443   5.820  0.9010 -1.2109  0.0348
 3276SOL     OW21460   2.561   2.278   0.193 -0.0722 -0.1203  0.4375
 3276SOL    HW121461   2.576   2.280   0.287 -0.7313 -1.6384  0.5776
 3276SOL    HW221462   2.520   2.364   0.177 -0.0651 -0.1783  0.1093
 3277SOL     OW21463   3.689   2.031   1.752  0.2966 -0.1226  0.1154
 3277SOL    HW121464   3.618   2.026   1.688  1.0504  1.5524 -0.8600
 3277SOL    HW221465   3.679   2.120   1.786  2.9605  0.9620 -1.9250
 3278SOL     OW21466   4.605   3.934   0.053 -0.0674  0.8283 -0.1956
 3278SOL    HW121467   4.614   3.846   0.090 -2.5694  1.5132  2.0197
 3278SOL    HW221468   4.628   3.989   0.127 -0.6486 -0.9102  1.2871
 3279SOL     OW21469   2.618   4.565   7.744  0.1583 -0.0949  0.1210
 3279SOL    HW121470   2.666   4.633   7.791  0.9300 -1.2475  0.9923
 3279SOL    HW221471   2.683   4.551   7.675  0.5232  1.4831  0.1487
 3280SOL     OW21472   1.391   4.520   1.907  0.4651 -0.2478  0.2048
 3280SOL    HW121473   1.337   4.563   1.974 -2.6226 -2.2701 -0.9916
 3280SOL    HW221474   1.331   4.455   1.873  1.1982 -2.3511  2.9102
 3281SOL     OW21475   3.366   4.210   6.654 -0.1608  0.4224  0.6059
 3281SOL    HW121476   3.405   4.248   6.575  0.4096 -2.1514 -0.3436
 3281SOL    HW221477   3.441   4.203   6.712  0.6537  1.6812 -0.2885
 3282SOL     OW21478   2.559   3.635   5.774  0.0064  0.1050  0.0946
 3282SOL    HW121479   2.562   3.585   5.856 -1.8916  0.2356  0.2329
 3282SOL    HW221480   2.625   3.593   5.719 -0.7399  0.7009 -1.2384
 3283SOL     OW21481   0.465   2.175   1.901 -0.4761 -0.0743 -0.6061
 3283SOL    HW121482   0.465   2.133   1.987  2.3331 -0.7492 -0.9353
 3283SOL    HW221483   0.480   2.102   1.841  1.0745 -1.5606  1.5774
 3284SOL     OW21484   1.081   0.469  15.832 -0.3092 -0.0383  0.7042
 3284SOL    HW121485   1.128   0.552  15.841  1.4621 -0.8603 -1.0185
 3284SOL    HW221486   1.150   0.404  15.839  0.7107  1.2389  2.6986
 3285SOL     OW21487   2.443   3.442   1.233  0.4904  0.3730 -0.2675
 3285SOL    HW121488   2.512   3.419   1.171 -1.9485  0.4271 -3.0018
 3285SOL    HW221489   2.464   3.524   1.277 -1.2553 -2.0841  5.0670
 3286SOL     OW21490   2.633   3.925   4.689  0.1871  0.4334  0.7430
 3286SOL    HW121491   2.672   4.004   4.653  2.1204 -0.7112  0.3425
 3286SOL    HW221492   2.703   3.871   4.653 -0.4588  0.1574 -0.1076
 3287SOL     OW21493   2.412   2.720   0.013 -0.2049  0.7981 -0.1595
 3287SOL    HW121494   2.361   2.674   0.080  1.8038  1.5058  1.8194
 3287SOL    HW221495   2.440   2.656  17.694 -2.7953 -0.4823 -0.0321
 3288SOL     OW21496   1.981   1.507   4.133  0.3345 -0.7158  0.8769
 3288SOL    HW121497   1.960   1.421   4.097 -1.7942  0.7191 -1.3516
 3288SOL    HW221498   2.054   1.532   4.075  0.1525 -1.1304  0.4678
 3289SOL     OW21499   2.903   2.367   5.755  0.2178  0.2916 -0.6673
 3289SOL    HW121500   2.825   2.316   5.775 -0.5459  2.3605  1.6935
 3289SOL    HW221501   2.886   2.403   5.668  1.1646  0.1722 -0.9090
 3290SOL     OW21502   1.323   1.138   2.904 -0.3360  0.2115  0.0257
 3290SOL    HW121503   1.391   1.137   2.971 -0.7921  2.7593  0.5300
 3290SOL    HW221504   1.323   1.232   2.889  3.4670  0.2375  0.2424
 3291SOL     OW21505   3.200   0.550   9.652  0.5716 -0.2292  0.2581
 3291SOL    HW121506   3.236   0.468   9.686  1.2400 -1.1209 -2.6312
 3291SOL    HW221507   3.228   0.606   9.725 -1.1303  0.6788  0.2274
 3292SOL     OW21508   0.685   0.859   7.896 -0.1019 -0.0114 -0.3192
 3292SOL    HW121509   0.690   0.772   7.857 -1.7075 -0.3835  0.2720
 3292SOL    HW221510   0.642   0.910   7.827  0.8296 -0.7270 -1.4185
 3293SOL     OW21511   2.285   0.312   4.345 -0.2256  0.6446  0.1979
 3293SOL    HW121512   2.370   0.354   4.359  0.3732 -0.1623 -0.9988
 3293SOL    HW221513   2.237   0.383   4.303  2.1306  1.2231 -1.5097
 3294SOL     OW21514   3.991   1.529   2.389 -0.5354 -0.0976  0.5123
 3294SOL    HW121515   3.991   1.442   2.349 -0.0121 -0.8370  2.0925
 3294SOL    HW221516   4.047   1.528   2.467  0.2169 -2.9172 -0.0699
 3295SOL     OW21517   3.358   1.440  17.467 -0.1747 -0.0862 -0.6556
 3295SOL    HW121518   3.312   1.497  17.529  1.6460 -1.1538  1.6743
 3295SOL    HW221519   3.381   1.372  17.530 -1.4865  0.9181  0.9034
 3296SOL     OW21520   4.664   4.638   5.143 -0.3002 -0.2329  0.1947
 3296SOL    HW121521   4.715   4.641   5.061  0.2192 -2.7658  0.4094
 3296SOL    HW221522   4.692   4.714   5.193 -0.9322 -1.2814  2.1518
 3297SOL     OW21523   0.124   4.118   4.700  0.3065  0.1353 -0.1245
 3297SOL    HW121524   0.159   4.197   4.740  1.6652 -0.2226 -0.6289
 3297SOL    HW221525   0.048   4.163   4.662 -1.1699 -1.8659  0.4516
 3298SOL     OW21526   1.067   3.991  13.168  0.4026 -0.3145  0.3928
 3298SOL    HW121527   0.988   3.939  13.182  1.9311 -2.5849  0.3976
 3298SOL    HW221528   1.126   3.920  13.143  1.7139  1.2347 -0.8821
 3299SOL     OW21529   3.580   0.569   8.129 -0.6340  0.3090  0.6961
 3299SOL    HW121530   3.604   0.648   8.081  0.2177 -0.5839 -0.3420
 3299SOL    HW221531   3.575   0.593   8.222 -0.7982  0.7408  0.5745
 3300SOL     OW21532   2.691   2.477   4.723 -0.0783  0.3504 -0.0657
 3300SOL    HW121533   2.643   2.443   4.648 -0.4327  0.5653  0.0635
 3300SOL    HW221534   2.778   2.490   4.685 -0.0253  0.0070 -0.0645
 3301SOL     OW21535   1.673   3.335  12.190 -1.0932 -0.4172  0.1660
 3301SOL    HW121536   1.743   3.375  12.242  0.2775 -2.6531  0.0591
 3301SOL    HW221537   1.604   3.388  12.230 -0.3715  0.6334  0.0021
 3302SOL     OW21538   0.357   3.306  14.708 -0.1352 -0.8314 -0.0126
 3302SOL    HW121539   0.311   3.280  14.788 -1.2249 -0.8940 -0.6642
 3302SOL    HW221540   0.402   3.389  14.725 -1.2839 -0.2184  0.0102
 3303SOL     OW21541   4.223   0.803   3.866 -0.3678  0.0873  0.2094
 3303SOL    HW121542   4.277   0.813   3.945  1.5643 -2.4489 -0.7822
 3303SOL    HW221543   4.134   0.810   3.900 -0.3748 -3.1344  0.8406
 3304SOL     OW21544   0.243   0.297   3.466  0.6860 -0.1657 -0.0501
 3304SOL    HW121545   0.245   0.389   3.490 -0.5542  0.0557 -0.7836
 3304SOL    HW221546   0.158   0.268   3.498  0.1600 -0.0748 -1.3494
 3305SOL     OW21547   1.467   4.657   5.052 -0.1152  0.0499 -0.4006
 3305SOL    HW121548   1.558   4.632   5.064 -0.3354  0.5659  2.2078
 3305SOL    HW221549   1.440   4.600   4.979 -0.9700 -0.0890  0.0235
 3306SOL     OW21550   2.342   3.027   7.530 -1.0005  0.1240  0.3467
 3306SOL    HW121551   2.291   2.956   7.568 -0.3722 -0.7271 -0.4091
 3306SOL    HW221552   2.267   3.073   7.491 -0.7810 -0.0160 -0.2541
 3307SOL     OW21553   2.392   3.831   4.588  0.0427  0.4671 -0.0174
 3307SOL    HW121554   2.347   3.896   4.640  0.2713 -0.5917  1.5048
 3307SOL    HW221555   2.477   3.875   4.585 -0.7052  1.8440 -0.8387
 3308SOL     OW21556   4.480   1.426  12.659  0.7461  0.9517  0.4913
 3308SOL    HW121557   4.560   1.439  12.609  0.3725  0.2110 -0.3077
 3308SOL    HW221558   4.416   1.469  12.603 -1.7746 -1.9025  1.1900
 3309SOL     OW21559   2.833   1.242   4.257  0.0423 -0.4014 -0.7569
 3309SOL    HW121560   2.853   1.207   4.344 -0.7440  1.5226  0.2105
 3309SOL    HW221561   2.855   1.166   4.203  4.7763  1.0213 -0.8097
 3310SOL     OW21562   0.790   3.893   6.669  0.1277 -0.0073  0.4445
 3310SOL    HW121563   0.789   3.832   6.595 -2.6034 -0.7246  1.0727
 3310SOL    HW221564   0.851   3.847   6.728  1.5473  0.6489 -0.5047
 3311SOL     OW21565   3.126   2.027   6.119 -0.2582 -0.7548  0.2474
 3311SOL    HW121566   3.038   2.064   6.114  1.0016  2.0094 -1.4624
 3311SOL    HW221567   3.181   2.095   6.080 -0.0271 -2.3429 -2.2482
 3312SOL     OW21568   3.229   1.052   6.387 -0.1483 -0.0439  0.0845
 3312SOL    HW121569   3.214   1.119   6.453  0.5313  0.3487 -0.1550
 3312SOL    HW221570   3.141   1.030   6.356  0.2136 -1.2927 -0.0488
 3313SOL     OW21571   1.307   2.852   5.764  0.0791  0.0903 -0.3813
 3313SOL    HW121572   1.300   2.781   5.827  0.1764  1.6776  1.4332
 3313SOL    HW221573   1.250   2.917   5.805 -0.4177  0.2656 -1.3559
 3314SOL     OW21574   4.039   0.296   3.955 -0.4361 -0.0235 -0.4756
 3314SOL    HW121575   3.983   0.293   4.033  1.7374 -1.1012  1.0265
 3314SOL    HW221576   3.986   0.247   3.892 -2.4953  0.6284  0.7331
 3315SOL     OW21577   1.174   1.419  14.739  0.1999  0.3439  0.2635
 3315SOL    HW121578   1.269   1.414  14.728  0.4050  1.9754  1.3150
 3315SOL    HW221579   1.144   1.380  14.657 -1.1935 -0.4750  1.1711
 3316SOL     OW21580   1.412   0.278  14.536  0.2571  0.1064  0.5988
 3316SOL    HW121581   1.456   0.353  14.575  0.9083  0.1619 -0.2561
 3316SOL    HW221582   1.367   0.315  14.461  2.5296 -1.5784 -1.6000
 3317SOL     OW21583   0.160   1.339   6.884  1.4813  0.0370 -0.3929
 3317SOL    HW121584   0.172   1.338   6.789  1.9359 -1.1841 -0.3251
 3317SOL    HW221585   0.175   1.428   6.916  1.6908 -0.3624  0.6276
 3318SOL     OW21586   3.486   4.435   8.997 -0.5001 -0.3495  0.2464
 3318SOL    HW121587   3.398   4.448   8.964  0.1441  1.5816 -0.6666
 3318SOL    HW221588   3.525   4.522   9.004  1.3280 -1.1326 -0.2873
 3319SOL     OW21589   3.917   4.452   8.155  0.6007 -0.3110 -0.1459
 3319SOL    HW121590   3.969   4.388   8.204  0.9399  1.1023  1.3254
 3319SOL    HW221591   3.881   4.497   8.232  1.5522 -0.3258  0.3034
 3320SOL     OW21592   1.003   1.107   6.613  0.1116 -0.3090 -0.2063
 3320SOL    HW121593   0.991   1.081   6.521  1.7324 -1.3404 -0.1202
 3320SOL    HW221594   0.991   1.201   6.607  0.9323 -0.2155 -0.3287
 3321SOL     OW21595   4.242   1.256   1.858  0.0440  0.0545  0.2084
 3321SOL    HW121596   4.293   1.337   1.856 -0.6973  0.4743 -2.1058
 3321SOL    HW221597   4.205   1.250   1.946 -2.7670 -0.2709 -0.9931
 3322SOL     OW21598   2.786   2.327   4.022  0.0476 -0.5286  0.0967
 3322SOL    HW121599   2.698   2.364   4.013  1.2685  1.5165 -3.2131
 3322SOL    HW221600   2.757   2.236   4.034 -1.8687  0.2328  1.3520
 3323SOL     OW21601   0.279   4.038   6.309  0.0600  0.4668 -0.2271
 3323SOL    HW121602   0.302   4.123   6.272 -0.1110 -0.1983 -1.8992
 3323SOL    HW221603   0.347   4.024   6.374 -1.5292  0.0699  1.3565
 3324SOL     OW21604   1.239   4.425  15.806  0.2909  0.4331  0.1246
 3324SOL    HW121605   1.312   4.487  15.804  1.0105 -0.3870  0.5902
 3324SOL    HW221606   1.214   4.408  15.715  0.8116 -1.1455  0.2694
 3325SOL     OW21607   0.417   1.581   1.382  0.0597 -0.2918 -0.2087
 3325SOL    HW121608   0.492   1.545   1.333 -0.0397 -1.6142  0.6009
 3325SOL    HW221609   0.376   1.506   1.424 -0.9831  0.1246 -0.4867
 3326SOL     OW21610   4.075   3.692  11.179  0.0924 -0.1065 -0.8624
 3326SOL    HW121611   4.020   3.676  11.103  0.0061 -0.1737 -0.7855
 3326SOL    HW221612   4.025   3.647  11.247  1.3512 -2.0975 -1.2563
 3327SOL     OW21613   3.055   3.703  10.530 -0.1010  0.0393  0.5391
 3327SOL    HW121614   3.033   3.697  10.623  1.4030 -0.3448  0.8671
 3327SOL    HW221615   2.968   3.720  10.493  0.7520  2.0129 -0.5826
 3328SOL     OW21616   3.705   3.114   9.695 -0.0476 -0.2393 -0.7810
 3328SOL    HW121617   3.668   3.201   9.682 -0.6386 -0.8678 -3.3020
 3328SOL    HW221618   3.773   3.126   9.761 -0.5500  0.4916 -0.3973
 3329SOL     OW21619   4.673   1.355   6.006 -0.2380  0.1593  0.3206
 3329SOL    HW121620   0.005   1.417   5.982  0.9316 -0.9074  0.9061
 3329SOL    HW221621   4.682   1.350   6.101 -1.0752 -1.6979  0.3110
 3330SOL     OW21622   0.043   3.558   6.459 -0.0284 -0.5595  0.5862
 3330SOL    HW121623   0.078   3.524   6.377 -1.1273  4.1118 -1.8084
 3330SOL    HW221624   0.009   3.475   6.494  1.4806 -1.5686 -0.3575
 3331SOL     OW21625   4.428   3.409  11.415  0.7625 -0.4275  0.2825
 3331SOL    HW121626   4.485   3.479  11.384 -1.0216  1.6354  1.6611
 3331SOL    HW221627   4.361   3.420  11.348  1.3307  1.1736 -0.0336
 3332SOL     OW21628   4.475   3.259  13.774  0.1943  0.4966 -0.2277
 3332SOL    HW121629   4.531   3.332  13.800 -0.2906  0.2757  1.3890
 3332SOL    HW221630   4.502   3.249  13.682  2.3455 -1.5257  0.6246
 3333SOL     OW21631   3.340   1.278   5.639 -0.2399  0.4594  0.2528
 3333SOL    HW121632   3.393   1.296   5.717 -1.2029 -0.3240  1.0859
 3333SOL    HW221633   3.397   1.213   5.599 -0.2411  0.0612  0.9014
 3334SOL     OW21634   4.541   2.168   8.284  0.5203 -0.3123 -0.5902
 3334SOL    HW121635   4.459   2.139   8.324  0.6148  0.7997  0.3833
 3334SOL    HW221636   4.510   2.247   8.240  1.5989  0.6924  0.4698
 3335SOL     OW21637   3.765   4.279   4.660  0.1288 -0.0376 -0.2228
 3335SOL    HW121638   3.705   4.222   4.708 -2.1823  2.9602  0.4666
 3335SOL    HW221639   3.809   4.330   4.729  0.3901 -3.3666  2.0579
 3336SOL     OW21640   2.883   3.252   2.610 -0.3024 -0.0762 -0.5154
 3336SOL    HW121641   2.813   3.302   2.569 -0.7051 -0.0084  0.2511
 3336SOL    HW221642   2.884   3.305   2.690  1.8063 -1.5993  0.4465
 3337SOL     OW21643   3.749   2.700   2.584 -0.4151  0.3152 -0.6170
 3337SOL    HW121644   3.721   2.666   2.499 -1.8947  1.6761 -0.6788
 3337SOL    HW221645   3.671   2.737   2.626  1.1695  1.3451  1.4038
 3338SOL     OW21646   2.022   2.655  14.292 -0.1475 -0.2705 -0.2791
 3338SOL    HW121647   2.072   2.702  14.358 -1.8831  1.3281 -0.0855
 3338SOL    HW221648   1.984   2.577  14.332 -2.0128  1.8128  2.0107
 3339SOL     OW21649   0.409   3.275   7.594 -0.0975  0.1814 -0.0566
 3339SOL    HW121650   0.380   3.351   7.544  0.6850  1.4090  1.3368
 3339SOL    HW221651   0.487   3.245   7.548 -0.6492  1.1732 -1.6128
 3340SOL     OW21652   0.592   2.550   3.508 -0.5899  0.0371 -0.2686
 3340SOL    HW121653   0.648   2.565   3.584  1.1395 -0.2702 -1.4798
 3340SOL    HW221654   0.580   2.637   3.469  2.7772  0.2596 -0.8593
 3341SOL     OW21655   3.985   1.234  16.745 -0.1708  0.2094  0.1798
 3341SOL    HW121656   3.988   1.183  16.826  2.0111  1.5885  0.9556
 3341SOL    HW221657   4.043   1.306  16.770 -2.1254  1.7220  0.3303
 3342SOL     OW21658   0.250   0.985   8.734 -0.1775 -0.5649  0.1530
 3342SOL    HW121659   0.271   0.931   8.658  0.1214 -0.4758  0.1722
 3342SOL    HW221660   0.335   0.975   8.775  1.6267 -0.1145 -3.5179
 3343SOL     OW21661   0.621   2.693   0.506 -0.6851 -0.4438  0.1743
 3343SOL    HW121662   0.638   2.630   0.576 -1.2288 -4.1630 -3.0503
 3343SOL    HW221663   0.712   2.714   0.486 -1.6238  2.0254 -1.4364
 3344SOL     OW21664   1.372   4.264   7.868 -0.4606  0.2797  0.3359
 3344SOL    HW121665   1.422   4.335   7.827  0.1908 -0.1420  0.4061
 3344SOL    HW221666   1.298   4.242   7.812 -0.6829  1.3510  0.2041
 3345SOL     OW21667   3.160   0.742   5.641  0.3920  0.0013  0.3748
 3345SOL    HW121668   3.212   0.662   5.638  1.1467  0.5698 -1.4634
 3345SOL    HW221669   3.094   0.721   5.707 -2.0343  0.4453 -1.8623
 3346SOL     OW21670   3.356   0.829   3.026  0.2150 -0.3207 -0.1235
 3346SOL    HW121671   3.446   0.833   3.060 -0.2922 -3.3675  1.5890
 3346SOL    HW221672   3.315   0.761   3.078 -1.4634 -1.4057 -2.8702
 3347SOL     OW21673   0.503   1.967   1.720 -0.1388  1.0233  0.1320
 3347SOL    HW121674   0.467   1.884   1.751  1.2910  0.2642 -0.2284
 3347SOL    HW221675   0.526   1.942   1.631 -1.2223 -1.2800  0.5159
 3348SOL     OW21676   2.049   0.044  11.372  0.2274 -0.0039 -0.1595
 3348SOL    HW121677   2.122   0.052  11.433  0.4123  1.0323 -0.5267
 3348SOL    HW221678   2.085   4.729  11.299 -0.9697  0.1614 -0.8619
 3349SOL     OW21679   1.752   3.342   7.478 -0.7760 -0.2309  0.3446
 3349SOL    HW121680   1.739   3.258   7.434 -0.3068 -1.0882  1.8154
 3349SOL    HW221681   1.689   3.335   7.551 -0.0026 -2.1704  0.8307
 3350SOL     OW21682   2.548   1.469   9.185  0.5317 -0.3371 -0.0068
 3350SOL    HW121683   2.493   1.509   9.253  1.5308  0.2835  0.4341
 3350SOL    HW221684   2.485   1.403   9.156  0.1614 -0.5331  1.2344
 3351SOL     OW21685   2.524   4.221   5.009 -0.2286 -0.1187  0.8199
 3351SOL    HW121686   2.606   4.266   4.985 -0.6315 -1.6586 -3.5403
 3351SOL    HW221687   2.467   4.248   4.937  1.0385  2.5975  0.8451
 3352SOL     OW21688   2.185   0.214   9.449  0.3119 -0.3940  0.2189
 3352SOL    HW121689   2.158   0.306   9.455  0.9888 -0.2606  1.3076
 3352SOL    HW221690   2.184   0.200   9.355 -0.8664  0.6134  0.0750
 3353SOL     OW21691   3.811   2.904   7.555 -0.2143  0.1035  0.1238
 3353SOL    HW121692   3.890   2.953   7.532 -1.3613  1.4966 -0.8366
 3353SOL    HW221693   3.847   2.817   7.573  3.0247  1.2885 -0.5691
 3354SOL     OW21694   4.087   3.243   3.274  0.5835  0.1674  0.2082
 3354SOL    HW121695   4.061   3.334   3.265  2.8360  0.6273 -1.4376
 3354SOL    HW221696   4.067   3.210   3.187 -0.5454 -0.2935  0.6289
 3355SOL     OW21697   2.765   3.779  10.485  0.4262 -0.1212 -0.1629
 3355SOL    HW121698   2.795   3.867  10.507  0.4106 -0.1437 -0.0540
 3355SOL    HW221699   2.725   3.797  10.399 -0.0711 -0.0220  0.0871
 3356SOL     OW21700   3.375   3.966  10.055  0.7374  0.3817 -0.1769
 3356SOL    HW121701   3.334   3.927  10.132  1.5566 -1.5290 -0.6950
 3356SOL    HW221702   3.439   3.898  10.033 -1.2909 -0.9558 -1.9698
 3357SOL     OW21703   2.899   1.332   2.220 -0.1769 -0.1980  0.5211
 3357SOL    HW121704   2.893   1.291   2.133 -0.9201  1.0838 -0.0511
 3357SOL    HW221705   2.993   1.347   2.225 -0.1078 -0.2641 -0.4545
 3358SOL     OW21706   0.321   3.625   1.909 -0.1332 -0.4437 -0.6528
 3358SOL    HW121707   0.242   3.656   1.953  0.0661  0.0507 -0.6527
 3358SOL    HW221708   0.284   3.548   1.864  2.6028 -0.6248 -2.5758
 3359SOL     OW21709   2.684   3.648   4.338  0.3689  0.1791  0.4826
 3359SOL    HW121710   2.747   3.711   4.375 -0.7058  1.0132  0.9062
 3359SOL    HW221711   2.629   3.641   4.416 -0.0650 -3.2603 -0.1603
 3360SOL     OW21712   0.596   3.453   6.489 -0.6898  0.3631  0.4262
 3360SOL    HW121713   0.599   3.507   6.568  1.9993  0.9202 -0.0735
 3360SOL    HW221714   0.502   3.442   6.476 -0.4048 -2.5113  0.9085
 3361SOL     OW21715   2.964   0.346   4.325 -0.2110  0.3286 -0.6645
 3361SOL    HW121716   2.962   0.439   4.304 -1.7391  0.0294 -1.8242
 3361SOL    HW221717   2.882   0.302   4.300 -0.4054  1.0437 -1.2677
 3362SOL     OW21718   1.635   4.063   9.027 -0.2338  0.5622 -0.0218
 3362SOL    HW121719   1.543   4.055   9.052 -0.4582  2.3382 -0.2657
 3362SOL    HW221720   1.677   3.998   9.084  1.0196 -0.1308 -1.7509
 3363SOL     OW21721   2.454   1.282   5.462 -0.0593  0.0497 -1.4257
 3363SOL    HW121722   2.513   1.210   5.485  0.7711  1.7051  1.6957
 3363SOL    HW221723   2.487   1.355   5.515  1.7552 -0.8411 -1.3181
 3364SOL     OW21724   3.064   3.947   6.794 -0.1138 -0.2376 -0.4140
 3364SOL    HW121725   3.149   3.911   6.820  0.0213 -0.8115 -1.6527
 3364SOL    HW221726   3.015   3.936   6.875  0.6957 -1.1843 -0.0553
 3365SOL     OW21727   4.138   1.809   1.286  0.4745  0.2045 -0.3201
 3365SOL    HW121728   4.172   1.721   1.300 -1.5265 -0.3500  1.0868
 3365SOL    HW221729   4.145   1.827   1.192  2.9022  0.4003 -0.0971
 3366SOL     OW21730   3.657   2.843   2.123 -0.0719 -0.1520 -0.9692
 3366SOL    HW121731   3.663   2.930   2.083 -1.8160  0.0542 -0.7802
 3366SOL    HW221732   3.663   2.853   2.218  0.5213  0.2966 -1.0548
 3367SOL     OW21733   1.569   1.660   6.550 -0.0700 -0.6417  0.1494
 3367SOL    HW121734   1.493   1.605   6.534  0.3220 -0.8512 -0.9985
 3367SOL    HW221735   1.549   1.695   6.637 -0.7750  1.6111 -0.9014
 3368SOL     OW21736   0.609   2.564  11.141 -0.1399 -0.0041 -0.1875
 3368SOL    HW121737   0.538   2.579  11.204  0.9010 -1.7187  1.4212
 3368SOL    HW221738   0.604   2.468  11.149 -0.2746  0.0916  0.9542
 3369SOL     OW21739   1.029   1.596  10.816 -0.4990 -0.6587  0.1245
 3369SOL    HW121740   1.051   1.686  10.793 -1.6312  0.2163  2.3787
 3369SOL    HW221741   1.079   1.546  10.752  1.9840  1.9438  0.0610
 3370SOL     OW21742   4.566   0.852  11.424 -0.0823 -0.2756  0.2063
 3370SOL    HW121743   4.616   0.851  11.505 -1.4482  2.3702  1.0643
 3370SOL    HW221744   4.530   0.764  11.414  0.1859 -0.2442 -1.0104
 3371SOL     OW21745   2.246   1.987  12.163 -0.8338  0.1515  0.5798
 3371SOL    HW121746   2.300   1.945  12.096 -2.2833  1.3406 -1.3258
 3371SOL    HW221747   2.163   1.984  12.117 -0.3808 -1.6036 -0.1490
 3372SOL     OW21748   2.994   0.104   3.919  0.1764  0.0131  0.1637
 3372SOL    HW121749   3.015   0.074   4.008 -2.3282 -1.4199  0.2597
 3372SOL    HW221750   2.969   0.195   3.936 -2.9966 -0.7832 -0.3251
 3373SOL     OW21751   1.330   0.227   8.523 -0.2359  0.4844  0.6383
 3373SOL    HW121752   1.349   0.229   8.617  0.4586 -0.9780  0.5420
 3373SOL    HW221753   1.244   0.267   8.535 -0.9936 -0.5700 -1.1973
 3374SOL     OW21754   3.795   4.506   2.592 -0.2302  0.3493 -0.4628
 3374SOL    HW121755   3.725   4.531   2.532  1.0403 -0.5705 -2.3422
 3374SOL    HW221756   3.772   4.413   2.600  2.0806 -0.1236  0.5452
 3375SOL     OW21757   0.533   3.538   3.489 -0.6181 -0.2248 -0.5552
 3375SOL    HW121758   0.478   3.575   3.420 -1.4780  3.0014  1.8318
 3375SOL    HW221759   0.469   3.473   3.516 -1.7304  1.4143  0.7575
 3376SOL     OW21760   3.601   3.088   4.305 -0.6397  0.6350 -0.3282
 3376SOL    HW121761   3.655   3.115   4.379 -0.2558  0.2021 -0.4483
 3376SOL    HW221762   3.681   3.051   4.267 -1.5286 -1.3320 -0.3197
 3377SOL     OW21763   1.364   0.172   4.070  0.4201  0.3968 -0.2756
 3377SOL    HW121764   1.308   0.246   4.047 -0.1072  0.1526  0.2212
 3377SOL    HW221765   1.340   0.112   3.999  1.1592 -1.1183  0.7549
 3378SOL     OW21766   0.155   4.483   3.298 -0.1280 -0.7858 -0.0463
 3378SOL    HW121767   0.175   4.509   3.388 -0.2325  0.6538 -0.4414
 3378SOL    HW221768   0.067   4.516   3.286  0.8056  2.5043  2.1738
 3379SOL     OW21769   1.207   1.200   2.555  0.1953  0.7967  0.0332
 3379SOL    HW121770   1.195   1.161   2.641  0.9954 -2.1029 -1.1385
 3379SOL    HW221771   1.118   1.232   2.542 -0.5955 -1.4563 -0.2191
 3380SOL     OW21772   2.725   0.512  14.479 -0.2891  0.3324  0.0231
 3380SOL    HW121773   2.636   0.491  14.452 -0.6492 -0.6314  1.9945
 3380SOL    HW221774   2.696   0.589  14.528 -0.7071 -0.3600  0.8681
 3381SOL     OW21775   1.419   0.755  16.061 -0.4470 -0.7758 -0.0923
 3381SOL    HW121776   1.448   0.836  16.018 -2.7589 -1.6473 -3.2790
 3381SOL    HW221777   1.341   0.743  16.007 -0.8656 -0.8235  0.5211
 3382SOL     OW21778   2.385   4.469  14.796 -0.4717 -0.2996  0.1529
 3382SOL    HW121779   2.366   4.389  14.845  1.7875 -0.3092  1.0627
 3382SOL    HW221780   2.305   4.473  14.744  0.0919  0.4768 -0.6536
 3383SOL     OW21781   4.500   3.879  10.143  0.1773 -0.1858 -0.1083
 3383SOL    HW121782   4.527   3.970  10.146  3.9002 -1.3057  0.3329
 3383SOL    HW221783   4.584   3.840  10.165 -0.0126 -1.1653 -1.1071
 3384SOL     OW21784   0.235   0.027   8.002 -0.3880 -0.7670  0.1380
 3384SOL    HW121785   0.164   0.092   8.011 -0.8879 -1.0097 -1.9095
 3384SOL    HW221786   0.187   4.689   8.037 -0.9470 -0.1975  0.6001
 3385SOL     OW21787   4.601   2.571   5.107 -0.1201  0.0139 -0.0397
 3385SOL    HW121788   4.589   2.476   5.108 -0.5307  0.0897  2.7456
 3385SOL    HW221789   4.566   2.602   5.190 -0.6113 -0.7260  0.0254
 3386SOL     OW21790   2.803   2.906   6.195  0.3551 -0.3091 -0.0975
 3386SOL    HW121791   2.793   2.868   6.108 -0.1395  1.2960 -0.7401
 3386SOL    HW221792   2.877   2.858   6.233  0.1636 -1.1784 -0.8372
 3387SOL     OW21793   3.570   3.389   8.180  0.2114 -0.0480  0.0538
 3387SOL    HW121794   3.567   3.475   8.222 -5.0257  0.2914 -1.0158
 3387SOL    HW221795   3.488   3.349   8.207  0.8694  0.6483  3.1045
 3388SOL     OW21796   2.665   2.437  17.183  0.6508 -0.4444 -0.4274
 3388SOL    HW121797   2.749   2.476  17.157  1.4923 -0.7600  1.8267
 3388SOL    HW221798   2.655   2.489  17.263  0.3280 -1.9754  0.5308
 3389SOL     OW21799   3.845   3.933  11.883  0.0641 -0.6956 -0.1026
 3389SOL    HW121800   3.787   3.979  11.944 -2.1066  0.1265 -2.7466
 3389SOL    HW221801   3.789   3.861  11.854 -0.6788 -0.4265  0.6465
 3390SOL     OW21802   2.004   3.989   6.849 -0.2178 -0.6502  0.3927
 3390SOL    HW121803   1.909   3.986   6.842 -0.2837 -1.1982  1.6752
 3390SOL    HW221804   2.015   3.975   6.943 -0.1116 -0.4318  0.4128
 3391SOL     OW21805   0.341   1.721   5.312 -0.5809  0.8533  0.5532
 3391SOL    HW121806   0.300   1.764   5.387 -0.2285  0.7375  0.8124
 3391SOL    HW221807   0.264   1.722   5.255 -0.9682 -2.3089  1.0120
 3392SOL     OW21808   0.433   4.285   9.132  0.6789  0.1306  0.2876
 3392SOL    HW121809   0.349   4.330   9.125 -0.0772 -1.0802  1.6810
 3392SOL    HW221810   0.449   4.258   9.042 -0.5277  3.0337 -0.8076
 3393SOL     OW21811   4.334   4.273  10.220  0.4072  0.4244 -0.3820
 3393SOL    HW121812   4.327   4.322  10.138  1.3897  2.0796  0.5294
 3393SOL    HW221813   4.420   4.233  10.210  1.6938  2.9160  0.6936
 3394SOL     OW21814   4.439   3.158  15.145  0.2130  0.3868 -0.2971
 3394SOL    HW121815   4.381   3.081  15.146  2.9507 -1.6482  1.1356
 3394SOL    HW221816   4.503   3.128  15.209 -1.1442 -0.7866  0.5267
 3395SOL     OW21817   2.862   1.367   5.975 -0.3276  0.1917  0.2167
 3395SOL    HW121818   2.938   1.390   5.922 -1.0990  0.2994 -0.8406
 3395SOL    HW221819   2.810   1.446   5.961  1.1351  0.9504 -0.9387
 3396SOL     OW21820   1.368   4.436   2.901  0.6356 -0.0190  0.4711
 3396SOL    HW121821   1.402   4.438   2.990 -0.5473  0.2384  0.9125
 3396SOL    HW221822   1.424   4.501   2.858 -0.1920  1.2710  1.3255
 3397SOL     OW21823   3.286   0.649   6.455 -0.3161 -0.2448  0.0634
 3397SOL    HW121824   3.310   0.721   6.397  2.0187  0.2944  1.7024
 3397SOL    HW221825   3.194   0.637   6.431  0.3796  0.7272 -3.0985
 3398SOL     OW21826   2.347   1.851   1.390  0.7500  0.7329  0.1575
 3398SOL    HW121827   2.276   1.800   1.352  1.4934  0.5289 -0.9498
 3398SOL    HW221828   2.349   1.926   1.330 -0.3834  0.2860 -0.4417
 3399SOL     OW21829   3.868   4.726   3.953  0.4030 -0.6285 -0.1545
 3399SOL    HW121830   3.792   4.707   4.007 -0.1166  3.4843  0.5327
 3399SOL    HW221831   3.832   0.061   3.902 -0.2617  0.4817  1.9015
 3400SOL     OW21832   3.229   0.265  17.333 -0.1519  0.3465 -0.2715
 3400SOL    HW121833   3.259   0.177  17.309 -0.6849  0.5493 -1.6616
 3400SOL    HW221834   3.136   0.241  17.344 -0.4437  1.1258 -1.1324
 3401SOL     OW21835   2.212   4.403   9.126  0.2841  0.4426  0.1539
 3401SOL    HW121836   2.161   4.335   9.082 -0.9149  1.8401 -0.6117
 3401SOL    HW221837   2.295   4.355   9.131 -0.9723 -1.6431  0.9875
 3402SOL     OW21838   2.529   2.125   6.445 -0.2186  0.1397  0.2360
 3402SOL    HW121839   2.504   2.087   6.530 -1.1670 -2.0125 -1.0138
 3402SOL    HW221840   2.618   2.093   6.431 -0.7225 -1.6040  0.9275
 3403SOL     OW21841   2.023   2.048   6.267 -0.7842  0.0787  0.3645
 3403SOL    HW121842   2.025   2.142   6.248  0.1865  0.6632  3.4164
 3403SOL    HW221843   2.038   2.044   6.362  0.5759 -0.4391  0.1272
 3404SOL     OW21844   3.743   0.650   1.714 -0.1997  0.0611 -0.8512
 3404SOL    HW121845   3.729   0.557   1.692 -0.7045  0.0979 -0.6865
 3404SOL    HW221846   3.661   0.665   1.762  1.3150  0.2682  1.6906
 3405SOL     OW21847   2.076   2.777   1.269 -0.3553  0.9205 -0.7206
 3405SOL    HW121848   2.121   2.693   1.266  0.2581  1.2452 -0.4605
 3405SOL    HW221849   2.144   2.834   1.232  1.7597 -0.7723  0.5964
 3406SOL     OW21850   0.521   4.593   5.018  0.4091  0.4524 -0.2775
 3406SOL    HW121851   0.568   4.620   4.939  1.4596 -0.7023 -0.0435
 3406SOL    HW221852   0.459   4.666   5.016 -0.8897 -0.6685 -2.1319
 3407SOL     OW21853   1.692   3.675  15.394 -0.1516 -0.3410 -0.5840
 3407SOL    HW121854   1.756   3.647  15.329  0.7720  1.2647 -0.3772
 3407SOL    HW221855   1.720   3.617  15.465 -1.0608  1.5036  1.2833
 3408SOL     OW21856   1.376   3.549   1.521 -0.0426  0.5187 -0.1213
 3408SOL    HW121857   1.316   3.551   1.447 -0.7222  0.1483  0.4185
 3408SOL    HW221858   1.392   3.640   1.544 -0.2303 -0.4106  3.7961
 3409SOL     OW21859   4.458   3.637   4.630  0.0441 -0.3440 -0.5925
 3409SOL    HW121860   4.521   3.698   4.669 -0.2410 -0.2696 -0.2469
 3409SOL    HW221861   4.448   3.562   4.689  1.3489 -0.4066 -0.4598
 3410SOL     OW21862   1.703   3.702   3.614 -0.0037 -0.2981 -0.0832
 3410SOL    HW121863   1.712   3.616   3.574 -0.7773  0.2241 -1.4072
 3410SOL    HW221864   1.614   3.730   3.590 -0.3044 -0.3808  0.9387
 3411SOL     OW21865   2.394   4.342   8.095  0.2606  0.3207  0.0660
 3411SOL    HW121866   2.414   4.365   8.005  0.5536 -0.1140  0.0179
 3411SOL    HW221867   2.473   4.371   8.141 -1.3555  1.3076  2.2440
 3412SOL     OW21868   0.146   4.216  10.153  0.0621  0.3099 -0.7108
 3412SOL    HW121869   0.218   4.183  10.206  0.5486 -0.9490 -2.1483
 3412SOL    HW221870   0.097   4.264  10.219 -0.3711 -2.4215  0.9293
 3413SOL     OW21871   3.752   0.541  12.098  0.5841  0.2947 -0.0043
 3413SOL    HW121872   3.841   0.575  12.095  0.9771 -0.4678  2.7315
 3413SOL    HW221873   3.726   0.550  12.006  1.9195  2.3004 -0.1829
 3414SOL     OW21874   3.266   0.599  11.436 -0.5897 -0.4091 -0.9468
 3414SOL    HW121875   3.343   0.588  11.380  0.8615  1.1421  0.7423
 3414SOL    HW221876   3.221   0.517  11.417 -2.9665  1.3759 -3.0653
 3415SOL     OW21877   0.531   4.318   6.488 -0.6682  0.2595  0.3080
 3415SOL    HW121878   0.602   4.373   6.455  3.2057 -2.5332  3.9426
 3415SOL    HW221879   0.576   4.237   6.512 -1.2903 -0.1725  0.0103
 3416SOL     OW21880   0.471   0.039   3.898 -0.0171  0.0722  0.0151
 3416SOL    HW121881   0.436   0.070   3.982  1.5797 -0.5728  0.9116
 3416SOL    HW221882   0.448   0.115   3.844 -0.7553  1.1627  1.8440
 3417SOL     OW21883   3.951   2.534   3.874 -0.2217 -0.4688 -0.7514
 3417SOL    HW121884   3.884   2.503   3.935 -0.1950 -1.6002 -1.3020
 3417SOL    HW221885   3.998   2.593   3.933 -0.4651 -0.6771 -0.3494
 3418SOL     OW21886   1.527   4.473   9.712 -0.1099 -0.8487 -0.1912
 3418SOL    HW121887   1.488   4.427   9.638  1.7417 -2.7468  0.0097
 3418SOL    HW221888   1.620   4.456   9.695 -0.0286 -0.4423 -0.1521
 3419SOL     OW21889   2.611   3.649   5.073  0.3790 -0.0415  0.1808
 3419SOL    HW121890   2.582   3.560   5.052  0.4140 -0.0072 -0.0069
 3419SOL    HW221891   2.538   3.678   5.129  1.7175 -1.1940  2.5599
 3420SOL     OW21892   0.502   4.161   2.573  0.0411 -0.1009 -0.0017
 3420SOL    HW121893   0.462   4.075   2.590 -1.1571  0.0467 -2.0668
 3420SOL    HW221894   0.442   4.224   2.613 -0.8121 -0.8119 -0.1440
 3421SOL     OW21895   3.557   3.444  16.931  0.1971 -0.0252  0.0308
 3421SOL    HW121896   3.569   3.414  16.841 -0.9566 -2.7670  0.7878
 3421SOL    HW221897   3.641   3.489  16.940 -0.4507  1.3208 -0.5710
 3422SOL     OW21898   0.392   1.078   4.124  0.2267  0.1259  0.0204
 3422SOL    HW121899   0.334   1.113   4.192 -0.0215  1.1251 -0.7036
 3422SOL    HW221900   0.392   1.145   4.056 -1.1618 -0.7284 -0.8187
 3423SOL     OW21901   3.626   3.515   5.320  0.0342 -0.0197 -0.4318
 3423SOL    HW121902   3.665   3.565   5.248 -2.0325  0.7457 -1.0215
 3423SOL    HW221903   3.656   3.427   5.299  1.4810 -0.4177  3.3536
 3424SOL     OW21904   3.290   3.682   9.808  0.3284 -0.6681 -0.1950
 3424SOL    HW121905   3.359   3.748   9.794  1.2659 -1.4736  0.6961
 3424SOL    HW221906   3.224   3.705   9.742  0.9967  1.0797 -0.2752
 3425SOL     OW21907   3.501   2.366   2.105 -0.1129  0.9388  0.1933
 3425SOL    HW121908   3.408   2.361   2.125 -0.2507  2.3553 -0.0510
 3425SOL    HW221909   3.532   2.285   2.145 -0.4456 -0.5503 -2.5811
 3426SOL     OW21910   1.872   2.765  11.304  0.3254 -0.1215  0.0184
 3426SOL    HW121911   1.851   2.784  11.213  0.5523 -0.0855 -0.0262
 3426SOL    HW221912   1.793   2.797  11.348  0.8683  2.0731 -0.6084
 3427SOL     OW21913   0.909   0.295   2.987  0.5625 -0.3697  0.0999
 3427SOL    HW121914   0.834   0.236   2.986 -0.3021  0.7168  0.4821
 3427SOL    HW221915   0.940   0.295   3.078 -1.1206 -0.8309  0.6843
 3428SOL     OW21916   2.243   3.967  14.429  0.2046  0.6597  0.0270
 3428SOL    HW121917   2.198   3.899  14.379 -1.1789  1.8312 -0.3216
 3428SOL    HW221918   2.334   3.937  14.421 -1.0549 -3.2502  0.4641
 3429SOL     OW21919   3.049   0.170   9.521 -0.1538 -0.5715  0.0967
 3429SOL    HW121920   3.038   0.245   9.579 -0.9409  0.5149 -1.4786
 3429SOL    HW221921   3.027   0.101   9.584  0.0174 -2.2682 -1.6824
 3430SOL     OW21922   3.318   1.109   6.704  0.2014 -0.2611 -0.0262
 3430SOL    HW121923   3.226   1.124   6.725  0.3511 -0.7398  0.9352
 3430SOL    HW221924   3.317   1.022   6.664 -1.4971 -0.3414  0.1928
 3431SOL     OW21925   0.526   4.537   6.953 -0.0006 -0.4541 -0.0687
 3431SOL    HW121926   0.492   4.481   6.884 -0.1788 -1.0085  0.4685
 3431SOL    HW221927   0.509   4.489   7.034  0.0920 -1.8072 -0.8544
 3432SOL     OW21928   2.424   1.719   9.872  0.0373 -0.1689  0.4696
 3432SOL    HW121929   2.477   1.647   9.837 -0.0487  0.2146 -0.4729
 3432SOL    HW221930   2.340   1.674   9.871  0.2459 -0.5253 -1.2845
 3433SOL     OW21931   2.931   1.592  15.199  0.3895 -0.0362  0.2958
 3433SOL    HW121932   2.844   1.591  15.238  0.2006 -0.2169 -0.1406
 3433SOL    HW221933   2.953   1.685  15.210 -0.0068 -0.0085  0.8919
 3434SOL     OW21934   3.874   2.942   8.568 -0.3691 -0.1084  0.3342
 3434SOL    HW121935   3.944   2.898   8.520 -1.9971 -0.0463 -2.0895
 3434SOL    HW221936   3.803   2.958   8.506  0.5975 -0.1523 -0.7933
 3435SOL     OW21937   0.635   2.255   4.834  0.5343  0.2549  0.6474
 3435SOL    HW121938   0.548   2.221   4.858  1.1521 -2.4572 -0.9917
 3435SOL    HW221939   0.604   2.292   4.752  0.5715  1.1996  1.0626
 3436SOL     OW21940   0.071   4.077   5.686  0.2835  0.4165  0.4848
 3436SOL    HW121941   0.063   4.173   5.684 -1.4890  0.2191 -1.5134
 3436SOL    HW221942   0.115   4.052   5.605  1.0679 -0.4575  1.1914
 3437SOL     OW21943   0.895   3.017   1.378  0.1327 -0.1022 -0.2456
 3437SOL    HW121944   0.860   3.077   1.313  0.8101 -0.1375 -0.6421
 3437SOL    HW221945   0.874   2.932   1.339 -1.1742  0.1571 -0.1070
 3438SOL     OW21946   3.194   1.334   7.673  0.0934 -0.2349  0.5368
 3438SOL    HW121947   3.192   1.317   7.767 -0.5757  0.0602  0.5733
 3438SOL    HW221948   3.112   1.290   7.649  0.8201 -1.3532  0.1181
 3439SOL     OW21949   0.818   3.469  10.563 -0.0419  0.1203 -0.4417
 3439SOL    HW121950   0.894   3.421  10.529  1.0150  2.4542 -1.3917
 3439SOL    HW221951   0.854   3.487  10.650 -0.0370 -0.2473 -0.3671
 3440SOL     OW21952   1.388   3.231   4.034 -0.2915 -0.2944 -0.1864
 3440SOL    HW121953   1.444   3.278   4.095  0.3604 -1.1659 -0.1230
 3440SOL    HW221954   1.306   3.276   4.054  1.2476  1.2282  2.6824
 3441SOL     OW21955   4.067   0.492   7.999  0.2243  0.0114  0.0038
 3441SOL    HW121956   4.073   0.508   7.904 -2.2516 -1.2623 -0.3566
 3441SOL    HW221957   4.022   0.408   7.988 -0.7194  0.7056 -1.5560
 3442SOL     OW21958   1.777   2.257  14.380  0.5271  0.0388  0.5996
 3442SOL    HW121959   1.835   2.188  14.410 -0.5750 -0.8968  0.5633
 3442SOL    HW221960   1.724   2.203  14.321 -1.0152 -0.6165  2.5728
 3443SOL     OW21961   1.751   4.228   5.270  0.1971 -0.0037 -0.2117
 3443SOL    HW121962   1.842   4.210   5.294 -0.3982 -1.3055  1.1078
 3443SOL    HW221963   1.732   4.309   5.317 -0.0642  1.4562 -2.8529
 3444SOL     OW21964   3.895   2.132   0.941  0.5664  0.5005  0.1495
 3444SOL    HW121965   3.951   2.177   0.877 -1.9560  4.0276  0.4676
 3444SOL    HW221966   3.844   2.073   0.885 -0.6308  0.4720  1.2697
 3445SOL     OW21967   3.043   0.928  11.969  0.3638 -0.2770 -0.6211
 3445SOL    HW121968   3.088   0.850  11.937 -0.2447  0.5655 -3.5529
 3445SOL    HW221969   3.023   0.907  12.060  1.5028  1.3463  0.0033
 3446SOL     OW21970   3.002   2.378   7.578 -0.4501 -0.1504 -0.3096
 3446SOL    HW121971   3.036   2.297   7.615 -1.1578 -1.0325 -1.5952
 3446SOL    HW221972   3.078   2.435   7.562  1.0010 -2.2984 -1.0807
 3447SOL     OW21973   0.017   4.340  12.192  0.1895 -0.2115  0.2766
 3447SOL    HW121974   0.044   4.369  12.279 -0.4943  1.1772  0.0279
 3447SOL    HW221975   4.693   4.269  12.208 -0.9040  0.4515 -0.9532
 3448SOL     OW21976   1.336   0.321   1.539  0.2659  0.1439 -0.5897
 3448SOL    HW121977   1.379   0.257   1.481 -0.2595 -0.1953 -0.6020
 3448SOL    HW221978   1.252   0.336   1.495  0.6578 -0.5573 -1.5901
 3449SOL     OW21979   2.086   4.405  12.939 -0.2887  0.3685 -0.1263
 3449SOL    HW121980   2.120   4.316  12.944 -0.2466  0.3845 -0.1278
 3449SOL    HW221981   2.032   4.418  13.017 -0.8732 -0.1161 -0.4527
 3450SOL     OW21982   0.787   3.997   3.301 -0.0823 -0.0417 -0.2259
 3450SOL    HW121983   0.779   4.077   3.250 -0.4328  0.0895  0.0397
 3450SOL    HW221984   0.806   4.032   3.388 -0.2967  1.0614 -0.6294
 3451SOL     OW21985   2.374   0.728   3.747  0.3782  0.5166 -0.0805
 3451SOL    HW121986   2.345   0.686   3.665 -3.1552  0.3595  1.2625
 3451SOL    HW221987   2.367   0.820   3.723 -0.7581  0.9966  2.2108
 3452SOL     OW21988   1.273   3.004  16.550 -0.2347 -0.2372 -0.1968
 3452SOL    HW121989   1.216   3.035  16.480  0.3973 -0.6673 -0.9014
 3452SOL    HW221990   1.305   3.079  16.600 -1.2434  1.4876 -2.1328
 3453SOL     OW21991   3.853   4.547  16.282 -0.2208 -0.1792  0.2123
 3453SOL    HW121992   3.817   4.636  16.284 -1.8216 -0.8565  1.3734
 3453SOL    HW221993   3.939   4.580  16.253 -0.3315 -0.9542 -1.0109
 3454SOL     OW21994   0.474   0.387   6.523 -0.4315  0.3083 -0.3328
 3454SOL    HW121995   0.433   0.401   6.438 -0.3469 -0.9618 -0.5846
 3454SOL    HW221996   0.550   0.444   6.511  1.6609 -2.4724 -0.3603
 3455SOL     OW21997   2.782   1.993   6.413 -0.1841  0.4046 -0.0203
 3455SOL    HW121998   2.776   1.951   6.499 -1.8161  0.2340 -0.2213
 3455SOL    HW221999   2.874   2.021   6.419 -0.1375  0.2055  0.2114
 3456SOL     OW22000   4.406   3.259  10.694 -0.3416 -0.1073 -0.1163
 3456SOL    HW122001   4.353   3.318  10.747 -0.5236 -0.7791  0.4416
 3456SOL    HW222002   4.488   3.308  10.692 -0.0017 -0.6811 -0.2390
 3457SOL     OW22003   3.285   2.062   5.057  0.1813  0.2931 -0.1186
 3457SOL    HW122004   3.330   2.145   5.072  0.9434  0.3105 -2.4555
 3457SOL    HW222005   3.205   2.093   5.016 -0.0834 -2.4142 -1.7124
 3458SOL     OW22006   0.480   2.779   3.131 -0.3789  0.2089 -0.0845
 3458SOL    HW122007   0.507   2.793   3.040 -1.1744  0.3089 -0.3017
 3458SOL    HW222008   0.420   2.707   3.117  0.2413 -0.1611 -0.8696
 3459SOL     OW22009   1.969   3.981   3.684  0.4185 -0.8739  0.5705
 3459SOL    HW122010   1.949   3.985   3.778 -1.0964  0.5512  0.1734
 3459SOL    HW222011   2.008   4.067   3.667 -1.4059 -0.2498 -0.3857
 3460SOL     OW22012   4.560   0.295   4.895 -0.0554 -0.2393 -0.0869
 3460SOL    HW122013   4.525   0.208   4.916 -1.4209  0.2781 -0.2188
 3460SOL    HW222014   4.501   0.347   4.948  0.6928 -1.5484  2.0357
 3461SOL     OW22015   4.542   3.991  12.435  0.3666 -0.4257  0.0391
 3461SOL    HW122016   4.567   3.976  12.344 -0.6128 -0.5956 -0.2020
 3461SOL    HW222017   4.590   4.070  12.461 -0.4209  0.4785 -1.2572
 3462SOL     OW22018   2.630   0.086   1.852  0.0677 -0.0409  0.1820
 3462SOL    HW122019   2.589   0.069   1.937 -0.5939  0.6236 -0.0105
 3462SOL    HW222020   2.559   0.101   1.790  1.8606  1.5433 -1.4903
 3463SOL     OW22021   0.974   0.478  10.953  0.6860 -0.5420  0.3678
 3463SOL    HW122022   0.988   0.486  10.859 -0.3030  0.7739  0.3395
 3463SOL    HW222023   0.906   0.411  10.960 -1.6081  1.6054 -1.4025
 3464SOL     OW22024   1.978   0.242   0.321  0.5688  0.1370 -0.6761
 3464SOL    HW122025   1.989   0.297   0.399 -1.0925  0.0478 -0.3726
 3464SOL    HW222026   2.039   0.174   0.351  0.0259  0.8086  1.9119
 3465SOL     OW22027   2.544   3.471   8.063  0.1926  0.1096 -0.9951
 3465SOL    HW122028   2.450   3.479   8.048  0.1076  1.1078  0.0484
 3465SOL    HW222029   2.543   3.455   8.157 -0.7222 -0.3160 -1.0759
 3466SOL     OW22030   3.854   4.030   4.903 -0.5031 -0.8599 -0.8640
 3466SOL    HW122031   3.868   4.094   4.973  0.9446 -2.6244  0.4675
 3466SOL    HW222032   3.769   4.057   4.870 -1.3681 -1.6744  0.7501
 3467SOL     OW22033   0.085   0.558   3.283 -0.6596  0.1191  0.0339
 3467SOL    HW122034   0.125   0.491   3.228 -0.7456  0.0406  0.0683
 3467SOL    HW222035   4.732   0.527   3.287 -0.4425 -0.8050 -1.9773
 3468SOL     OW22036   2.593   3.147   9.103 -0.6428 -0.5559  0.2182
 3468SOL    HW122037   2.653   3.212   9.066 -1.3298  0.3887  0.7737
 3468SOL    HW222038   2.509   3.192   9.110  0.8184  2.2043 -0.0948
 3469SOL     OW22039   1.605   2.678   1.723 -0.2952 -0.3895 -0.0038
 3469SOL    HW122040   1.578   2.608   1.663  0.2271 -1.4481  0.9925
 3469SOL    HW222041   1.662   2.628   1.781  0.1976  0.8086  0.5247
 3470SOL     OW22042   0.917   1.367   6.586 -0.4693  0.2066 -0.2736
 3470SOL    HW122043   0.943   1.412   6.505  2.1494  0.0182  0.4546
 3470SOL    HW222044   0.945   1.439   6.643 -2.5867 -0.5425  1.6663
 3471SOL     OW22045   4.432   1.547   4.394 -0.0230 -0.5718 -0.3280
 3471SOL    HW122046   4.498   1.589   4.338 -0.3147 -0.7203 -0.7892
 3471SOL    HW222047   4.362   1.536   4.330  0.4377  2.2991 -1.3580
 3472SOL     OW22048   2.822   4.023   7.134 -0.0003  0.6179 -0.1435
 3472SOL    HW122049   2.809   3.932   7.162  1.0465 -0.2350 -2.4751
 3472SOL    HW222050   2.794   4.011   7.044  0.9030  1.6048 -0.5517
 3473SOL     OW22051   1.795   2.481  12.711  0.1920 -0.0775  0.2907
 3473SOL    HW122052   1.806   2.514  12.622  0.4457 -0.8294  0.0488
 3473SOL    HW222053   1.884   2.449  12.724 -0.5285 -1.2652  2.2921
 3474SOL     OW22054   0.648   2.459   4.288 -0.2741  0.1243  0.1497
 3474SOL    HW122055   0.600   2.429   4.210 -0.9034 -0.4893  0.7756
 3474SOL    HW222056   0.612   2.546   4.307  1.2059  0.0559  3.2348
 3475SOL     OW22057   2.674   2.149   3.467 -0.3603  0.0610  0.3332
 3475SOL    HW122058   2.738   2.220   3.459 -2.4128  1.7851 -0.8641
 3475SOL    HW222059   2.642   2.151   3.377 -1.2808  0.5332  0.6693
 3476SOL     OW22060   0.938   4.600  16.680  0.5857  0.5401 -0.3086
 3476SOL    HW122061   1.024   4.598  16.722 -0.4392  1.5054  1.8345
 3476SOL    HW222062   0.889   4.530  16.723  0.2929  1.7904  1.3919
 3477SOL     OW22063   1.929   1.389   8.691  0.7557  0.1842 -0.1869
 3477SOL    HW122064   1.844   1.432   8.686  0.7014  0.4006  2.6611
 3477SOL    HW222065   1.925   1.315   8.631  0.2064 -0.6869  0.9266
 3478SOL     OW22066   3.068   0.752   5.908 -0.0673 -0.7548 -0.1777
 3478SOL    HW122067   3.029   0.701   5.979 -0.7122  0.2205  0.1709
 3478SOL    HW222068   3.013   0.830   5.914  0.2588 -0.6178  1.1397
 3479SOL     OW22069   4.463   0.821   4.361  0.1616 -0.3443  0.4906
 3479SOL    HW122070   4.431   0.858   4.443 -0.1039  2.7475 -0.9830
 3479SOL    HW222071   4.424   0.734   4.359 -0.2876 -0.1246 -0.5359
 3480SOL     OW22072   2.262   2.253  17.630  0.3748  0.1868  0.1315
 3480SOL    HW122073   2.205   2.179  17.652  1.0678 -1.7478 -4.6333
 3480SOL    HW222074   2.351   2.219  17.638 -0.9878 -3.1313  1.1940
 3481SOL     OW22075   1.417   2.025  16.298  0.1573 -0.4267 -0.4424
 3481SOL    HW122076   1.379   1.947  16.339 -2.8950  2.0383  1.4358
 3481SOL    HW222077   1.436   2.071  16.380  0.4140 -1.0166 -0.1714
 3482SOL     OW22078   3.177   2.826  13.109  0.0564 -0.9956 -0.7809
 3482SOL    HW122079   3.089   2.804  13.138  0.0353 -0.0414 -0.1466
 3482SOL    HW222080   3.167   2.915  13.075 -2.1714 -1.0884 -0.3342
 3483SOL     OW22081   0.864   2.990   3.666 -0.0301 -0.4375 -0.1062
 3483SOL    HW122082   0.926   3.039   3.721  1.6591 -2.6544 -0.0496
 3483SOL    HW222083   0.883   3.013   3.575  0.8921  2.0488  0.7148
 3484SOL     OW22084   0.624   4.204   7.266 -0.1012  0.1855  0.0115
 3484SOL    HW122085   0.697   4.194   7.206 -1.3260  0.1200 -1.4724
 3484SOL    HW222086   0.635   4.137   7.334  0.1694  0.9053  0.6697
 3485SOL     OW22087   4.502   3.872   8.286 -0.4065 -0.1900  0.4221
 3485SOL    HW122088   4.431   3.810   8.266 -0.4316 -0.2750  0.7737
 3485SOL    HW222089   4.503   3.877   8.382  1.6368  2.1918  0.2776
 3486SOL     OW22090   1.727   1.543   4.653 -0.1133 -0.5239  0.0231
 3486SOL    HW122091   1.645   1.539   4.604  0.2616 -0.7315 -0.5936
 3486SOL    HW222092   1.792   1.530   4.584 -1.0130 -1.9052 -0.5743
 3487SOL     OW22093   1.933   3.272  15.414  0.2123 -0.3035  0.5973
 3487SOL    HW122094   1.896   3.358  15.435  1.3724  0.1702  0.7512
 3487SOL    HW222095   1.937   3.286  15.319  2.2201  0.6778  0.8210
 3488SOL     OW22096   2.376   1.379   9.702  0.0471  0.2249 -0.2450
 3488SOL    HW122097   2.462   1.393   9.741 -0.8062  1.0788  1.3305
 3488SOL    HW222098   2.407   1.395   9.613  0.2814  2.6409  0.2690
 3489SOL     OW22099   1.493   3.669  13.052 -0.2970 -0.0667 -0.3496
 3489SOL    HW122100   1.495   3.589  12.999 -2.0762  0.6184 -1.4525
 3489SOL    HW222101   1.429   3.719  13.001 -1.2597 -0.1562  0.7708
 3490SOL     OW22102   2.082   0.427   1.216  0.5727 -0.4958  0.0201
 3490SOL    HW122103   2.171   0.463   1.209  0.3559 -0.2194 -1.2667
 3490SOL    HW222104   2.114   0.338   1.200 -1.8973 -0.8383 -3.0377
 3491SOL     OW22105   3.997   4.698   9.337  0.4587  0.2343 -0.4382
 3491SOL    HW122106   3.933   0.010   9.286  0.7380  0.1470 -0.8665
 3491SOL    HW222107   3.940   4.648   9.396 -0.0076  0.5837 -0.5833
 3492SOL     OW22108   2.508   3.718  12.505 -0.3823 -0.1554 -0.0531
 3492SOL    HW122109   2.424   3.677  12.524  0.0033 -1.3344 -0.9266
 3492SOL    HW222110   2.485   3.739  12.415 -0.4148 -1.5399 -0.3608
 3493SOL     OW22111   1.578   2.093   8.290  0.3659  0.8821  0.6021
 3493SOL    HW122112   1.593   2.149   8.366  2.1056 -0.8903  1.5680
 3493SOL    HW222113   1.486   2.069   8.305  1.3035 -3.7731 -1.0183
 3494SOL     OW22114   3.859   1.444   3.747  0.4197  0.0621  0.0346
 3494SOL    HW122115   3.886   1.516   3.689  2.1911 -0.8956 -0.3326
 3494SOL    HW222116   3.936   1.388   3.753  0.1188 -0.1827  1.5601
 3495SOL     OW22117   0.380   2.566   8.476 -0.1967  0.6944 -0.4164
 3495SOL    HW122118   0.378   2.654   8.438 -1.2582  0.3879 -1.0512
 3495SOL    HW222119   0.346   2.584   8.564 -0.9715  1.0516 -0.7913
 3496SOL     OW22120   2.273   4.647   4.143 -0.4821  0.4660  0.5659
 3496SOL    HW122121   2.258   4.698   4.223 -0.7737  1.1508  0.0740
 3496SOL    HW222122   2.179   4.638   4.124 -0.2054  1.8171 -1.3589
 3497SOL     OW22123   0.444   3.088  10.673 -0.1201 -0.4360  0.7044
 3497SOL    HW122124   0.349   3.073  10.666 -0.0127 -1.4261  1.4250
 3497SOL    HW222125   0.468   3.000  10.701 -1.8098 -0.7630  1.1375
 3498SOL     OW22126   3.428   1.854   7.480  0.0282  0.2276  0.1233
 3498SOL    HW122127   3.422   1.843   7.574 -1.8456 -0.4229 -0.0704
 3498SOL    HW222128   3.523   1.854   7.470  0.0822  0.0414  0.6648
 3499SOL     OW22129   0.544   4.562   3.753 -0.0888 -0.2779 -0.7878
 3499SOL    HW122130   0.638   4.569   3.737  0.2641 -0.1610  1.3402
 3499SOL    HW222131   0.526   4.642   3.803  0.9443 -0.0178 -0.8468
 3500SOL     OW22132   2.025   3.238   1.726  0.5163  0.4877 -0.0735
 3500SOL    HW122133   2.108   3.234   1.678  0.1024 -0.4903 -0.7053
 3500SOL    HW222134   1.975   3.294   1.667 -0.0261 -1.1882 -1.2147
 3501SOL     OW22135   4.549   4.279   7.898 -0.1973  0.3425  0.2604
 3501SOL    HW122136   4.566   4.290   7.991  1.0959  3.1445 -0.3239
 3501SOL    HW222137   4.488   4.349   7.875 -1.8251 -0.7394  1.2663
 3502SOL     OW22138   2.265   0.924   9.077  0.3887 -0.0823 -0.0850
 3502SOL    HW122139   2.360   0.934   9.085  0.0298  0.7343  3.2566
 3502SOL    HW222140   2.228   0.906   9.163  2.4112  0.8518  0.9779
 3503SOL     OW22141   0.954   3.451   2.760  0.2872 -0.3114 -0.2605
 3503SOL    HW122142   0.942   3.481   2.670  1.3621 -0.2714 -0.3874
 3503SOL    HW222143   0.954   3.357   2.742 -3.1214 -0.5467  0.8713
 3504SOL     OW22144   4.012   3.345  15.437  0.3748  0.2547  0.3505
 3504SOL    HW122145   3.934   3.376  15.483  0.4171 -0.6512  1.0407
 3504SOL    HW222146   4.028   3.264  15.487 -1.1750 -1.4031 -1.8625
 3505SOL     OW22147   4.496   3.207   3.335  0.2383 -0.1139  0.5525
 3505SOL    HW122148   4.464   3.117   3.328  1.2289 -0.3700 -0.6872
 3505SOL    HW222149   4.452   3.249   3.408 -1.1324 -0.3279 -0.1473
 3506SOL     OW22150   1.393   1.701   4.144 -0.2064 -0.0826  0.0438
 3506SOL    HW122151   1.386   1.607   4.161  3.2720 -0.5600 -1.1562
 3506SOL    HW222152   1.473   1.705   4.092  0.5602 -0.4534  1.1996
 3507SOL     OW22153   0.215   3.655   3.986 -0.0927 -0.0830 -0.0295
 3507SOL    HW122154   0.271   3.708   4.044 -0.3629  2.2974 -1.9574
 3507SOL    HW222155   0.134   3.646   4.036 -0.4328  1.1573 -0.3444
 3508SOL     OW22156   2.949   1.226   7.617  0.0583  0.0893  0.6990
 3508SOL    HW122157   2.905   1.305   7.648 -0.3810 -0.3683  1.2524
 3508SOL    HW222158   2.888   1.159   7.648  0.0384 -0.5462 -0.7276
 3509SOL     OW22159   0.629   1.268   0.453 -0.1519 -0.3226  0.2318
 3509SOL    HW122160   0.538   1.298   0.457 -0.5222 -1.5570  0.9534
 3509SOL    HW222161   0.647   1.249   0.545 -3.3961  0.4619  1.0373
 3510SOL     OW22162   4.379   1.328   4.798 -0.0171 -0.2741  0.1488
 3510SOL    HW122163   4.471   1.339   4.823 -0.9469 -1.0087  3.9499
 3510SOL    HW222164   4.339   1.344   4.884 -2.3537  0.5898 -1.1094
 3511SOL     OW22165   2.872   2.309   8.158  0.1925  0.8357 -0.0769
 3511SOL    HW122166   2.941   2.347   8.212 -0.3286  1.2359  0.3069
 3511SOL    HW222167   2.802   2.299   8.223 -0.3421  1.0137 -0.6319
 3512SOL     OW22168   0.966   1.987  11.124  0.3059  0.3600  0.3401
 3512SOL    HW122169   0.933   1.946  11.044 -0.0260  2.0395 -0.3766
 3512SOL    HW222170   1.006   2.062  11.081 -0.2623  0.9936  0.9103
 3513SOL     OW22171   2.645   1.452   5.174 -0.0164 -0.1359  0.2151
 3513SOL    HW122172   2.673   1.524   5.232 -2.2893  2.0259 -1.3816
 3513SOL    HW222173   2.688   1.481   5.094  0.6386 -1.1124  0.2119
 3514SOL     OW22174   0.849   1.161   0.978 -0.6033  0.4205 -0.1147
 3514SOL    HW122175   0.917   1.225   0.997 -0.3238 -0.0578  0.4585
 3514SOL    HW222176   0.894   1.082   1.006 -1.0184  1.0158  2.1891
 3515SOL     OW22177   2.029   4.304   6.281 -0.0229 -0.2842 -0.1347
 3515SOL    HW122178   2.099   4.313   6.346  1.0244 -0.3879 -1.2422
 3515SOL    HW222179   2.057   4.219   6.247 -0.1872 -0.6980  0.7667
 3516SOL     OW22180   2.904   0.466   6.681  0.7398  0.2047 -0.0931
 3516SOL    HW122181   2.847   0.530   6.638  0.1264  0.4880  1.1130
 3516SOL    HW222182   2.922   0.402   6.613  0.4213 -0.0482  0.0587
 3517SOL     OW22183   0.337   2.010   3.409  0.5593  0.0610 -0.0718
 3517SOL    HW122184   0.367   1.919   3.417  2.1940  0.5263 -0.7904
 3517SOL    HW222185   0.329   2.018   3.314 -2.0289 -0.2629  0.1330
 3518SOL     OW22186   0.074   1.260   4.146 -0.4598 -0.4234 -0.1791
 3518SOL    HW122187   0.046   1.169   4.156 -0.9382 -0.3016 -0.4368
 3518SOL    HW222188   0.138   1.265   4.217  1.8853  2.4690 -2.4780
 3519SOL     OW22189   2.841   4.358   5.238 -0.1314 -0.0871  0.2208
 3519SOL    HW122190   2.852   4.263   5.247 -2.7467 -0.5201 -1.2549
 3519SOL    HW222191   2.782   4.384   5.309  1.6315 -1.1152  2.0655
 3520SOL     OW22192   0.003   4.181   8.157 -0.5125  0.0868 -0.1192
 3520SOL    HW122193   4.682   4.248   8.194  0.2468 -0.4901  2.1422
 3520SOL    HW222194   0.020   4.127   8.234  0.4378 -1.3203 -1.3158
 3521SOL     OW22195   3.903   1.324   8.008  0.0904 -0.8592 -0.6283
 3521SOL    HW122196   3.979   1.350   7.956  1.6232 -1.6512  1.2280
 3521SOL    HW222197   3.856   1.407   8.003  0.3179 -0.7343 -0.6678
 3522SOL     OW22198   4.459   2.771  15.180  0.2788  0.5918 -0.0266
 3522SOL    HW122199   4.463   2.824  15.259 -1.8263 -0.9084  1.0918
 3522SOL    HW222200   4.368   2.790  15.155 -0.0801  1.7204  2.1668
 3523SOL     OW22201   3.107   4.200   2.736  0.4729 -0.1780  0.4665
 3523SOL    HW122202   3.055   4.280   2.733 -1.7072 -1.5651  1.6827
 3523SOL    HW222203   3.055   4.148   2.798  0.5245 -1.2616 -0.3806
 3524SOL     OW22204   3.005   1.046  11.573  0.0243  0.7941 -0.2616
 3524SOL    HW122205   3.091   1.011  11.596 -0.9680 -0.8658  0.8806
 3524SOL    HW222206   3.021   1.135  11.542  2.0599  0.2417 -0.7763
 3525SOL     OW22207   0.723   0.305  13.339 -0.6633  0.0701 -0.1525
 3525SOL    HW122208   0.799   0.358  13.362 -0.7519 -0.9423  2.4542
 3525SOL    HW222209   0.647   0.361  13.352 -0.3073  0.3218  0.8699
 3526SOL     OW22210   0.474   0.498   9.577  0.2520 -0.4014 -0.3167
 3526SOL    HW122211   0.448   0.433   9.643 -0.1793  2.1533  2.0014
 3526SOL    HW222212   0.569   0.485   9.583  0.1226 -0.7513  1.0073
 3527SOL     OW22213   3.306   1.762   2.378 -0.0509  0.2380 -0.8966
 3527SOL    HW122214   3.321   1.761   2.283 -0.3729 -0.4803 -0.9408
 3527SOL    HW222215   3.309   1.856   2.393 -2.0473  0.5909 -2.6839
 3528SOL     OW22216   3.618   1.489   7.129  0.1545 -0.1114 -0.3643
 3528SOL    HW122217   3.649   1.524   7.213  1.0490  1.3557 -1.3022
 3528SOL    HW222218   3.674   1.539   7.069 -1.8782 -0.6620 -2.7103
 3529SOL     OW22219   3.655   3.099   2.596 -0.7407 -0.3165  0.1683
 3529SOL    HW122220   3.605   3.181   2.594 -0.5798 -0.1710  1.9059
 3529SOL    HW222221   3.642   3.075   2.688 -0.0872  4.3021  1.4563
 3530SOL     OW22222   1.433   0.483   7.661  0.5204  0.0705  0.5301
 3530SOL    HW122223   1.413   0.391   7.643  2.9053 -0.3719  0.0755
 3530SOL    HW222224   1.444   0.490   7.756 -0.0475  0.9265  0.5288
 3531SOL     OW22225   0.879   3.551   4.087 -0.1235 -0.0340  0.2814
 3531SOL    HW122226   0.824   3.550   4.165 -1.1025  0.5448 -0.4032
 3531SOL    HW222227   0.885   3.460   4.058 -1.6257 -0.1641  0.4202
 3532SOL     OW22228   0.955   3.894  12.824 -0.1348 -0.5538 -0.0295
 3532SOL    HW122229   1.023   3.958  12.803  0.9285 -1.8838 -0.6451
 3532SOL    HW222230   0.921   3.931  12.905  0.2873 -0.4206  0.0848
 3533SOL     OW22231   4.690   3.235   7.528  0.1174  0.3116 -0.7616
 3533SOL    HW122232   4.597   3.210   7.533  0.5905 -1.4997 -0.8359
 3533SOL    HW222233   4.720   3.233   7.619 -0.9759  2.6161 -0.3592
 3534SOL     OW22234   1.554   1.260   3.044  0.4082  0.2614  0.1260
 3534SOL    HW122235   1.593   1.346   3.024 -1.8257  1.7582  2.2364
 3534SOL    HW222236   1.619   1.226   3.105  0.0864  2.4254  1.6657
 3535SOL     OW22237   2.905   1.735   4.480  0.5173 -0.1694 -0.3147
 3535SOL    HW122238   2.904   1.646   4.444 -1.7366 -1.8790  3.9813
 3535SOL    HW222239   2.994   1.757   4.451  1.5391 -2.5810  0.9547
 3536SOL     OW22240   1.540   3.461   4.768  0.1771  0.1293  0.2447
 3536SOL    HW122241   1.445   3.465   4.753  0.1574 -0.2574  0.2536
 3536SOL    HW222242   1.566   3.483   4.678  1.6289 -0.7572  0.4418
 3537SOL     OW22243   4.176   2.147   5.495  0.1978 -0.3689  0.0837
 3537SOL    HW122244   4.257   2.111   5.532  0.5369 -0.5541 -0.8369
 3537SOL    HW222245   4.153   2.088   5.423 -0.1740 -2.4273  1.8971
 3538SOL     OW22246   2.063   4.516   8.573  0.4656  0.2232 -0.1882
 3538SOL    HW122247   2.084   4.428   8.543 -2.3065 -0.5283  0.0274
 3538SOL    HW222248   2.136   4.555   8.526  0.8774  1.6526  1.6438
 3539SOL     OW22249   4.292   2.982   5.732 -0.9092  0.6178  0.1813
 3539SOL    HW122250   4.197   2.973   5.746 -0.9024 -0.4305 -0.4550
 3539SOL    HW222251   4.297   2.942   5.645  0.3447 -0.6796  0.8613
 3540SOL     OW22252   4.178   3.613   8.537 -0.2863 -0.4299  0.4214
 3540SOL    HW122253   4.168   3.677   8.608  3.1524  4.1115 -3.1994
 3540SOL    HW222254   4.087   3.595   8.517  0.4049  0.0749 -3.1015
 3541SOL     OW22255   2.940   3.523   2.419  0.2335  0.1726  0.5697
 3541SOL    HW122256   2.913   3.513   2.328 -1.2979  1.9352  0.8241
 3541SOL    HW222257   2.986   3.607   2.409  2.1442 -1.1394 -1.8149
 3542SOL     OW22258   3.027   0.689   6.370 -0.2094 -0.0216 -0.3892
 3542SOL    HW122259   2.953   0.672   6.429  0.4271  1.7877  0.9335
 3542SOL    HW222260   2.994   0.670   6.282  3.1145  1.1224 -1.8945
 3543SOL     OW22261   1.848   1.718  14.305 -0.1234  0.1122 -0.5274
 3543SOL    HW122262   1.809   1.744  14.389 -2.9108 -1.3162 -1.3910
 3543SOL    HW222263   1.776   1.670  14.265 -1.4177  0.1617  1.6978
 3544SOL     OW22264   0.317   3.898   2.125  0.4475  0.3952  0.1594
 3544SOL    HW122265   0.305   3.871   2.034 -0.2154  1.1540  0.0265
 3544SOL    HW222266   0.234   3.898   2.173 -1.0060  1.4923 -2.3973
 3545SOL     OW22267   3.925   0.563  16.056 -0.2580  0.0664 -0.2181
 3545SOL    HW122268   3.900   0.541  16.146 -1.7632 -0.8712 -0.8546
 3545SOL    HW222269   3.849   0.614  16.028 -0.6104 -1.8928 -2.8569
 3546SOL     OW22270   2.028   4.052  17.489 -0.1849 -0.1734  0.2312
 3546SOL    HW122271   1.963   3.992  17.451  1.8186 -1.5570 -0.9738
 3546SOL    HW222272   2.012   4.030  17.581 -1.9733  1.4746  0.3229
 3547SOL     OW22273   2.914   2.031   3.815  0.1615 -0.7820 -0.1848
 3547SOL    HW122274   3.005   2.061   3.810  0.5653 -2.0447 -0.1961
 3547SOL    HW222275   2.877   2.076   3.891  0.3437  2.2897 -1.8865
 3548SOL     OW22276   0.687   0.337   4.712  0.2696  0.3145 -0.5799
 3548SOL    HW122277   0.744   0.264   4.736 -0.4887  0.5109  1.8002
 3548SOL    HW222278   0.754   0.400   4.685  1.2238  0.0728  1.2140
 3549SOL     OW22279   0.972   1.199  12.383  0.2550  0.2866 -0.1687
 3549SOL    HW122280   0.920   1.119  12.378 -0.7465  0.8134  1.7609
 3549SOL    HW222281   1.055   1.153  12.399 -0.4848 -0.0249  2.8297
 3550SOL     OW22282   1.034   2.983   5.442  0.0634 -0.1716  0.1151
 3550SOL    HW122283   1.010   2.957   5.353 -0.7093 -0.4974  0.4215
 3550SOL    HW222284   1.103   2.922   5.469  2.3419  1.1513 -2.7100
 3551SOL     OW22285   3.866   2.628   5.105  0.0741 -0.1336  0.4340
 3551SOL    HW122286   3.849   2.622   5.199 -2.0051  0.6353  0.1067
 3551SOL    HW222287   3.961   2.624   5.118  0.1254  1.0567  0.3793
 3552SOL     OW22288   1.401   3.763   1.287 -0.3222 -0.2140  0.1368
 3552SOL    HW122289   1.428   3.840   1.337  1.3650 -1.0164  0.5120
 3552SOL    HW222290   1.484   3.742   1.244 -1.3436 -1.5290 -1.1882
 3553SOL     OW22291   3.237   4.369  11.307  0.5291  0.0879  0.1985
 3553SOL    HW122292   3.176   4.301  11.334  0.6621 -0.2708 -0.4103
 3553SOL    HW222293   3.195   4.450  11.338 -1.0154 -1.1085  1.2257
 3554SOL     OW22294   1.046   4.737   6.876  0.5660 -0.0942  0.4989
 3554SOL    HW122295   1.043   0.044   6.791  1.5736  2.0643  1.5950
 3554SOL    HW222296   0.974   4.674   6.864  1.5399 -1.8235  3.5365
 3555SOL     OW22297   2.009   4.410  11.730 -0.5346  0.1614  0.3736
 3555SOL    HW122298   2.055   4.413  11.814 -1.3814  0.3223  0.8388
 3555SOL    HW222299   1.942   4.342  11.743 -1.7797  0.9280 -2.1435
 3556SOL     OW22300   2.330   3.801  13.819  0.2210  0.2122 -0.4330
 3556SOL    HW122301   2.296   3.712  13.814  0.6207  0.0230  0.1670
 3556SOL    HW222302   2.311   3.812  13.912 -2.1315 -0.7833 -0.8037
 3557SOL     OW22303   2.431   0.126   2.206 -0.2160 -0.0824 -0.3432
 3557SOL    HW122304   2.356   0.067   2.200 -0.6845  0.2364  2.5177
 3557SOL    HW222305   2.427   0.162   2.295  0.1128 -1.1530  0.1028
 3558SOL     OW22306   0.125   3.425   8.010  0.5559 -0.3579  0.1094
 3558SOL    HW122307   0.076   3.404   8.090  0.0268 -0.3129 -0.2070
 3558SOL    HW222308   0.213   3.454   8.034  0.3399  2.6843 -2.8014
 3559SOL     OW22309   3.361   2.827  17.675  0.4464 -0.1171 -0.3273
 3559SOL    HW122310   3.412   2.902  17.645 -0.7946  1.9672  2.7514
 3559SOL    HW222311   3.276   2.863  17.700 -0.5762 -1.1148 -2.4113
 3560SOL     OW22312   2.703   2.432   3.280 -0.0975  0.2311 -0.3829
 3560SOL    HW122313   2.774   2.374   3.251  1.3892  1.9836 -0.2442
 3560SOL    HW222314   2.751   2.507   3.314  0.2382 -0.3250  0.3835
 3561SOL     OW22315   0.099   1.139  16.585  0.3268 -0.3028 -0.5219
 3561SOL    HW122316   0.027   1.081  16.608  1.5022 -1.0637  1.2810
 3561SOL    HW222317   0.083   1.165  16.494 -0.0620 -1.4673 -0.7763
 3562SOL     OW22318   2.212   3.138   6.898 -0.3242 -0.1871  0.2279
 3562SOL    HW122319   2.263   3.060   6.874  0.0268 -0.3034  1.3692
 3562SOL    HW222320   2.265   3.214   6.873 -1.8743  0.9995  0.5561
 3563SOL     OW22321   4.049   4.720  11.697 -0.2238  0.2169  0.4467
 3563SOL    HW122322   4.011   0.049  11.755 -1.3441  0.5142 -0.6300
 3563SOL    HW222323   4.115   4.680  11.754 -2.5609 -2.9278  0.9280
 3564SOL     OW22324   3.046   0.833   3.153  0.5170  0.1640 -0.3235
 3564SOL    HW122325   3.092   0.905   3.109  1.8061  1.4115  3.0496
 3564SOL    HW222326   3.101   0.755   3.145  1.0986  0.5766 -0.3419
 3565SOL     OW22327   3.602   0.033  14.769  0.2560 -0.1792  0.2415
 3565SOL    HW122328   3.520   0.011  14.814 -1.1011  1.5655 -1.3741
 3565SOL    HW222329   3.668   0.017  14.837  0.8646  2.5144  0.2624
 3566SOL     OW22330   0.993   3.791   6.848 -0.2177 -0.5451  0.3245
 3566SOL    HW122331   1.083   3.776   6.876 -0.3171 -0.4097  0.7246
 3566SOL    HW222332   0.946   3.820   6.926  1.2941  0.0109  1.0106
 3567SOL     OW22333   0.106   0.235   7.220 -0.4438  0.0478 -0.0157
 3567SOL    HW122334   0.081   0.160   7.166 -0.9727  1.0741 -1.2072
 3567SOL    HW222335   0.131   0.296   7.150  2.5540 -0.5044  0.5473
 3568SOL     OW22336   2.720   2.840   7.529  0.7325  0.0860 -0.5447
 3568SOL    HW122337   2.791   2.811   7.586  0.3392 -0.7279 -0.4644
 3568SOL    HW222338   2.757   2.846   7.441 -0.0394 -0.1170 -0.8883
 3569SOL     OW22339   2.090   4.205  14.434 -0.6056  0.3769  0.3284
 3569SOL    HW122340   2.107   4.234  14.345 -1.2241 -2.3508 -0.6982
 3569SOL    HW222341   2.122   4.115  14.431  2.9986  1.6667  0.1468
 3570SOL     OW22342   2.580   1.563   4.157  0.5832  0.7897 -0.6119
 3570SOL    HW122343   2.509   1.560   4.093 -0.0400  1.2124  0.0554
 3570SOL    HW222344   2.646   1.608   4.105  2.1106  0.0241  0.6430
 3571SOL     OW22345   1.410   4.204   5.309 -0.8442  0.0949  1.0088
 3571SOL    HW122346   1.404   4.116   5.348  1.7487  0.6132  2.6085
 3571SOL    HW222347   1.455   4.251   5.380 -1.6443  1.9562  0.2641
 3572SOL     OW22348   2.022   2.238   6.753  0.5591  0.4699  0.2359
 3572SOL    HW122349   2.094   2.213   6.810 -0.7800  0.3278  1.8843
 3572SOL    HW222350   1.965   2.164   6.773  0.7503  0.1246 -0.5341
 3573SOL     OW22351   3.254   2.847   7.684 -0.2620 -0.4483 -0.2009
 3573SOL    HW122352   3.280   2.761   7.650  0.2105 -0.2832 -0.2503
 3573SOL    HW222353   3.245   2.893   7.600 -1.3327 -1.1353 -0.4650
 3574SOL     OW22354   2.063   2.723   2.239 -0.0903  0.1401  0.1101
 3574SOL    HW122355   2.139   2.764   2.279 -0.3824  0.4114  0.3873
 3574SOL    HW222356   2.001   2.726   2.312 -1.4047 -1.7709 -0.9149
 3575SOL     OW22357   1.730   1.722  11.279  0.2142 -0.1382 -0.3163
 3575SOL    HW122358   1.729   1.731  11.183  1.6192  2.1936 -0.1161
 3575SOL    HW222359   1.701   1.811  11.298  0.3791 -0.1102 -0.2011
 3576SOL     OW22360   4.370   1.826  11.476 -0.4777  0.0899 -0.3336
 3576SOL    HW122361   4.345   1.816  11.384 -2.8297 -3.2284  0.6409
 3576SOL    HW222362   4.406   1.739  11.495  1.9645  0.7051 -2.0441
 3577SOL     OW22363   2.232   3.488   5.980 -0.3774 -0.1940  0.0907
 3577SOL    HW122364   2.265   3.414   5.929  1.2594 -0.8764  2.1559
 3577SOL    HW222365   2.174   3.514   5.908 -0.5271 -1.2423 -0.1718
 3578SOL     OW22366   1.262   2.005   0.707  0.2049 -0.0282 -0.7187
 3578SOL    HW122367   1.304   1.959   0.634  1.8590 -0.5843  0.5749
 3578SOL    HW222368   1.178   1.961   0.697 -0.5388  1.4231 -0.7452
 3579SOL     OW22369   1.827   0.401   3.433  0.2363 -0.1803 -0.4621
 3579SOL    HW122370   1.805   0.469   3.369  0.7799 -0.0681 -0.5299
 3579SOL    HW222371   1.744   0.381   3.478  0.3368  0.4553 -0.0005
 3580SOL     OW22372   0.810   1.169   7.232  0.2671  0.6980  0.1038
 3580SOL    HW122373   0.746   1.241   7.237 -1.0714 -0.7900  4.5611
 3580SOL    HW222374   0.765   1.115   7.167  0.4157 -0.4496  0.9598
 3581SOL     OW22375   4.354   3.742   5.053  0.0729  0.1648  0.4708
 3581SOL    HW122376   4.282   3.764   4.994  0.7332  1.1642  0.0388
 3581SOL    HW222377   4.304   3.733   5.134  0.6028  1.4092  0.9331
 3582SOL     OW22378   4.422   1.072   5.466 -0.4826 -0.0778  0.2315
 3582SOL    HW122379   4.420   1.025   5.383  2.3597 -0.6542  0.4784
 3582SOL    HW222380   4.367   1.149   5.454 -0.0572  0.1593 -0.2166
 3583SOL     OW22381   4.021   1.293   7.677 -0.0570  0.6489  0.1358
 3583SOL    HW122382   4.042   1.368   7.732 -0.6612  0.4572  0.6226
 3583SOL    HW222383   4.110   1.262   7.656 -0.0608 -0.1855  1.3301
 3584SOL     OW22384   1.561   0.256   8.396 -0.4312 -0.0532 -1.0800
 3584SOL    HW122385   1.603   0.171   8.411 -0.2204  0.9312  3.6020
 3584SOL    HW222386   1.486   0.248   8.455  1.3184  1.7022  1.3374
 3585SOL     OW22387   0.002   3.518   7.769  0.4404 -0.1548  0.0218
 3585SOL    HW122388   4.690   3.438   7.786  0.1319 -0.1103 -0.6600
 3585SOL    HW222389   0.073   3.504   7.832 -2.6424 -1.0956  3.3160
 3586SOL     OW22390   4.220   0.357   2.367  0.3297 -0.5878 -0.1275
 3586SOL    HW122391   4.267   0.432   2.332  1.0395 -0.0619  1.9949
 3586SOL    HW222392   4.164   0.344   2.290 -0.4323  0.8465  0.1911
 3587SOL     OW22393   2.751   2.987   6.874 -0.1625 -0.0343  0.4351
 3587SOL    HW122394   2.808   2.933   6.929  1.7965  0.8941 -0.6900
 3587SOL    HW222395   2.675   2.970   6.929 -0.5296 -0.9021 -0.3369
 3588SOL     OW22396   2.642   2.462  16.838  0.1154 -0.4766  0.1750
 3588SOL    HW122397   2.662   2.370  16.855  1.0894 -0.5278 -1.2723
 3588SOL    HW222398   2.597   2.485  16.920  1.5705 -1.3018  1.2114
 3589SOL     OW22399   1.852   1.176  15.478 -0.2415  0.1110 -0.2160
 3589SOL    HW122400   1.932   1.124  15.472  1.0087  2.0089 -0.1585
 3589SOL    HW222401   1.890   1.264  15.485  0.1965 -0.1725  0.8611
 3590SOL     OW22402   2.970   0.615   1.839 -0.3080 -0.0943 -0.4840
 3590SOL    HW122403   2.900   0.550   1.842 -0.5039  0.2256  1.5534
 3590SOL    HW222404   2.940   0.663   1.761 -0.5096 -0.8741 -0.8827
 3591SOL     OW22405   2.902   0.722   4.479 -0.1046 -0.2596  1.2470
 3591SOL    HW122406   2.967   0.713   4.409 -0.7009 -0.5945  0.7326
 3591SOL    HW222407   2.940   0.791   4.532 -1.1357  0.1423  1.4673
 3592SOL     OW22408   0.616   0.471   8.642  0.5874 -0.2301  0.3587
 3592SOL    HW122409   0.545   0.529   8.618 -1.4254 -2.3359  1.1863
 3592SOL    HW222410   0.637   0.450   8.551  0.7912 -0.7923  0.5355
 3593SOL     OW22411   3.168   4.049   2.429  0.2568  0.0147 -0.5876
 3593SOL    HW122412   3.249   4.014   2.469 -2.3146 -2.0159  2.8831
 3593SOL    HW222413   3.127   4.088   2.506  1.3499  3.9830 -2.0150
 3594SOL     OW22414   2.523   2.704   3.601 -0.0041  0.2760 -0.5104
 3594SOL    HW122415   2.567   2.723   3.684  0.3949  2.0342 -1.1341
 3594SOL    HW222416   2.605   2.681   3.557  0.9378 -1.3918  2.0900
 3595SOL     OW22417   1.187   3.996   4.932 -0.1076  0.1893  0.4669
 3595SOL    HW122418   1.137   3.917   4.913 -0.3459  0.8312 -1.5530
 3595SOL    HW222419   1.269   3.959   4.964  0.6712  0.2915 -1.4428
 3596SOL     OW22420   4.186   1.019  13.528 -0.3340 -0.2562  0.1783
 3596SOL    HW122421   4.193   0.930  13.493  2.3400 -0.0507  0.1877
 3596SOL    HW222422   4.259   1.012  13.590  0.9023  0.0655 -1.2374
 3597SOL     OW22423   1.859   2.651  12.535  0.3834  0.0119  0.7890
 3597SOL    HW122424   1.938   2.675  12.583 -0.2321  0.9951  1.3028
 3597SOL    HW222425   1.791   2.718  12.543  0.6821  0.1822  1.8700
 3598SOL     OW22426   1.367   2.050   1.614  0.4056  0.1936 -0.2656
 3598SOL    HW122427   1.347   1.974   1.558  1.5996 -1.0246  0.9502
 3598SOL    HW222428   1.299   2.109   1.581 -0.3870 -0.7396 -0.3319
 3599SOL     OW22429   3.795   0.272  11.558  0.1246  0.0945  0.2518
 3599SOL    HW122430   3.790   0.178  11.570 -2.0865  0.2690  0.7083
 3599SOL    HW222431   3.736   0.269  11.483  1.6557  0.8896 -0.9785
 3600SOL     OW22432   1.654   2.667   7.810  0.1172 -0.0947  0.0121
 3600SOL    HW122433   1.706   2.594   7.844 -0.2377  0.0760  0.8982
 3600SOL    HW222434   1.572   2.650   7.856  1.6529  1.1004  3.1490
 3601SOL     OW22435   3.455   4.380   5.061 -0.4780  0.0755 -0.6415
 3601SOL    HW122436   3.377   4.374   5.117  0.5556 -0.6498  0.7353
 3601SOL    HW222437   3.434   4.310   4.999 -2.0827 -0.6442  0.7007
 3602SOL     OW22438   4.276   3.042   2.961 -0.0379  0.3545  0.0297
 3602SOL    HW122439   4.214   3.090   2.905 -1.0751 -1.1231 -0.1229
 3602SOL    HW222440   4.301   3.120   3.009 -1.5701  1.7683 -1.4674
 3603SOL     OW22441   3.057   1.143   9.045  0.2178 -0.2302 -0.4429
 3603SOL    HW122442   2.962   1.155   9.048  0.2418  0.4553 -1.9707
 3603SOL    HW222443   3.075   1.133   8.951  2.5078  2.2836 -0.2682
 3604SOL     OW22444   2.127   2.805   0.071 -0.4157  0.5187 -0.2770
 3604SOL    HW122445   2.042   2.768   0.049 -0.4686  0.4172  0.1044
 3604SOL    HW222446   2.177   2.761   0.002 -3.6921 -1.8041 -1.1508
 3605SOL     OW22447   3.839   4.030  12.704 -0.3041  0.7088 -0.0263
 3605SOL    HW122448   3.832   4.081  12.624 -0.7796 -0.7953 -0.9312
 3605SOL    HW222449   3.881   4.096  12.759  0.1772 -0.2174  0.7272
 3606SOL     OW22450   0.516   2.072   3.849  0.0039  0.1597 -0.0127
 3606SOL    HW122451   0.457   2.097   3.778  1.4812 -0.5250 -1.4852
 3606SOL    HW222452   0.475   1.987   3.866  0.7145  0.0608  1.1822
 3607SOL     OW22453   0.266   4.258   4.412 -0.3649 -0.0367 -0.3791
 3607SOL    HW122454   0.226   4.316   4.478 -2.0365 -1.7843  0.1335
 3607SOL    HW222455   0.240   4.309   4.335  2.0173  2.6755  0.5745
 3608SOL     OW22456   2.950   0.774   8.426 -0.1585  0.2091 -0.3594
 3608SOL    HW122457   2.930   0.819   8.509  0.3346  1.9600 -1.2002
 3608SOL    HW222458   2.903   0.843   8.379 -1.9207  0.0712  1.2100
 3609SOL     OW22459   4.196   0.407   0.593 -0.4056  0.0906  0.0545
 3609SOL    HW122460   4.157   0.342   0.535  0.0376  1.3166 -1.6471
 3609SOL    HW222461   4.148   0.399   0.675 -0.3918  0.3225  0.0858
 3610SOL     OW22462   0.642   2.351  17.259  0.4859  0.1578 -0.1075
 3610SOL    HW122463   0.594   2.403  17.195  0.7116  1.2393  0.6067
 3610SOL    HW222464   0.574   2.306  17.309 -0.6235 -1.0786 -2.7244
 3611SOL     OW22465   1.294   2.578  13.304  0.2183  0.0305 -0.2080
 3611SOL    HW122466   1.321   2.655  13.355  0.8900  0.1513 -0.7427
 3611SOL    HW222467   1.207   2.564  13.341  0.6517 -0.0928  0.7638
 3612SOL     OW22468   0.803   4.198   9.008  0.0800  0.6061  0.1047
 3612SOL    HW122469   0.748   4.274   9.025 -0.0832  0.6270 -0.5159
 3612SOL    HW222470   0.773   4.167   8.922  1.4816  0.8039 -0.4508
 3613SOL     OW22471   2.989   0.595   2.284  0.3840 -0.2598 -0.7389
 3613SOL    HW122472   2.988   0.526   2.217  1.7110  0.8446 -1.8926
 3613SOL    HW222473   3.070   0.569   2.330 -0.4226  0.0516  0.8470
 3614SOL     OW22474   2.036   4.240   5.271 -0.5962  0.2705 -0.2798
 3614SOL    HW122475   2.006   4.212   5.184  0.5177  0.5587 -0.7569
 3614SOL    HW222476   2.107   4.178   5.288 -1.8860 -1.8541 -2.5603
 3615SOL     OW22477   0.858   2.302  16.371  0.3864  0.4319 -0.0591
 3615SOL    HW122478   0.951   2.280  16.374  0.1817 -0.0815  2.4498
 3615SOL    HW222479   0.849   2.353  16.290  0.0436  0.1115 -0.2201
 3616SOL     OW22480   1.163   2.523   2.655  0.3244  1.2975 -0.3929
 3616SOL    HW122481   1.093   2.491   2.597  0.0556 -0.1683  0.7382
 3616SOL    HW222482   1.115   2.600   2.687  1.7090  2.6158 -1.5166
 3617SOL     OW22483   0.170   4.374  14.289  0.1295 -0.0135 -0.4663
 3617SOL    HW122484   0.103   4.434  14.321  0.4796 -0.1500  0.5264
 3617SOL    HW222485   0.114   4.296  14.283  0.1260 -0.0880  0.4533
 3618SOL     OW22486   3.878   4.641   0.190 -0.9804 -0.3494 -0.4436
 3618SOL    HW122487   3.919   4.554   0.179 -0.3412 -0.0100 -0.7563
 3618SOL    HW222488   3.953   4.691   0.221 -0.8332 -0.4271 -0.6678
 3619SOL     OW22489   4.324   0.422   8.151 -0.1955 -0.2359 -0.3267
 3619SOL    HW122490   4.366   0.465   8.226 -2.0087 -0.6011  0.9042
 3619SOL    HW222491   4.247   0.379   8.189 -0.6338  0.6061 -0.2769
 3620SOL     OW22492   2.738   3.872   6.900  0.2635 -0.4974 -0.1401
 3620SOL    HW122493   2.683   3.827   6.964 -0.6824 -1.3862 -1.5879
 3620SOL    HW222494   2.685   3.863   6.821  0.3645  0.9927 -0.3926
 3621SOL     OW22495   2.969   1.304  11.866 -0.0380  0.1588  0.1529
 3621SOL    HW122496   2.940   1.292  11.956  0.4011 -0.3574  0.2204
 3621SOL    HW222497   3.048   1.348  11.897  0.0163  0.1190  0.0698
 3622SOL     OW22498   1.731   1.537   5.082 -0.4348  0.3233  0.4847
 3622SOL    HW122499   1.711   1.481   5.007  2.1398  0.8116 -0.5821
 3622SOL    HW222500   1.647   1.583   5.088 -0.4070  0.6264 -1.3229
 3623SOL     OW22501   1.319   0.899  15.086 -0.3187  0.3596  0.5770
 3623SOL    HW122502   1.316   0.994  15.085 -0.8626  0.3434  0.7433
 3623SOL    HW222503   1.272   0.869  15.163 -0.0006  0.9748  1.0094
 3624SOL     OW22504   2.605   2.927   8.960 -0.6508 -0.1593 -0.1290
 3624SOL    HW122505   2.601   2.999   9.023 -1.5101 -0.7808  0.5193
 3624SOL    HW222506   2.595   2.859   9.026 -1.4545 -0.5847 -0.6732
 3625SOL     OW22507   1.479   2.206   1.887 -0.0043  0.3317  0.1782
 3625SOL    HW122508   1.445   2.292   1.862 -2.0416 -0.1326  1.3637
 3625SOL    HW222509   1.523   2.184   1.805 -0.3342 -0.0931  0.1136
 3626SOL     OW22510   2.091   1.628   2.193  0.1725  0.2763 -0.3252
 3626SOL    HW122511   2.007   1.664   2.219 -0.8621 -2.2213 -0.1895
 3626SOL    HW222512   2.071   1.540   2.225 -1.8092  2.0114  3.1558
 3627SOL     OW22513   0.194   1.980   9.684  0.2184 -0.2272 -0.1739
 3627SOL    HW122514   0.284   1.997   9.710  0.1455 -0.5336  0.2654
 3627SOL    HW222515   0.159   2.069   9.692 -2.4442 -1.1313 -1.6721
 3628SOL     OW22516   1.474   3.034   7.887 -0.3848  0.6913 -0.0078
 3628SOL    HW122517   1.416   2.958   7.878  0.1216  0.0875  1.8082
 3628SOL    HW222518   1.558   2.991   7.872 -0.9615 -1.1276  1.9318
 3629SOL     OW22519   0.253   4.549   6.189  0.4188 -0.2924  0.9287
 3629SOL    HW122520   0.277   4.614   6.255  1.6203  1.8805 -1.7043
 3629SOL    HW222521   0.205   4.594   6.120  2.5061 -1.2146 -1.1325
 3630SOL     OW22522   3.285   0.829   6.662 -0.2573  0.2154  0.1146
 3630SOL    HW122523   3.202   0.789   6.688  1.0694 -1.0729  2.2570
 3630SOL    HW222524   3.306   0.798   6.574  0.1824 -1.0071  0.6593
 3631SOL     OW22525   1.407   2.771   2.071  0.3017  0.1203  0.6633
 3631SOL    HW122526   1.489   2.794   2.114  0.6934  1.1774 -0.6538
 3631SOL    HW222527   1.354   2.848   2.091 -0.4191  0.0117 -0.8213
 3632SOL     OW22528   3.376   3.479   9.605 -0.4700 -0.4180 -0.2746
 3632SOL    HW122529   3.372   3.467   9.510 -1.9478 -0.6536 -0.1950
 3632SOL    HW222530   3.321   3.558   9.612  1.3444  0.8508 -0.2253
 3633SOL     OW22531   0.040   2.677   2.263 -0.0407  0.4741 -0.0599
 3633SOL    HW122532   0.082   2.763   2.253 -0.8865  1.1949  2.4648
 3633SOL    HW222533   0.009   2.688   2.353  1.2290 -1.2040  0.5807
 3634SOL     OW22534   2.024   1.545   6.948  0.4854  0.0599  0.0194
 3634SOL    HW122535   1.943   1.496   6.932  0.6859 -1.1867  2.8220
 3634SOL    HW222536   2.065   1.537   6.862  3.0093  0.3518  1.1969
 3635SOL     OW22537   3.897   0.360   2.797 -0.2529  0.3260  0.3906
 3635SOL    HW122538   3.825   0.347   2.735  2.9503 -1.2136 -3.0120
 3635SOL    HW222539   3.977   0.331   2.752  1.5661  1.6379  2.7613
 3636SOL     OW22540   1.157   1.615   2.644  0.1002 -0.3290  0.3492
 3636SOL    HW122541   1.220   1.638   2.576  0.6489 -1.3720  0.5047
 3636SOL    HW222542   1.115   1.543   2.598  1.6237 -2.0481  1.6221
 3637SOL     OW22543   0.742   4.020   2.327 -0.4410  0.4456 -0.3417
 3637SOL    HW122544   0.826   3.979   2.347  0.0501  2.2599  1.2959
 3637SOL    HW222545   0.769   4.109   2.349 -1.6666  0.7764 -0.1491
 3638SOL     OW22546   3.344   4.170   8.154 -0.2812 -0.1155  0.3034
 3638SOL    HW122547   3.272   4.226   8.182 -0.7616  0.0547 -1.2754
 3638SOL    HW222548   3.389   4.226   8.091 -1.2544  0.2585 -0.0530
 3639SOL     OW22549   4.589   1.502   3.440  0.3724  0.4274  0.5426
 3639SOL    HW122550   4.532   1.476   3.513 -0.5028 -1.2539 -0.7214
 3639SOL    HW222551   4.566   1.593   3.424 -1.2260 -0.3153 -1.4276
 3640SOL     OW22552   2.236   0.357   9.769  0.0415  0.1165  0.1065
 3640SOL    HW122553   2.168   0.383   9.707  1.0213 -2.0224 -1.8829
 3640SOL    HW222554   2.277   0.288   9.717 -1.8242 -1.5133  0.8144
 3641SOL     OW22555   2.664   3.065   4.969 -0.2014  0.4149  0.3440
 3641SOL    HW122556   2.642   3.119   4.894 -0.8882 -2.3311 -1.4323
 3641SOL    HW222557   2.679   2.978   4.933 -0.7864  0.0397  1.0146
 3642SOL     OW22558   1.474   0.898   2.655  0.7346 -0.5341 -0.1271
 3642SOL    HW122559   1.396   0.930   2.699  0.3242 -1.4433 -0.1900
 3642SOL    HW222560   1.529   0.975   2.643  3.3084 -2.1194  1.3017
 3643SOL     OW22561   4.311   2.143   3.661 -0.2533 -0.2734  0.3209
 3643SOL    HW122562   4.326   2.079   3.592 -0.3496 -0.1570  0.1937
 3643SOL    HW222563   4.226   2.184   3.649 -0.9571 -1.5105  1.0309
 3644SOL     OW22564   1.340   0.485   5.902  0.6533 -0.2814 -0.3410
 3644SOL    HW122565   1.258   0.438   5.920  0.1900  0.6657 -0.0013
 3644SOL    HW222566   1.367   0.428   5.831 -0.8682 -2.0370  0.4770
 3645SOL     OW22567   2.078   3.057  12.145 -0.3516 -0.2363  0.1354
 3645SOL    HW122568   2.149   3.113  12.174 -0.8744  0.3916  0.2164
 3645SOL    HW222569   2.008   3.079  12.207 -0.1715  0.1476  0.2039
 3646SOL     OW22570   1.966   1.423   3.065 -0.2096  0.0345 -0.0197
 3646SOL    HW122571   1.943   1.506   3.106  1.8947  0.6769 -0.1391
 3646SOL    HW222572   2.054   1.442   3.032 -0.0146  0.5332  0.7969
 3647SOL     OW22573   4.110   4.612   3.600  0.1334  0.1017 -0.4376
 3647SOL    HW122574   4.126   4.557   3.676  1.2232 -0.1663 -0.8736
 3647SOL    HW222575   4.111   4.550   3.527  1.0410 -0.7247  0.2944
 3648SOL     OW22576   3.058   2.787  13.762 -0.1912  0.1563  0.2661
 3648SOL    HW122577   3.029   2.700  13.792  0.3581 -0.4038 -0.8591
 3648SOL    HW222578   3.052   2.784  13.667 -1.7695  1.3904  0.3204
 3649SOL     OW22579   3.171   3.591   4.843 -0.1389 -0.1654  0.1475
 3649SOL    HW122580   3.152   3.624   4.931  2.4290  0.7846  0.3681
 3649SOL    HW222581   3.096   3.537   4.823 -0.5605  0.6997 -0.6152
 3650SOL     OW22582   3.724   3.221  13.231  0.3409  0.4522 -0.0889
 3650SOL    HW122583   3.818   3.203  13.225  0.7238  2.2484  0.5158
 3650SOL    HW222584   3.689   3.149  13.179 -1.6270  0.4073  1.2872
 3651SOL     OW22585   3.792   4.600   4.636 -0.3985  0.0770  0.1838
 3651SOL    HW122586   3.713   4.612   4.583  0.0523 -2.0373 -0.9792
 3651SOL    HW222587   3.850   4.665   4.597 -0.2926 -1.5842 -2.4403
 3652SOL     OW22588   1.028   0.009  17.104 -0.9593 -0.0028  0.4164
 3652SOL    HW122589   0.993   0.049  17.025 -0.0736 -0.6299 -0.3017
 3652SOL    HW222590   1.006   0.081  17.162  2.4918  0.1119  1.5924
 3653SOL     OW22591   1.260   0.264   3.805 -0.0368  0.6514  0.2004
 3653SOL    HW122592   1.185   0.211   3.780 -0.9112  1.9132  0.1446
 3653SOL    HW222593   1.240   0.355   3.783 -0.2077  0.1907 -1.5589
 3654SOL     OW22594   0.851   0.374   6.192  0.1925  0.3965  0.1014
 3654SOL    HW122595   0.894   0.442   6.141  1.3557 -0.5447 -0.1911
 3654SOL    HW222596   0.765   0.369   6.150  0.3532  0.8845 -0.2920
 3655SOL     OW22597   2.365   2.826   2.016  0.4503  0.0276 -0.1916
 3655SOL    HW122598   2.406   2.760   2.072  2.2680  2.0167  0.8483
 3655SOL    HW222599   2.323   2.775   1.947  1.1900 -0.3514 -0.3556
 3656SOL     OW22600   1.673   3.757   6.265 -0.2624  0.0340 -0.6269
 3656SOL    HW122601   1.703   3.701   6.336  0.7826 -0.7387 -1.7010
 3656SOL    HW222602   1.610   3.816   6.308 -1.2129 -0.0865 -1.8473
 3657SOL     OW22603   1.869   2.982   3.022  0.4330  0.0849  0.2358
 3657SOL    HW122604   1.889   3.073   3.000  2.3760 -0.2334  0.6591
 3657SOL    HW222605   1.802   2.961   2.957  0.5671  0.4246 -0.0117
 3658SOL     OW22606   1.119   3.124   8.144  0.5690  0.2109  0.4311
 3658SOL    HW122607   1.202   3.170   8.134  1.3934 -1.2376  0.5432
 3658SOL    HW222608   1.117   3.104   8.237  1.8857  0.2337  0.4649
 3659SOL     OW22609   3.027   0.041   6.093  0.6148  0.0634  0.7923
 3659SOL    HW122610   2.974   4.714   6.046  0.4362  0.3310  0.6234
 3659SOL    HW222611   2.976   0.043   6.174  0.8254  0.9963  0.9095
 3660SOL     OW22612   2.643   4.221   3.534  0.5308  0.3730 -0.0542
 3660SOL    HW122613   2.716   4.162   3.549 -0.3975 -0.7290  0.1772
 3660SOL    HW222614   2.683   4.281   3.472  2.0590  0.8193  1.3799
 3661SOL     OW22615   3.944   0.664   9.190  0.0300 -0.4176 -0.2276
 3661SOL    HW122616   3.859   0.702   9.214  1.3503  1.6979  1.0331
 3661SOL    HW222617   3.983   0.667   9.277 -1.7130  1.3679  0.5021
 3662SOL     OW22618   3.461   1.179   8.693  0.6136 -0.2309  0.7216
 3662SOL    HW122619   3.445   1.110   8.629  1.8567  0.7920 -0.7160
 3662SOL    HW222620   3.531   1.134   8.741 -0.1319 -1.1604  0.9392
 3663SOL     OW22621   4.318   0.934   4.101  0.4049  0.1383 -0.8051
 3663SOL    HW122622   4.273   0.955   4.183 -0.4284  0.4931 -1.3441
 3663SOL    HW222623   4.400   0.903   4.139 -0.3409 -0.8706 -0.0223
 3664SOL     OW22624   3.812   3.649   8.907 -0.0409  0.2109  0.0557
 3664SOL    HW122625   3.882   3.588   8.931  0.1818 -0.7805 -3.0513
 3664SOL    HW222626   3.826   3.728   8.959 -1.6444 -0.1798  1.0952
 3665SOL     OW22627   0.498   0.323   6.811 -0.1548  0.8513  0.6302
 3665SOL    HW122628   0.497   0.339   6.716  3.5816 -0.8959  0.2799
 3665SOL    HW222629   0.541   0.238   6.812  1.9886  1.9258 -0.3089
 3666SOL     OW22630   3.170   3.156   2.166  0.3323 -0.3828  0.0115
 3666SOL    HW122631   3.131   3.108   2.093 -1.8208 -0.0247  0.9224
 3666SOL    HW222632   3.118   3.134   2.244  2.2007  0.8358  1.5828
 3667SOL     OW22633   3.631   1.823   6.731  0.3118 -0.0410 -0.4284
 3667SOL    HW122634   3.603   1.737   6.700  0.1987 -0.3919  0.6476
 3667SOL    HW222635   3.608   1.822   6.824  0.7307 -1.9755 -0.3417
 3668SOL     OW22636   0.265   0.646   5.632  0.2228  0.5200 -0.7386
 3668SOL    HW122637   0.290   0.737   5.646 -1.6659  0.4966  2.9237
 3668SOL    HW222638   0.231   0.660   5.544  0.3074 -2.2846 -1.2140
 3669SOL     OW22639   0.251   3.621   1.520  0.0130 -0.1274  0.7127
 3669SOL    HW122640   0.268   3.625   1.614  0.3703  1.0052  0.5975
 3669SOL    HW222641   0.254   3.710   1.486  3.2398  0.4133  2.4382
 3670SOL     OW22642   1.422   4.556   9.967 -0.0407  0.4866 -0.4737
 3670SOL    HW122643   1.382   4.470   9.980  1.5435 -0.2514 -0.3609
 3670SOL    HW222644   1.469   4.546   9.884  2.4101  0.8367  0.8615
 3671SOL     OW22645   1.585   0.418   3.579 -0.0350  0.4700 -0.1136
 3671SOL    HW122646   1.524   0.355   3.540  1.2590  0.5544 -2.2933
 3671SOL    HW222647   1.565   0.388   3.667  0.6804  0.1880 -0.0415
 3672SOL     OW22648   1.404   1.054  16.154 -0.8852 -0.3552  0.2370
 3672SOL    HW122649   1.434   1.115  16.221  2.2876 -0.7476 -0.8149
 3672SOL    HW222650   1.330   1.003  16.185 -0.2046 -1.5165 -0.0396
 3673SOL     OW22651   2.357   3.534  14.430  0.4659  0.1544 -0.3583
 3673SOL    HW122652   2.297   3.590  14.380 -1.9106 -2.6659 -0.6850
 3673SOL    HW222653   2.373   3.599  14.499  2.1767 -0.5381 -0.1015
 3674SOL     OW22654   2.548   1.956   1.136 -0.1091 -0.1490  0.0227
 3674SOL    HW122655   2.642   1.968   1.123  0.3355 -2.9206  0.6008
 3674SOL    HW222656   2.544   1.861   1.152 -1.1583 -0.1401 -0.2115
 3675SOL     OW22657   2.168   2.397  17.176  0.0812  0.0616 -0.0994
 3675SOL    HW122658   2.182   2.303  17.163  2.1525  0.3544  0.0799
 3675SOL    HW222659   2.077   2.415  17.149  0.2863  2.0819  0.5952
 3676SOL     OW22660   3.911   2.291   7.979 -0.2878  0.0568  0.3755
 3676SOL    HW122661   3.989   2.237   7.991 -0.2131  0.1623  0.3627
 3676SOL    HW222662   3.851   2.230   8.022  0.6339 -0.9445  0.2210
 3677SOL     OW22663   1.002   0.901   9.995 -0.2949  0.3005  0.8787
 3677SOL    HW122664   0.937   0.922  10.062 -1.8793  1.2195 -0.9586
 3677SOL    HW222665   1.051   0.839  10.049  1.6165  1.9829  1.0848
 3678SOL     OW22666   2.989   0.075   7.830  0.0865 -0.5112 -0.1252
 3678SOL    HW122667   3.050   0.110   7.765 -0.3002 -1.1317 -0.8224
 3678SOL    HW222668   3.012   4.719   7.838  0.9288 -0.3952 -1.1660
 3679SOL     OW22669   4.714   3.411  15.895 -0.1016  0.0880  0.0460
 3679SOL    HW122670   4.683   3.437  15.981  0.3379 -2.1752  0.8676
 3679SOL    HW222671   4.647   3.349  15.867  1.8570 -1.0412 -2.2455
 3680SOL     OW22672   0.421   0.043  14.083 -0.7481 -0.0659  0.2022
 3680SOL    HW122673   0.430   0.075  14.172  1.3798  1.1903 -0.4801
 3680SOL    HW222674   0.326   0.054  14.070 -0.8017 -0.6582  0.0573
 3681SOL     OW22675   1.740   3.797  14.071  0.3241 -0.4767  0.0074
 3681SOL    HW122676   1.736   3.715  14.022 -2.2479 -0.3106 -0.0865
 3681SOL    HW222677   1.746   3.768  14.162  1.6872 -0.4005 -0.0702
 3682SOL     OW22678   3.871   0.333   0.260  0.2033  0.7162 -0.2161
 3682SOL    HW122679   3.883   0.400   0.327  1.8725  1.1914 -0.9889
 3682SOL    HW222680   3.923   0.373   0.191  1.2203  0.4270  0.3854
 3683SOL     OW22681   0.083   2.611   7.782  0.4836  0.4298 -0.0190
 3683SOL    HW122682   0.074   2.525   7.740  1.3926  0.6842 -0.7380
 3683SOL    HW222683   0.173   2.637   7.763  0.5862 -0.3976 -0.6886
 3684SOL     OW22684   4.605   1.819  15.849  0.3728  0.4408  0.1363
 3684SOL    HW122685   4.684   1.806  15.797  0.1659 -0.7753  0.1078
 3684SOL    HW222686   4.540   1.768  15.800  0.1993 -0.0393  0.8745
 3685SOL     OW22687   3.125   1.228   2.764  0.1802  0.4242  0.0300
 3685SOL    HW122688   3.073   1.290   2.815  0.6077  1.7830 -1.1697
 3685SOL    HW222689   3.118   1.268   2.677  1.6678 -0.7445 -0.6365
 3686SOL     OW22690   1.070   0.358   6.443  0.0903 -0.1402 -0.0459
 3686SOL    HW122691   1.123   0.347   6.364 -0.0217 -2.2080  0.1639
 3686SOL    HW222692   1.105   0.434   6.488 -2.3463 -0.6509  2.7149
 3687SOL     OW22693   0.788   1.023   2.090 -0.1669 -0.0578  0.3812
 3687SOL    HW122694   0.707   1.026   2.141 -2.1812 -0.0771 -2.8519
 3687SOL    HW222695   0.856   1.051   2.152 -1.3664  1.3341  1.0740
 3688SOL     OW22696   3.071   3.758   2.417 -1.1128 -0.4374 -0.6126
 3688SOL    HW122697   3.122   3.828   2.377 -3.2084  1.6600  0.3366
 3688SOL    HW222698   3.043   3.801   2.498  1.5337 -0.5983  0.4120
 3689SOL     OW22699   4.410   2.913   7.347  0.3385 -0.6584 -0.5676
 3689SOL    HW122700   4.441   2.834   7.301 -0.8051 -0.9737 -0.8004
 3689SOL    HW222701   4.478   2.923   7.414  0.3058 -3.3087 -0.1344
 3690SOL     OW22702   3.647   0.357   6.691  0.4239  0.1589 -0.1782
 3690SOL    HW122703   3.578   0.395   6.636  0.5248  2.3166  1.2066
 3690SOL    HW222704   3.699   0.432   6.718 -0.9964  0.9146  0.4794
 3691SOL     OW22705   1.480   3.027  14.459 -0.2501  0.3890 -0.8566
 3691SOL    HW122706   1.418   3.070  14.400  1.0987  1.7512 -1.2960
 3691SOL    HW222707   1.458   3.088  14.529  2.0964  0.7827 -0.4713
 3692SOL     OW22708   3.232   4.225   8.528 -0.4594 -0.1802  0.2179
 3692SOL    HW122709   3.233   4.129   8.535  1.1021 -0.2208 -0.5866
 3692SOL    HW222710   3.316   4.227   8.482 -0.6104 -1.0880 -0.1019
 3693SOL     OW22711   2.291   2.266  15.785  0.0092  0.0833  0.3145
 3693SOL    HW122712   2.214   2.300  15.739  1.4367  0.8741 -1.4740
 3693SOL    HW222713   2.364   2.316  15.747  0.9166 -1.0989  0.5208
 3694SOL     OW22714   4.499   2.709   5.336  0.5041  0.0831  0.0158
 3694SOL    HW122715   4.557   2.766   5.386  1.7087 -0.7112 -0.4805
 3694SOL    HW222716   4.431   2.681   5.398  1.2381  0.0061  0.7873
 3695SOL     OW22717   2.234   2.695  17.510  0.3505 -0.1136  0.3664
 3695SOL    HW122718   2.276   2.616  17.545  0.7899  0.0258  0.1469
 3695SOL    HW222719   2.307   2.758  17.504  0.5804 -0.2099  2.0403
 3696SOL     OW22720   1.735   4.185   5.641  0.1248 -0.4155  0.0721
 3696SOL    HW122721   1.673   4.113   5.657  1.8236 -2.5796 -3.0183
 3696SOL    HW222722   1.705   4.236   5.565  0.6664 -0.1521  0.0385
 3697SOL     OW22723   2.563   3.601  14.932 -0.0288 -0.3661 -0.1776
 3697SOL    HW122724   2.574   3.696  14.925 -1.6202 -0.1219  0.7827
 3697SOL    HW222725   2.572   3.577  14.839 -1.9505 -2.0483  0.0649
 3698SOL     OW22726   2.219   4.006   4.716  0.3159  0.0401  0.4093
 3698SOL    HW122727   2.150   4.015   4.650 -0.3721 -0.0936  1.1199
 3698SOL    HW222728   2.171   3.986   4.796  0.3723  0.2137  0.4888
 3699SOL     OW22729   3.566   3.041   4.032 -0.3294  0.5433 -0.5626
 3699SOL    HW122730   3.569   3.114   3.970  2.6822  1.7489  0.9946
 3699SOL    HW222731   3.559   3.080   4.119  0.5825  0.5946 -0.5087
 3700SOL     OW22732   4.269   0.687   2.858  0.1656 -0.1730 -0.4466
 3700SOL    HW122733   4.354   0.648   2.835 -0.1933 -0.4470 -1.3227
 3700SOL    HW222734   4.315   0.738   2.924 -0.9306  0.8489 -0.4719
 3701SOL     OW22735   2.936   1.799   5.260 -0.2657  0.4123 -0.3014
 3701SOL    HW122736   3.007   1.736   5.253 -1.0342 -0.6983  2.1476
 3701SOL    HW222737   2.969   1.859   5.327  2.1656  2.4810 -3.3646
 3702SOL     OW22738   3.571   4.193  10.900 -0.5688 -0.1190  0.0411
 3702SOL    HW122739   3.619   4.201  10.818 -1.3563  0.3662 -0.3710
 3702SOL    HW222740   3.514   4.118  10.884 -1.0990  0.3332 -0.2017
 3703SOL     OW22741   2.566   3.833  16.946  0.0943 -0.7371 -0.0392
 3703SOL    HW122742   2.501   3.806  16.882 -2.7084  3.1029  1.1712
 3703SOL    HW222743   2.540   3.919  16.979 -1.5071 -0.8214 -1.0812
 3704SOL     OW22744   2.043   3.794   1.018  0.0635  0.4488  0.3639
 3704SOL    HW122745   1.971   3.854   1.038 -0.8080 -0.9136  1.3477
 3704SOL    HW222746   2.110   3.856   1.046 -1.3780  2.8772 -1.6101
 3705SOL     OW22747   3.333   2.403   6.255  0.2488  0.0367 -0.0071
 3705SOL    HW122748   3.403   2.433   6.312  0.0390  0.6458 -0.0664
 3705SOL    HW222749   3.375   2.411   6.169  3.0490 -3.3010  1.0803
 3706SOL     OW22750   3.975   3.372   5.269 -0.1426 -0.0829 -0.4948
 3706SOL    HW122751   3.891   3.327   5.259  0.1690 -0.4812 -1.2909
 3706SOL    HW222752   3.981   3.429   5.193 -2.1949 -1.2187 -1.5263
 3707SOL     OW22753   3.789   3.535  14.641 -0.0563 -0.7278  0.3111
 3707SOL    HW122754   3.732   3.469  14.681  0.2225 -1.2973 -0.2420
 3707SOL    HW222755   3.876   3.497  14.643  0.9621  1.5748  0.7374
 3708SOL     OW22756   1.373   4.357   7.146 -0.2005 -0.2879  0.4955
 3708SOL    HW122757   1.280   4.359   7.127  0.2139  3.8791 -1.2407
 3708SOL    HW222758   1.416   4.398   7.071 -1.4934  0.4668  0.1696
 3709SOL     OW22759   1.108   0.403   8.590 -0.4049  0.1254  0.1338
 3709SOL    HW122760   1.061   0.466   8.535  1.4624  1.6496  0.3293
 3709SOL    HW222761   1.065   0.321   8.566 -1.4227  0.5985  0.3426
 3710SOL     OW22762   2.679   3.388   7.521  0.1464 -0.2274  0.5107
 3710SOL    HW122763   2.593   3.377   7.563  0.0955 -1.4805  0.0836
 3710SOL    HW222764   2.653   3.393   7.429 -1.1839 -1.2191  0.8313
 3711SOL     OW22765   0.977   3.426  11.448  0.2024 -0.1707 -0.3082
 3711SOL    HW122766   1.063   3.463  11.470  1.3364 -1.1122 -3.1687
 3711SOL    HW222767   0.981   3.355  11.512  1.0819 -1.0038 -1.2816
 3712SOL     OW22768   3.366   2.748  10.396 -0.1702 -0.4214 -0.0214
 3712SOL    HW122769   3.398   2.667  10.436 -1.3012 -0.2610  1.1989
 3712SOL    HW222770   3.341   2.725  10.307  0.3400  0.8126 -0.4873
 3713SOL     OW22771   2.697   4.247   7.885  0.1861 -0.3379 -0.5975
 3713SOL    HW122772   2.771   4.308   7.886  1.0775 -1.4164 -0.8955
 3713SOL    HW222773   2.728   4.167   7.926  1.0349  0.5289  0.4646
 3714SOL     OW22774   4.730   3.206   7.793 -0.9463 -0.5430  0.0734
 3714SOL    HW122775   0.073   3.156   7.778 -0.9413 -0.5921  0.2569
 3714SOL    HW222776   4.679   3.153   7.855 -1.5984 -1.2462 -1.0633
 3715SOL     OW22777   0.851   3.211   4.067  0.5641 -0.0958  0.3343
 3715SOL    HW122778   0.826   3.124   4.037 -0.0815  0.1556  0.1397
 3715SOL    HW222779   0.926   3.194   4.124  0.4025  0.5601  0.7471
 3716SOL     OW22780   2.764   0.171  13.046  0.5357 -0.0708 -0.4681
 3716SOL    HW122781   2.802   0.169  13.134 -2.2417  1.6884  0.7603
 3716SOL    HW222782   2.844   0.189  12.997  1.0766  0.1389  0.4903
 3717SOL     OW22783   1.824   0.262  12.517  0.1703 -0.3062 -0.0802
 3717SOL    HW122784   1.776   0.213  12.450  2.5893 -1.1233 -1.2190
 3717SOL    HW222785   1.884   0.304  12.455 -0.5180 -0.0190 -0.5653
 3718SOL     OW22786   1.318   1.695   2.431 -0.4336  0.5561 -0.2419
 3718SOL    HW122787   1.296   1.754   2.358 -1.3219 -0.1413 -0.5468
 3718SOL    HW222788   1.409   1.711   2.455 -0.0828  1.8096 -2.4007
 3719SOL     OW22789   4.019   3.431   7.267 -0.1259 -0.3551 -0.3304
 3719SOL    HW122790   3.939   3.468   7.229  1.1460  1.3481 -1.3225
 3719SOL    HW222791   4.007   3.448   7.360  0.9804  3.1516 -0.8332
 3720SOL     OW22792   0.475   0.934   8.846  0.1430  0.0830  0.4598
 3720SOL    HW122793   0.559   0.946   8.889  1.4045 -1.0334 -1.6743
 3720SOL    HW222794   0.445   0.852   8.885  2.9315 -1.6571 -1.0925
 3721SOL     OW22795   3.751   3.630  16.939 -0.6782 -0.2984 -0.0046
 3721SOL    HW122796   3.764   3.676  17.022 -1.4480 -0.4648  0.2112
 3721SOL    HW222797   3.816   3.683  16.893 -0.3520 -1.8431 -1.3196
 3722SOL     OW22798   1.500   3.509  13.260  0.0505 -0.0297 -0.4625
 3722SOL    HW122799   1.486   3.586  13.206 -2.3147  0.3492  0.6872
 3722SOL    HW222800   1.568   3.516  13.328 -0.4027 -1.0597  0.1037
 3723SOL     OW22801   2.959   1.666   7.515  0.0922  0.1523 -0.1680
 3723SOL    HW122802   2.962   1.756   7.481 -3.2114  0.4630  0.3114
 3723SOL    HW222803   3.033   1.670   7.574  0.5379  0.9390 -0.7793
 3724SOL     OW22804   1.174   4.243   5.952 -0.2937  0.2018  1.0833
 3724SOL    HW122805   1.257   4.268   5.912 -1.2268 -0.4962 -1.2878
 3724SOL    HW222806   1.147   4.170   5.897 -1.1645 -0.4038  2.3332
 3725SOL     OW22807   0.525   3.905   3.482  0.2822  0.8081 -0.6269
 3725SOL    HW122808   0.557   3.991   3.455  0.8192  1.5329  2.2811
 3725SOL    HW222809   0.605   3.852   3.486  0.2860  0.9005  0.4115
 3726SOL     OW22810   2.440   2.099   2.840 -0.3412  0.1500 -0.3605
 3726SOL    HW122811   2.379   2.137   2.776  0.3224  1.1314 -0.4233
 3726SOL    HW222812   2.426   2.152   2.919 -1.3296  0.9706 -1.0851
 3727SOL     OW22813   2.734   0.778   2.957  0.8111 -0.0079 -0.2710
 3727SOL    HW122814   2.814   0.795   2.906  0.8722  0.3186 -0.0639
 3727SOL    HW222815   2.724   0.684   2.939 -0.5972 -0.2675  1.9656
 3728SOL     OW22816   2.568   1.321   3.519  0.0232  0.0164 -0.0578
 3728SOL    HW122817   2.480   1.307   3.552  0.0467 -1.6661 -0.6942
 3728SOL    HW222818   2.551   1.402   3.470  1.3672  0.3055 -0.0603
 3729SOL     OW22819   1.109   4.658  13.076 -0.1582 -0.4347  0.7132
 3729SOL    HW122820   1.144   0.003  13.041  0.6125 -1.8481 -1.8862
 3729SOL    HW222821   1.096   4.680  13.168  2.9563  3.2475  0.2411
 3730SOL     OW22822   2.809   3.340   9.217 -0.3686  0.0988 -0.5139
 3730SOL    HW122823   2.888   3.370   9.261 -1.0446  0.2522  0.6018
 3730SOL    HW222824   2.848   3.276   9.157 -0.5958  0.8442 -1.4603
 3731SOL     OW22825   1.498   3.457   2.188 -0.1845  0.2541  0.3250
 3731SOL    HW122826   1.508   3.504   2.105  1.9231 -0.0014  0.4587
 3731SOL    HW222827   1.462   3.527   2.243 -1.3782 -1.1112  1.2842
 3732SOL     OW22828   1.979   4.720   4.587 -0.0331 -0.3021  0.3074
 3732SOL    HW122829   2.007   0.058   4.533 -0.2259 -0.4961 -0.0647
 3732SOL    HW222830   2.044   4.723   4.657  0.1038  1.3579  0.1159
 3733SOL     OW22831   2.465   1.432   5.750  0.2370  0.3324 -0.3989
 3733SOL    HW122832   2.479   1.396   5.837  0.8267 -1.0400 -1.0559
 3733SOL    HW222833   2.554   1.444   5.716  1.0138 -0.4063  1.3973
 3734SOL     OW22834   1.861   1.726   3.035  0.3057  0.3454 -0.5904
 3734SOL    HW122835   1.811   1.807   3.022  1.0209  0.7303 -0.9130
 3734SOL    HW222836   1.946   1.740   2.993  0.2912 -1.2247 -1.1538
 3735SOL     OW22837   1.873   2.834   1.074  0.4762 -0.1044  0.0374
 3735SOL    HW122838   1.943   2.796   1.126 -1.8403 -1.7134  1.9688
 3735SOL    HW222839   1.796   2.779   1.091  0.4134  0.6229  2.1101
 3736SOL     OW22840   1.630   3.605   1.747 -0.1922  0.2605 -0.5964
 3736SOL    HW122841   1.544   3.610   1.790 -1.4349  0.0028 -3.0055
 3736SOL    HW222842   1.665   3.518   1.765  0.7791  0.7568 -0.1248
 3737SOL     OW22843   1.669   4.496   5.794 -0.1495 -0.3964 -0.1363
 3737SOL    HW122844   1.731   4.424   5.812  0.3977  0.0286 -0.3256
 3737SOL    HW222845   1.685   4.545   5.875  0.1463 -0.7049 -0.0038
 3738SOL     OW22846   2.967   4.084  12.992 -0.0630 -0.2101  0.0860
 3738SOL    HW122847   2.896   4.034  12.949 -0.4338  0.9925 -0.7068
 3738SOL    HW222848   2.969   4.155  12.929 -1.7872  1.0011  1.3869
 3739SOL     OW22849   1.033   4.546   2.276 -0.3512 -0.1694  0.6122
 3739SOL    HW122850   0.946   4.570   2.243 -0.9117 -0.5715  1.7742
 3739SOL    HW222851   1.002   4.525   2.365  0.7527  0.7485  1.2124
 3740SOL     OW22852   4.687   2.256   3.399  0.1220 -0.4459 -0.3824
 3740SOL    HW122853   4.714   2.217   3.482 -1.6436 -0.4880  0.1726
 3740SOL    HW222854   4.713   2.194   3.331 -0.4950 -0.7680 -0.3299
 3741SOL     OW22855   0.039   2.082   7.191 -0.2103 -0.3214 -0.5137
 3741SOL    HW122856   0.057   2.166   7.150 -0.2576  1.1799  2.5772
 3741SOL    HW222857   0.126   2.041   7.188 -0.6087 -1.3677  1.7449
 3742SOL     OW22858   2.135   0.991   5.065 -0.0656 -0.3139  0.3478
 3742SOL    HW122859   2.221   0.947   5.065  0.8715  1.5209  0.6729
 3742SOL    HW222860   2.121   0.981   5.160  1.1283  1.0645  0.6733
 3743SOL     OW22861   0.076   2.802  17.471  0.5006 -0.2852 -0.0599
 3743SOL    HW122862   0.109   2.716  17.498  1.0180  0.0007  0.2276
 3743SOL    HW222863   0.050   2.844  17.552  0.4635  0.9491 -0.7155
 3744SOL     OW22864   0.062   1.864   8.224  0.2314  0.2363  0.3552
 3744SOL    HW122865   0.146   1.822   8.203 -0.0894 -1.2738  2.0843
 3744SOL    HW222866   0.082   1.904   8.308  2.8666 -0.8934  0.2769
 3745SOL     OW22867   1.314   2.578  17.692 -0.5170  0.3690 -0.0368
 3745SOL    HW122868   1.226   2.568  17.729 -0.1058 -0.5269  0.7145
 3745SOL    HW222869   1.357   2.611   0.024 -0.1688 -1.4996  0.5616
 3746SOL     OW22870   1.115   3.935   7.852  0.4407 -0.1652  0.3233
 3746SOL    HW122871   1.183   3.878   7.887  1.9508  2.3256  1.4209
 3746SOL    HW222872   1.148   3.961   7.766 -1.9251 -0.5063 -0.7058
 3747SOL     OW22873   1.925   3.760  10.512 -0.1944  0.0158  0.1983
 3747SOL    HW122874   1.940   3.746  10.418 -0.9487 -2.4885  0.4494
 3747SOL    HW222875   1.947   3.674  10.547 -1.1285  0.8772  2.8517
 3748SOL     OW22876   2.133   3.723   1.367  0.8155  0.5273 -0.2199
 3748SOL    HW122877   2.059   3.782   1.352  2.0843  2.4097  0.9782
 3748SOL    HW222878   2.158   3.693   1.280 -0.8689  1.4085 -1.0009
 3749SOL     OW22879   2.703   3.426   2.808 -0.0832  0.1475 -0.3876
 3749SOL    HW122880   2.688   3.462   2.721  0.5290  2.9125  0.6474
 3749SOL    HW222881   2.779   3.474   2.841  0.7037  0.1791 -2.2325
 3750SOL     OW22882   2.507   0.890   5.901  0.4047  0.4297  0.3097
 3750SOL    HW122883   2.480   0.904   5.991  0.1803  2.2551 -0.0397
 3750SOL    HW222884   2.569   0.819   5.916 -0.0254 -0.2851 -1.3144
 3751SOL     OW22885   2.001   1.958  15.423  0.4114  0.2475 -0.0156
 3751SOL    HW122886   1.911   1.960  15.455  0.2764 -0.7917 -0.3509
 3751SOL    HW222887   1.988   1.892  15.355  0.7318  0.0088  0.1569
 3752SOL     OW22888   2.716   1.522  12.688 -0.1582 -0.2156 -0.4060
 3752SOL    HW122889   2.680   1.603  12.653  2.3441  0.8938 -0.3496
 3752SOL    HW222890   2.667   1.513  12.770 -0.8061  3.4181 -0.4282
 3753SOL     OW22891   3.294   0.649   3.584  0.2557  0.4956 -0.3256
 3753SOL    HW122892   3.280   0.579   3.520  0.4006 -1.8471  2.2194
 3753SOL    HW222893   3.283   0.723   3.524  2.3275  1.1361  0.0854
 3754SOL     OW22894   0.261   3.847   8.218 -0.6482 -0.2299  0.0753
 3754SOL    HW122895   0.341   3.894   8.244 -0.0701 -0.7340 -0.7963
 3754SOL    HW222896   0.290   3.827   8.129  3.3286  1.2866  1.0169
 3755SOL     OW22897   1.055   3.070   3.843 -0.4416 -0.4709  0.2523
 3755SOL    HW122898   1.066   2.998   3.905  0.4065 -0.4117  0.1677
 3755SOL    HW222899   1.138   3.072   3.795 -0.4719 -0.8090  0.1890
 3756SOL     OW22900   3.117   0.350  10.017  0.0718  0.4720  0.2554
 3756SOL    HW122901   3.100   0.399  10.097 -0.6775 -0.5457  0.7147
 3756SOL    HW222902   3.177   0.284  10.053  0.2906 -0.7131 -2.2621
 3757SOL     OW22903   0.459   1.138   2.415 -0.2468 -0.7466 -0.1271
 3757SOL    HW122904   0.495   1.117   2.501  0.9500 -1.8711 -0.9079
 3757SOL    HW222905   0.364   1.133   2.426 -0.3520 -2.6576 -1.9480
 3758SOL     OW22906   3.358   4.472  11.001  0.4507  0.2008 -0.0039
 3758SOL    HW122907   3.407   4.391  11.014  1.6241  0.7508 -1.0113
 3758SOL    HW222908   3.377   4.524  11.079  0.1051 -0.5911  0.6118
 3759SOL     OW22909   4.251   4.131   7.100 -0.4961  0.6138 -0.1880
 3759SOL    HW122910   4.316   4.158   7.165  0.0348  0.3867 -0.6223
 3759SOL    HW222911   4.266   4.038   7.120  2.3471  0.6559 -2.0486
 3760SOL     OW22912   0.806   2.937   8.074  0.5965  0.0527  0.1207
 3760SOL    HW122913   0.774   2.847   8.073 -2.0028  0.9901 -1.2643
 3760SOL    HW222914   0.888   2.923   8.026 -1.4355  0.6732 -3.5006
 3761SOL     OW22915   2.272   3.545  13.783 -0.4126  0.0343 -0.7868
 3761SOL    HW122916   2.248   3.452  13.778  0.7149 -0.3433  0.8855
 3761SOL    HW222917   2.239   3.576  13.698 -1.0746  1.1973 -0.1074
 3762SOL     OW22918   2.337   3.847   1.820 -0.2730  0.2414  0.3607
 3762SOL    HW122919   2.385   3.905   1.879 -0.4916  2.2581 -1.4200
 3762SOL    HW222920   2.349   3.766   1.868 -1.1598  0.0021  0.1830
 3763SOL     OW22921   1.031   0.890   5.972  0.6421 -0.0522  0.2576
 3763SOL    HW122922   1.052   0.811   5.922 -2.6721 -1.3336  0.8581
 3763SOL    HW222923   1.044   0.860   6.062  1.2494 -1.7474 -0.3888
 3764SOL     OW22924   3.411   1.668   8.569 -0.4149  0.2600 -0.2896
 3764SOL    HW122925   3.477   1.599   8.560  0.8501  1.4711 -0.2783
 3764SOL    HW222926   3.392   1.650   8.661  1.8372 -2.6749 -0.3980
 3765SOL     OW22927   4.382   4.302   8.526 -0.1057 -0.5132 -0.3759
 3765SOL    HW122928   4.446   4.325   8.593 -0.2847 -2.0995  0.3582
 3765SOL    HW222929   4.373   4.389   8.487  0.7746 -0.0783  0.3887
 3766SOL     OW22930   3.214   0.708   5.234  0.0892 -0.0555 -0.1193
 3766SOL    HW122931   3.271   0.654   5.289 -1.0905  1.2220  2.3527
 3766SOL    HW222932   3.193   0.774   5.301  0.2690  0.9983 -1.1079
 3767SOL     OW22933   1.428   1.431  17.630  0.3066 -0.5315 -0.1448
 3767SOL    HW122934   1.357   1.438  17.566  0.8192  0.1649 -0.6348
 3767SOL    HW222935   1.405   1.345  17.663 -0.8024 -1.1774 -2.6114
 3768SOL     OW22936   2.127   3.958   4.973  0.2605 -0.0682  0.2235
 3768SOL    HW122937   2.204   3.951   5.029 -0.5790 -0.8575  1.2706
 3768SOL    HW222938   2.086   4.041   4.997  2.7917  0.7297  1.7175
 3769SOL     OW22939   2.050   0.477   7.702 -0.2344  0.2492 -0.0342
 3769SOL    HW122940   2.074   0.568   7.718 -1.7986  0.4332  1.1574
 3769SOL    HW222941   2.004   0.478   7.618 -0.0941 -0.5336 -0.1224
 3770SOL     OW22942   0.598   4.564   2.104  0.3454 -0.5360  0.5643
 3770SOL    HW122943   0.668   4.503   2.079  2.3824  1.2538  1.8997
 3770SOL    HW222944   0.525   4.503   2.115  0.1699 -0.4155  0.0781
 3771SOL     OW22945   0.565   2.941   0.657  0.0097  0.3719  0.1983
 3771SOL    HW122946   0.607   2.855   0.656 -1.5464 -0.3996  0.8942
 3771SOL    HW222947   0.472   2.930   0.638  0.0222 -1.4871  1.1861
 3772SOL     OW22948   1.938   3.303   7.783  0.2452  0.0972  0.4427
 3772SOL    HW122949   1.905   3.228   7.733 -2.9324  2.0901 -0.4814
 3772SOL    HW222950   1.971   3.281   7.870  2.7547 -1.0191 -0.8151
 3773SOL     OW22951   1.271   4.177  13.774  0.0499 -0.3683 -0.9953
 3773SOL    HW122952   1.181   4.180  13.807  0.4681 -1.9950  0.3017
 3773SOL    HW222953   1.320   4.176  13.857  0.9904  0.2456 -1.5418
 3774SOL     OW22954   0.999   4.276   6.524  0.1024 -0.6050 -0.4205
 3774SOL    HW122955   0.960   4.360   6.500 -2.1291 -0.9065  2.0638
 3774SOL    HW222956   1.057   4.305   6.594 -1.7858 -0.4764  1.0945
 3775SOL     OW22957   4.093   3.737   3.674  0.5674 -0.6235  0.3504
 3775SOL    HW122958   4.016   3.722   3.730 -0.5287  0.2808 -0.9206
 3775SOL    HW222959   4.114   3.644   3.662  2.9825  0.0231 -0.3883
 3776SOL     OW22960   0.073   4.252   7.436  0.2910 -0.4097 -0.1036
 3776SOL    HW122961   0.013   4.323   7.413 -0.8959 -2.2468 -2.6522
 3776SOL    HW222962   0.045   4.236   7.526 -1.1034 -0.8056 -0.6168
 3777SOL     OW22963   1.586   3.789  15.628  0.0668 -0.0384  0.4895
 3777SOL    HW122964   1.646   3.771  15.556  2.2340  3.0243  1.5105
 3777SOL    HW222965   1.576   3.884  15.624 -0.2625 -0.1239 -0.5734
 3778SOL     OW22966   1.984   4.614   3.473  0.2402 -0.5720 -0.1134
 3778SOL    HW122967   1.965   4.527   3.438 -1.2314  0.0204 -0.7812
 3778SOL    HW222968   2.029   4.592   3.555 -0.1437 -1.1141 -0.0536
 3779SOL     OW22969   3.351   2.399   6.652  0.2955 -0.3065  0.1603
 3779SOL    HW122970   3.435   2.444   6.640  0.1725 -0.0784  0.1616
 3779SOL    HW222971   3.388   2.311   6.643  0.3718 -0.1115 -1.4444
 3780SOL     OW22972   2.550   2.369   3.783  0.1596  0.1776 -0.1525
 3780SOL    HW122973   2.481   2.349   3.846 -1.6632  0.4964 -2.0636
 3780SOL    HW222974   2.537   2.307   3.712 -3.4196  0.9608 -0.2171
 3781SOL     OW22975   0.963   1.452  16.918 -0.1721  0.7204  0.1442
 3781SOL    HW122976   0.938   1.461  16.826 -0.2270 -0.9809 -0.0037
 3781SOL    HW222977   0.894   1.501  16.963 -0.9290  0.9649 -1.2788
 3782SOL     OW22978   2.441   2.730   5.212  0.3392 -0.0820 -0.2263
 3782SOL    HW122979   2.439   2.638   5.187 -0.3857 -0.7958  2.4535
 3782SOL    HW222980   2.388   2.774   5.146  0.1923 -1.1814 -0.8460
 3783SOL     OW22981   2.711   1.746  15.031  0.1214  0.3206  0.1431
 3783SOL    HW122982   2.697   1.670  15.087 -1.1957  2.1186  2.2856
 3783SOL    HW222983   2.764   1.810  15.080  1.5068  0.4228 -1.4955
 3784SOL     OW22984   2.760   0.487  11.381 -0.1515 -0.7491 -0.1443
 3784SOL    HW122985   2.773   0.484  11.476  0.4588  0.8827 -0.1729
 3784SOL    HW222986   2.823   0.556  11.358 -0.6257 -0.5563 -0.8699
 3785SOL     OW22987   2.264   4.673   6.343  0.2189 -0.0486 -0.3743
 3785SOL    HW122988   2.338   4.715   6.388 -1.1010  0.3644  1.3964
 3785SOL    HW222989   2.317   4.629   6.276 -0.9999 -0.7922 -0.8467
 3786SOL     OW22990   0.447   2.866  17.538 -0.5676  0.0652  0.2835
 3786SOL    HW122991   0.400   2.906  17.464  1.8006 -0.7549 -1.6471
 3786SOL    HW222992   0.437   2.774  17.512 -1.6332  0.5800 -1.1581
 3787SOL     OW22993   0.811   2.392  17.627 -0.4484  0.3126 -0.1828
 3787SOL    HW122994   0.847   2.379  17.715  1.1711 -1.1634 -1.0704
 3787SOL    HW222995   0.779   2.304  17.607 -0.5666  0.4610 -0.6345
 3788SOL     OW22996   4.204   3.009  12.888  0.3623  0.1872  0.3760
 3788SOL    HW122997   4.127   2.989  12.835  0.0250  2.9261 -0.1345
 3788SOL    HW222998   4.226   2.927  12.932  1.9561  0.7904  0.7091
 3789SOL     OW22999   1.166   3.230   3.537  0.0273  0.5689 -0.7687
 3789SOL    HW123000   1.166   3.287   3.614 -0.5904  1.0007 -1.0788
 3789SOL    HW223001   1.260   3.215   3.531  0.0674 -0.3076  2.3044
 3790SOL     OW23002   2.744   1.801   6.232  0.2599  0.7123  0.2710
 3790SOL    HW123003   2.657   1.763   6.223  1.1069 -0.9683 -0.7615
 3790SOL    HW223004   2.724   1.881   6.282  0.2429  0.6815  0.3133
 3791SOL     OW23005   1.011   1.955   1.830 -0.0056  0.1477 -0.0820
 3791SOL    HW123006   0.987   1.946   1.922 -2.8233 -0.9559 -0.9332
 3791SOL    HW223007   0.950   1.901   1.780 -0.5280  0.7265 -0.0636
 3792SOL     OW23008   3.411   0.989   8.525  0.0945  0.0643 -0.3214
 3792SOL    HW123009   3.334   1.019   8.476  0.7958  2.5420  0.0782
 3792SOL    HW223010   3.360   0.924   8.573  1.6444  0.4842  1.8974
 3793SOL     OW23011   3.462   4.563   2.125  0.6913  0.0962  0.0853
 3793SOL    HW123012   3.396   4.578   2.192  0.5083  1.1862 -0.3309
 3793SOL    HW223013   3.420   4.597   2.046 -1.5722 -1.6993  0.5289
 3794SOL     OW23014   1.866   1.714  11.942  0.3093 -0.1346 -0.3539
 3794SOL    HW123015   1.892   1.707  11.850  0.2235 -1.5470 -0.2714
 3794SOL    HW223016   1.787   1.660  11.937  0.5550 -0.3105 -2.5701
 3795SOL     OW23017   2.292   3.547   1.538  0.1763 -0.0024 -0.4149
 3795SOL    HW123018   2.232   3.558   1.465  0.6803  3.3610 -0.3253
 3795SOL    HW223019   2.370   3.572   1.488  0.1652  0.5381 -0.1613
 3796SOL     OW23020   3.924   1.411   6.389 -0.6014  0.1760  0.1907
 3796SOL    HW123021   3.927   1.503   6.413 -0.1325 -0.2037  1.5927
 3796SOL    HW223022   3.909   1.369   6.474 -1.4929 -1.1433 -0.6107
 3797SOL     OW23023   1.995   4.029   2.341 -0.6403  0.2645  0.5828
 3797SOL    HW123024   2.052   4.017   2.266 -1.5942 -0.1024 -0.0866
 3797SOL    HW223025   1.982   3.939   2.369  0.5304 -0.3110 -0.7766
 3798SOL     OW23026   2.939   3.463   4.821  0.5123  0.5464 -0.6968
 3798SOL    HW123027   2.962   3.396   4.757  0.9022  1.6129 -1.6726
 3798SOL    HW223028   2.930   3.409   4.900  2.9457  0.7489 -0.2629
 3799SOL     OW23029   0.390   3.610   2.243 -0.0641  0.4852  0.2808
 3799SOL    HW123030   0.311   3.637   2.196 -0.7959 -2.7746 -0.3894
 3799SOL    HW223031   0.433   3.693   2.259  1.2777 -0.0427 -0.6264
 3800SOL     OW23032   2.851   2.487   0.474  0.7715  0.2475 -0.9092
 3800SOL    HW123033   2.763   2.484   0.512  1.0116  2.5241 -0.1398
 3800SOL    HW223034   2.852   2.393   0.460 -0.4291  0.4048 -2.1241
 3801SOL     OW23035   0.457   3.246   6.812  0.1600 -0.4773  0.0040
 3801SOL    HW123036   0.544   3.288   6.810 -0.0286 -0.0394  1.0072
 3801SOL    HW223037   0.400   3.323   6.811 -1.3977 -1.6465 -0.6191
 3802SOL     OW23038   2.163   2.036   5.964  0.4690  0.4107  0.1276
 3802SOL    HW123039   2.143   1.997   6.049 -1.4177 -0.6915 -0.8405
 3802SOL    HW223040   2.183   1.956   5.915  0.0926  0.2214  0.2826
 3803SOL     OW23041   0.744   2.530   6.841 -0.2614  0.1269  0.0663
 3803SOL    HW123042   0.671   2.486   6.884 -0.9460 -0.2436 -1.4696
 3803SOL    HW223043   0.819   2.494   6.888 -0.1978  1.2167  0.7908
 3804SOL     OW23044   1.553   3.181   6.611 -0.2187 -0.4730 -0.5078
 3804SOL    HW123045   1.610   3.111   6.645  0.4356 -0.0993 -0.8433
 3804SOL    HW223046   1.558   3.146   6.522  0.5918 -1.5818 -0.0286
 3805SOL     OW23047   2.038   3.365   2.753 -0.0307  0.3078  0.1131
 3805SOL    HW123048   2.003   3.454   2.761 -1.4580 -0.2969  0.5783
 3805SOL    HW223049   1.960   3.323   2.718 -0.4481  0.1655  1.2124
 3806SOL     OW23050   3.540   0.052  12.046  0.5589  0.1586 -0.3140
 3806SOL    HW123051   3.502   0.085  12.127  1.2857 -1.3109  0.6234
 3806SOL    HW223052   3.460   0.010  12.016  1.3334 -0.0537 -2.0705
 3807SOL     OW23053   2.011   0.293   4.932 -0.3229  0.4589  0.2461
 3807SOL    HW123054   2.004   0.364   4.996  2.6149  0.1666  0.8705
 3807SOL    HW223055   1.994   0.351   4.857  1.9940 -0.4211 -0.9508
 3808SOL     OW23056   2.607   4.278   7.068  0.5296  0.4723 -0.9105
 3808SOL    HW123057   2.660   4.237   6.998 -0.6118 -2.2195 -0.2034
 3808SOL    HW223058   2.557   4.345   7.021 -1.7490 -0.7545 -0.2118
 3809SOL     OW23059   0.104   2.742  16.877  0.0306 -0.0458 -0.3433
 3809SOL    HW123060   0.065   2.783  16.800 -3.1091 -2.1704  0.1185
 3809SOL    HW223061   0.123   2.820  16.929 -3.7301  0.0147  0.9675
 3810SOL     OW23062   0.207   2.526  17.561  0.3779 -0.1344  0.8393
 3810SOL    HW123063   0.288   2.525  17.509  0.1609 -0.0613  0.5009
 3810SOL    HW223064   0.151   2.457  17.525 -2.1508  0.2950  3.9602
 3811SOL     OW23065   1.294   0.622   6.358  0.0373  0.3242  1.0097
 3811SOL    HW123066   1.234   0.688   6.394  1.2987  2.3696 -0.5934
 3811SOL    HW223067   1.359   0.684   6.325 -0.0501  0.5858  1.3244
 3812SOL     OW23068   2.018   1.168   4.888  0.1582  0.5492 -0.2460
 3812SOL    HW123069   2.037   1.128   4.973 -0.8620  0.7599  0.0892
 3812SOL    HW223070   2.087   1.229   4.865  0.0885 -0.5593 -3.3430
 3813SOL     OW23071   0.512   4.066  13.548  0.1382  0.0043 -0.3124
 3813SOL    HW123072   0.474   4.154  13.549  1.4848  0.5889 -0.7101
 3813SOL    HW223073   0.431   4.022  13.523  1.8429 -3.0839 -0.4152
 3814SOL     OW23074   0.300   0.215   2.635 -0.1008  0.0930 -0.0966
 3814SOL    HW123075   0.320   0.160   2.559  1.5133 -1.0409  1.1644
 3814SOL    HW223076   0.320   0.300   2.598 -1.2062  0.6852  0.6605
 3815SOL     OW23077   3.659   4.480   3.248 -0.4277 -0.0328 -0.1613
 3815SOL    HW123078   3.565   4.491   3.260 -0.6225 -1.5359 -0.2517
 3815SOL    HW223079   3.662   4.395   3.203 -1.1394 -0.9750  1.5658
 3816SOL     OW23080   4.609   3.150   3.692 -0.7217 -0.0831 -0.0977
 3816SOL    HW123081   4.543   3.204   3.647 -0.5443  1.0475  1.0052
 3816SOL    HW223082   4.564   3.093   3.754 -0.9798 -1.5475 -1.6376
 3817SOL     OW23083   0.714   1.055   8.646  0.0785 -0.3933 -0.8069
 3817SOL    HW123084   0.682   1.117   8.712  2.1474 -0.8378  0.5932
 3817SOL    HW223085   0.807   1.059   8.665 -0.0346 -2.5333  0.2493
 3818SOL     OW23086   4.241   2.732   7.926 -0.4912  0.5119  0.0264
 3818SOL    HW123087   4.322   2.690   7.896 -0.4455 -0.2616  1.2456
 3818SOL    HW223088   4.227   2.800   7.859 -0.9725 -1.6531 -2.0758
 3819SOL     OW23089   3.745   2.749   5.565  0.6332 -0.1181  0.6990
 3819SOL    HW123090   3.716   2.695   5.639 -0.6524 -2.3249 -1.4290
 3819SOL    HW223091   3.807   2.695   5.517  0.6706  1.3706 -0.9397
 3820SOL     OW23092   1.350   2.724   1.784 -0.1497  0.1821 -0.1007
 3820SOL    HW123093   1.439   2.689   1.794  0.2710  0.7763 -1.9435
 3820SOL    HW223094   1.330   2.738   1.877  1.0082  0.5310  0.0872
 3821SOL     OW23095   2.537   0.498   1.842  0.1701 -0.0080  0.6003
 3821SOL    HW123096   2.476   0.571   1.853  0.7276  0.4784  0.4693
 3821SOL    HW223097   2.492   0.429   1.891 -1.5811 -0.5914 -1.7849
 3822SOL     OW23098   4.607   1.810   5.497  0.2579 -0.7323 -0.1806
 3822SOL    HW123099   4.637   1.868   5.566 -1.9123  1.5572 -1.1798
 3822SOL    HW223100   4.631   1.722   5.528  2.5215 -0.0298  0.0789
 3823SOL     OW23101   4.174   0.609   4.179 -0.2525  0.0011 -0.9000
 3823SOL    HW123102   4.222   0.555   4.116 -1.2656 -2.4544  0.3998
 3823SOL    HW223103   4.208   0.571   4.260  1.8070 -1.2580 -2.3531
 3824SOL     OW23104   3.866   3.747   4.362  0.1102  0.3109 -1.0853
 3824SOL    HW123105   3.860   3.823   4.421 -0.9532  1.1524 -2.2950
 3824SOL    HW223106   3.951   3.755   4.318  0.4292  2.1796 -0.1718
 3825SOL     OW23107   4.163   3.806   7.963  0.5436 -0.0806  0.5424
 3825SOL    HW123108   4.103   3.863   8.011  1.0047  1.5912 -0.8210
 3825SOL    HW223109   4.232   3.868   7.939 -0.9440  0.9779 -1.0832
 3826SOL     OW23110   0.325   3.889   5.476  0.3770  0.0880 -0.3781
 3826SOL    HW123111   0.286   3.959   5.424 -0.6215 -0.2007 -0.0279
 3826SOL    HW223112   0.338   3.937   5.558  1.3669 -0.6459 -0.1104
 3827SOL     OW23113   4.023   3.217   2.401 -0.0603 -0.2256  0.5883
 3827SOL    HW123114   3.949   3.215   2.341  1.3492 -1.5360 -1.0843
 3827SOL    HW223115   4.000   3.291   2.458  2.5864  1.0875 -0.0265
 3828SOL     OW23116   2.723   0.935  13.293 -0.3298  0.1759 -0.3824
 3828SOL    HW123117   2.812   0.967  13.287  0.2041 -1.1060  0.5381
 3828SOL    HW223118   2.716   0.926  13.388  0.8402  0.4378 -0.2750
 3829SOL     OW23119   0.089   2.585   5.907  0.0122 -0.5675  0.2023
 3829SOL    HW123120   0.018   2.525   5.930 -0.7995 -0.3694 -1.7082
 3829SOL    HW223121   0.074   2.609   5.815  0.6221 -0.8824  0.0233
 3830SOL     OW23122   4.476   2.719   9.063  0.4959  0.1896 -0.3083
 3830SOL    HW123123   4.420   2.737   9.139 -1.5922 -1.7168 -1.3994
 3830SOL    HW223124   4.473   2.802   9.017 -2.9333  0.1876 -0.0732
 3831SOL     OW23125   0.437   4.444   6.718  0.0128  0.6880  0.4409
 3831SOL    HW123126   0.366   4.485   6.670 -2.3578 -0.7945  2.6784
 3831SOL    HW223127   0.474   4.377   6.661 -1.9228  0.7183 -0.8357
 3832SOL     OW23128   3.653   3.317   8.690 -0.1317 -0.1109 -0.5418
 3832SOL    HW123129   3.648   3.407   8.660  0.7825 -0.3705 -1.4673
 3832SOL    HW223130   3.678   3.277   8.607  1.5308 -0.6165  0.2077
 3833SOL     OW23131   2.635   2.196  11.593  0.2570 -0.0109 -0.0580
 3833SOL    HW123132   2.585   2.162  11.667 -0.2895  1.5601  0.3053
 3833SOL    HW223133   2.725   2.172  11.614 -0.3207 -3.2306 -1.1949
 3834SOL     OW23134   0.600   2.410   3.109 -0.0909  0.0971 -0.3132
 3834SOL    HW123135   0.601   2.315   3.115  0.2675  0.0695 -0.7854
 3834SOL    HW223136   0.692   2.423   3.085 -0.0983  0.8673  0.0724
 3835SOL     OW23137   4.228   3.433   6.322 -0.3537  0.2705 -0.4511
 3835SOL    HW123138   4.138   3.467   6.318 -0.8288 -0.8344  0.8342
 3835SOL    HW223139   4.255   3.475   6.404  0.4156 -0.4632 -0.3334
 3836SOL     OW23140   0.081   3.308   0.712  0.0029 -0.1360  0.1543
 3836SOL    HW123141   0.085   3.306   0.617  1.8979  1.3010  0.1958
 3836SOL    HW223142   0.127   3.390   0.731 -1.0372 -0.5283  4.3797
 3837SOL     OW23143   1.931   1.574  16.406  0.9104  0.1730 -0.2642
 3837SOL    HW123144   1.861   1.530  16.358  0.8542 -0.7316  0.6469
 3837SOL    HW223145   1.916   1.658  16.364 -0.0311 -1.4428 -3.1469
 3838SOL     OW23146   4.696   0.773   7.439  0.6295 -0.3811 -0.7524
 3838SOL    HW123147   4.654   0.715   7.503 -0.6761  1.4724  0.0857
 3838SOL    HW223148   4.666   0.750   7.351 -0.7850 -1.8815  0.1211
 3839SOL     OW23149   0.430   2.011   4.616 -0.0594  0.2770  0.1235
 3839SOL    HW123150   0.420   2.057   4.699 -1.0002  0.7949 -0.2741
 3839SOL    HW223151   0.372   1.935   4.625 -1.6339  1.6559  1.5833
 3840SOL     OW23152   1.271   3.476   4.756 -0.3603  0.3121 -0.0079
 3840SOL    HW123153   1.209   3.457   4.826  1.0531 -3.0776  0.3157
 3840SOL    HW223154   1.223   3.457   4.675 -0.3933  1.2485 -0.2113
 3841SOL     OW23155   3.155   1.177  11.230  0.3233 -0.2295  0.4255
 3841SOL    HW123156   3.173   1.244  11.164 -1.3237 -0.4788 -0.2849
 3841SOL    HW223157   3.065   1.202  11.250  0.2606 -0.1918  0.0908
 3842SOL     OW23158   0.102   1.364   1.861  0.0387  0.3519 -0.5533
 3842SOL    HW123159   0.193   1.335   1.864  0.5771  1.9336 -1.3743
 3842SOL    HW223160   0.060   1.314   1.931 -0.2679  0.2068 -0.8357
 3843SOL     OW23161   0.540   0.063   5.292  0.1093  0.1634  0.7641
 3843SOL    HW123162   0.472   0.013   5.247 -0.3596  1.1898  0.3389
 3843SOL    HW223163   0.518   0.155   5.276  1.8123  0.6327  1.1197
 3844SOL     OW23164   0.172   4.072   1.279 -0.2930  0.8012  0.6011
 3844SOL    HW123165   0.253   4.123   1.271  0.2078  0.5034  3.4723
 3844SOL    HW223166   0.148   4.066   1.187 -1.4648  0.3154  0.9394
 3845SOL     OW23167   2.790   2.158  13.229  0.6422 -0.1752 -0.0124
 3845SOL    HW123168   2.811   2.080  13.280 -0.9107 -1.0252 -0.6830
 3845SOL    HW223169   2.788   2.220  13.301  0.6680  0.2268 -0.3552
 3846SOL     OW23170   4.200   1.243   9.135 -0.1569  0.5393 -0.3601
 3846SOL    HW123171   4.117   1.195   9.132 -0.2849  0.7429 -0.0460
 3846SOL    HW223172   4.250   1.196   9.202  0.5282  1.8679  0.0618
 3847SOL     OW23173   1.874   1.765   8.803  0.2872  0.1006 -0.5143
 3847SOL    HW123174   1.901   1.710   8.876  3.0508  2.8251  0.5481
 3847SOL    HW223175   1.875   1.852   8.842  0.3014  1.5013 -3.6012
 3848SOL     OW23176   3.722   3.092   3.482 -0.1320  0.6343  0.4952
 3848SOL    HW123177   3.631   3.082   3.509 -1.3605  1.9690 -3.1129
 3848SOL    HW223178   3.714   3.152   3.407 -2.4893 -1.0698 -0.5881
 3849SOL     OW23179   1.288   3.234  16.715 -0.5646 -0.4281 -0.2108
 3849SOL    HW123180   1.213   3.291  16.732 -1.6889 -1.4763 -1.5987
 3849SOL    HW223181   1.313   3.202  16.802 -1.2652  1.3205  0.6485
 3850SOL     OW23182   0.514   3.468  13.988  0.1130 -0.5100 -0.1598
 3850SOL    HW123183   0.556   3.493  14.070 -0.6677 -1.3929  0.5077
 3850SOL    HW223184   0.570   3.396  13.958  2.3617  2.2327 -2.5614
 3851SOL     OW23185   3.612   3.533  15.172  0.6380 -0.4974 -0.0949
 3851SOL    HW123186   3.698   3.494  15.187  1.0064  0.5547  0.5495
 3851SOL    HW223187   3.572   3.515  15.257  0.2891  0.6309 -0.0187
 3852SOL     OW23188   4.316   3.530   4.181  0.1865  0.2409  0.1620
 3852SOL    HW123189   4.225   3.501   4.169 -0.4179  2.5314 -0.9111
 3852SOL    HW223190   4.318   3.572   4.267 -1.9776  1.5871 -0.4403
 3853SOL     OW23191   4.134   1.947   2.117 -0.6482  0.3242 -0.3519
 3853SOL    HW123192   4.212   1.963   2.065  0.7851 -2.4232  0.9804
 3853SOL    HW223193   4.068   1.899   2.067 -0.7516  0.2755 -0.1690
 3854SOL     OW23194   0.089   4.130   1.560  0.1710 -0.3597 -0.0439
 3854SOL    HW123195   0.136   4.097   1.484  1.2625  1.0181  0.0285
 3854SOL    HW223196   4.733   4.123   1.539 -0.1592 -1.6463  1.8127
 3855SOL     OW23197   2.058   2.023  13.098  0.8252  0.4531 -0.0304
 3855SOL    HW123198   2.048   2.042  13.005  0.2670 -0.3416 -0.1254
 3855SOL    HW223199   2.049   1.928  13.094  1.6597  0.4095 -0.8833
 3856SOL     OW23200   1.441   4.071  12.944 -0.0011 -0.4267 -0.5802
 3856SOL    HW123201   1.497   4.024  13.005 -1.4412 -1.5107 -0.0970
 3856SOL    HW223202   1.468   4.163  12.950  0.3033 -0.6634  1.4316
 3857SOL     OW23203   2.032   2.055   2.731  0.1114  0.6093 -0.6502
 3857SOL    HW123204   2.099   2.123   2.735  0.0763  0.6225 -0.2669
 3857SOL    HW223205   1.976   2.078   2.806  0.4962 -3.2565  0.8419
 3858SOL     OW23206   2.162   0.257   6.204 -0.4665 -0.4307 -0.4692
 3858SOL    HW123207   2.094   0.275   6.140  0.0648  0.6763 -0.7180
 3858SOL    HW223208   2.163   0.164   6.228  0.9954 -0.3709 -0.2571
 3859SOL     OW23209   0.952   4.009  10.097  0.3488  0.6643 -0.1942
 3859SOL    HW123210   0.919   3.935  10.147  1.9208  0.8516  1.1263
 3859SOL    HW223211   0.882   4.020  10.033  1.3248  1.7617 -1.0770
 3860SOL     OW23212   3.201   0.449   3.418 -0.3718  0.2435 -0.0874
 3860SOL    HW123213   3.199   0.354   3.413  0.7627  0.2757 -1.2741
 3860SOL    HW223214   3.112   0.472   3.392 -0.6056  0.5758  1.0033
 3861SOL     OW23215   4.067   4.279   2.259 -0.1137 -0.2541 -0.0989
 3861SOL    HW123216   4.036   4.360   2.299  0.8863 -1.1398  2.5192
 3861SOL    HW223217   4.161   4.285   2.278 -0.2322  0.1626  0.3594
 3862SOL     OW23218   3.508   3.843   3.721 -0.4353  0.3057  0.2413
 3862SOL    HW123219   3.499   3.905   3.794  1.4105  0.4949  0.2996
 3862SOL    HW223220   3.445   3.774   3.742 -0.0407 -0.5438 -1.3590
 3863SOL     OW23221   4.180   0.318   2.673 -0.4055  0.0889 -0.2431
 3863SOL    HW123222   4.217   0.376   2.740  0.8861 -0.6987 -0.2766
 3863SOL    HW223223   4.239   0.327   2.598  0.6501  0.0987  0.5772
 3864SOL     OW23224   4.323   3.998  12.589  0.0483 -0.0509 -0.2621
 3864SOL    HW123225   4.412   4.006  12.552  0.0460 -2.5128 -0.7794
 3864SOL    HW223226   4.279   3.991  12.504  2.0949  1.0603 -1.4258
 3865SOL     OW23227   2.313   2.838  14.766  0.2611 -0.1889 -0.5950
 3865SOL    HW123228   2.263   2.790  14.700 -0.5810 -0.0677 -0.0526
 3865SOL    HW223229   2.379   2.772  14.786  0.9802  0.4940 -0.7456
 3866SOL     OW23230   1.335   1.547   4.776  0.6068 -0.4323  0.1517
 3866SOL    HW123231   1.422   1.583   4.766 -0.5068  2.1435 -0.1782
 3866SOL    HW223232   1.314   1.573   4.865  2.8258  2.4771 -0.1744
 3867SOL     OW23233   0.890   0.609   7.008  0.1623 -0.7097  0.0751
 3867SOL    HW123234   0.894   0.556   6.928  0.3412  0.6632 -0.8261
 3867SOL    HW223235   0.979   0.619   7.040  0.3813  2.0965 -1.3685
 3868SOL     OW23236   1.926   1.298  12.302  0.1297 -0.5471  0.5797
 3868SOL    HW123237   1.917   1.389  12.277  0.9356 -0.4906  0.5252
 3868SOL    HW223238   1.847   1.284  12.356  0.5414  0.5856  1.4712
 3869SOL     OW23239   0.763   2.511  12.807  0.3596 -0.1938  0.2562
 3869SOL    HW123240   0.844   2.460  12.806  0.9704  0.7936 -1.2564
 3869SOL    HW223241   0.723   2.475  12.728  1.3745 -0.2085 -0.2557
 3870SOL     OW23242   2.206   4.663   9.222  0.3195  0.3885  0.1913
 3870SOL    HW123243   2.240   4.639   9.308  0.1360 -0.6292 -0.0099
 3870SOL    HW223244   2.231   4.582   9.177  0.3402 -0.0349  0.9626
 3871SOL     OW23245   3.546   4.020  12.799 -0.2555 -0.0077 -0.0849
 3871SOL    HW123246   3.601   3.966  12.857  0.8430  0.0676 -1.0590
 3871SOL    HW223247   3.597   4.004  12.720 -2.4767  0.2317 -1.5606
 3872SOL     OW23248   3.547   0.388   1.948  0.4875  0.4053  0.7123
 3872SOL    HW123249   3.551   0.470   1.897  1.5608  1.0077  1.7578
 3872SOL    HW223250   3.622   0.343   1.908  0.0837 -0.9311  1.4764
 3873SOL     OW23251   3.581   3.597  13.660  0.3208 -0.8038 -0.0589
 3873SOL    HW123252   3.658   3.569  13.708  1.2629  0.8106 -0.6578
 3873SOL    HW223253   3.512   3.538  13.691  0.7565  0.2159  2.8806
 3874SOL     OW23254   2.470   1.123  13.298 -0.3406  0.4916  0.0286
 3874SOL    HW123255   2.406   1.071  13.347  0.4087  0.0412  0.5354
 3874SOL    HW223256   2.549   1.068  13.293 -0.5077  0.3986 -1.7044
 3875SOL     OW23257   2.305   3.961   7.499 -0.5404  0.1408 -0.4776
 3875SOL    HW123258   2.389   3.914   7.494 -1.4978 -1.6579  0.4457
 3875SOL    HW223259   2.254   3.902   7.554  0.8634  0.0168  0.6801
 3876SOL     OW23260   4.011   4.304   6.076 -0.1306  0.4065 -0.5260
 3876SOL    HW123261   4.094   4.304   6.124 -2.0409  0.2019  2.7836
 3876SOL    HW223262   3.974   4.238   6.134 -0.9162  1.1614 -0.1567
 3877SOL     OW23263   0.056   0.777   2.157 -0.0024  0.2782  0.3282
 3877SOL    HW123264   0.025   0.749   2.071 -1.8114 -2.2297  1.7934
 3877SOL    HW223265   4.710   0.815   2.186 -0.2580  0.6671 -0.9151
 3878SOL     OW23266   2.129   1.084   1.270  0.4671 -0.5959 -0.1944
 3878SOL    HW123267   2.137   0.992   1.246  0.4107 -0.8339  0.6980
 3878SOL    HW223268   2.136   1.082   1.366 -1.9809 -0.7907 -0.0233
 3879SOL     OW23269   4.336   1.026  16.768 -0.2276  0.0584  0.1090
 3879SOL    HW123270   4.289   0.958  16.816  2.5387 -1.5375  0.5770
 3879SOL    HW223271   4.297   1.101  16.812 -2.3936 -0.6700 -0.5460
 3880SOL     OW23272   0.487   2.826   9.382  0.2194  0.0533 -0.2424
 3880SOL    HW123273   0.483   2.732   9.397 -1.8607  0.3686  1.1548
 3880SOL    HW223274   0.405   2.855   9.422 -0.2181  0.3267 -1.3265
 3881SOL     OW23275   0.801   4.392   9.214 -0.7025  0.3875 -0.0927
 3881SOL    HW123276   0.828   4.351   9.296 -1.2545  2.7419  1.2563
 3881SOL    HW223277   0.838   4.328   9.154  1.6716  3.2884 -1.7064
 3882SOL     OW23278   1.490   0.995   1.998 -0.1502  0.3644  0.5430
 3882SOL    HW123279   1.486   1.002   2.094 -0.5582 -3.0123  0.7798
 3882SOL    HW223280   1.586   1.000   1.993 -0.1096  1.0987  1.8964
 3883SOL     OW23281   0.203   3.337   1.880 -0.1303 -0.7698 -0.1496
 3883SOL    HW123282   0.200   3.343   1.976  0.3597 -0.5080 -0.1484
 3883SOL    HW223283   0.157   3.255   1.864 -2.7953  0.9717 -1.4327
 3884SOL     OW23284   0.770   4.340   4.228 -0.1139 -0.0127 -0.0637
 3884SOL    HW123285   0.688   4.388   4.221  0.6674  1.6754  2.4141
 3884SOL    HW223286   0.831   4.392   4.176 -0.9860  0.4747 -0.6053
 3885SOL     OW23287   4.603   0.999   4.049  0.0796  0.4738 -0.2096
 3885SOL    HW123288   4.694   0.998   4.020  1.0381  0.0127  2.8615
 3885SOL    HW223289   4.567   0.994   3.960 -0.0477  1.0335 -0.1925
 3886SOL     OW23290   2.606   4.229   4.542  0.6860 -0.1643  0.2456
 3886SOL    HW123291   2.611   4.145   4.496 -0.7467 -0.3820  0.4778
 3886SOL    HW223292   2.693   4.236   4.581 -0.6052 -1.1892  3.2807
 3887SOL     OW23293   1.100   3.532   3.389  0.2940  0.2497 -0.1018
 3887SOL    HW123294   1.065   3.621   3.386 -1.0764 -0.2402  1.0534
 3887SOL    HW223295   1.097   3.509   3.482 -0.9989 -0.0885 -0.2334
 3888SOL     OW23296   3.955   3.402   8.199  0.2916  0.1732 -0.3874
 3888SOL    HW123297   3.935   3.459   8.273 -1.0882  1.9174 -2.1028
 3888SOL    HW223298   3.999   3.470   8.148  1.5654  0.0571  0.5415
 3889SOL     OW23299   1.577   0.474  14.628 -0.4442 -0.5458  0.3625
 3889SOL    HW123300   1.646   0.449  14.690  0.8444 -0.6096 -1.1066
 3889SOL    HW223301   1.629   0.480  14.548 -1.3419 -1.1379 -0.2659
 3890SOL     OW23302   3.157   2.804   4.336 -0.2905 -0.2752 -0.4107
 3890SOL    HW123303   3.186   2.872   4.276  0.9136  0.1513  0.6511
 3890SOL    HW223304   3.070   2.837   4.359 -0.2522  1.0773 -2.2457
 3891SOL     OW23305   4.584   0.334  14.443 -0.2375 -0.6575  0.3012
 3891SOL    HW123306   4.508   0.304  14.393 -0.5265 -0.6693  0.7550
 3891SOL    HW223307   4.550   0.389  14.513 -1.2887  1.4862 -1.8881
 3892SOL     OW23308   3.501   4.483  15.065  0.2265  0.3329 -0.0389
 3892SOL    HW123309   3.554   4.563  15.069  1.8860 -0.7767 -0.0209
 3892SOL    HW223310   3.434   4.505  15.129  0.9440  0.5959  0.6146
 3893SOL     OW23311   1.541   0.051   2.784  0.2139 -0.0243  0.7729
 3893SOL    HW123312   1.608   0.036   2.850  0.1619  1.5011  1.1684
 3893SOL    HW223313   1.544   4.715   2.722 -1.3007  0.4804  0.0922
 3894SOL     OW23314   3.972   2.071   3.692  0.0386  0.1715  0.4715
 3894SOL    HW123315   3.950   2.163   3.708  0.9424  0.4128  0.3515
 3894SOL    HW223316   3.887   2.053   3.654 -0.6252  0.1353  1.9529
 3895SOL     OW23317   0.660   0.439   8.356 -0.2967 -0.5652  0.1367
 3895SOL    HW123318   0.601   0.440   8.281 -1.5601 -0.1060  1.1344
 3895SOL    HW223319   0.743   0.424   8.312 -1.5703  0.9246 -2.7289
 3896SOL     OW23320   2.143   3.134  17.394 -0.5665  0.8105  0.2789
 3896SOL    HW123321   2.137   3.229  17.385  1.1086  1.0160  1.2489
 3896SOL    HW223322   2.191   3.135  17.477 -0.5653  0.4842  0.2833
 3897SOL     OW23323   2.561   1.195   4.580  0.0288  0.1102 -0.3878
 3897SOL    HW123324   2.485   1.144   4.553 -0.7633  1.2407 -0.3099
 3897SOL    HW223325   2.573   1.258   4.508  0.9704 -0.0416 -0.3614
 3898SOL     OW23326   2.996   3.135   8.671  0.2968 -0.4201  0.3593
 3898SOL    HW123327   2.957   3.069   8.727 -2.7292  1.3289  0.2929
 3898SOL    HW223328   2.964   3.107   8.585  1.8789  0.3212 -0.4802
 3899SOL     OW23329   0.505   1.563   0.306  0.3277 -0.4371  0.5190
 3899SOL    HW123330   0.567   1.492   0.291 -0.6276 -1.6337  2.2689
 3899SOL    HW223331   0.436   1.525   0.251 -1.0195  0.5201  1.5533
 3900SOL     OW23332   3.982   0.517  13.575 -0.0114 -0.6045 -0.3813
 3900SOL    HW123333   3.906   0.459  13.589  0.8338 -1.8843 -1.1366
 3900SOL    HW223334   4.047   0.457  13.537  1.1466 -0.2718  1.0858
 3901SOL     OW23335   3.660   4.558   1.104  0.2176 -0.5071  0.2023
 3901SOL    HW123336   3.585   4.582   1.050 -0.0465 -1.3756  0.1835
 3901SOL    HW223337   3.611   4.534   1.183  0.4311  2.5031  1.2711
 3902SOL     OW23338   4.522   4.371   9.860  0.2426  0.2664  0.3998
 3902SOL    HW123339   4.534   4.280   9.833  0.2908 -0.0388  1.4136
 3902SOL    HW223340   4.437   4.366   9.906  0.9874 -1.9992  1.5280
 3903SOL     OW23341   0.223   2.035   8.007 -0.2810 -0.6295 -0.3394
 3903SOL    HW123342   0.173   2.061   8.085 -0.0847 -0.3146 -0.3176
 3903SOL    HW223343   0.173   2.082   7.940 -1.5310  0.0107  1.0360
 3904SOL     OW23344   0.465   0.724  17.505 -0.2595  0.4885 -0.7708
 3904SOL    HW123345   0.433   0.706  17.593  3.3679 -0.5917  0.2837
 3904SOL    HW223346   0.440   0.643  17.461 -2.3276 -0.0433  1.3886
 3905SOL     OW23347   4.030   0.080   1.930 -0.1640  0.2590  0.3975
 3905SOL    HW123348   3.997   0.038   2.009  0.2141 -0.2355  0.2922
 3905SOL    HW223349   4.034   0.007   1.869 -0.1640  1.7080 -1.3531
 3906SOL     OW23350   3.017   3.455  17.067 -0.3058 -0.6426  0.5959
 3906SOL    HW123351   3.035   3.545  17.096 -0.1801  0.3464 -2.4942
 3906SOL    HW223352   3.100   3.427  17.028 -0.0203 -1.1138  1.5600
 3907SOL     OW23353   3.983   2.056  14.588 -0.5237  0.6090 -0.3726
 3907SOL    HW123354   3.997   2.049  14.682 -0.4202 -0.6972 -0.4799
 3907SOL    HW223355   4.060   2.100  14.552 -0.7439  1.9125  0.7688
 3908SOL     OW23356   0.954   4.113   5.568  0.6198 -0.3543 -0.2967
 3908SOL    HW123357   1.030   4.170   5.558  0.0894  0.4308  0.0792
 3908SOL    HW223358   0.894   4.187   5.561 -1.2137 -1.6210  1.7638
 3909SOL     OW23359   3.361   0.610   4.060 -0.1072 -0.2785  0.3845
 3909SOL    HW123360   3.443   0.630   4.104 -0.4877  1.2243  0.4045
 3909SOL    HW223361   3.382   0.647   3.974  1.7949 -0.8289  0.6001
 3910SOL     OW23362   3.163   3.709   9.404  0.5826 -0.5156  0.2663
 3910SOL    HW123363   3.134   3.741   9.490  1.5360  1.1013 -0.0111
 3910SOL    HW223364   3.149   3.792   9.359 -0.5167 -0.7109  0.2609
 3911SOL     OW23365   3.945   2.085   4.127 -0.2434 -0.2263 -0.1131
 3911SOL    HW123366   4.025   2.121   4.166 -0.1872 -1.9967  1.3855
 3911SOL    HW223367   3.997   2.022   4.076  1.7114  0.2998  1.2251
 3912SOL     OW23368   4.053   1.727   6.862 -0.2261  0.0102  0.1018
 3912SOL    HW123369   4.021   1.791   6.798  0.6997 -0.7052 -1.0691
 3912SOL    HW223370   4.148   1.724   6.854 -0.2804  1.8855 -1.2804
 3913SOL     OW23371   1.554   4.569   2.413 -0.0064  0.3648 -0.5575
 3913SOL    HW123372   1.552   4.562   2.509 -0.9439  1.7051 -0.4713
 3913SOL    HW223373   1.499   4.496   2.386 -0.0615  1.3664 -3.1204
 3914SOL     OW23374   1.836   4.654  14.426 -0.1484 -0.4524 -0.4251
 3914SOL    HW123375   1.888   4.698  14.359  2.0789  2.8728  3.4325
 3914SOL    HW223376   1.894   4.579  14.438  0.4185  0.2264  1.2838
 3915SOL     OW23377   3.036   2.556   6.894 -0.0225 -0.0654  0.1191
 3915SOL    HW123378   3.107   2.603   6.938  0.4746 -2.2978  1.7300
 3915SOL    HW223379   3.051   2.577   6.802 -0.3690 -1.1574 -0.1862
 3916SOL     OW23380   1.208   1.353   1.449 -0.5830  0.2986 -0.2946
 3916SOL    HW123381   1.269   1.414   1.489  2.9213 -1.7817 -2.4190
 3916SOL    HW223382   1.261   1.330   1.373 -0.3119  2.0203 -0.6248
 3917SOL     OW23383   2.412   0.857  16.125 -0.5473 -0.5185 -0.2437
 3917SOL    HW123384   2.449   0.901  16.201 -1.2526  1.3083 -0.9357
 3917SOL    HW223385   2.343   0.803  16.163 -2.1609  0.3497 -1.9174
 3918SOL     OW23386   2.601   1.541   7.820 -0.0515 -0.2140 -0.2411
 3918SOL    HW123387   2.603   1.493   7.903 -0.7821 -3.5944 -2.1772
 3918SOL    HW223388   2.690   1.531   7.788  0.4519 -0.0653  1.1405
 3919SOL     OW23389   3.442   2.018   2.074 -0.6000 -0.0037 -0.1719
 3919SOL    HW123390   3.393   2.091   2.036  1.2629 -0.0725 -2.6983
 3919SOL    HW223391   3.472   2.060   2.155  0.6333 -0.4359 -0.4007
 3920SOL     OW23392   1.566   0.877  13.582  0.4279  0.2373  0.0332
 3920SOL    HW123393   1.644   0.878  13.638  0.5780  0.9004 -0.1914
 3920SOL    HW223394   1.596   0.802  13.532 -0.5746  0.5214 -0.9808
 3921SOL     OW23395   0.825   0.496   5.161  0.3768 -0.1441 -0.6667
 3921SOL    HW123396   0.903   0.505   5.106  1.0578  1.3889  0.5385
 3921SOL    HW223397   0.845   0.422   5.217 -0.3170 -0.0384 -0.2764
 3922SOL     OW23398   1.771   0.790  16.646 -0.0923  0.2842 -0.2443
 3922SOL    HW123399   1.862   0.793  16.617 -0.1767 -1.9803 -0.7541
 3922SOL    HW223400   1.784   0.771  16.739 -0.0011  0.4025 -0.2330
 3923SOL     OW23401   0.016   1.171   4.968 -0.5453  0.7379  0.5640
 3923SOL    HW123402   0.004   1.108   4.897  0.2893 -0.3185  1.3565
 3923SOL    HW223403   4.718   1.250   4.929 -1.3902 -1.2298 -2.6115
 3924SOL     OW23404   1.860   1.836  17.543 -0.6464 -0.3536 -0.2047
 3924SOL    HW123405   1.800   1.762  17.540 -1.1687  0.0445  0.5425
 3924SOL    HW223406   1.946   1.795  17.538  0.8486  2.6901  0.4311
 3925SOL     OW23407   3.689   0.756   1.237  0.1336  0.4079  0.1168
 3925SOL    HW123408   3.598   0.758   1.264 -0.1632  0.6030 -0.9167
 3925SOL    HW223409   3.734   0.760   1.322 -2.2475  5.6468  1.0924
 3926SOL     OW23410   1.536   0.587   6.047  0.3741 -0.1232 -0.4887
 3926SOL    HW123411   1.456   0.544   6.017 -0.2914  1.0919 -0.4506
 3926SOL    HW223412   1.575   0.601   5.961  1.4516  2.2259  0.3643
 3927SOL     OW23413   2.525   2.468   2.767 -0.2050 -0.4083 -0.3450
 3927SOL    HW123414   2.480   2.548   2.792  2.3622  1.2788 -1.2127
 3927SOL    HW223415   2.598   2.460   2.828 -1.5558 -3.2987  0.9109
 3928SOL     OW23416   3.914   1.703   9.727  0.4967  0.7020 -0.7230
 3928SOL    HW123417   3.901   1.790   9.766 -0.2199  0.1350  0.2974
 3928SOL    HW223418   4.006   1.698   9.701 -0.0838  0.2342 -2.7020
 3929SOL     OW23419   0.209   1.475   6.311  0.3706 -0.2925  0.2298
 3929SOL    HW123420   0.244   1.433   6.389 -0.4507  0.1292  0.8197
 3929SOL    HW223421   0.204   1.569   6.325 -0.7642 -0.7292  2.7993
 3930SOL     OW23422   0.975   1.273   5.537  0.8838 -0.3707  0.4793
 3930SOL    HW123423   0.916   1.207   5.575 -0.1274 -1.5541 -3.0708
 3930SOL    HW223424   0.978   1.329   5.615  0.7334  1.7716 -1.0478
 3931SOL     OW23425   0.008   3.021   4.626 -0.1153  0.7238  0.3182
 3931SOL    HW123426   0.008   3.111   4.659 -1.1708  0.5029  0.9176
 3931SOL    HW223427   4.673   3.039   4.565 -1.9525  0.7454  2.4605
 3932SOL     OW23428   4.320   2.229  11.719 -0.4681  0.5646  0.7487
 3932SOL    HW123429   4.322   2.320  11.691  1.6288  0.4374  0.4838
 3932SOL    HW223430   4.415   2.217  11.713 -0.3849  1.7761 -0.3131
 3933SOL     OW23431   1.795   0.232  13.404  0.1615 -0.0857 -0.2791
 3933SOL    HW123432   1.768   0.147  13.437 -0.5851  1.1223  2.2319
 3933SOL    HW223433   1.890   0.224  13.406  0.1860  0.9376  2.4749
 3934SOL     OW23434   1.604   0.506  16.944 -0.3596  0.2209 -0.3498
 3934SOL    HW123435   1.659   0.436  16.978 -0.8835 -0.1169 -0.1987
 3934SOL    HW223436   1.638   0.509  16.855  1.7316  0.7499  0.4736
 3935SOL     OW23437   0.721   3.954  12.359  0.3014  0.0999  0.1925
 3935SOL    HW123438   0.734   3.891  12.288 -0.3617 -0.3557  0.4779
 3935SOL    HW223439   0.681   4.027  12.312 -0.2246 -0.9032 -0.9166
 3936SOL     OW23440   0.348   3.334   3.178 -0.2972  0.5185 -0.5180
 3936SOL    HW123441   0.294   3.314   3.101  1.2862 -0.8600 -1.2834
 3936SOL    HW223442   0.298   3.300   3.252  1.9445  0.8300  1.1253
 3937SOL     OW23443   0.158   0.491  10.147 -0.0220  0.5596  0.2021
 3937SOL    HW123444   0.118   0.417  10.192  1.5596 -1.2498 -1.4265
 3937SOL    HW223445   0.171   0.557  10.216  1.9900  0.4139 -0.0136
 3938SOL     OW23446   4.487   2.049   2.848 -0.1512 -0.2025 -0.3292
 3938SOL    HW123447   4.573   2.059   2.807  0.3919 -1.8278  0.4144
 3938SOL    HW223448   4.428   2.083   2.781  2.5194  1.9685 -1.6018
 3939SOL     OW23449   0.136   4.002  10.596  0.4922 -0.6694 -0.4333
 3939SOL    HW123450   0.137   4.070  10.664  2.0484 -1.0397 -0.0917
 3939SOL    HW223451   0.061   4.027  10.542 -0.5262  1.4898  1.9679
 3940SOL     OW23452   0.629   3.545   7.383  0.3487 -0.5563  0.4520
 3940SOL    HW123453   0.544   3.573   7.415  0.4786 -0.2697  0.5426
 3940SOL    HW223454   0.663   3.504   7.463 -0.8684  2.1001  2.3457
 3941SOL     OW23455   2.535   2.426   8.030 -0.4890  0.0147 -0.3359
 3941SOL    HW123456   2.466   2.488   8.004  0.4671  1.4941  0.6165
 3941SOL    HW223457   2.533   2.359   7.962  0.7275 -1.1504  0.7909
 3942SOL     OW23458   4.368   0.251  11.281  0.3742  0.5412  0.0209
 3942SOL    HW123459   4.365   0.197  11.360  2.6731  2.5231  1.4915
 3942SOL    HW223460   4.459   0.276  11.299  0.5222  0.1365 -0.1763
 3943SOL     OW23461   3.645   3.416   4.450 -0.2730 -0.9062 -0.5796
 3943SOL    HW123462   3.598   3.359   4.510  0.8156  0.7552  1.8588
 3943SOL    HW223463   3.595   3.498   4.449 -2.6468 -2.3565  0.4647
 3944SOL     OW23464   3.231   1.263   9.478  0.2318 -0.1005  0.0487
 3944SOL    HW123465   3.232   1.257   9.382  0.6568 -1.6169  0.1516
 3944SOL    HW223466   3.252   1.356   9.487 -0.9957  0.0646  1.3267
 3945SOL     OW23467   4.420   4.464   8.889  0.2276 -0.5575  0.6954
 3945SOL    HW123468   4.331   4.436   8.911  0.6821  0.9902  4.5324
 3945SOL    HW223469   4.398   4.558   8.887  2.8485  0.0509  0.7890
 3946SOL     OW23470   2.234   0.433   8.648  0.1249  0.2665  0.0268
 3946SOL    HW123471   2.151   0.393   8.620  0.0780  0.9070 -0.7579
 3946SOL    HW223472   2.232   0.415   8.742 -2.6210  0.3830  0.0107
 3947SOL     OW23473   3.418   3.058   8.078 -0.1555 -0.2122  0.0661
 3947SOL    HW123474   3.328   3.075   8.049 -0.2816 -1.6849 -0.4064
 3947SOL    HW223475   3.455   3.043   7.991  0.5767 -1.1431  0.5446
 3948SOL     OW23476   3.978   3.197   4.631 -0.3519  0.1158 -0.2508
 3948SOL    HW123477   3.964   3.288   4.606  1.1497  0.3553 -0.1847
 3948SOL    HW223478   3.887   3.168   4.620 -0.2494  0.4141 -1.8755
 3949SOL     OW23479   0.074   4.566   3.867 -0.5820 -0.4074 -0.1605
 3949SOL    HW123480   0.013   4.562   3.940  0.1204  2.1533  0.5907
 3949SOL    HW223481   0.062   4.478   3.833  0.3027 -0.9806  1.0038
 3950SOL     OW23482   3.534   1.564   6.669 -0.5747  0.2695  0.4993
 3950SOL    HW123483   3.444   1.569   6.702 -0.7345 -0.3148  0.1517
 3950SOL    HW223484   3.532   1.473   6.642  2.9449  0.9998 -2.2347
 3951SOL     OW23485   2.013   3.104   0.948  0.2613  0.0470 -0.3801
 3951SOL    HW123486   1.991   3.195   0.927  0.1977 -0.3081 -1.9228
 3951SOL    HW223487   1.930   3.062   0.927  0.1634  0.1086 -0.1179
 3952SOL     OW23488   1.256   0.025   7.390  0.3520 -0.2316  0.2513
 3952SOL    HW123489   1.320   4.691   7.388 -1.9940 -2.2893 -1.8424
 3952SOL    HW223490   1.242   0.049   7.299 -0.8978 -2.9660 -0.2737
 3953SOL     OW23491   3.412   0.169   8.891  0.3060 -0.0716 -0.1141
 3953SOL    HW123492   3.499   0.179   8.854  0.8631 -3.2933  0.3839
 3953SOL    HW223493   3.424   0.188   8.984 -0.4001  1.6913 -0.3750
 3954SOL     OW23494   2.986   3.587  16.049 -0.3987 -0.4020 -0.1586
 3954SOL    HW123495   3.076   3.564  16.073  0.5231 -0.4264 -3.5193
 3954SOL    HW223496   3.002   3.664  15.995 -0.6180  0.5777  1.1861
 3955SOL     OW23497   0.241   2.901   7.996 -0.0244 -0.5817 -0.2525
 3955SOL    HW123498   0.317   2.948   7.962  0.0298  0.7050  1.6253
 3955SOL    HW223499   0.168   2.960   7.978  1.2924  1.4429  1.0145
 3956SOL     OW23500   1.866   2.171   5.182  0.2675 -1.3732  0.4612
 3956SOL    HW123501   1.955   2.192   5.153 -0.4801 -0.0718 -0.9022
 3956SOL    HW223502   1.820   2.179   5.098 -0.2745 -3.3181  0.5619
 3957SOL     OW23503   0.649   0.630   7.779  0.5864 -0.3542  0.2815
 3957SOL    HW123504   0.641   0.616   7.684  0.3175  1.2138  0.0620
 3957SOL    HW223505   0.560   0.609   7.806  0.2657  1.5088  0.6973
 3958SOL     OW23506   3.917   3.756   1.062  0.0748 -0.4543  0.0299
 3958SOL    HW123507   3.973   3.712   0.998  1.6702  0.9183  0.5125
 3958SOL    HW223508   3.885   3.675   1.103  0.7449  0.3996  2.1809
 3959SOL     OW23509   3.535   1.167   2.834 -0.0464  0.3522 -0.5542
 3959SOL    HW123510   3.501   1.082   2.805 -0.8737  0.0382  1.3346
 3959SOL    HW223511   3.484   1.225   2.776 -0.8957 -0.2363 -0.4070
 3960SOL     OW23512   3.528   0.762   5.860 -0.4702 -0.4694  0.5180
 3960SOL    HW123513   3.471   0.761   5.937  1.0272 -1.1495  1.6290
 3960SOL    HW223514   3.612   0.790   5.897 -0.1804 -1.5948  0.7081
 3961SOL     OW23515   1.615   0.152   7.375  0.2976  0.1631 -0.6826
 3961SOL    HW123516   1.618   0.057   7.363  0.9640 -0.4067  4.2910
 3961SOL    HW223517   1.544   0.163   7.437  0.9894  0.4286  0.0596
 3962SOL     OW23518   2.573   1.791   2.339 -0.3042 -0.0670 -0.5152
 3962SOL    HW123519   2.624   1.712   2.324 -0.0704  0.3030 -1.7244
 3962SOL    HW223520   2.486   1.755   2.354  0.0789  0.0907  2.0754
 3963SOL     OW23521   1.939   0.565   1.829  0.3029 -0.3138  0.3718
 3963SOL    HW123522   2.017   0.605   1.867 -0.2496  1.9160 -0.8726
 3963SOL    HW223523   1.896   0.517   1.899 -0.0455 -2.5168 -1.3326
 3964SOL     OW23524   2.804   0.797   9.283 -0.8839 -0.0778  0.8271
 3964SOL    HW123525   2.823   0.718   9.232 -2.3841 -1.3918  2.2985
 3964SOL    HW223526   2.876   0.852   9.252 -0.7666 -1.5234 -1.3970
 3965SOL     OW23527   2.537   2.157   5.985 -0.0013  0.1303 -0.4310
 3965SOL    HW123528   2.523   2.084   5.925 -0.4360 -0.4341  0.3527
 3965SOL    HW223529   2.482   2.129   6.059 -1.5277 -1.2017 -2.0635
 3966SOL     OW23530   0.122   3.203   6.774  1.4533 -0.1166 -0.2639
 3966SOL    HW123531   0.042   3.233   6.817  0.2103 -1.6939 -1.4487
 3966SOL    HW223532   0.167   3.136   6.826 -0.0904 -1.5566 -0.7627
 3967SOL     OW23533   0.545   1.974   1.443  0.6359  0.5048 -0.7856
 3967SOL    HW123534   0.626   2.010   1.406  1.1634 -0.3765 -0.4750
 3967SOL    HW223535   0.542   1.896   1.388 -1.3999  0.0854 -0.0570
 3968SOL     OW23536   2.460   0.874   8.846  0.1244  0.2016  0.2344
 3968SOL    HW123537   2.394   0.841   8.907 -1.4757  4.4605  0.8540
 3968SOL    HW223538   2.533   0.816   8.866  1.4963  1.6637 -0.4686
 3969SOL     OW23539   1.075   4.667  12.399  0.6841 -0.3330 -0.1085
 3969SOL    HW123540   1.151   4.724  12.384  0.1790 -0.0649 -1.6661
 3969SOL    HW223541   1.026   4.732  12.448 -0.7657 -1.5770  0.0854
 3970SOL     OW23542   2.245   1.387   7.110  0.0679 -0.0966 -0.2101
 3970SOL    HW123543   2.170   1.386   7.051  1.4304  0.5981 -1.9520
 3970SOL    HW223544   2.223   1.322   7.177 -1.5622 -0.7309 -1.3710
 3971SOL     OW23545   2.485   3.915   2.048  0.4018 -0.1762 -1.1371
 3971SOL    HW123546   2.478   3.825   2.079 -0.8952  0.3064 -0.0342
 3971SOL    HW223547   2.555   3.938   2.110 -1.6139 -1.2965  1.5575
 3972SOL     OW23548   0.557   3.090   4.939 -0.0758 -0.4500  0.1429
 3972SOL    HW123549   0.535   3.083   5.032 -0.4992 -1.5631 -0.0386
 3972SOL    HW223550   0.553   3.180   4.906 -1.6184 -0.1962  1.0266
 3973SOL     OW23551   1.554   3.525   4.199 -0.3200  0.0007  0.0028
 3973SOL    HW123552   1.459   3.521   4.191 -0.5125  0.7140  1.8811
 3973SOL    HW223553   1.574   3.617   4.217 -1.6973  0.4795 -0.8823
 3974SOL     OW23554   0.464   1.419   4.998  0.2438  0.2149 -0.2266
 3974SOL    HW123555   0.502   1.504   4.979 -0.0863  0.1177 -1.3612
 3974SOL    HW223556   0.444   1.430   5.091  1.3224  1.9495 -0.1934
 3975SOL     OW23557   3.008   2.119   7.300 -0.0502  0.3064 -0.1571
 3975SOL    HW123558   3.002   2.132   7.206 -2.0979  1.6700  0.1704
 3975SOL    HW223559   3.022   2.207   7.333  1.1308  0.0064  0.1480
 3976SOL     OW23560   4.159   1.440   4.214 -1.0087  0.4084  0.0444
 3976SOL    HW123561   4.188   1.530   4.198  1.7941 -0.5516 -0.2647
 3976SOL    HW223562   4.068   1.455   4.240 -1.3028 -0.8507 -0.2543
 3977SOL     OW23563   2.862   4.473  10.438  0.1529 -0.0477 -0.1484
 3977SOL    HW123564   2.889   4.481  10.529 -1.1660 -0.8981  0.3335
 3977SOL    HW223565   2.815   4.392  10.458  1.5712 -0.8729 -0.1541
 3978SOL     OW23566   3.463   2.215   1.191  0.7997 -0.0944  0.2216
 3978SOL    HW123567   3.522   2.205   1.116 -0.5614  2.3839 -1.1676
 3978SOL    HW223568   3.541   2.215   1.246 -0.9315 -0.9643  2.6392
 3979SOL     OW23569   4.524   3.919  11.802  0.7455 -0.4360 -0.2423
 3979SOL    HW123570   4.433   3.890  11.805  0.6023  0.0925  0.5132
 3979SOL    HW223571   4.513   4.003  11.847 -1.4369 -0.9124  0.0988
 3980SOL     OW23572   1.674   2.815   5.100  0.9601  0.5448  0.6931
 3980SOL    HW123573   1.701   2.845   5.187 -0.3876  2.2465  0.5187
 3980SOL    HW223574   1.746   2.840   5.041 -0.5245 -1.4414 -1.9236
 3981SOL     OW23575   0.690   3.802   6.099 -0.4422  0.4634  0.0689
 3981SOL    HW123576   0.672   3.832   6.188  0.9263 -2.1248  1.1976
 3981SOL    HW223577   0.730   3.718   6.121 -0.5436  0.4619  0.2521
 3982SOL     OW23578   1.311   0.045  12.704  0.1913 -0.3839  0.2716
 3982SOL    HW123579   1.320   0.032  12.609 -0.1242 -2.3446  0.4976
 3982SOL    HW223580   1.227   0.091  12.703  0.3095 -0.1804 -0.1626
 3983SOL     OW23581   0.316   1.334   6.522 -0.2359  0.0495 -0.0189
 3983SOL    HW123582   0.330   1.241   6.536 -0.2146 -0.5791 -4.0722
 3983SOL    HW223583   0.375   1.364   6.591 -3.3086  1.2380  2.0813
 3984SOL     OW23584   0.584   3.326  10.812  0.7656  0.3055 -0.2995
 3984SOL    HW123585   0.665   3.275  10.817 -0.8205 -1.9738  2.2184
 3984SOL    HW223586   0.525   3.262  10.772 -0.9327  2.2339 -0.8593
 3985SOL     OW23587   1.298   4.418  13.055  0.0753 -0.1258  0.4188
 3985SOL    HW123588   1.374   4.472  13.032 -0.2515  0.4895  0.7857
 3985SOL    HW223589   1.232   4.487  13.064  0.2650 -0.1191  1.7584
 3986SOL     OW23590   0.021   2.370   2.712  0.3264  0.1419  0.4403
 3986SOL    HW123591   0.034   2.283   2.749 -0.1321 -0.8707 -1.7609
 3986SOL    HW223592   0.099   2.416   2.743  1.1846 -1.0997  0.1184
 3987SOL     OW23593   0.736   4.292   6.868 -0.5173 -0.1071  0.0585
 3987SOL    HW123594   0.804   4.261   6.927  0.2487  1.0694 -0.1893
 3987SOL    HW223595   0.655   4.261   6.908  0.1296 -1.4251  0.3222
 3988SOL     OW23596   2.369   1.783   4.221 -0.3436 -0.4491 -0.0945
 3988SOL    HW123597   2.306   1.748   4.284  0.4505 -1.2503  0.2534
 3988SOL    HW223598   2.440   1.804   4.283  1.6430 -3.0006 -1.5167
 3989SOL     OW23599   0.981   4.418  12.364  0.0504 -0.7185 -0.3673
 3989SOL    HW123600   1.019   4.505  12.351 -1.6369 -0.1907 -1.6947
 3989SOL    HW223601   1.019   4.404  12.451  0.9930  1.0994 -0.4702
 3990SOL     OW23602   0.857   2.203  10.408 -0.4829  0.5841  0.1758
 3990SOL    HW123603   0.894   2.186  10.494  1.9853 -0.4549 -1.0665
 3990SOL    HW223604   0.782   2.144  10.419 -0.5820  0.3472 -1.6224
 3991SOL     OW23605   1.241   0.897   1.537  0.4214  0.5399 -0.4488
 3991SOL    HW123606   1.318   0.847   1.563  0.5998  0.0397 -1.9067
 3991SOL    HW223607   1.262   0.918   1.446 -3.1282  0.4234 -1.3030
 3992SOL     OW23608   4.632   1.008   4.765 -0.4386 -0.0299  0.6366
 3992SOL    HW123609   4.560   1.007   4.702 -0.6278  1.4994  0.8208
 3992SOL    HW223610   4.695   1.052   4.707 -2.1791 -0.0083 -1.2343
 3993SOL     OW23611   3.572   2.835  11.257 -0.4031 -0.5679 -0.1926
 3993SOL    HW123612   3.525   2.789  11.327  1.6559  0.8924  2.1769
 3993SOL    HW223613   3.534   2.788  11.184 -1.6140 -1.3810  0.9703
 3994SOL     OW23614   0.736   4.157   2.666  0.9998  0.3232  0.6002
 3994SOL    HW123615   0.644   4.144   2.644  1.7158 -0.2179 -2.1712
 3994SOL    HW223616   0.760   4.066   2.681 -1.0136 -0.2807  0.0870
 3995SOL     OW23617   0.386   4.001   5.749  0.5441 -0.2348  0.2957
 3995SOL    HW123618   0.320   4.067   5.769  0.5944 -0.0682 -0.0815
 3995SOL    HW223619   0.434   3.980   5.830 -0.4488 -0.7258  0.7523
 3996SOL     OW23620   1.378   0.351   5.529 -0.4152 -0.9934  0.1362
 3996SOL    HW123621   1.357   0.443   5.509  1.7612 -0.7254 -0.8870
 3996SOL    HW223622   1.303   0.292   5.527 -0.3636 -0.9457 -2.4522
 3997SOL     OW23623   3.002   2.414  13.689  0.2516 -0.6892 -0.1717
 3997SOL    HW123624   2.924   2.376  13.649  0.6792 -2.3962  0.5851
 3997SOL    HW223625   3.063   2.423  13.616  0.7301 -1.3842  0.1393
 3998SOL     OW23626   1.700   3.131   5.729  0.2149 -0.5031 -0.2578
 3998SOL    HW123627   1.636   3.070   5.693 -1.2531  2.2897 -2.3426
 3998SOL    HW223628   1.778   3.078   5.713  1.2781  0.2570  2.2734
 3999SOL     OW23629   1.035   4.435  16.918 -0.3628 -0.6837  0.2805
 3999SOL    HW123630   0.959   4.472  16.964  0.7888 -1.2933  2.6957
 3999SOL    HW223631   1.089   4.406  16.991  1.4354 -0.5203 -1.0017
 4000SOL     OW23632   0.394   1.080  14.457  0.0698  0.2564  0.0266
 4000SOL    HW123633   0.322   1.075  14.520 -1.0025  2.6239 -0.9943
 4000SOL    HW223634   0.469   1.031  14.492 -1.3609 -0.2808  2.3433
 4001SOL     OW23635   3.201   1.835   1.277 -0.5590  0.4411 -0.3147
 4001SOL    HW123636   3.209   1.844   1.182  2.1347  1.2456 -0.0343
 4001SOL    HW223637   3.285   1.790   1.289 -0.9899 -0.0351  0.8774
 4002SOL     OW23638   3.348   1.628   5.828  0.3808 -0.9191 -0.0537
 4002SOL    HW123639   3.361   1.723   5.824  0.8897 -0.9186  2.0229
 4002SOL    HW223640   3.337   1.622   5.923 -2.3141 -0.7741 -0.3689
 4003SOL     OW23641   2.458   1.966   5.812 -0.5260  0.2261  0.1206
 4003SOL    HW123642   2.392   2.018   5.767 -2.0908  0.6677  2.8970
 4003SOL    HW223643   2.452   1.880   5.771  1.0204  0.7337 -1.1640
 4004SOL     OW23644   3.306   2.536   8.301  0.5729 -0.0567 -0.4488
 4004SOL    HW123645   3.351   2.454   8.321  1.7959  0.4336 -1.2077
 4004SOL    HW223646   3.360   2.560   8.226  0.3984 -2.0718 -1.1900
 4005SOL     OW23647   1.099   1.321   3.365  0.6168  0.0844 -0.4472
 4005SOL    HW123648   1.132   1.302   3.452 -0.6511  0.3893  0.1011
 4005SOL    HW223649   1.124   1.241   3.318  0.8763 -0.3727  0.4692
 4006SOL     OW23650   2.260   3.198   0.145 -0.3603  0.3059  0.2344
 4006SOL    HW123651   2.217   3.121   0.182 -1.6595  0.1185 -1.6697
 4006SOL    HW223652   2.224   3.259   0.210 -2.3541  0.5440 -1.1251
 4007SOL     OW23653   1.094   0.600   9.036 -0.1756 -0.6436  0.3743
 4007SOL    HW123654   1.077   0.506   9.029 -1.3624 -0.5370  1.8431
 4007SOL    HW223655   1.006   0.636   9.025  0.1918 -0.1064 -0.7794
 4008SOL     OW23656   2.880   2.776  13.138 -0.7994  0.1169 -0.4625
 4008SOL    HW123657   2.837   2.739  13.215 -2.3646  0.4061 -1.1982
 4008SOL    HW223658   2.838   2.859  13.115 -0.5399  0.8221  1.5999
 4009SOL     OW23659   0.905   1.247   4.188 -0.0383  0.5393 -0.5226
 4009SOL    HW123660   0.932   1.228   4.098  0.0886 -2.2942  0.0999
 4009SOL    HW223661   0.849   1.322   4.171  0.4712  1.3507  1.3345
 4010SOL     OW23662   3.887   0.653   3.228  0.1362 -0.5318  0.2567
 4010SOL    HW123663   3.949   0.659   3.155  0.9507  3.1787  1.2759
 4010SOL    HW223664   3.876   0.744   3.255 -1.3163 -0.9455  1.0367
 4011SOL     OW23665   4.404   0.842   7.175 -0.0219  0.3239  0.4549
 4011SOL    HW123666   4.409   0.834   7.080  1.4678  1.4392  0.4371
 4011SOL    HW223667   4.461   0.770   7.203 -0.4414  0.2435  1.1094
 4012SOL     OW23668   3.254   4.096   3.147  0.1453 -0.0070 -0.5991
 4012SOL    HW123669   3.199   4.174   3.141  2.1950  1.5598  0.9055
 4012SOL    HW223670   3.298   4.091   3.062  1.5616 -2.6961  0.2946
 4013SOL     OW23671   4.133   3.860   4.503  0.2389 -0.5515  0.4527
 4013SOL    HW123672   4.047   3.898   4.520  0.8525  2.6668 -3.5624
 4013SOL    HW223673   4.165   3.853   4.593  2.0222  1.2546 -0.0356
 4014SOL     OW23674   1.372   3.451   7.904  0.4287  0.1563 -0.2584
 4014SOL    HW123675   1.451   3.452   7.849  1.7730 -0.1017  1.6798
 4014SOL    HW223676   1.387   3.521   7.968 -1.9128  1.0482 -0.7034
 4015SOL     OW23677   2.621   0.913   4.477 -0.0232 -0.3188 -0.1911
 4015SOL    HW123678   2.684   0.896   4.407  0.0578 -0.6927 -0.0294
 4015SOL    HW223679   2.621   1.009   4.475 -0.1677 -0.3568 -1.9562
 4016SOL     OW23680   3.516   2.335   4.653 -0.5133 -0.9791 -0.3877
 4016SOL    HW123681   3.572   2.372   4.722 -0.8680  2.1127 -1.7895
 4016SOL    HW223682   3.581   2.309   4.587 -0.6111  3.5061 -2.2691
 4017SOL     OW23683   3.362   2.314   3.084  0.0373  0.1066  0.3185
 4017SOL    HW123684   3.300   2.265   3.138  0.0459 -2.0504 -1.6012
 4017SOL    HW223685   3.348   2.406   3.107 -0.2043  0.4391 -1.1078
 4018SOL     OW23686   0.115   1.009   3.945 -0.6749 -0.1362  0.0887
 4018SOL    HW123687   0.191   0.972   3.989 -0.7991  0.0128  0.4265
 4018SOL    HW223688   0.154   1.014   3.857  0.8060  2.0181  0.8568
 4019SOL     OW23689   1.577   0.075  10.659 -0.4889 -0.2640  0.2475
 4019SOL    HW123690   1.614   0.122  10.584  0.3967 -1.8827 -0.3299
 4019SOL    HW223691   1.564   0.142  10.726  0.6429  0.9985 -0.7989
 4020SOL     OW23692   4.450   0.641   0.375  0.4255 -0.4070  0.7628
 4020SOL    HW123693   4.441   0.630   0.470 -1.2163  1.7239  0.8483
 4020SOL    HW223694   4.382   0.587   0.333  0.8523  1.3351 -2.1619
 4021SOL     OW23695   1.994   0.886   4.367 -0.1443  0.7092  0.1576
 4021SOL    HW123696   1.951   0.802   4.353  1.6761 -0.2893  0.6808
 4021SOL    HW223697   2.084   0.875   4.336 -0.1109  0.2766  0.4148
 4022SOL     OW23698   1.853   0.555   7.484  0.1180 -0.2943  0.0993
 4022SOL    HW123699   1.887   0.582   7.399 -2.2940  2.7439  0.0797
 4022SOL    HW223700   1.786   0.621   7.502 -0.4895 -1.3325  1.6325
 4023SOL     OW23701   0.133   1.898   2.948 -0.1427 -0.1392  0.3217
 4023SOL    HW123702   0.144   1.814   2.903 -0.8165 -0.6644  1.1505
 4023SOL    HW223703   0.105   1.952   2.875  0.8984 -0.2367 -0.1476
 4024SOL     OW23704   0.198   4.457   0.763  0.5685 -0.2394  0.8156
 4024SOL    HW123705   0.246   4.445   0.845  1.9292 -1.6657 -0.1678
 4024SOL    HW223706   0.183   4.551   0.753 -3.1352 -0.9688 -0.6037
 4025SOL     OW23707   3.439   3.995   3.990 -0.0670  0.4276 -0.2406
 4025SOL    HW123708   3.434   4.079   3.944 -1.1400  0.2994 -0.3721
 4025SOL    HW223709   3.503   4.011   4.060 -0.0305 -1.7539  0.2142
 4026SOL     OW23710   3.724   3.171  15.219  0.2325 -0.0584 -0.3531
 4026SOL    HW123711   3.717   3.228  15.295 -0.5646 -0.9578  0.2593
 4026SOL    HW223712   3.810   3.198  15.187  0.2386 -0.6228 -0.8055
 4027SOL     OW23713   4.492   4.641   6.920 -0.2919 -0.0587 -0.9099
 4027SOL    HW123714   4.415   4.692   6.895 -1.2189 -0.3814  1.2510
 4027SOL    HW223715   4.516   4.593   6.841  0.1429  0.9518 -1.3859
 4028SOL     OW23716   2.537   2.348   7.308 -0.0057 -0.1647  0.4127
 4028SOL    HW123717   2.624   2.383   7.326  0.1976 -1.2584  1.5388
 4028SOL    HW223718   2.518   2.306   7.392 -1.1110  0.3998  0.4538
 4029SOL     OW23719   4.696   1.258   7.721  0.1710  0.1180 -0.5425
 4029SOL    HW123720   0.050   1.269   7.692  0.0072 -0.9524 -1.4285
 4029SOL    HW223721   4.667   1.349   7.723 -0.7203 -0.1853  0.3659
 4030SOL     OW23722   4.384   1.421  17.471 -0.1992 -0.2251  0.1851
 4030SOL    HW123723   4.310   1.462  17.516  0.9158 -0.4248  2.2004
 4030SOL    HW223724   4.430   1.394  17.550 -1.3264  0.4612  1.0818
 4031SOL     OW23725   1.268   1.653   4.494 -0.0806 -0.4012 -0.2769
 4031SOL    HW123726   1.205   1.624   4.560  0.5941 -0.5399  0.3016
 4031SOL    HW223727   1.208   1.671   4.422 -0.9143  1.4151  0.8890
 4032SOL     OW23728   2.303   2.058   2.214 -0.7753  0.2647  0.2417
 4032SOL    HW123729   2.271   2.115   2.144  0.7125  3.0578  1.8408
 4032SOL    HW223730   2.221   2.039   2.261  0.1118 -0.1812  1.6070
 4033SOL     OW23731   4.677   3.081   1.714  0.0352  0.0443  0.3983
 4033SOL    HW123732   4.654   2.988   1.721 -1.4545  0.5875  2.6021
 4033SOL    HW223733   4.678   3.103   1.807 -0.9735  0.0351  0.4106
 4034SOL     OW23734   0.625   3.504   2.753 -0.0171  0.5152 -0.2393
 4034SOL    HW123735   0.624   3.595   2.724  0.5971  0.3233 -0.8658
 4034SOL    HW223736   0.541   3.500   2.798  0.5673 -3.1181  0.4762
 4035SOL     OW23737   1.930   0.999  12.417 -0.2570 -0.4288 -0.2574
 4035SOL    HW123738   1.849   1.031  12.457  0.7377  1.9171 -0.1245
 4035SOL    HW223739   1.980   1.079  12.405 -2.1582  0.8977  0.6340
 4036SOL     OW23740   4.209   4.403  11.007 -0.0317  0.1376  0.3664
 4036SOL    HW123741   4.138   4.355  11.049 -0.1669 -0.6607 -0.7860
 4036SOL    HW223742   4.165   4.434  10.928 -0.8521 -1.5616  0.1713
 4037SOL     OW23743   4.345   0.744   4.660  0.2590  0.0654  0.3757
 4037SOL    HW123744   4.427   0.747   4.709 -0.4409  1.1544  1.4986
 4037SOL    HW223745   4.294   0.697   4.726 -3.1250 -0.1103 -2.3871
 4038SOL     OW23746   4.016   1.683   7.247  0.1167  0.2711 -0.1238
 4038SOL    HW123747   4.040   1.595   7.217 -2.6547 -0.3792 -0.4479
 4038SOL    HW223748   4.092   1.712   7.297 -0.9257 -1.1672  2.3064
 4039SOL     OW23749   3.341   2.784   2.160  0.3329  0.1254 -0.0837
 4039SOL    HW123750   3.314   2.746   2.077  2.8355 -1.3740 -0.2013
 4039SOL    HW223751   3.407   2.851   2.138 -1.0643  0.9221 -1.8081
 4040SOL     OW23752   0.937   0.232  16.962 -0.1272  0.1735  0.0908
 4040SOL    HW123753   0.878   0.256  17.034  1.8706 -0.7647  2.0648
 4040SOL    HW223754   0.868   0.196  16.907  0.1027 -0.4191  0.1930
 4041SOL     OW23755   3.847   1.305   1.289  0.1415  0.0122  0.1355
 4041SOL    HW123756   3.775   1.286   1.349  1.5181 -0.3338  1.6938
 4041SOL    HW223757   3.920   1.304   1.351 -0.0930 -0.1331  0.4110
 4042SOL     OW23758   1.516   1.115  14.813  0.4793 -0.1540 -0.4532
 4042SOL    HW123759   1.459   1.132  14.738 -1.7142 -1.5110  0.8768
 4042SOL    HW223760   1.537   1.022  14.804  0.0068 -0.0759 -2.3969
 4043SOL     OW23761   2.735   1.476   2.952 -0.5290 -0.2841 -0.1399
 4043SOL    HW123762   2.821   1.517   2.963 -0.2853 -0.6708 -0.5776
 4043SOL    HW223763   2.683   1.521   3.018 -0.3136  2.4963 -1.8826
 4044SOL     OW23764   0.601   0.852   8.501 -0.0336  0.1121 -0.6742
 4044SOL    HW123765   0.614   0.931   8.553 -0.4531  0.0566 -0.4888
 4044SOL    HW223766   0.684   0.813   8.526  0.5502  2.4757  1.0668
 4045SOL     OW23767   3.752   0.759   8.536 -0.1460  0.0971  0.5069
 4045SOL    HW123768   3.787   0.707   8.464  0.2799  1.1988 -0.0843
 4045SOL    HW223769   3.788   0.715   8.613 -1.2923 -2.3602 -0.3634
 4046SOL     OW23770   3.632   0.865   8.041 -0.0150 -0.2582 -0.2021
 4046SOL    HW123771   3.648   0.880   7.948 -1.8330 -0.6359 -0.5810
 4046SOL    HW223772   3.687   0.934   8.076 -0.3237  0.3720 -0.9739
 4047SOL     OW23773   1.173   2.939   4.652 -0.2215 -0.2168  0.4170
 4047SOL    HW123774   1.173   2.997   4.728  1.1186  0.8287 -0.3934
 4047SOL    HW223775   1.109   2.985   4.598 -0.0616 -2.4114 -1.6792
 4048SOL     OW23776   4.296   4.260   6.174  0.3414  0.0232 -0.0177
 4048SOL    HW123777   4.278   4.167   6.165 -4.3740  0.5239  4.1630
 4048SOL    HW223778   4.383   4.263   6.213  0.1327 -1.5986  0.5478
 4049SOL     OW23779   2.027   3.970   5.604 -0.4754 -0.2812  0.2131
 4049SOL    HW123780   2.068   3.889   5.634  1.0216  0.2247 -0.5050
 4049SOL    HW223781   2.036   4.026   5.680  0.0633  3.0103 -2.2567
 4050SOL     OW23782   3.757   2.955   5.216  0.5887 -0.7786 -0.0187
 4050SOL    HW123783   3.739   2.939   5.309 -0.7859 -0.2102 -0.1832
 4050SOL    HW223784   3.681   2.907   5.182  0.0082 -1.5977  2.3853
 4051SOL     OW23785   2.154   0.357   9.203 -0.4248 -0.5446  0.1477
 4051SOL    HW123786   2.152   0.314   9.117  0.1115  0.2852 -0.2769
 4051SOL    HW223787   2.061   0.348   9.225 -0.7610  0.0263 -1.0268
 4052SOL     OW23788   3.832   2.124  16.372 -0.2379  0.2412 -0.0181
 4052SOL    HW123789   3.898   2.058  16.352 -0.4130 -1.4964  5.1048
 4052SOL    HW223790   3.747   2.082  16.359  1.3235 -2.5954 -0.9785
 4053SOL     OW23791   4.645   0.123   7.572 -0.1201  0.7039  0.2372
 4053SOL    HW123792   4.719   0.181   7.555  0.7697 -0.8937 -1.3701
 4053SOL    HW223793   4.593   0.180   7.629  0.7344  0.5420  1.1846
 4054SOL     OW23794   1.440   1.620  14.381 -0.6682 -0.0380  0.0334
 4054SOL    HW123795   1.486   1.600  14.300 -1.4469 -3.2659  0.3982
 4054SOL    HW223796   1.375   1.550  14.382 -0.6853 -0.0391 -1.9087
 4055SOL     OW23797   3.361   0.694   4.952  0.7505 -0.5151  0.4966
 4055SOL    HW123798   3.372   0.619   5.009  0.0887 -0.9588  0.0423
 4055SOL    HW223799   3.270   0.715   4.972  0.3810 -1.5120 -0.1676
 4056SOL     OW23800   3.070   2.707   0.149  0.0409 -0.2601 -0.1304
 4056SOL    HW123801   3.044   2.735   0.237  1.2385 -0.9882  0.4571
 4056SOL    HW223802   3.100   2.790   0.112 -0.0059  0.5103  1.5579
 4057SOL     OW23803   2.375   1.864   8.309  0.2698  0.0314 -0.3214
 4057SOL    HW123804   2.409   1.904   8.389  1.2930  0.3332 -0.9069
 4057SOL    HW223805   2.281   1.855   8.324  0.5675  0.7981  2.0524
 4058SOL     OW23806   3.668   3.982   4.224  0.0752 -0.7484 -0.3483
 4058SOL    HW123807   3.750   3.997   4.178  0.5351 -2.4791 -0.0986
 4058SOL    HW223808   3.659   3.889   4.246 -0.2067 -0.6914 -0.2141
 4059SOL     OW23809   2.835   3.655   6.534  0.6919  0.0755 -0.3730
 4059SOL    HW123810   2.929   3.668   6.542  0.6092 -0.3518  1.2709
 4059SOL    HW223811   2.790   3.725   6.582 -0.0351 -0.3098 -0.4780
 4060SOL     OW23812   4.542   3.286   1.905  0.4016 -0.2354  0.1061
 4060SOL    HW123813   4.510   3.337   1.830  0.3867 -1.6751 -0.8656
 4060SOL    HW223814   4.461   3.241   1.928  0.3298 -0.2159 -0.1095
 4061SOL     OW23815   0.869   3.402   0.891 -0.3239  0.3015  0.3753
 4061SOL    HW123816   0.815   3.443   0.823 -0.4476  1.2897  1.0783
 4061SOL    HW223817   0.914   3.329   0.849 -1.7469 -0.7227  0.5915
 4062SOL     OW23818   0.676   4.214  13.173  0.6527  0.5426 -0.0858
 4062SOL    HW123819   0.680   4.161  13.093  1.9147 -0.2720  0.5079
 4062SOL    HW223820   0.751   4.273  13.170 -0.7207  2.2576 -0.5410
 4063SOL     OW23821   2.697   4.457   4.745 -0.0652  0.1028 -0.4331
 4063SOL    HW123822   2.789   4.468   4.721 -0.2804  0.2407 -1.2023
 4063SOL    HW223823   2.702   4.446   4.840 -0.2538  2.1943 -0.1791
 4064SOL     OW23824   2.817   2.302   1.255 -0.3679 -0.4917 -0.0032
 4064SOL    HW123825   2.869   2.270   1.329 -2.0482  0.0765  1.4275
 4064SOL    HW223826   2.823   2.226   1.197  1.2269  1.1539 -1.9797
 4065SOL     OW23827   4.121   0.748  12.498  0.8102  0.5121 -0.4035
 4065SOL    HW123828   4.205   0.787  12.521  1.0087  0.1380 -0.5069
 4065SOL    HW223829   4.078   0.825  12.460 -0.3051  0.7728  1.3718
 4066SOL     OW23830   0.845   3.534   6.989  0.5378  0.1499 -0.0109
 4066SOL    HW123831   0.923   3.510   7.038 -0.4573 -1.4250  0.7846
 4066SOL    HW223832   0.829   3.628   6.999  0.7075  0.0316  1.3795
 4067SOL     OW23833   1.649   3.433   6.740 -0.5812 -0.4319 -0.3498
 4067SOL    HW123834   1.643   3.375   6.664  0.6636 -1.5761  0.4401
 4067SOL    HW223835   1.567   3.480   6.720 -0.5042 -0.0016  0.3763
 4068SOL     OW23836   0.295   0.960  10.183  0.3955 -0.1021  0.1896
 4068SOL    HW123837   0.282   0.877  10.228 -0.3083  0.6155  1.3194
 4068SOL    HW223838   0.229   0.950  10.115 -0.0727 -1.9130  0.9186
 4069SOL     OW23839   1.557   4.321  12.893  0.3345 -0.0172  0.3965
 4069SOL    HW123840   1.568   4.403  12.940  1.4921 -0.9115  1.6756
 4069SOL    HW223841   1.545   4.358  12.805  1.7073  0.1953  0.2900
 4070SOL     OW23842   2.727   1.209   2.910 -0.0397 -0.5406 -0.3590
 4070SOL    HW123843   2.731   1.305   2.912  0.0397 -0.5306 -0.9386
 4070SOL    HW223844   2.751   1.190   3.001 -1.4823  0.4289  0.2245
 4071SOL     OW23845   3.257   3.213   4.899 -0.3262 -0.5607 -0.2423
 4071SOL    HW123846   3.291   3.144   4.841 -2.3782 -2.1616  0.4679
 4071SOL    HW223847   3.234   3.265   4.822 -0.8230  1.0387  1.0036
 4072SOL     OW23848   4.664   3.019   7.984 -0.2445  0.2374 -0.3752
 4072SOL    HW123849   4.667   2.926   7.965  1.7900  0.2001  0.1571
 4072SOL    HW223850   4.706   3.034   8.069  0.2150  2.8256 -1.0675
 4073SOL     OW23851   2.670   4.478   1.928 -0.0581  0.1020  0.0279
 4073SOL    HW123852   2.586   4.510   1.960  0.0169  1.1862 -0.8245
 4073SOL    HW223853   2.691   4.534   1.853  0.3688 -1.0087 -0.6787
 4074SOL     OW23854   3.976   3.083   5.112 -0.2987 -0.2343 -0.0123
 4074SOL    HW123855   3.908   3.024   5.144 -0.8279  1.6390  2.2974
 4074SOL    HW223856   3.972   3.061   5.019  2.4273 -1.1351  0.0739
 4075SOL     OW23857   2.276   3.331  14.268 -0.0672  0.0520 -0.0965
 4075SOL    HW123858   2.209   3.296  14.327 -0.1355  1.2637  0.5312
 4075SOL    HW223859   2.323   3.390  14.327  1.0266  0.8156 -1.7529
 4076SOL     OW23860   1.751   2.350   7.625  0.0876  0.0319 -0.4904
 4076SOL    HW123861   1.796   2.396   7.696  0.5588 -1.2816  0.0596
 4076SOL    HW223862   1.678   2.310   7.673 -0.2793  1.1798 -0.1017
 4077SOL     OW23863   2.025   2.280   2.311 -0.3898 -0.1400  0.2010
 4077SOL    HW123864   2.085   2.327   2.254  0.9901 -2.0172  0.1213
 4077SOL    HW223865   2.047   2.336   2.385 -0.2690  1.9593 -1.4212
 4078SOL     OW23866   1.515   4.580   9.082 -0.4352  0.1033  0.6266
 4078SOL    HW123867   1.554   4.642   9.144 -1.0835  1.4906 -0.3507
 4078SOL    HW223868   1.597   4.574   9.033 -0.1628  0.0903  1.0758
 4079SOL     OW23869   1.818   0.946   4.949 -0.5033  0.4767 -0.0266
 4079SOL    HW123870   1.875   0.991   4.888  1.0205 -0.4121  0.7460
 4079SOL    HW223871   1.813   1.016   5.015 -2.8211  1.2061 -0.9418
 4080SOL     OW23872   1.574   3.210  13.219 -0.2085  0.0334 -0.1446
 4080SOL    HW123873   1.634   3.215  13.294 -1.4263  1.2564  0.7468
 4080SOL    HW223874   1.611   3.285  13.172  0.5846  0.5637  1.3076
 4081SOL     OW23875   2.589   3.041   5.475 -0.3444  0.0099 -0.4987
 4081SOL    HW123876   2.641   3.033   5.395  2.1083  2.6185  0.8386
 4081SOL    HW223877   2.524   2.971   5.470 -1.0179  0.5981  0.1103
 4082SOL     OW23878   1.368   1.553   5.341  0.6900  0.2946 -0.1120
 4082SOL    HW123879   1.354   1.459   5.353  0.6061  0.1846 -1.1492
 4082SOL    HW223880   1.387   1.584   5.430  1.2551  0.0336 -0.1395
 4083SOL     OW23881   1.822   1.990   8.935 -0.0804 -0.3907 -0.0999
 4083SOL    HW123882   1.778   1.933   8.998  3.3562  0.5650  3.1925
 4083SOL    HW223883   1.756   2.025   8.875  0.5606 -2.0481 -1.7633
 4084SOL     OW23884   4.077   0.598   1.174  0.0901 -0.2666 -0.3127
 4084SOL    HW123885   4.077   0.535   1.246  0.7933 -0.7806 -0.7547
 4084SOL    HW223886   4.104   0.546   1.098  2.4366 -0.0695  0.4072
 4085SOL     OW23887   3.985   1.181   8.641  0.4201  0.0221  0.5248
 4085SOL    HW123888   3.907   1.126   8.652 -0.4299  1.2877  0.8136
 4085SOL    HW223889   3.989   1.239   8.717  1.4776  1.0079 -0.2856
 4086SOL     OW23890   1.444   0.812   8.620  0.0940 -0.3361 -0.0411
 4086SOL    HW123891   1.395   0.746   8.570  2.1202 -0.9612 -1.1693
 4086SOL    HW223892   1.392   0.892   8.611 -2.1379 -1.6965  0.5283
 4087SOL     OW23893   1.219   1.840  13.905 -0.1862 -0.3295  0.7714
 4087SOL    HW123894   1.194   1.927  13.874  0.7044  0.2982  1.8017
 4087SOL    HW223895   1.138   1.790  13.904 -1.7211  2.1406  1.6703
 4088SOL     OW23896   4.374   3.431   9.362  0.0835 -0.1113  0.3717
 4088SOL    HW123897   4.288   3.450   9.326  0.4309  2.3219  0.8263
 4088SOL    HW223898   4.432   3.467   9.294  0.1335 -1.3913 -0.2796
 4089SOL     OW23899   0.613   4.507   9.452 -0.7768 -0.6209 -0.4831
 4089SOL    HW123900   0.531   4.473   9.417 -2.0647  2.0367 -0.0876
 4089SOL    HW223901   0.670   4.434   9.428  2.6863  1.6121  0.9205
 4090SOL     OW23902   3.807   4.200   0.323  0.3558 -0.9415  0.2789
 4090SOL    HW123903   3.738   4.265   0.333  1.3066  0.2202 -0.7711
 4090SOL    HW223904   3.861   4.248   0.261 -0.1728 -1.2498 -0.4153
 4091SOL     OW23905   0.200   3.086  14.478  0.4981  0.2896  0.5266
 4091SOL    HW123906   0.222   3.170  14.438 -0.0981 -0.2298 -0.8950
 4091SOL    HW223907   0.284   3.062  14.519  0.3015 -0.5038  0.4603
 4092SOL     OW23908   0.451   4.650   7.842  0.4437 -0.3444 -0.1363
 4092SOL    HW123909   0.375   4.632   7.897  3.0738 -2.7497  2.7661
 4092SOL    HW223910   0.403   4.694   7.772 -0.0116  0.4736  0.6851
 4093SOL     OW23911   1.183   0.860   8.887  1.1398  0.3222 -0.7165
 4093SOL    HW123912   1.096   0.856   8.847  0.8671  0.0251 -0.0917
 4093SOL    HW223913   1.192   0.765   8.887 -0.2545  0.1817  0.0028
 4094SOL     OW23914   2.843   0.292  10.379 -0.0479 -0.2926  0.3929
 4094SOL    HW123915   2.922   0.250  10.414  1.7704  0.6508 -2.6378
 4094SOL    HW223916   2.779   0.223  10.363 -2.6228  1.6652  2.2309
 4095SOL     OW23917   2.359   0.127   9.647 -0.1698  0.4588 -0.3319
 4095SOL    HW123918   2.404   0.203   9.610  2.0176 -0.4170  0.5360
 4095SOL    HW223919   2.286   0.123   9.586  1.1872  2.2937 -2.0486
 4096SOL     OW23920   0.755   3.273  17.220  0.2293 -0.1833 -0.5120
 4096SOL    HW123921   0.749   3.344  17.285 -0.8072 -0.8482  0.1188
 4096SOL    HW223922   0.832   3.229  17.257 -0.1402 -0.2609  0.1682
 4097SOL     OW23923   3.477   3.020   5.392 -0.2485 -0.4033  0.0562
 4097SOL    HW123924   3.425   3.083   5.442  0.2548  0.7268 -0.8390
 4097SOL    HW223925   3.561   3.066   5.389  0.6648 -2.1333 -1.1024
 4098SOL     OW23926   2.490   1.594   2.544 -0.2016 -0.2029 -0.1021
 4098SOL    HW123927   2.438   1.613   2.466  0.0482 -1.0179 -0.4758
 4098SOL    HW223928   2.436   1.529   2.589  0.5427 -0.2074  0.7877
 4099SOL     OW23929   3.163   0.986   7.591 -1.3627  0.3678 -0.5063
 4099SOL    HW123930   3.088   0.991   7.532 -0.9330 -0.0687 -1.0851
 4099SOL    HW223931   3.232   0.958   7.532 -0.1023  3.3280 -0.4236
 4100SOL     OW23932   2.931   2.940   4.389  0.2517  1.0585  0.3983
 4100SOL    HW123933   2.889   3.012   4.436  0.3621  1.3154  0.1004
 4100SOL    HW223934   2.873   2.867   4.410 -0.4240  1.8056  1.1355
 4101SOL     OW23935   1.741   3.728   9.361  0.1891 -0.3929  0.1408
 4101SOL    HW123936   1.828   3.691   9.347  1.5628  3.4989 -1.7784
 4101SOL    HW223937   1.759   3.809   9.409  1.7425 -0.3774 -0.4782
 4102SOL     OW23938   0.322   2.001   7.279  0.3411 -0.3496 -0.0904
 4102SOL    HW123939   0.387   1.981   7.347 -0.1847 -0.3310  0.4201
 4102SOL    HW223940   0.284   1.914   7.265 -1.4068  0.5277 -0.7115
 4103SOL     OW23941   2.395   0.208  13.162 -0.2992  0.1550  0.2441
 4103SOL    HW123942   2.334   0.137  13.143 -1.6244  1.7688 -1.5505
 4103SOL    HW223943   2.389   0.213  13.257  1.0868  1.9043  0.2521
 4104SOL     OW23944   3.440   1.640   7.982  0.7573  0.6045 -0.6645
 4104SOL    HW123945   3.456   1.571   7.918 -0.1241 -2.0773  2.0388
 4104SOL    HW223946   3.445   1.590   8.064 -0.9772 -0.0691 -0.9705
 4105SOL     OW23947   2.225   2.002   0.205  0.0612  0.8708 -0.3259
 4105SOL    HW123948   2.142   1.984   0.160  0.3074  0.0481 -0.4487
 4105SOL    HW223949   2.260   1.913   0.208 -1.0822  0.3876 -1.4662
 4106SOL     OW23950   2.009   4.733   3.147 -0.2660  0.2771 -0.1086
 4106SOL    HW123951   2.092   0.038   3.122 -0.6251  1.4741  0.6978
 4106SOL    HW223952   2.003   0.046   3.229 -1.7856  1.2683 -0.8375
 4107SOL     OW23953   4.234   3.948  12.327 -0.6051  0.7039  0.5172
 4107SOL    HW123954   4.317   3.956  12.279 -0.9665  3.5311  0.3611
 4107SOL    HW223955   4.191   3.871  12.290  0.0470  1.6947 -2.2794
 4108SOL     OW23956   2.594   3.345   7.243 -0.0113  0.1579  0.3535
 4108SOL    HW123957   2.579   3.305   7.157 -1.4972  3.1423 -0.7767
 4108SOL    HW223958   2.504   3.346   7.276  0.9167  0.3175  2.8553
 4109SOL     OW23959   0.049   4.116   3.527  0.1707 -0.8411 -0.1241
 4109SOL    HW123960   4.720   4.099   3.460  0.2848  0.1833 -0.4917
 4109SOL    HW223961   0.006   4.175   3.588 -0.2984  1.1474 -2.3629
 4110SOL     OW23962   0.011   2.446   4.191  0.3288  0.1265  0.2895
 4110SOL    HW123963   0.031   2.540   4.185  0.7802 -0.0997 -1.8246
 4110SOL    HW223964   0.055   2.423   4.109 -0.1232 -1.2368  0.4307
 4111SOL     OW23965   1.645   4.614   6.312  0.8391  0.5117  0.4727
 4111SOL    HW123966   1.678   4.681   6.371 -0.4239  0.8693  0.7769
 4111SOL    HW223967   1.699   4.536   6.327 -1.7442 -1.0700  1.7040
 4112SOL     OW23968   2.970   2.197   3.182 -0.4149 -0.6354 -0.1460
 4112SOL    HW123969   3.028   2.209   3.106  0.2610  0.3485  0.5122
 4112SOL    HW223970   2.888   2.181   3.135 -0.7665 -0.9854  0.5879
 4113SOL     OW23971   3.369   2.097   2.879 -0.1644  0.0699  0.0420
 4113SOL    HW123972   3.346   2.017   2.831  1.8972 -0.7560  0.4453
 4113SOL    HW223973   3.372   2.067   2.970  2.9061  0.4962  0.0465
 4114SOL     OW23974   3.506   1.785   2.851  0.2622 -0.4797 -0.3556
 4114SOL    HW123975   3.546   1.703   2.826  0.9036 -0.8961  2.0280
 4114SOL    HW223976   3.454   1.799   2.772  0.8674 -0.9967 -0.8337
 4115SOL     OW23977   1.897   2.018   4.779  0.4492  0.6784  0.0196
 4115SOL    HW123978   1.910   1.993   4.687  0.5535  0.1775  0.1673
 4115SOL    HW223979   1.842   1.946   4.811  0.7597  0.3123 -0.2635
 4116SOL     OW23980   2.312   0.613   2.418 -0.1708 -0.3494 -0.0105
 4116SOL    HW123981   2.269   0.697   2.432 -0.5070 -0.6623  0.8956
 4116SOL    HW223982   2.238   0.560   2.389  1.1704 -0.4970 -3.0648
 4117SOL     OW23983   4.599   4.411   3.415  0.4641  0.1412  0.2341
 4117SOL    HW123984   4.577   4.400   3.508  1.4439 -0.8833  0.3345
 4117SOL    HW223985   4.634   4.328   3.385  1.7375 -0.4496  3.3489
 4118SOL     OW23986   4.647   1.834   2.242 -0.8480 -0.1627 -0.3917
 4118SOL    HW123987   4.563   1.788   2.239 -2.5474  2.9470 -0.5872
 4118SOL    HW223988   4.652   1.854   2.336  0.7518 -2.0023 -0.0957
 4119SOL     OW23989   4.600   4.359   8.720  0.6771 -0.3368 -0.6260
 4119SOL    HW123990   4.548   4.415   8.778  4.3793  2.3488  0.1191
 4119SOL    HW223991   4.643   4.302   8.784  0.8107  1.4096  0.8339
 4120SOL     OW23992   3.566   1.172  10.478  0.5393 -0.1689  0.2008
 4120SOL    HW123993   3.479   1.186  10.515  0.3855 -0.7630  0.0661
 4120SOL    HW223994   3.569   1.243  10.415  0.0082  2.5362  3.2012
 4121SOL     OW23995   3.740   4.474   4.117 -0.3526 -0.5361  0.1616
 4121SOL    HW123996   3.658   4.498   4.160 -0.5411 -1.3948  0.2854
 4121SOL    HW223997   3.794   4.483   4.196  0.8960  0.1853 -0.7716
 4122SOL     OW23998   0.744   2.197   4.306 -0.0015  0.5781  0.4205
 4122SOL    HW123999   0.829   2.241   4.306 -0.0541  0.6803 -1.7687
 4122SOL    HW224000   0.690   2.269   4.337 -3.2643 -2.0336  0.8669
 4123SOL     OW24001   1.172   0.984   2.759 -0.6577 -0.7144  0.2067
 4123SOL    HW124002   1.194   0.899   2.798  0.9749 -0.9299 -1.1866
 4123SOL    HW224003   1.222   1.042   2.816 -0.2525  0.0612 -0.9426
 4124SOL     OW24004   3.450   4.191   4.539 -0.4438 -0.0848 -0.0774
 4124SOL    HW124005   3.462   4.276   4.581 -0.5552 -0.3693  0.5255
 4124SOL    HW224006   3.365   4.204   4.497  1.0731 -0.9667 -3.4171
 4125SOL     OW24007   3.933   4.557   1.840 -0.5658 -0.2893  0.4620
 4125SOL    HW124008   3.982   4.544   1.759 -0.8427  0.7173  0.1338
 4125SOL    HW224009   3.972   4.501   1.907  0.2312 -0.8571 -0.4802
 4126SOL     OW24010   1.914   4.402   7.410  0.0074 -0.2997 -0.7764
 4126SOL    HW124011   1.951   4.486   7.436  0.0341 -0.2969 -0.8227
 4126SOL    HW224012   1.992   4.348   7.400  0.6882  0.5607 -0.0483
 4127SOL     OW24013   0.678   4.541   4.775 -0.2495 -0.6093 -0.4256
 4127SOL    HW124014   0.757   4.494   4.802 -0.2643  0.5806  1.7120
 4127SOL    HW224015   0.617   4.467   4.774  2.0816 -2.5273 -0.8077
 4128SOL     OW24016   3.095   2.036   4.310 -0.4058  0.1628  0.0774
 4128SOL    HW124017   3.011   2.020   4.352 -0.1599  1.5643  1.0919
 4128SOL    HW224018   3.150   2.069   4.381 -0.5203  0.3900  0.0617
 4129SOL     OW24019   3.381   1.392   2.736  0.5128 -0.1618 -0.0094
 4129SOL    HW124020   3.302   1.392   2.791  2.4549 -4.0263  2.7289
 4129SOL    HW224021   3.339   1.399   2.650 -0.8463  3.0747  0.8960
 4130SOL     OW24022   0.050   4.341   6.252 -1.0704 -0.1649  0.3102
 4130SOL    HW124023   0.118   4.409   6.248  0.5428 -1.8715 -1.1577
 4130SOL    HW224024   0.108   4.268   6.274 -1.2430  0.2291  2.0763
 4131SOL     OW24025   2.246   4.193   5.589  0.0022  0.0885  0.1420
 4131SOL    HW124026   2.161   4.198   5.632 -0.1980 -2.9421  0.0615
 4131SOL    HW224027   2.306   4.163   5.658 -0.5600 -0.5939  0.3388
 4132SOL     OW24028   4.243   1.920  15.845  0.2212 -0.2991 -0.5008
 4132SOL    HW124029   4.309   1.988  15.860 -0.0463 -0.1718  0.0875
 4132SOL    HW224030   4.288   1.852  15.795  0.9196  0.0166 -0.3157
 4133SOL     OW24031   0.604   1.293   1.038  0.0743 -0.1149  0.3413
 4133SOL    HW124032   0.685   1.249   1.010 -0.5533 -0.7701 -0.4419
 4133SOL    HW224033   0.542   1.236   0.993 -1.7727 -1.1549  4.1578
 4134SOL     OW24034   4.332   3.102  14.780  0.0614  0.0615  0.2640
 4134SOL    HW124035   4.370   3.185  14.809 -1.8847  0.3420  1.9660
 4134SOL    HW224036   4.411   3.058  14.748 -0.0737  0.1399 -0.1825
 4135SOL     OW24037   3.699   0.915   6.979  0.0091 -0.0194  0.2132
 4135SOL    HW124038   3.733   0.865   6.905 -0.1940 -0.0492  0.1374
 4135SOL    HW224039   3.644   0.975   6.928 -0.2760 -0.7816 -0.3787
 4136SOL     OW24040   0.691   2.814   4.445  0.1520  0.6136 -0.2555
 4136SOL    HW124041   0.745   2.833   4.522  0.8065 -0.0220 -0.5585
 4136SOL    HW224042   0.635   2.890   4.430 -1.9659 -1.1968 -1.5119
 4137SOL     OW24043   3.518   1.558   3.439  0.2761  0.2117  0.2257
 4137SOL    HW124044   3.505   1.526   3.529 -1.6682 -1.1574 -0.5298
 4137SOL    HW224045   3.514   1.478   3.387 -0.2032  1.1477 -1.1901
 4138SOL     OW24046   4.669   2.088   4.092 -0.1623  0.2848  0.1036
 4138SOL    HW124047   4.646   2.135   4.172 -0.5026  0.2704  0.0138
 4138SOL    HW224048   4.598   2.108   4.032 -1.5051  4.3674  3.0541
 4139SOL     OW24049   0.546   4.293   8.272  0.1209  0.3468 -0.0114
 4139SOL    HW124050   0.607   4.365   8.266 -0.7891  1.2871  2.1554
 4139SOL    HW224051   0.476   4.345   8.232 -0.6479 -0.5044  0.2269
 4140SOL     OW24052   2.068   1.645   8.600  0.2689  1.2098  0.6462
 4140SOL    HW124053   2.068   1.550   8.599  3.1850  1.2322 -0.8377
 4140SOL    HW224054   2.007   1.662   8.672  0.4474 -1.1916  1.3421
 4141SOL     OW24055   3.166   1.128   2.038 -0.2546  0.7723  0.1842
 4141SOL    HW124056   3.083   1.082   2.048  0.9716 -0.6852  3.7924
 4141SOL    HW224057   3.198   1.090   1.956 -2.0968  1.5798 -0.9123
 4142SOL     OW24058   2.783   3.882   5.595 -0.6848 -0.1360 -0.1301
 4142SOL    HW124059   2.834   3.801   5.598 -1.3047 -0.4796  1.0398
 4142SOL    HW224060   2.691   3.856   5.584 -0.8513  0.5546 -0.4333
 4143SOL     OW24061   0.342   2.561   1.537  0.2425 -0.2665  0.3198
 4143SOL    HW124062   0.261   2.530   1.498  0.9375 -0.9891 -0.5614
 4143SOL    HW224063   0.372   2.503   1.607 -0.5276 -0.7404  0.2435
 4144SOL     OW24064   0.186   3.477  11.760  0.3126  0.0734  0.0321
 4144SOL    HW124065   0.107   3.461  11.708  1.1033  1.0716 -1.4686
 4144SOL    HW224066   0.193   3.392  11.802  1.2626  0.7760  1.3098
 4145SOL     OW24067   2.309   3.980  15.553  0.7264  0.0300 -0.0828
 4145SOL    HW124068   2.355   4.063  15.564 -2.5009  1.8243 -0.4201
 4145SOL    HW224069   2.385   3.923  15.568  1.4773  1.0972  0.1851
 4146SOL     OW24070   2.018   2.096   7.379  0.7870  0.3214 -0.2117
 4146SOL    HW124071   2.010   2.065   7.289 -1.8287 -1.0004  0.4734
 4146SOL    HW224072   2.095   2.152   7.373 -0.3946  1.9691 -0.1543
 4147SOL     OW24073   0.007   0.334   5.529  0.4453 -0.9609  0.3937
 4147SOL    HW124074   0.023   0.377   5.445 -3.7750 -0.8423 -0.3211
 4147SOL    HW224075   4.666   0.376   5.563 -0.3797  0.3187 -3.0215
 4148SOL     OW24076   2.883   1.396  10.358 -0.3419 -0.6906  0.2907
 4148SOL    HW124077   2.824   1.441  10.298  1.0413 -0.1885 -0.6905
 4148SOL    HW224078   2.857   1.305  10.345  1.2493 -1.2292  0.8045
 4149SOL     OW24079   1.519   1.862  15.895 -0.0521 -0.1137 -0.1559
 4149SOL    HW124080   1.592   1.809  15.927  0.4352 -0.2031 -1.3843
 4149SOL    HW224081   1.472   1.809  15.831  0.6294 -1.3368  0.3730
 4150SOL     OW24082   0.226   0.590  13.659 -0.5688  0.4191 -0.3167
 4150SOL    HW124083   0.138   0.561  13.683  0.3883 -1.5043  0.8953
 4150SOL    HW224084   0.215   0.671  13.608 -0.8203  1.0365  0.7231
 4151SOL     OW24085   3.790   3.267  14.437 -0.5244  0.2086 -0.2562
 4151SOL    HW124086   3.845   3.191  14.457 -0.7450  0.2600  0.5398
 4151SOL    HW224087   3.745   3.287  14.519  0.4890  0.4097  0.2556
 4152SOL     OW24088   3.105   3.498  14.486 -0.5172 -0.1662  0.2796
 4152SOL    HW124089   3.118   3.438  14.560 -2.1921 -2.9241 -1.6763
 4152SOL    HW224090   3.086   3.431  14.421  1.6227 -1.2972  0.8014
 4153SOL     OW24091   3.450   2.996  10.375  0.2545  0.0390  0.1985
 4153SOL    HW124092   3.441   2.902  10.392  0.3855  0.3089  1.7375
 4153SOL    HW224093   3.430   3.036  10.460 -1.1245 -3.3068  1.4629
 4154SOL     OW24094   3.005   4.725   2.126  0.2377  0.8275 -0.6895
 4154SOL    HW124095   3.085   0.016   2.170 -0.0914  0.7028 -0.0017
 4154SOL    HW224096   2.940   0.049   2.160 -0.3777  0.3087 -0.9302
 4155SOL     OW24097   3.735   2.360  16.742  0.6906 -0.4459  0.8397
 4155SOL    HW124098   3.656   2.363  16.689  1.9052  1.4873 -0.8820
 4155SOL    HW224099   3.796   2.335  16.672  0.5588  1.5565 -0.0006
 4156SOL     OW24100   1.663   1.450  12.639 -0.2656 -0.1388 -0.3790
 4156SOL    HW124101   1.681   1.381  12.575  1.7797 -0.2691  0.3407
 4156SOL    HW224102   1.624   1.511  12.578 -0.4190 -0.7000 -0.8400
 4157SOL     OW24103   2.204   3.241   1.531 -0.7531  0.6247 -0.2283
 4157SOL    HW124104   2.299   3.238   1.518 -0.7188 -1.4504  0.4935
 4157SOL    HW224105   2.175   3.230   1.440 -0.2625 -0.7463 -0.2162
 4158SOL     OW24106   0.172   3.848   8.948  0.0644  0.5250  0.3185
 4158SOL    HW124107   0.097   3.806   8.991 -0.9556  1.0973 -0.8958
 4158SOL    HW224108   0.244   3.785   8.958 -0.0806 -0.1797 -3.0181
 4159SOL     OW24109   2.813   0.318   5.149  0.0476 -0.6931 -0.2146
 4159SOL    HW124110   2.750   0.354   5.086  0.7777  0.9685 -0.0116
 4159SOL    HW224111   2.861   0.398   5.172 -1.4749 -0.2878  1.5170
 4160SOL     OW24112   1.693   1.715  15.153 -0.1344  0.9582  0.0522
 4160SOL    HW124113   1.682   1.628  15.191  1.2198 -0.6467 -3.1933
 4160SOL    HW224114   1.625   1.720  15.086 -0.7100  2.9097  0.8114
 4161SOL     OW24115   2.847   2.368   2.899 -0.2590 -0.1958  0.0912
 4161SOL    HW124116   2.793   2.303   2.945 -1.5598  0.7474 -0.0913
 4161SOL    HW224117   2.875   2.316   2.824  2.4575  1.2108  0.1449
 4162SOL     OW24118   0.710   0.014   9.526 -0.1534  0.2104 -0.3165
 4162SOL    HW124119   0.648   0.022   9.599  0.0987 -0.0855 -0.0689
 4162SOL    HW224120   0.723   4.656   9.517  1.9383  0.4066  0.5925
 4163SOL     OW24121   1.353   0.875  14.708 -0.2028 -0.0930 -0.2449
 4163SOL    HW124122   1.374   0.814  14.778 -1.8229  0.0283  0.3292
 4163SOL    HW224123   1.267   0.904  14.738  0.0173 -0.7992  1.0756
 4164SOL     OW24124   0.320   0.906   5.678 -0.4409  0.0114 -0.1563
 4164SOL    HW124125   0.236   0.938   5.645 -0.4075  0.0994 -0.1575
 4164SOL    HW224126   0.374   0.985   5.677  1.1984 -1.0980  1.1026
 4165SOL     OW24127   1.418   1.495   1.554  0.4228  0.2617  0.8166
 4165SOL    HW124128   1.468   1.413   1.546 -0.2212 -0.0034 -0.5335
 4165SOL    HW224129   1.485   1.559   1.578 -0.2421  1.2722 -0.0401
 4166SOL     OW24130   2.330   2.824   9.507  0.3824  0.0109 -0.9919
 4166SOL    HW124131   2.326   2.846   9.414 -1.5799 -0.9692 -1.1229
 4166SOL    HW224132   2.417   2.785   9.509  0.5220  0.3519 -0.4814
 4167SOL     OW24133   2.988   1.463   7.323  0.3312 -0.1057  0.0538
 4167SOL    HW124134   3.019   1.522   7.255  0.6902 -0.6093 -0.2138
 4167SOL    HW224135   2.965   1.534   7.384  0.0580 -1.4142  1.4574
 4168SOL     OW24136   3.234   0.608   3.160  0.1263 -0.3334  0.1450
 4168SOL    HW124137   3.264   0.554   3.233  0.2666 -0.1440  0.2279
 4168SOL    HW224138   3.174   0.554   3.109  0.4072  0.1328 -0.6672
 4169SOL     OW24139   0.873   4.521   6.501  0.2695 -0.5370  0.4877
 4169SOL    HW124140   0.879   4.616   6.490  0.2863 -0.7730 -1.5255
 4169SOL    HW224141   0.798   4.496   6.447  1.0073 -0.9988 -0.3202
 4170SOL     OW24142   2.249   2.986   0.875  0.6730 -0.5332  0.2388
 4170SOL    HW124143   2.165   3.013   0.911  1.8323  1.8930  1.1435
 4170SOL    HW224144   2.306   3.043   0.926 -1.7692  3.1863 -1.2036
 4171SOL     OW24145   3.362   4.179  12.502  0.9802  0.1091  0.1490
 4171SOL    HW124146   3.376   4.199  12.595  0.6947  1.1130 -0.0325
 4171SOL    HW224147   3.279   4.226  12.492  0.0505 -1.0354  2.2736
 4172SOL     OW24148   0.021   4.701   7.769  0.3131  0.7628 -0.0386
 4172SOL    HW124149   4.683   4.733   7.819 -0.7901 -2.9396  0.6571
 4172SOL    HW224150   4.724   4.725   7.683  0.2506  0.2431 -0.1602
 4173SOL     OW24151   1.133   1.661   1.277 -0.2365  0.4827  0.2555
 4173SOL    HW124152   1.107   1.687   1.365  0.2136  2.7146 -0.2733
 4173SOL    HW224153   1.216   1.615   1.292 -0.8377 -1.3983 -2.0773
 4174SOL     OW24154   4.073   3.284  11.224  0.1233 -0.0682 -0.1602
 4174SOL    HW124155   4.112   3.208  11.266  1.5899  2.5034  3.1431
 4174SOL    HW224156   4.151   3.325  11.186  0.1619  1.4706  1.5800
 4175SOL     OW24157   0.264   1.353   2.947  0.2578  0.2566 -0.1730
 4175SOL    HW124158   0.315   1.274   2.926 -2.5715 -1.6527  0.1106
 4175SOL    HW224159   0.183   1.338   2.898  1.0693 -2.2699 -0.7476
 4176SOL     OW24160   4.096   4.323   9.511  0.1105  0.1104  0.1877
 4176SOL    HW124161   4.125   4.396   9.566 -2.1575 -0.4832  2.2030
 4176SOL    HW224162   4.080   4.262   9.584  1.4422 -0.7451 -0.2322
 4177SOL     OW24163   1.379   0.350  14.952 -0.7426 -0.3187 -0.0609
 4177SOL    HW124164   1.345   0.282  14.894 -1.6303 -0.2883  0.4154
 4177SOL    HW224165   1.470   0.321  14.943 -1.0141 -0.7833 -1.3060
 4178SOL     OW24166   1.274   2.964   2.227  0.0642  0.5389 -0.4494
 4178SOL    HW124167   1.185   2.987   2.199  0.0551  0.1362 -0.7499
 4178SOL    HW224168   1.299   3.056   2.234  1.5639  0.0990 -0.1039
 4179SOL     OW24169   3.076   1.331   4.037 -0.2217 -0.2528 -0.3308
 4179SOL    HW124170   3.096   1.420   4.065  1.5026 -1.0142  0.8458
 4179SOL    HW224171   3.115   1.282   4.110 -1.4388  1.0398  1.1971
 4180SOL     OW24172   3.719   2.594   4.233 -0.2299  0.1310 -0.6431
 4180SOL    HW124173   3.736   2.639   4.316 -1.6229 -0.4801 -0.0352
 4180SOL    HW224174   3.625   2.581   4.237  0.0182 -1.2678  0.5988
 4181SOL     OW24175   4.032   3.058   7.521  0.2428  0.5107 -0.1209
 4181SOL    HW124176   4.072   3.064   7.434  1.9281  1.6163  0.7185
 4181SOL    HW224177   4.037   3.148   7.551  0.4983  0.1604  0.9143
 4182SOL     OW24178   2.973   2.190   9.789  0.1285  0.0426 -0.1632
 4182SOL    HW124179   2.960   2.142   9.707 -1.0894  1.9279 -1.0736
 4182SOL    HW224180   3.003   2.123   9.849  1.7720 -0.0674 -1.1255
 4183SOL     OW24181   0.425   1.687   1.825 -0.0452 -0.3507  0.0673
 4183SOL    HW124182   0.333   1.666   1.836  0.3325 -1.9907  0.0847
 4183SOL    HW224183   0.462   1.676   1.913  1.1425  1.0762 -0.2546
 4184SOL     OW24184   4.559   0.765   5.744 -0.5479 -0.4521  0.4651
 4184SOL    HW124185   4.623   0.799   5.682  0.8173 -0.3199  1.9497
 4184SOL    HW224186   4.497   0.837   5.755  1.4009  1.1919  0.5341
 4185SOL     OW24187   3.454   2.610  16.570 -0.4871 -0.2347 -0.0585
 4185SOL    HW124188   3.443   2.655  16.653  1.3001  0.4033 -0.1778
 4185SOL    HW224189   3.371   2.562  16.566  1.0512 -2.7747 -1.4933
 4186SOL     OW24190   2.563   2.107  12.670 -0.6779 -0.3168  0.1819
 4186SOL    HW124191   2.527   2.041  12.729 -1.8659  0.9058  0.8165
 4186SOL    HW224192   2.617   2.046  12.619  0.2108  0.2526  0.4616
 4187SOL     OW24193   3.848   1.959   6.814 -0.0702  0.5691  0.1820
 4187SOL    HW124194   3.761   1.925   6.793  0.5759 -0.5477 -0.6923
 4187SOL    HW224195   3.850   1.955   6.910  0.3879 -0.5124  0.1246
 4188SOL     OW24196   1.870   2.886   6.995 -0.3034 -0.2184  0.3461
 4188SOL    HW124197   1.877   2.802   7.040 -0.4744 -2.2419 -3.4198
 4188SOL    HW224198   1.960   2.900   6.965 -0.4338 -0.6780 -0.2402
 4189SOL     OW24199   1.421   2.525   3.356  0.1487 -0.3573  0.0452
 4189SOL    HW124200   1.409   2.606   3.406  3.2579  0.3486 -0.2978
 4189SOL    HW224201   1.330   2.507   3.336  0.2598 -1.4698  0.5361
 4190SOL     OW24202   4.599   1.226   8.509 -0.2461 -0.5906 -0.0304
 4190SOL    HW124203   4.530   1.160   8.508 -1.5799  0.8056  1.1327
 4190SOL    HW224204   4.666   1.182   8.456  0.3656  0.5697 -0.2086
 4191SOL     OW24205   2.149   3.093  15.674 -0.3806 -0.0705  0.3666
 4191SOL    HW124206   2.098   3.042  15.737  1.5504 -0.6670  1.4609
 4191SOL    HW224207   2.234   3.076  15.714 -0.2767  0.2558  0.2860
 4192SOL     OW24208   4.598   2.288   6.472 -0.3956 -0.0958  0.0424
 4192SOL    HW124209   4.691   2.307   6.457  0.1321 -1.8560  1.0579
 4192SOL    HW224210   4.604   2.193   6.477 -1.5604 -0.1298  0.6080
 4193SOL     OW24211   2.214   2.178   6.905  0.3943 -0.0236  0.0796
 4193SOL    HW124212   2.155   2.202   6.976 -0.1849 -0.7379 -0.1748
 4193SOL    HW224213   2.256   2.108   6.955  0.3615 -0.8303 -1.0275
 4194SOL     OW24214   3.738   1.720   7.215  0.2087  0.3692  0.9800
 4194SOL    HW124215   3.729   1.782   7.288  1.5501  0.9217  0.6893
 4194SOL    HW224216   3.829   1.692   7.231 -0.0861 -0.3176  1.4516
 4195SOL     OW24217   2.103   2.677  12.630  0.2626 -0.0634  0.1326
 4195SOL    HW124218   2.134   2.646  12.716 -1.3802  1.0167  1.1274
 4195SOL    HW224219   2.151   2.625  12.566 -0.7485 -0.4040 -0.3448
 4196SOL     OW24220   2.795   0.265  14.380  0.5714 -0.2274 -0.4252
 4196SOL    HW124221   2.762   0.355  14.380  1.6561  0.1757  0.2325
 4196SOL    HW224222   2.739   0.229  14.449  2.0241 -1.1439  0.2823
 4197SOL     OW24223   0.276   1.518   7.800  0.1005 -0.3620 -0.4282
 4197SOL    HW124224   0.254   1.454   7.867 -1.2714  1.2769  0.6984
 4197SOL    HW224225   0.329   1.577   7.852 -0.6450 -0.9550  0.9865
 4198SOL     OW24226   4.373   0.504  14.895 -0.1576 -0.3028  0.0721
 4198SOL    HW124227   4.398   0.462  14.977 -2.3359 -2.4158 -0.3490
 4198SOL    HW224228   4.281   0.527  14.910  0.1191  0.9851 -0.1950
 4199SOL     OW24229   0.156   3.036   3.306  0.5523  0.0217 -0.4109
 4199SOL    HW124230   0.246   3.053   3.336  0.5027  0.0040 -0.2525
 4199SOL    HW224231   0.119   3.112   3.350  0.1001  0.6305 -1.8362
 4200SOL     OW24232   3.232   0.611   7.706  0.2278 -0.5074  0.0686
 4200SOL    HW124233   3.177   0.688   7.721  1.3794  0.2917  0.2270
 4200SOL    HW224234   3.232   0.582   7.797  2.4795  0.3199  0.3413
 4201SOL     OW24235   0.965   2.412  13.678 -0.2575  0.0152 -0.7843
 4201SOL    HW124236   0.978   2.325  13.641  0.5923  0.6504 -1.9957
 4201SOL    HW224237   0.875   2.398  13.706  0.1443  0.7897  0.9314
 4202SOL     OW24238   1.564   1.072   6.486  0.0135 -0.1203 -0.5151
 4202SOL    HW124239   1.537   1.163   6.471  1.1201  0.4766  1.0582
 4202SOL    HW224240   1.659   1.088   6.488 -0.2779  1.4607  0.9544
 4203SOL     OW24241   4.041   0.829   7.827  0.0783  0.1309 -0.4007
 4203SOL    HW124242   4.097   0.904   7.806  2.9601 -1.5265  1.3460
 4203SOL    HW224243   4.006   0.863   7.909 -2.0867 -2.2182 -0.3559
 4204SOL     OW24244   4.634   2.942   6.912  1.1734 -0.0938  0.4321
 4204SOL    HW124245   4.717   2.987   6.925  1.7779 -1.4076  1.0672
 4204SOL    HW224246   4.604   2.988   6.833  0.2842 -2.3022 -0.5282
 4205SOL     OW24247   1.942   0.766   6.103  0.5173 -0.3111  0.6598
 4205SOL    HW124248   1.881   0.695   6.083  0.3837 -0.5850  1.9921
 4205SOL    HW224249   2.023   0.735   6.062  0.2897  0.1324 -0.1216
 4206SOL     OW24250   1.298   1.223   1.897 -0.1478 -0.9601  0.0239
 4206SOL    HW124251   1.365   1.156   1.910  0.3459 -0.4456  0.1409
 4206SOL    HW224252   1.254   1.195   1.817  0.5116 -2.5461  0.2128
 4207SOL     OW24253   1.849   4.489  17.164 -0.3441 -0.0199 -0.1025
 4207SOL    HW124254   1.799   4.566  17.192 -1.0027 -0.9190  1.2112
 4207SOL    HW224255   1.797   4.414  17.194 -0.7347  0.7933  1.2171
 4208SOL     OW24256   4.385   3.108   7.999 -0.2817  0.3749  0.1989
 4208SOL    HW124257   4.470   3.066   7.987 -0.6832 -0.3899  0.0158
 4208SOL    HW224258   4.325   3.033   7.990  0.7826 -0.3804 -0.6156
 4209SOL     OW24259   0.858   2.209   6.888 -0.1482  0.3159  0.2006
 4209SOL    HW124260   0.917   2.213   6.813  0.3991  0.1980  0.6278
 4209SOL    HW224261   0.865   2.121   6.923 -0.9444 -0.2914 -1.1989
 4210SOL     OW24262   2.279   2.038   7.553 -0.8483  0.4581 -0.1925
 4210SOL    HW124263   2.217   1.999   7.616  1.5531 -3.9341 -0.5855
 4210SOL    HW224264   2.261   1.988   7.474  2.1556 -0.3811 -0.3381
 4211SOL     OW24265   1.357   4.096   2.206  0.0071  0.2738  0.0657
 4211SOL    HW124266   1.296   4.023   2.195 -1.2241  1.2065  0.6725
 4211SOL    HW224267   1.294   4.167   2.219 -1.3997 -0.7927 -0.9346
 4212SOL     OW24268   4.590   3.923   8.576 -0.0538 -0.0887 -0.6135
 4212SOL    HW124269   4.678   3.886   8.582 -0.1398 -0.3307 -0.8579
 4212SOL    HW224270   4.541   3.845   8.601  0.3382  0.0362  0.5650
 4213SOL     OW24271   1.920   2.267   1.549 -0.0689 -0.0793 -0.3070
 4213SOL    HW124272   1.890   2.358   1.540 -0.8723 -0.2624  0.5896
 4213SOL    HW224273   1.976   2.254   1.472  1.9499 -0.6715  1.2645
 4214SOL     OW24274   4.169   0.939   4.575  0.4479 -0.1551  0.0239
 4214SOL    HW124275   4.231   0.868   4.589  1.5649  1.0038  0.8607
 4214SOL    HW224276   4.131   0.944   4.662  2.2712  2.2023  0.6529
 4215SOL     OW24277   4.668   4.456   4.181  0.1284  0.0238 -0.1762
 4215SOL    HW124278   4.586   4.408   4.175  0.6179 -0.9913  1.1286
 4215SOL    HW224279   4.655   4.478   4.274  3.1765 -2.2680  0.7991
 4216SOL     OW24280   4.705   3.858   1.777 -0.1916  0.2119  0.2227
 4216SOL    HW124281   4.723   3.764   1.782  0.9396  0.4243  0.2584
 4216SOL    HW224282   4.638   3.862   1.709 -0.7798  0.0627  0.7919
 4217SOL     OW24283   2.243   2.408   4.570 -0.0551 -0.7117 -0.4384
 4217SOL    HW124284   2.197   2.485   4.536  0.5442  0.3488  1.2034
 4217SOL    HW224285   2.169   2.347   4.563 -0.7445  0.2334 -1.4755
 4218SOL     OW24286   4.564   4.189  11.611 -0.7265 -0.1194  0.3705
 4218SOL    HW124287   4.624   4.153  11.677 -0.1849  1.8558  0.9794
 4218SOL    HW224288   4.600   4.158  11.528 -1.0394  2.4191 -0.7090
 4219SOL     OW24289   2.642   1.709   3.113  0.9245 -0.1374  0.0259
 4219SOL    HW124290   2.622   1.736   3.024 -2.2377  0.0639  0.8098
 4219SOL    HW224291   2.705   1.776   3.140  1.0656 -1.0646  2.0317
 4220SOL     OW24292   3.879   0.189  10.077 -0.7481  0.5032 -0.2872
 4220SOL    HW124293   3.850   0.278  10.097  1.2722  0.9805  0.6427
 4220SOL    HW224294   3.884   0.144  10.162  0.1304 -1.8964 -1.6104
 4221SOL     OW24295   4.245   2.096  15.019 -0.1170  0.7946 -0.0335
 4221SOL    HW124296   4.325   2.137  15.049 -0.5127  1.2624  0.3861
 4221SOL    HW224297   4.273   2.009  15.048  3.2149  1.7259 -0.5631
 4222SOL     OW24298   0.978   2.078  12.553  0.4660 -0.1335  0.3027
 4222SOL    HW124299   0.942   2.086  12.641  0.3435 -0.9443  0.3309
 4222SOL    HW224300   1.071   2.072  12.573  1.0258  2.5192 -1.4658
 4223SOL     OW24301   0.079   2.610  13.922  0.0264 -0.3026  0.5729
 4223SOL    HW124302   0.080   2.636  13.829 -0.2999 -1.3185  0.2908
 4223SOL    HW224303   0.074   2.697  13.963 -0.7454  0.2894 -0.7505
 4224SOL     OW24304   3.517   2.801   5.108 -0.2342 -0.4786  0.5925
 4224SOL    HW124305   3.440   2.821   5.161 -1.8934 -0.9952 -1.6173
 4224SOL    HW224306   3.518   2.706   5.122  1.5927 -0.0897  3.2221
 4225SOL     OW24307   4.507   2.002   7.189 -0.2666 -0.2106  0.0264
 4225SOL    HW124308   4.519   1.994   7.284 -1.8485 -2.4743  0.0350
 4225SOL    HW224309   4.598   2.015   7.163 -0.5074  0.6606 -0.3676
 4226SOL     OW24310   3.677   2.904   6.346 -0.5606 -0.3426  0.6899
 4226SOL    HW124311   3.670   2.988   6.300  0.1659 -1.1261 -0.8786
 4226SOL    HW224312   3.591   2.865   6.331 -0.9825 -0.1979  2.7698
 4227SOL     OW24313   0.240   0.528   0.857  0.2553  0.0198  0.5639
 4227SOL    HW124314   0.189   0.609   0.860 -0.8978 -0.7501  1.6325
 4227SOL    HW224315   0.286   0.547   0.776  0.0433  1.6077  0.8206
 4228SOL     OW24316   0.576   2.314   4.063  0.1782  0.6542 -0.0852
 4228SOL    HW124317   0.566   2.351   3.975 -5.5085  1.2564  0.8493
 4228SOL    HW224318   0.547   2.224   4.049 -2.5261  1.3983  0.7267
 4229SOL     OW24319   0.736   1.342  12.362 -0.3578  0.1770  0.3886
 4229SOL    HW124320   0.825   1.309  12.369 -0.6788 -0.5344  1.1239
 4229SOL    HW224321   0.684   1.262  12.358 -2.2118  1.3438  1.1411
 4230SOL     OW24322   3.534   0.551   4.413 -0.4688 -0.0318 -0.1842
 4230SOL    HW124323   3.449   0.512   4.393 -0.1106 -0.6896 -0.4108
 4230SOL    HW224324   3.559   0.584   4.327  2.5529 -0.0470  0.6898
 4231SOL     OW24325   0.281   2.661   8.720 -0.2472 -0.6780 -0.3807
 4231SOL    HW124326   0.324   2.658   8.806  0.1242  1.0893 -0.5103
 4231SOL    HW224327   0.192   2.632   8.743 -0.2843  1.7649  2.6827
 4232SOL     OW24328   3.219   3.820  11.929 -0.4808  0.6275 -0.1203
 4232SOL    HW124329   3.265   3.775  11.858 -0.7486 -0.2895  0.2862
 4232SOL    HW224330   3.251   3.776  12.008 -0.9199 -0.2185 -0.4126
 4233SOL     OW24331   3.395   0.527   7.204  0.6383  0.2304 -0.1524
 4233SOL    HW124332   3.422   0.443   7.243 -1.8560 -0.0088  1.0479
 4233SOL    HW224333   3.361   0.577   7.278 -1.0662 -0.1418 -0.6683
 4234SOL     OW24334   3.641   1.144   5.979  0.6394  0.0554 -0.2266
 4234SOL    HW124335   3.549   1.140   6.007  0.9498 -0.5003  0.7050
 4234SOL    HW224336   3.679   1.211   6.036 -1.4738  0.8052  0.3100
 4235SOL     OW24337   1.807   2.509   9.912  0.3859 -0.3672 -0.3024
 4235SOL    HW124338   1.871   2.549   9.853  2.2474  0.0105  1.9607
 4235SOL    HW224339   1.799   2.582   9.974  1.8826  0.4158 -1.0230
 4236SOL     OW24340   3.270   0.239   5.337 -0.6174 -0.1765  0.4319
 4236SOL    HW124341   3.329   0.189   5.394  0.4176  1.7356  1.0511
 4236SOL    HW224342   3.188   0.191   5.348 -1.6042  1.6341  0.9170
 4237SOL     OW24343   2.291   3.629   7.549 -0.0493 -0.0438 -0.1151
 4237SOL    HW124344   2.331   3.544   7.571 -1.1506 -0.3265  0.8098
 4237SOL    HW224345   2.265   3.627   7.457  0.9219 -0.1557 -0.3847
 4238SOL     OW24346   2.652   2.769   9.215 -0.3132 -0.8681 -0.6529
 4238SOL    HW124347   2.563   2.736   9.230 -0.5058 -0.1220 -0.1417
 4238SOL    HW224348   2.694   2.719   9.284 -1.0980  1.5464  1.5975
 4239SOL     OW24349   2.202   4.175  13.008 -0.5014  0.5276 -0.0328
 4239SOL    HW124350   2.174   4.153  13.097  0.7956  0.4200  0.3445
 4239SOL    HW224351   2.294   4.151  13.001 -0.7420 -0.1922 -0.7830
 4240SOL     OW24352   0.301   1.884   1.018 -0.6022  0.1008 -0.0891
 4240SOL    HW124353   0.322   1.876   1.111  0.6253  0.3590 -0.3448
 4240SOL    HW224354   0.384   1.868   0.971 -1.1858 -1.7425 -0.5187
 4241SOL     OW24355   2.992   4.064   5.827 -0.0051 -0.1399 -0.5670
 4241SOL    HW124356   3.029   3.984   5.865  2.2493  0.2557 -1.9331
 4241SOL    HW224357   2.926   4.033   5.766  1.2414 -0.4982 -1.7454
 4242SOL     OW24358   2.216   3.851   8.843 -0.6337  0.6022 -0.0981
 4242SOL    HW124359   2.211   3.941   8.810  1.0166  0.3747 -0.9619
 4242SOL    HW224360   2.252   3.820   8.760  1.8602  1.7819  0.5486
 4243SOL     OW24361   0.245   4.333   0.999  0.3488 -1.0803  0.2308
 4243SOL    HW124362   0.245   4.255   0.942 -1.5232 -1.2143  0.3939
 4243SOL    HW224363   0.154   4.333   1.029  1.1736  0.6063  2.6659
 4244SOL     OW24364   1.298   4.724   7.721  0.1132  0.2109  0.1937
 4244SOL    HW124365   1.321   0.006   7.812 -0.8710  3.3537 -0.2125
 4244SOL    HW224366   1.342   4.641   7.705 -0.6921 -0.5356  1.9722
 4245SOL     OW24367   4.734   0.398   4.638 -0.0683  0.1149  0.6751
 4245SOL    HW124368   4.683   0.462   4.588 -0.2658  2.4169  3.7702
 4245SOL    HW224369   0.060   0.457   4.680 -0.3544  0.4602  0.6238
 4246SOL     OW24370   3.338   2.078   6.666 -0.2558  0.4075  0.2444
 4246SOL    HW124371   3.329   2.023   6.588  3.2193  0.1696  0.0217
 4246SOL    HW224372   3.324   2.014   6.735 -1.9852 -0.4412 -0.8836
 4247SOL     OW24373   0.450   4.292  17.732  0.3833 -0.0853  0.3358
 4247SOL    HW124374   0.380   4.238   0.024  0.5579  0.5763  1.5957
 4247SOL    HW224375   0.441   4.277  17.638  1.7185  1.6572 -0.0746
 4248SOL     OW24376   1.448   4.265   6.673 -0.2888  0.4844  0.4320
 4248SOL    HW124377   1.520   4.204   6.656 -1.1388 -0.8481  1.6490
 4248SOL    HW224378   1.428   4.287   6.582  2.2552 -1.1003 -0.5129
 4249SOL     OW24379   4.085   1.010   1.934 -0.1345 -0.4883 -0.7137
 4249SOL    HW124380   4.050   1.092   1.968  3.0535  0.7685 -0.4910
 4249SOL    HW224381   4.005   0.981   1.891 -0.5224  0.4901 -0.6531
 4250SOL     OW24382   2.769   0.347   6.919 -0.2509  0.0693  0.2086
 4250SOL    HW124383   2.815   0.366   6.837  0.5100 -1.5136  0.2780
 4250SOL    HW224384   2.821   0.399   6.980 -1.1235  1.6593 -0.4012
 4251SOL     OW24385   2.635   4.209   9.671  0.6345  0.3344 -0.5500
 4251SOL    HW124386   2.719   4.214   9.716  1.3961 -0.4673 -1.9077
 4251SOL    HW224387   2.606   4.128   9.712 -0.3002  1.2713  0.6627
 4252SOL     OW24388   1.131   4.496   8.175 -0.6301 -0.5912  0.2066
 4252SOL    HW124389   1.131   4.474   8.268 -0.6475 -0.2279  0.2925
 4252SOL    HW224390   1.091   4.415   8.144 -1.2595 -0.3892  0.4903
 4253SOL     OW24391   2.553   1.747   1.981  0.2507  0.3271 -0.0505
 4253SOL    HW124392   2.534   1.809   2.052  1.2186 -0.9882  1.3680
 4253SOL    HW224393   2.540   1.798   1.901  0.3209  1.2594  0.5243
 4254SOL     OW24394   1.699   0.400   2.297 -0.3962 -0.0244  0.0535
 4254SOL    HW124395   1.668   0.394   2.387 -1.0999 -0.4823 -0.2257
 4254SOL    HW224396   1.622   0.439   2.257 -0.9491 -1.5971 -0.4223
 4255SOL     OW24397   0.554   3.054   3.620  0.0729 -0.6571  0.1763
 4255SOL    HW124398   0.508   3.041   3.703  0.2188 -1.0903  0.1909
 4255SOL    HW224399   0.641   3.021   3.644 -0.3418 -0.1935  2.3633
 4256SOL     OW24400   3.864   3.661   8.315 -0.6199 -0.1590 -0.3149
 4256SOL    HW124401   3.858   3.667   8.410  0.7361  2.3735 -0.3924
 4256SOL    HW224402   3.859   3.748   8.277  0.5304 -0.3575 -0.9152
 4257SOL     OW24403   3.301   3.885  10.537  0.2476 -0.0674  0.3293
 4257SOL    HW124404   3.368   3.829  10.578  0.1769  0.9804  1.8510
 4257SOL    HW224405   3.226   3.828  10.555 -1.6047  1.9753 -0.8601
 4258SOL     OW24406   2.261   3.595  12.554  0.1797  0.3590  0.1919
 4258SOL    HW124407   2.221   3.607  12.640 -2.8797  0.3686 -1.2431
 4258SOL    HW224408   2.243   3.502  12.545 -1.2931  0.7580 -0.9689
 4259SOL     OW24409   4.172   4.454   5.254 -0.4164 -0.4014  0.4573
 4259SOL    HW124410   4.183   4.388   5.185  0.1508 -1.6248  1.7117
 4259SOL    HW224411   4.253   4.503   5.243 -1.3477  0.7292 -1.5168
 4260SOL     OW24412   4.613   0.055  15.455 -0.1583 -0.2526  0.7046
 4260SOL    HW124413   4.702   0.064  15.488  0.0051  1.0023 -0.0778
 4260SOL    HW224414   4.585   0.144  15.433 -2.1698 -0.7715  1.1234
 4261SOL     OW24415   2.342   1.230   0.538  0.2868 -0.7989  0.5794
 4261SOL    HW124416   2.351   1.175   0.616  0.4402 -0.8097  0.5540
 4261SOL    HW224417   2.298   1.167   0.481 -1.0121  0.8372 -0.2458
 4262SOL     OW24418   2.278   2.792   2.413  0.1738  0.0029  0.4808
 4262SOL    HW124419   2.335   2.758   2.344 -0.1018 -0.9462  0.7236
 4262SOL    HW224420   2.301   2.730   2.482  0.1254 -1.4746 -0.8419
 4263SOL     OW24421   2.764   3.830  17.140 -0.0244  0.5125 -0.0596
 4263SOL    HW124422   2.737   3.834  17.048 -1.1386 -4.1100  0.0543
 4263SOL    HW224423   2.751   3.738  17.166  2.0160  1.2229  3.4392
 4264SOL     OW24424   1.325   4.174  12.580  0.3411  0.0484 -0.0975
 4264SOL    HW124425   1.418   4.194  12.572  0.7463 -1.0358  2.0749
 4264SOL    HW224426   1.302   4.173  12.487 -0.2191 -0.6683  0.0530
 4265SOL     OW24427   2.047   2.499   1.846  0.1322  0.4992 -0.3963
 4265SOL    HW124428   2.010   2.417   1.815  1.1413 -0.3543  0.6623
 4265SOL    HW224429   1.996   2.569   1.805  1.1779  0.9197 -1.0013
 4266SOL     OW24430   0.615   1.985   8.235 -0.5363  0.0559 -0.0551
 4266SOL    HW124431   0.557   2.047   8.281 -0.5331 -0.1325  0.1997
 4266SOL    HW224432   0.639   2.044   8.164  0.7590  1.3535  1.4440
 4267SOL     OW24433   0.628   3.661  13.712  0.6090  0.3077 -0.0231
 4267SOL    HW124434   0.595   3.642  13.624 -0.1637 -1.2901  0.6226
 4267SOL    HW224435   0.546   3.668  13.761  1.0248  0.1105  0.7024
 4268SOL     OW24436   4.271   0.194   4.713  0.0060 -0.1101  0.0930
 4268SOL    HW124437   4.179   0.206   4.688 -0.0009 -0.8147 -0.2259
 4268SOL    HW224438   4.256   0.167   4.804 -1.1023  0.1450 -0.0154
 4269SOL     OW24439   0.294   0.399  14.346 -0.9094 -0.7150 -0.5693
 4269SOL    HW124440   0.206   0.433  14.329 -0.2336  0.9317 -0.7479
 4269SOL    HW224441   0.347   0.443  14.279 -1.8511 -0.5989 -1.2441
 4270SOL     OW24442   2.096   1.882   6.479 -0.1072  0.3865 -0.3076
 4270SOL    HW124443   2.004   1.855   6.476  0.3245 -0.9338 -1.6675
 4270SOL    HW224444   2.108   1.891   6.573 -1.6013  0.0637 -0.0835
 4271SOL     OW24445   0.385   3.261  17.551  0.1791  0.0147 -1.1272
 4271SOL    HW124446   0.361   3.221  17.467 -0.5517  0.4286 -1.1080
 4271SOL    HW224447   0.459   3.202  17.571  0.1556  0.0040 -1.0727
 4272SOL     OW24448   3.459   4.454   4.220 -0.6251  0.1257  0.4341
 4272SOL    HW124449   3.511   4.377   4.240  0.7144  1.5015  2.3271
 4272SOL    HW224450   3.389   4.416   4.168 -0.3073  1.5912 -1.0679
 4273SOL     OW24451   3.368   4.473   3.080 -0.4711 -0.3989 -0.0196
 4273SOL    HW124452   3.399   4.383   3.070  1.2462 -0.0536  2.0336
 4273SOL    HW224453   3.343   4.486   3.171  1.6581  1.1700  0.3487
 4274SOL     OW24454   3.884   2.370  13.357 -0.6111  0.3698  0.2337
 4274SOL    HW124455   3.891   2.276  13.341 -1.3213  0.7649 -2.4155
 4274SOL    HW224456   3.890   2.378  13.452  1.0816  1.6705  0.0122
 4275SOL     OW24457   2.448   3.077  17.246  0.1334  0.2028  0.2095
 4275SOL    HW124458   2.537   3.106  17.227  0.5203 -2.3226 -1.6713
 4275SOL    HW224459   2.390   3.116  17.181  1.0062  0.6407 -0.2994
 4276SOL     OW24460   1.508   1.762   2.796  0.1663 -0.4136  0.7427
 4276SOL    HW124461   1.485   1.853   2.779  0.8560 -0.6234 -1.2600
 4276SOL    HW224462   1.570   1.720   2.736 -1.0446 -0.4521 -0.4814
 4277SOL     OW24463   3.085   3.573   5.926  0.4292 -0.1156  0.2046
 4277SOL    HW124464   3.043   3.628   5.861  0.3348  0.8114  1.0580
 4277SOL    HW224465   3.044   3.596   6.009 -0.2883  1.1891 -0.5285
 4278SOL     OW24466   1.388   1.643   5.600  0.6290  0.2499  0.1436
 4278SOL    HW124467   1.417   1.728   5.568  0.6852  0.2739  0.2595
 4278SOL    HW224468   1.413   1.655   5.692 -1.4154 -0.5097  0.7975
 4279SOL     OW24469   1.107   1.725   8.282  0.0942  0.2586 -0.0532
 4279SOL    HW124470   1.108   1.814   8.319  0.7114  0.9561 -1.7209
 4279SOL    HW224471   1.125   1.672   8.359  1.9103  0.2734 -0.4709
 4280SOL     OW24472   4.263   2.224  15.673  0.5540 -0.1030  0.5883
 4280SOL    HW124473   4.299   2.201  15.587 -2.1076 -2.9476  0.2252
 4280SOL    HW224474   4.303   2.309  15.690  0.4813 -0.2501  1.5046
 4281SOL     OW24475   1.196   4.257   8.923  0.0157  0.4637 -0.0478
 4281SOL    HW124476   1.194   4.211   8.839 -2.8280  1.0593 -0.3021
 4281SOL    HW224477   1.138   4.333   8.912  0.7230  0.6936 -2.0821
 4282SOL     OW24478   4.174   2.109   4.666  0.3550 -0.1310  0.0387
 4282SOL    HW124479   4.216   2.184   4.625  0.5060 -0.0817  0.2856
 4282SOL    HW224480   4.124   2.154   4.734  2.1760  1.8238  0.0924
 4283SOL     OW24481   1.450   4.728  13.214  0.9366  0.7673  0.0729
 4283SOL    HW124482   1.425   4.649  13.261 -0.1029  0.4279 -1.0511
 4283SOL    HW224483   1.399   0.057  13.261 -1.8738 -2.1159  1.0114
 4284SOL     OW24484   1.033   1.479   7.144 -0.0521 -0.0189 -0.7696
 4284SOL    HW124485   1.069   1.488   7.232  1.5878 -0.3103 -1.4146
 4284SOL    HW224486   1.093   1.414   7.108 -1.1307 -1.9057  0.8417
 4285SOL     OW24487   3.258   2.815   4.610 -0.2927 -0.0736  0.6999
 4285SOL    HW124488   3.314   2.739   4.591  1.0115  1.3448 -1.1996
 4285SOL    HW224489   3.202   2.818   4.532  0.5985  1.1908  0.0901
 4286SOL     OW24490   1.637   0.997  12.473 -0.0316 -0.4615 -0.2797
 4286SOL    HW124491   1.572   0.946  12.423  0.3725  0.9057 -2.2070
 4286SOL    HW224492   1.644   0.942  12.551 -1.2496 -2.1415 -1.3351
 4287SOL     OW24493   2.537   1.521   1.486  0.4343  0.0949 -0.8800
 4287SOL    HW124494   2.515   1.555   1.572  1.3779 -1.9869  0.1928
 4287SOL    HW224495   2.630   1.505   1.503  0.8825  2.5758 -1.0773
 4288SOL     OW24496   1.893   4.376   6.715  0.1580 -0.1550  0.0953
 4288SOL    HW124497   1.904   4.295   6.665 -1.9159 -0.2566 -0.2120
 4288SOL    HW224498   1.934   4.354   6.799 -1.4065  0.3021  0.9796
 4289SOL     OW24499   2.315   2.588   4.232 -0.1640 -0.5038  0.4487
 4289SOL    HW124500   2.237   2.535   4.215  0.1012 -1.1414  1.2343
 4289SOL    HW224501   2.266   2.664   4.263  2.3079  0.9925  0.6093
 4290SOL     OW24502   0.560   2.811  16.110  0.0246 -0.6371 -0.4286
 4290SOL    HW124503   0.549   2.831  16.203  0.9779 -1.4951 -0.1316
 4290SOL    HW224504   0.537   2.896  16.072 -2.1816 -1.5516 -1.1742
 4291SOL     OW24505   2.891   0.298  16.046 -0.3776 -0.3122  0.2756
 4291SOL    HW124506   2.980   0.302  16.082 -0.7760 -1.5238  1.3900
 4291SOL    HW224507   2.856   0.372  16.094  0.4181  1.3909 -1.7781
 4292SOL     OW24508   1.899   1.036  13.457  0.5375  0.2330  0.3096
 4292SOL    HW124509   1.871   0.975  13.525 -2.7985 -1.6326 -2.7288
 4292SOL    HW224510   1.963   0.978  13.414 -0.7138 -0.9400  0.0200
 4293SOL     OW24511   0.596   2.115   0.714  0.4278  0.6430  0.1807
 4293SOL    HW124512   0.613   2.061   0.636 -1.2533  0.5582 -0.1396
 4293SOL    HW224513   0.621   2.056   0.785 -0.1825 -0.7409 -0.7414
 4294SOL     OW24514   0.585   1.579   8.237 -0.1440  0.0489  0.0046
 4294SOL    HW124515   0.666   1.616   8.202 -1.1877  1.6728 -0.7158
 4294SOL    HW224516   0.619   1.511   8.295  0.6025  0.8504  0.5129
 4295SOL     OW24517   1.515   3.407  12.917 -0.3657 -0.6503  0.2437
 4295SOL    HW124518   1.507   3.412  12.822 -2.9284  0.0910  0.4977
 4295SOL    HW224519   1.432   3.365  12.940 -0.9572 -0.6196 -1.8774
 4296SOL     OW24520   2.854   3.734   2.200 -0.8153 -0.0010 -0.3199
 4296SOL    HW124521   2.777   3.789   2.210 -0.4247  0.3156  0.9897
 4296SOL    HW224522   2.925   3.787   2.237  0.0100 -0.1771 -1.6301
 4297SOL     OW24523   0.355   4.520  15.665  0.6095 -0.0352  0.3918
 4297SOL    HW124524   0.373   4.505  15.758  0.2490 -0.6246  0.3651
 4297SOL    HW224525   0.389   4.609  15.661  1.7111 -0.4497  0.2394
 4298SOL     OW24526   1.374   3.215   2.234  0.4166 -0.1905 -0.9033
 4298SOL    HW124527   1.436   3.288   2.229 -1.6810  1.6200 -0.1885
 4298SOL    HW224528   1.302   3.261   2.191 -0.8100 -2.1939 -0.9457
 4299SOL     OW24529   2.434   3.337   8.932  0.4037  0.0848  0.2725
 4299SOL    HW124530   2.453   3.428   8.910 -0.9652  0.1513 -0.6157
 4299SOL    HW224531   2.352   3.320   8.886  0.3231 -1.9059  1.1459
 4300SOL     OW24532   4.444   1.579   5.776  0.3489  0.0632  0.2250
 4300SOL    HW124533   4.504   1.635   5.827  1.3166 -0.3884 -0.4193
 4300SOL    HW224534   4.496   1.499   5.768 -1.4391 -0.8818 -1.8668
 4301SOL     OW24535   4.331   0.142  16.937  0.8315  0.5836 -0.8535
 4301SOL    HW124536   4.352   0.049  16.927 -1.8665 -0.1076 -0.1740
 4301SOL    HW224537   4.248   0.148  16.889 -0.0215  0.6224  0.6394
 4302SOL     OW24538   3.903   2.530   7.155 -0.0276 -0.2015 -0.0433
 4302SOL    HW124539   3.920   2.605   7.098  0.9701 -0.1129  0.3566
 4302SOL    HW224540   3.962   2.550   7.228 -0.1055 -1.9936  0.5145
 4303SOL     OW24541   0.523   3.750   0.277  0.6309  0.3541 -0.0087
 4303SOL    HW124542   0.508   3.825   0.335  1.8150 -1.3233  2.4678
 4303SOL    HW224543   0.615   3.743   0.305  0.4564  0.0720  0.4942
 4304SOL     OW24544   0.698   4.417   6.294  0.2572  0.5297  0.2221
 4304SOL    HW124545   0.638   4.446   6.225  0.5881 -1.3039 -0.8314
 4304SOL    HW224546   0.702   4.323   6.276 -0.1990  0.3085  1.2954
 4305SOL     OW24547   2.420   1.701   5.688 -0.3824  0.5234 -0.0209
 4305SOL    HW124548   2.497   1.720   5.634  0.2784  0.4417  0.9083
 4305SOL    HW224549   2.436   1.611   5.715 -0.8036  0.1649 -0.9743
 4306SOL     OW24550   0.470   4.126  11.677  0.0137 -0.5237 -0.1393
 4306SOL    HW124551   0.509   4.039  11.682  1.1619  0.0977  1.7485
 4306SOL    HW224552   0.379   4.098  11.669 -0.4353  0.7707  0.3949
 4307SOL     OW24553   4.365   3.591   5.847  0.2590 -0.7320 -0.1413
 4307SOL    HW124554   4.271   3.601   5.837 -0.1054 -2.6332  1.2321
 4307SOL    HW224555   4.366   3.562   5.938 -1.7416 -1.8778 -0.4921
 4308SOL     OW24556   0.382   0.496   7.411 -0.4815  0.5785  0.7580
 4308SOL    HW124557   0.363   0.584   7.442  2.4422  1.0355  1.2243
 4308SOL    HW224558   0.385   0.496   7.316  1.0001 -0.6083  0.8025
 4309SOL     OW24559   2.004   2.209   0.506 -0.1461 -0.7192 -0.6852
 4309SOL    HW124560   1.990   2.255   0.423 -1.9194 -1.8481 -1.0028
 4309SOL    HW224561   2.044   2.129   0.471 -0.3111 -1.1468  0.0948
 4310SOL     OW24562   1.475   1.229   1.167  0.1810  0.3589  0.4423
 4310SOL    HW124563   1.429   1.276   1.098  0.6759  0.0469 -0.0977
 4310SOL    HW224564   1.566   1.256   1.155  0.7088 -1.3541  0.5914
 4311SOL     OW24565   4.160   1.105   8.230 -0.2289 -0.4107  0.7393
 4311SOL    HW124566   4.115   1.175   8.278 -0.8350 -0.9866  1.0046
 4311SOL    HW224567   4.229   1.166   8.202 -0.9095 -0.0466 -0.1161
 4312SOL     OW24568   3.736   2.922  10.578  0.0521  0.0800 -0.1369
 4312SOL    HW124569   3.671   2.857  10.605 -1.1176  1.5215  0.5023
 4312SOL    HW224570   3.736   2.903  10.484  1.1773 -0.1288 -0.1009
 4313SOL     OW24571   3.834   4.710   6.038 -0.9258 -0.3342 -0.3091
 4313SOL    HW124572   3.821   0.007   5.949 -0.7640 -1.4907 -0.7719
 4313SOL    HW224573   3.780   4.631   6.045 -0.5797 -0.6852 -1.4508
 4314SOL     OW24574   1.415   1.692  10.679  0.9286 -0.8733  0.5896
 4314SOL    HW124575   1.476   1.766  10.688  0.4172 -0.3037 -0.6738
 4314SOL    HW224576   1.366   1.720  10.602  1.2774 -2.0836 -0.0782
 4315SOL     OW24577   3.414   0.438   4.659  0.4957  0.1650  0.0731
 4315SOL    HW124578   3.331   0.428   4.613  0.1812 -0.1088  0.6935
 4315SOL    HW224579   3.433   0.527   4.629  1.7430 -0.4955 -1.0563
 4316SOL     OW24580   1.596   1.697  11.910 -0.4762  0.3604  0.3530
 4316SOL    HW124581   1.624   1.735  11.827  0.9794  0.6066  0.9455
 4316SOL    HW224582   1.527   1.637  11.881  0.6577 -0.1929 -1.2081
 4317SOL     OW24583   0.463   0.335  10.558 -0.5529 -0.5613 -0.0207
 4317SOL    HW124584   0.558   0.327  10.552 -0.5158  0.3682 -0.6393
 4317SOL    HW224585   0.454   0.428  10.539 -0.7344  0.0848  3.1760
 4318SOL     OW24586   0.420   3.154   3.415  0.8905 -0.4160  0.7620
 4318SOL    HW124587   0.375   3.236   3.434 -0.6261 -1.2339  0.7445
 4318SOL    HW224588   0.487   3.156   3.484  0.6678 -0.7152  0.9918
 4319SOL     OW24589   4.504   1.352   7.310  0.2062  0.3394  0.3611
 4319SOL    HW124590   4.514   1.282   7.375 -0.6835 -0.9381 -0.8990
 4319SOL    HW224591   4.588   1.355   7.264  0.6581 -0.2017  1.1563
 4320SOL     OW24592   4.359   1.495   6.156  0.6585  0.1563  0.6453
 4320SOL    HW124593   4.322   1.421   6.108 -1.6371  1.7947 -0.1221
 4320SOL    HW224594   4.388   1.448   6.234  1.5812 -1.7393 -0.8430
 4321SOL     OW24595   0.365   0.345   2.951  0.4769  0.1857  0.3955
 4321SOL    HW124596   0.280   0.361   2.910  1.2134  0.9627 -0.8326
 4321SOL    HW224597   0.328   0.302   3.028 -0.6616  0.1191 -0.1872
 4322SOL     OW24598   0.260   0.863  10.705 -0.0059 -0.2320  0.3590
 4322SOL    HW124599   0.349   0.841  10.731  0.2655  1.1412  0.6318
 4322SOL    HW224600   0.280   0.930  10.639 -0.2825  1.8510  2.3943
 4323SOL     OW24601   3.582   0.741   9.939  0.0515  0.6073 -1.2517
 4323SOL    HW124602   3.608   0.733   9.848  0.9878  0.5618 -0.9831
 4323SOL    HW224603   3.597   0.653   9.976 -1.4324 -0.3234 -2.8827
 4324SOL     OW24604   1.900   4.529   8.103 -0.0536 -0.2064 -0.1147
 4324SOL    HW124605   1.932   4.617   8.118  0.0598 -0.3474  0.4696
 4324SOL    HW224606   1.884   4.510   8.196  0.1113  1.5188  0.2569
 4325SOL     OW24607   0.224   3.183  11.569 -0.1941 -0.5233 -0.0091
 4325SOL    HW124608   0.189   3.178  11.657 -0.1457  0.6405  0.0749
 4325SOL    HW224609   0.191   3.264  11.529  2.2703  0.3014 -0.4188
 4326SOL     OW24610   0.017   1.340   7.178 -0.2685  0.4161  0.0046
 4326SOL    HW124611   0.086   1.300   7.231 -1.5919 -1.4078  0.3451
 4326SOL    HW224612   0.005   1.277   7.107 -0.6278  0.7032 -0.1924
 4327SOL     OW24613   3.273   1.159  11.896 -0.0816  0.9533  0.0027
 4327SOL    HW124614   3.262   1.241  11.945 -0.3329  1.5662 -1.0704
 4327SOL    HW224615   3.194   1.112  11.924  0.1396 -0.4588 -1.7413
 4328SOL     OW24616   2.667   3.077   3.109 -0.0045 -0.4478  0.3359
 4328SOL    HW124617   2.627   3.154   3.068  0.2614 -1.4162 -1.7422
 4328SOL    HW224618   2.584   3.040   3.140 -0.7352  1.1950  0.3852
 4329SOL     OW24619   3.187   2.457   0.377  0.3160 -0.1900 -0.1970
 4329SOL    HW124620   3.114   2.462   0.315 -1.9596  1.8022  2.6467
 4329SOL    HW224621   3.139   2.463   0.460  1.9676  0.4547  0.6932
 4330SOL     OW24622   1.057   4.489   5.790  0.1223 -0.2567 -0.2486
 4330SOL    HW124623   1.100   4.423   5.845  1.6566  0.2038 -0.9182
 4330SOL    HW224624   1.061   4.449   5.703 -0.7505  0.4801 -0.6236
 4331SOL     OW24625   1.271   2.195  16.083 -0.2108 -0.5562  0.4580
 4331SOL    HW124626   1.365   2.174  16.082  0.4559  2.3214  1.5478
 4331SOL    HW224627   1.228   2.124  16.130 -2.0993 -0.2806 -0.8754
 4332SOL     OW24628   1.436   4.663   5.712  0.2105 -0.1942  0.3434
 4332SOL    HW124629   1.526   4.633   5.718 -0.8894 -3.4733  0.3905
 4332SOL    HW224630   1.406   4.656   5.803 -0.7155 -0.8772 -0.0184
 4333SOL     OW24631   3.523   2.131  12.904 -0.0588  0.0961 -0.5198
 4333SOL    HW124632   3.617   2.112  12.914  0.0840  1.0736 -0.0524
 4333SOL    HW224633   3.528   2.222  12.874  1.4310 -0.7088 -2.7535
 4334SOL     OW24634   1.529   0.073  16.934 -0.4994 -0.1115 -0.4165
 4334SOL    HW124635   1.547   4.722  16.901 -2.5114 -1.5105  2.2408
 4334SOL    HW224636   1.524   0.118  16.849  1.5344 -2.2156 -1.6717
 4335SOL     OW24637   1.915   0.075   8.257  0.2420  0.1609 -0.4610
 4335SOL    HW124638   1.931   4.734   8.311  2.5748  1.0887  0.1739
 4335SOL    HW224639   1.960   0.146   8.302  1.1208 -0.6605 -0.0535
 4336SOL     OW24640   0.639   1.245   3.787  0.0019 -0.6031 -0.2224
 4336SOL    HW124641   0.664   1.274   3.874 -1.5601  2.4108 -0.8058
 4336SOL    HW224642   0.681   1.313   3.735 -1.3412  1.4987  1.4741
 4337SOL     OW24643   3.624   0.654   2.115 -0.8242 -0.0078  0.4980
 4337SOL    HW124644   3.596   0.567   2.144  0.0427  0.5553  3.0328
 4337SOL    HW224645   3.542   0.688   2.080 -0.3937  0.1076 -0.4072
 4338SOL     OW24646   1.143   4.328   2.737  0.1134  0.5506  0.1291
 4338SOL    HW124647   1.067   4.316   2.795  2.0403 -1.0222  2.3434
 4338SOL    HW224648   1.210   4.355   2.799  0.9046  0.0932 -0.5351
 4339SOL     OW24649   0.138   0.518  11.977 -0.3121 -0.6360  0.2169
 4339SOL    HW124650   0.105   0.608  11.973  0.5177 -0.3420  0.0017
 4339SOL    HW224651   0.077   0.471  12.034 -1.1608  0.5697  0.3074
 4340SOL     OW24652   0.236   0.830   3.274 -0.3172  0.0049 -0.4053
 4340SOL    HW124653   0.329   0.807   3.267  0.1024  1.6526 -0.1581
 4340SOL    HW224654   0.193   0.744   3.269  1.5384 -1.0934  3.0429
 4341SOL     OW24655   4.217   0.069   2.414  0.6818  0.3230  0.2251
 4341SOL    HW124656   4.246   0.160   2.408  1.3830 -0.0624 -2.3617
 4341SOL    HW224657   4.174   0.060   2.499 -1.1470  0.7826 -0.6550
 4342SOL     OW24658   4.640   1.193   2.950 -0.2081 -0.4896 -0.4074
 4342SOL    HW124659   4.677   1.111   2.981 -2.8103 -1.2284  0.7005
 4342SOL    HW224660   4.647   1.241   3.032 -0.5647 -1.3426  0.1174
 4343SOL     OW24661   0.342   1.524   7.030 -0.1612  0.2650  0.3187
 4343SOL    HW124662   0.410   1.512   7.097 -0.4652 -0.4075  0.5182
 4343SOL    HW224663   0.310   1.612   7.047 -3.7952 -0.8797 -0.6467
 4344SOL     OW24664   3.118   4.461  17.217  0.7815 -0.2412  0.6996
 4344SOL    HW124665   3.108   4.475  17.123 -1.7587  0.5908  1.0855
 4344SOL    HW224666   3.184   4.393  17.228  0.1125 -0.7812  1.3863
 4345SOL     OW24667   1.455   4.097   5.972  0.0878 -0.6578 -0.3674
 4345SOL    HW124668   1.499   4.144   6.042 -0.0406 -1.1198  0.0224
 4345SOL    HW224669   1.474   4.155   5.898  0.5283  0.1084  0.3504
 4346SOL     OW24670   2.785   3.961   6.619  0.1798 -0.5726 -0.4535
 4346SOL    HW124671   2.795   4.014   6.698  0.7094 -0.7255 -0.4110
 4346SOL    HW224672   2.849   4.005   6.562  1.0392 -1.3188 -0.0767
 4347SOL     OW24673   0.694   3.377   0.277  0.0613 -0.0758  0.3722
 4347SOL    HW124674   0.768   3.424   0.239  0.1119  0.0103  0.5762
 4347SOL    HW224675   0.655   3.352   0.193 -0.9940  0.0789  0.8147
 4348SOL     OW24676   3.428   2.602   4.561 -0.1775  0.2190 -0.0449
 4348SOL    HW124677   3.481   2.647   4.626  0.1212  0.3659 -0.3907
 4348SOL    HW224678   3.441   2.511   4.586 -0.2311 -0.2353 -1.6495
 4349SOL     OW24679   1.470   3.309   9.827  0.8907 -0.1180 -0.4312
 4349SOL    HW124680   1.517   3.311   9.910 -0.1697 -0.1752  0.1706
 4349SOL    HW224681   1.504   3.393   9.796  0.8743  1.0887  2.8321
 4350SOL     OW24682   2.303   0.420   4.648  0.1409  0.0595 -0.2646
 4350SOL    HW124683   2.272   0.506   4.675 -1.3493 -0.7497  0.6339
 4350SOL    HW224684   2.238   0.384   4.588 -1.5502  1.7653  0.5554
 4351SOL     OW24685   2.148   4.425   2.855  0.7203 -0.5632  0.1618
 4351SOL    HW124686   2.205   4.411   2.779 -0.3297 -0.2259 -0.6762
 4351SOL    HW224687   2.096   4.345   2.862 -1.1012  0.7676  1.7521
 4352SOL     OW24688   3.650   4.233   9.092  0.1187 -0.5787 -0.2419
 4352SOL    HW124689   3.594   4.309   9.078  0.8116 -0.4690 -2.4648
 4352SOL    HW224690   3.647   4.231   9.188  2.8554  0.6225 -0.1069
 4353SOL     OW24691   1.768   3.272   3.266 -0.2290 -0.5016  0.3526
 4353SOL    HW124692   1.781   3.282   3.171 -0.9630 -1.5483  0.1382
 4353SOL    HW224693   1.741   3.181   3.277 -1.7555  0.0925  1.5103
 4354SOL     OW24694   1.177   3.742  13.174  0.2061 -0.3574 -0.3800
 4354SOL    HW124695   1.154   3.666  13.229 -0.5086  0.7684  0.8890
 4354SOL    HW224696   1.220   3.798  13.239 -2.5016  1.3494 -0.0705
 4355SOL     OW24697   4.714   1.560  10.733  0.1771  0.1020 -0.3731
 4355SOL    HW124698   4.692   1.653  10.737 -0.8300 -0.0894 -1.3432
 4355SOL    HW224699   4.641   1.516  10.688 -0.0017 -0.7023  0.7000
 4356SOL     OW24700   3.007   4.529   5.775 -0.0703 -0.2041  0.5294
 4356SOL    HW124701   3.012   4.522   5.679 -1.2931 -1.1448  0.5366
 4356SOL    HW224702   3.078   4.591   5.793  0.3136 -0.4951  0.0245
 4357SOL     OW24703   2.626   4.430   8.227  0.0569 -0.0963  0.4213
 4357SOL    HW124704   2.704   4.430   8.281  1.1544  0.0714 -1.1681
 4357SOL    HW224705   2.635   4.511   8.176  1.3501 -1.7896 -2.0742
 4358SOL     OW24706   3.612   4.123  15.902 -0.3139 -0.1554 -0.5005
 4358SOL    HW124707   3.692   4.117  15.954 -0.3467 -1.2025 -0.5542
 4358SOL    HW224708   3.559   4.049  15.933 -0.9121  0.7975  0.7306
 4359SOL     OW24709   0.347   4.318   6.285  0.4094 -0.5094  0.0668
 4359SOL    HW124710   0.332   4.407   6.252 -0.8968 -0.8666 -0.2752
 4359SOL    HW224711   0.414   4.324   6.354  1.1021  0.5256 -0.6861
 4360SOL     OW24712   4.008   1.484   4.840 -0.1789 -0.0254  0.2235
 4360SOL    HW124713   3.980   1.427   4.912  1.4412 -1.1943 -0.0878
 4360SOL    HW224714   4.050   1.558   4.883 -0.0187 -0.7888  1.3834
 4361SOL     OW24715   4.123   1.257   4.636  0.6624 -0.4963  0.1564
 4361SOL    HW124716   4.048   1.199   4.643  0.6220 -0.4171  0.3603
 4361SOL    HW224717   4.145   1.265   4.729  0.5675 -0.0371  0.1426
 4362SOL     OW24718   0.910   0.748   3.414  0.1691 -1.0159 -0.0449
 4362SOL    HW124719   0.982   0.686   3.426  0.6160  0.1912  3.3442
 4362SOL    HW224720   0.948   0.833   3.438 -1.6841 -0.1286 -0.2189
 4363SOL     OW24721   1.205   2.682   4.686 -0.2649 -0.3276  0.0511
 4363SOL    HW124722   1.291   2.674   4.729  1.1333  2.9261 -2.1204
 4363SOL    HW224723   1.192   2.776   4.678  0.5408 -0.2153  0.0399
 4364SOL     OW24724   1.950   1.427   9.717 -0.0847 -0.1956 -0.4145
 4364SOL    HW124725   1.966   1.513   9.678  0.1682 -0.3336 -0.6104
 4364SOL    HW224726   1.873   1.394   9.670 -1.7477 -0.3039  2.3553
 4365SOL     OW24727   4.595   1.580   9.640  0.6041  0.6518 -0.7856
 4365SOL    HW124728   4.580   1.500   9.591  0.8613 -1.3154  2.3057
 4365SOL    HW224729   4.678   1.617   9.612  1.9270 -0.5340  1.5642
 4366SOL     OW24730   2.448   1.621   3.877 -0.5411 -0.2598 -0.4741
 4366SOL    HW124731   2.499   1.601   3.799 -0.0165 -3.0867  0.5864
 4366SOL    HW224732   2.472   1.713   3.869 -0.3309 -0.3679 -1.0401
 4367SOL     OW24733   3.848   1.084  15.427  0.3581  0.1432 -0.2829
 4367SOL    HW124734   3.785   1.104  15.358 -1.0408  0.6751  1.1688
 4367SOL    HW224735   3.786   1.079  15.499 -0.1405  0.5802 -0.6835
 4368SOL     OW24736   3.840   4.458   8.525 -0.4436  0.1170 -0.2183
 4368SOL    HW124737   3.904   4.393   8.497  0.5096  0.1868  1.8082
 4368SOL    HW224738   3.791   4.397   8.580  0.2262 -0.8907 -0.7453
 4369SOL     OW24739   4.576   3.591   0.657 -0.2406  0.0467  0.1797
 4369SOL    HW124740   4.538   3.507   0.680  0.1743 -0.1539  0.1280
 4369SOL    HW224741   4.489   3.631   0.647 -0.4421 -0.5569 -0.5017
 4370SOL     OW24742   0.702   2.021   4.509  0.5272  0.1524  0.2014
 4370SOL    HW124743   0.709   2.089   4.442 -2.0600 -0.2563 -0.4826
 4370SOL    HW224744   0.616   2.030   4.549 -0.4638 -1.5593 -1.5429
 4371SOL     OW24745   2.257   0.587   3.548 -0.0260 -0.0218 -0.1667
 4371SOL    HW124746   2.192   0.521   3.573 -1.3285  0.8695 -1.1701
 4371SOL    HW224747   2.222   0.618   3.464 -1.8956 -2.7547 -0.4056
 4372SOL     OW24748   4.549   1.306   1.981  0.3428  0.4248  0.8235
 4372SOL    HW124749   4.500   1.330   1.903 -0.0525 -0.2332  0.8670
 4372SOL    HW224750   4.481   1.322   2.046  0.1332  2.5702  0.0511
 4373SOL     OW24751   2.968   1.853  11.784 -0.6495 -0.3922 -0.6643
 4373SOL    HW124752   3.000   1.905  11.857 -2.8128  0.8119 -0.5701
 4373SOL    HW224753   3.050   1.814  11.754  0.6936 -0.5434  3.3335
 4374SOL     OW24754   2.368   1.027   9.533 -0.0008  0.3194  0.7083
 4374SOL    HW124755   2.458   1.032   9.503 -0.5516 -0.6311 -1.0808
 4374SOL    HW224756   2.349   0.935   9.552  3.8472 -0.1411  2.2820
 4375SOL     OW24757   3.736   4.600  14.571  0.4286 -0.3175  0.0053
 4375SOL    HW124758   3.705   4.654  14.643 -1.2607 -0.5253 -0.5795
 4375SOL    HW224759   3.748   4.515  14.615  1.0781 -0.7429 -0.9857
 4376SOL     OW24760   0.413   3.738   6.576  0.1672 -0.0203 -0.3568
 4376SOL    HW124761   0.388   3.655   6.535  3.4870 -0.7111 -0.9349
 4376SOL    HW224762   0.499   3.710   6.608  1.3641  2.5282 -1.3346
 4377SOL     OW24763   2.177   3.993  12.355  0.3881  0.3311  0.0406
 4377SOL    HW124764   2.094   3.967  12.396 -1.1782  0.2933 -3.1787
 4377SOL    HW224765   2.164   4.083  12.327  0.7871 -0.2156 -1.8761
 4378SOL     OW24766   2.861   4.616  10.207  0.1037 -0.3085  0.0537
 4378SOL    HW124767   2.776   4.657  10.196  1.3343  2.3908  0.6253
 4378SOL    HW224768   2.876   4.574  10.292  0.0827  0.6882  0.5446
 4379SOL     OW24769   2.407   2.292  16.398 -0.3414 -0.1345  1.0512
 4379SOL    HW124770   2.420   2.314  16.305  1.9293  0.8981  1.6177
 4379SOL    HW224771   2.372   2.373  16.437  1.0271  0.6366  0.6613
 4380SOL     OW24772   4.382   2.021   5.570 -0.1431 -0.1530  0.3986
 4380SOL    HW124773   4.350   1.933   5.588  1.2782 -0.2423  2.5926
 4380SOL    HW224774   4.458   2.029   5.628  0.4773  1.1558 -0.6025
 4381SOL     OW24775   3.324   3.458   2.023  0.4350 -0.2106 -0.1956
 4381SOL    HW124776   3.248   3.434   1.969  1.4186 -0.5238 -1.4421
 4381SOL    HW224777   3.281   3.431   2.104  0.6680 -1.9090 -0.6354
 4382SOL     OW24778   1.995   4.206   2.906 -0.1760  0.3046  0.4697
 4382SOL    HW124779   1.963   4.144   2.840 -1.7584  1.2446  0.3680
 4382SOL    HW224780   1.939   4.196   2.983  0.2351  0.3455  0.7740
 4383SOL     OW24781   2.093   0.141   8.886  0.1111  0.1728  0.7284
 4383SOL    HW124782   2.089   0.237   8.893 -0.7524  0.3476 -2.4809
 4383SOL    HW224783   2.014   0.119   8.935 -0.6774 -3.0460 -1.9896
 4384SOL     OW24784   3.738   0.114   4.383 -0.6491 -0.0583  0.1364
 4384SOL    HW124785   3.682   0.159   4.447 -0.6598  0.2055 -0.0606
 4384SOL    HW224786   3.672   0.086   4.320  0.6066 -0.3771 -1.0171
 4385SOL     OW24787   0.445   2.639   1.067  0.3115  0.4965  0.1561
 4385SOL    HW124788   0.533   2.600   1.071  0.0227 -0.0403  1.3450
 4385SOL    HW224789   0.471   2.728   1.091 -2.0704  0.8927  1.2615
 4386SOL     OW24790   0.819   3.722   1.653 -0.8067  0.1168 -0.6571
 4386SOL    HW124791   0.893   3.673   1.615 -0.9180  0.3908 -1.2275
 4386SOL    HW224792   0.763   3.714   1.576 -0.2777  1.6930 -1.2081
 4387SOL     OW24793   1.761   2.599  15.212 -0.0307 -0.2580  0.2742
 4387SOL    HW124794   1.784   2.643  15.294 -2.3144  1.6086 -0.0954
 4387SOL    HW224795   1.847   2.564  15.191 -0.0247 -0.6526  0.9544
 4388SOL     OW24796   2.745   0.313   7.289  0.7281  0.1058  0.7740
 4388SOL    HW124797   2.785   0.227   7.303  0.7873  0.3901  2.4044
 4388SOL    HW224798   2.746   0.317   7.194  1.0834 -0.1902  0.7663
 4389SOL     OW24799   1.352   3.472   0.420  0.0687 -0.3189  0.1700
 4389SOL    HW124800   1.269   3.498   0.460 -0.3840  0.4310 -1.2838
 4389SOL    HW224801   1.374   3.409   0.488  0.6471  0.7489  0.9847
 4390SOL     OW24802   1.086   2.656  15.143 -0.0757  0.0475 -0.3928
 4390SOL    HW124803   1.092   2.652  15.048 -1.8380  1.0984 -0.5348
 4390SOL    HW224804   1.056   2.744  15.162 -1.0917 -0.4315  0.2213
 4391SOL     OW24805   4.182   1.365   6.513  0.1621  0.2192 -0.2593
 4391SOL    HW124806   4.112   1.341   6.452  0.4902 -0.6948 -0.2767
 4391SOL    HW224807   4.168   1.323   6.598  0.2081  1.5048  0.3784
 4392SOL     OW24808   4.364   2.284   4.539 -0.1429  0.2585 -0.4110
 4392SOL    HW124809   4.425   2.291   4.465  0.5761  1.2956  0.2807
 4392SOL    HW224810   4.302   2.355   4.519 -0.1193 -0.2040 -2.1288
 4393SOL     OW24811   3.198   4.429   6.869  0.4532 -0.0083 -0.6563
 4393SOL    HW124812   3.203   4.353   6.926 -0.5477 -1.0747 -1.9941
 4393SOL    HW224813   3.209   4.389   6.782  0.2281  0.3527 -0.8496
 4394SOL     OW24814   0.581   4.511   6.054 -0.0573  0.1237 -0.3690
 4394SOL    HW124815   0.511   4.572   6.031 -1.4653 -1.1495  0.5573
 4394SOL    HW224816   0.656   4.536   6.000 -0.2621 -0.0803 -0.7422
 4395SOL     OW24817   4.039   2.709  11.562 -0.2713  0.2563  0.2943
 4395SOL    HW124818   4.127   2.740  11.543 -0.6191  0.5621 -0.7745
 4395SOL    HW224819   4.061   2.674  11.649 -1.0258  2.9526  1.5812
 4396SOL     OW24820   1.043   1.061   8.021 -0.0059  0.2861 -0.3896
 4396SOL    HW124821   1.099   0.997   7.975 -1.7047  0.6488 -2.9575
 4396SOL    HW224822   1.095   1.138   7.997 -1.1261  1.9100  2.4151
 4397SOL     OW24823   3.240   3.867   4.675  0.4851 -0.0895  0.0126
 4397SOL    HW124824   3.203   3.954   4.693 -0.7917 -0.7075  0.3634
 4397SOL    HW224825   3.164   3.812   4.695 -0.9598  1.1570 -2.1272
 4398SOL     OW24826   1.998   1.349  11.518  0.1784 -0.2010 -0.0089
 4398SOL    HW124827   2.043   1.310  11.443  1.7002  1.0221  0.2795
 4398SOL    HW224828   1.908   1.329  11.493  1.2050 -1.9646 -2.3639
 4399SOL     OW24829   0.750   0.955   4.772 -0.2289 -0.0907 -0.7747
 4399SOL    HW124830   0.808   1.018   4.813 -1.8584  1.0520 -0.2240
 4399SOL    HW224831   0.717   1.012   4.703  2.3942  1.8282 -0.4211
 4400SOL     OW24832   3.000   1.502   7.826 -0.2835 -0.4146  0.2425
 4400SOL    HW124833   3.057   1.432   7.858 -0.6917  0.1803  2.2961
 4400SOL    HW224834   2.970   1.533   7.912  0.2918  0.2539  0.2012
 4401SOL     OW24835   4.667   3.944   2.036 -0.5853 -0.1754 -0.5901
 4401SOL    HW124836   4.614   3.879   2.083 -0.4298  0.0212 -0.1400
 4401SOL    HW224837   4.662   3.905   1.949  0.5307  0.9967 -1.1869
 4402SOL     OW24838   2.302   2.178   3.532 -0.5099 -0.1450  0.0892
 4402SOL    HW124839   2.212   2.178   3.565 -1.1310 -1.0278 -1.5805
 4402SOL    HW224840   2.306   2.267   3.498  0.6624 -0.4908 -0.6775
 4403SOL     OW24841   1.923   1.398   1.930  0.2470  0.3264  0.2939
 4403SOL    HW124842   1.926   1.483   1.886 -1.7088  0.6930  0.8789
 4403SOL    HW224843   1.832   1.370   1.921  0.7787 -0.4686 -2.5473
 4404SOL     OW24844   2.148   0.745   2.017 -0.0756  0.0652  0.2042
 4404SOL    HW124845   2.084   0.811   1.989 -2.3763 -1.4306  1.9167
 4404SOL    HW224846   2.207   0.796   2.071  0.9171 -1.9460  1.0260
 4405SOL     OW24847   4.426   3.589  17.039 -0.0381 -0.1326  0.5334
 4405SOL    HW124848   4.384   3.529  16.978  0.5349  2.5384 -2.5117
 4405SOL    HW224849   4.372   3.581  17.117 -1.6739 -0.4022 -0.6453
 4406SOL     OW24850   1.089   4.230  12.979  0.0400 -0.0797 -0.1675
 4406SOL    HW124851   1.159   4.280  13.020  0.4916 -0.9950  0.1919
 4406SOL    HW224852   1.128   4.190  12.902  0.2537 -0.1303 -0.0319
 4407SOL     OW24853   1.842   3.595   9.853 -0.5332  0.1048 -0.4591
 4407SOL    HW124854   1.754   3.557   9.850  0.2128 -1.5192 -1.7291
 4407SOL    HW224855   1.876   3.558   9.772  1.4125  0.5461  0.1658
 4408SOL     OW24856   2.016   1.666   9.613  0.8547  0.0879 -1.1394
 4408SOL    HW124857   1.964   1.709   9.544 -1.2949  1.1821  1.1614
 4408SOL    HW224858   2.100   1.712   9.607  0.4757  1.0260  0.9398
 4409SOL     OW24859   0.371   3.592  13.795  0.0749 -0.1133 -0.0171
 4409SOL    HW124860   0.427   3.570  13.869 -0.8513 -1.8132  0.1493
 4409SOL    HW224861   0.303   3.528  13.777  2.2538 -2.1274 -1.0898
 4410SOL     OW24862   2.696   4.723  17.548  0.0954  0.4373  0.3319
 4410SOL    HW124863   2.716   0.052  17.481 -1.3888  2.3818  1.8249
 4410SOL    HW224864   2.613   4.680  17.526  0.5567  0.1759 -0.9222
 4411SOL     OW24865   1.110   2.673  17.244 -0.1094  0.1803 -0.2912
 4411SOL    HW124866   1.172   2.688  17.316  0.1464 -0.4785 -0.3776
 4411SOL    HW224867   1.168   2.638  17.178 -0.0507  0.1975 -0.2487
 4412SOL     OW24868   0.120   4.437   4.543  0.4814 -0.5632 -0.1241
 4412SOL    HW124869   0.100   4.520   4.499  3.1156 -0.4644 -1.1116
 4412SOL    HW224870   0.031   4.402   4.540  0.3397 -0.3708  1.7375
 4413SOL     OW24871   0.480   0.902   8.122  0.3197 -0.1398  0.2564
 4413SOL    HW124872   0.555   0.872   8.069  1.4956  0.8779  1.3471
 4413SOL    HW224873   0.506   0.994   8.128  2.5270 -0.8709  1.9787
 4414SOL     OW24874   0.288   4.017   0.257 -0.1557  0.3720  0.2976
 4414SOL    HW124875   0.359   4.075   0.287  0.7031  0.3249 -1.6166
 4414SOL    HW224876   0.261   3.971   0.336 -1.3507 -0.3622 -0.5391
 4415SOL     OW24877   0.248   3.992  16.669 -0.4341 -0.2074 -0.0700
 4415SOL    HW124878   0.251   4.053  16.595 -1.4196  0.8470  0.7595
 4415SOL    HW224879   0.342   3.992  16.687 -0.2629  0.8292 -0.8891
 4416SOL     OW24880   3.760   3.832   2.649  0.0588 -0.0386  0.0826
 4416SOL    HW124881   3.814   3.792   2.718  4.3270  0.5390 -2.9049
 4416SOL    HW224882   3.816   3.906   2.625 -1.1026  1.5779  2.2807
 4417SOL     OW24883   3.783   0.069  16.285  0.4139  1.1460  0.0561
 4417SOL    HW124884   3.834   0.126  16.227 -0.7812  2.5200  0.3738
 4417SOL    HW224885   3.807   0.114  16.366  0.7477 -1.3435  1.3544
 4418SOL     OW24886   4.310   1.808   2.456  0.1874  0.0525  0.2035
 4418SOL    HW124887   4.219   1.788   2.480  0.1548 -0.0335  0.0080
 4418SOL    HW224888   4.321   1.903   2.454  0.1365  0.0472 -0.3037
 4419SOL     OW24889   4.609   1.538   9.008  0.2516  0.3602  0.3529
 4419SOL    HW124890   4.622   1.495   8.924 -4.3044 -0.9402  0.3468
 4419SOL    HW224891   4.677   1.496   9.061 -1.3093 -1.2535  1.0390
 4420SOL     OW24892   2.651   4.513   4.164 -0.2527 -0.3555  0.3509
 4420SOL    HW124893   2.643   4.429   4.210 -0.9959  0.3740  1.5596
 4420SOL    HW224894   2.645   4.566   4.243 -0.1866 -0.4523  0.4209
 4421SOL     OW24895   0.599   2.285  11.162  0.1428 -0.2536 -0.4122
 4421SOL    HW124896   0.656   2.225  11.210  1.0559  0.5840 -0.4574
 4421SOL    HW224897   0.538   2.214  11.139 -2.0283  0.8710  1.9477
 4422SOL     OW24898   3.360   0.983   1.398  0.4844 -0.2103 -0.0627
 4422SOL    HW124899   3.423   1.013   1.464 -1.3428  3.5167 -0.0497
 4422SOL    HW224900   3.289   1.044   1.416 -0.6703 -1.2458 -1.1373
 4423SOL     OW24901   3.938   2.303   2.103  0.2468 -0.3538 -0.1566
 4423SOL    HW124902   4.014   2.356   2.079  0.4305 -1.1996 -1.4323
 4423SOL    HW224903   3.978   2.237   2.160  1.3969  1.0179  0.6154
 4424SOL     OW24904   0.282   4.498   2.642 -0.5618  0.4623 -0.7100
 4424SOL    HW124905   0.370   4.517   2.610 -1.0757  1.8526 -1.3211
 4424SOL    HW224906   0.291   4.534   2.730 -0.6349 -1.3222  0.0235
 4425SOL     OW24907   2.061   2.838   6.719  0.2822  0.1396 -0.3137
 4425SOL    HW124908   2.081   2.811   6.808 -0.0248 -1.1546 -0.6315
 4425SOL    HW224909   2.049   2.747   6.690  2.9911 -1.1563  2.7417
 4426SOL     OW24910   0.182   1.286   7.573 -0.0437  0.2804 -0.4031
 4426SOL    HW124911   0.155   1.228   7.501  1.3283 -0.0401 -0.6570
 4426SOL    HW224912   0.237   1.351   7.531  1.7085 -2.2719 -2.0374
 4427SOL     OW24913   1.871   0.209   7.679  0.1353 -0.0352  0.5169
 4427SOL    HW124914   1.951   0.244   7.638 -0.9039 -0.3539 -1.7853
 4427SOL    HW224915   1.843   0.284   7.731 -0.3064  0.0534  0.1491
 4428SOL     OW24916   4.712   2.050  17.458  0.5415  0.3968  1.2628
 4428SOL    HW124917   4.623   2.068  17.489  0.6304  1.2897  0.9948
 4428SOL    HW224918   4.697   2.008  17.373  3.5918  1.2676  0.3112
 4429SOL     OW24919   4.049   0.489  11.816  0.4280  0.0420  0.2209
 4429SOL    HW124920   3.956   0.484  11.793  0.4764 -2.8722  0.7134
 4429SOL    HW224921   4.086   0.458  11.733 -0.0817 -2.0688  0.7882
 4430SOL     OW24922   3.321   2.469   5.743 -0.0450  0.3092 -0.1209
 4430SOL    HW124923   3.234   2.449   5.778 -0.3669 -0.4944 -1.3919
 4430SOL    HW224924   3.374   2.443   5.819 -0.5698 -1.8242 -0.4785
 4431SOL     OW24925   0.075   0.214   9.958 -0.5161  0.2911  0.3462
 4431SOL    HW124926   0.117   0.290   9.918 -0.5757 -0.2934 -0.8102
 4431SOL    HW224927   0.086   0.227  10.053  0.9037 -2.1363  0.5275
 4432SOL     OW24928   1.639   2.931   2.880  0.1264  0.1769  0.3999
 4432SOL    HW124929   1.605   2.994   2.816 -0.3614 -0.5214 -0.0244
 4432SOL    HW224930   1.555   2.913   2.921  1.2844  0.0780  2.7599
 4433SOL     OW24931   2.164   3.695  14.338  0.0312 -0.3305  0.0166
 4433SOL    HW124932   2.174   3.675  14.245 -0.6036  1.3835 -0.4283
 4433SOL    HW224933   2.069   3.698  14.349  0.2620  2.2788  1.2209
 4434SOL     OW24934   4.181   0.026   8.657 -0.5315 -0.8750  1.1050
 4434SOL    HW124935   4.165   0.116   8.632  1.3008 -0.9825 -0.4194
 4434SOL    HW224936   4.273   0.022   8.683 -0.1911  0.4125  0.0746
 4435SOL     OW24937   2.298   0.567  15.489  0.6474  0.3809  0.3433
 4435SOL    HW124938   2.229   0.586  15.425 -0.3355 -0.1646  1.2326
 4435SOL    HW224939   2.375   0.552  15.435 -0.3067 -1.4910 -0.4873
 4436SOL     OW24940   3.269   2.624   3.458 -0.2082  0.2726  0.1460
 4436SOL    HW124941   3.238   2.712   3.480  2.4395  1.2785 -0.1070
 4436SOL    HW224942   3.183   2.584   3.471  0.1503 -1.7730 -3.9769
 4437SOL     OW24943   4.427   1.300   4.160  0.3220 -0.1702  0.2647
 4437SOL    HW124944   4.345   1.307   4.209 -0.1860  0.0807 -0.6224
 4437SOL    HW224945   4.474   1.240   4.218 -0.4937  0.9615  2.1243
 4438SOL     OW24946   1.832   4.281   3.939  0.3726 -0.0373 -0.2973
 4438SOL    HW124947   1.748   4.251   3.904  0.4016 -0.6294  0.1479
 4438SOL    HW224948   1.883   4.200   3.946 -0.9217 -0.7490  0.9279
 4439SOL     OW24949   0.054   4.029   7.909  0.5915  0.3611 -0.1496
 4439SOL    HW124950   0.029   4.108   7.958 -1.6371 -0.4352 -0.0049
 4439SOL    HW224951   0.025   3.961   7.970  0.1914  0.9109  0.2754
 4440SOL     OW24952   0.082   3.789  14.975  0.5457 -0.3726  0.6447
 4440SOL    HW124953   0.122   3.789  14.888 -0.1331  0.6452  0.3293
 4440SOL    HW224954   0.015   3.721  14.972  1.5551 -1.3489  0.1109
 4441SOL     OW24955   0.761   1.492   1.410  0.1787  0.6957  0.2426
 4441SOL    HW124956   0.704   1.456   1.478  3.8218 -3.0011  1.3055
 4441SOL    HW224957   0.846   1.476   1.450 -0.3191 -2.1086  0.1496
 4442SOL     OW24958   1.772   1.536   9.367 -0.4930  0.0906 -0.0511
 4442SOL    HW124959   1.709   1.572   9.430 -0.2101  3.3186 -1.6304
 4442SOL    HW224960   1.841   1.601   9.375 -2.6823  2.4067  0.2965
 4443SOL     OW24961   3.929   2.605   2.202  0.2194 -0.0970 -0.0705
 4443SOL    HW124962   3.895   2.601   2.113 -0.7837 -0.7471  0.3382
 4443SOL    HW224963   4.019   2.574   2.192  0.5892  1.2379 -0.8392
 4444SOL     OW24964   3.814   1.980  15.931  0.0440 -0.1325  0.3453
 4444SOL    HW124965   3.879   1.936  15.876 -1.4850 -3.0513  0.8801
 4444SOL    HW224966   3.734   1.942  15.895 -0.1191 -0.7811  1.4024
 4445SOL     OW24967   3.324   3.243   5.505  0.1183 -0.4563  0.0625
 4445SOL    HW124968   3.313   3.330   5.468 -2.0509 -0.4105  0.8170
 4445SOL    HW224969   3.343   3.266   5.596 -2.2604  1.3123  0.1281
 4446SOL     OW24970   4.696   2.068   6.195 -0.1647  0.3944 -0.0455
 4446SOL    HW124971   0.013   2.145   6.215 -0.9337  1.0195 -0.3597
 4446SOL    HW224972   4.669   2.043   6.283 -0.6702 -0.0432 -0.3226
 4447SOL     OW24973   0.618   1.093  15.945  0.4759  0.5487  0.3557
 4447SOL    HW124974   0.695   1.150  15.948 -0.2300  1.5645 -0.8317
 4447SOL    HW224975   0.548   1.155  15.967 -0.2265 -0.1405  0.0456
 4448SOL     OW24976   0.579   4.591  17.418  0.0365  0.2472  0.7233
 4448SOL    HW124977   0.588   4.649  17.494 -4.3188  0.6670  0.8957
 4448SOL    HW224978   0.667   4.556  17.407 -1.1011 -2.2455 -0.3597
 4449SOL     OW24979   0.605   4.508   5.339 -0.2428 -0.2238  0.4747
 4449SOL    HW124980   0.597   4.578   5.274 -0.1105  0.8745  1.6517
 4449SOL    HW224981   0.696   4.483   5.323  0.5968  2.6074  0.8390
 4450SOL     OW24982   3.046   3.331   8.369 -0.2834 -0.0234 -0.3264
 4450SOL    HW124983   3.102   3.274   8.422  0.3789  1.2352  0.3285
 4450SOL    HW224984   2.971   3.327   8.428  0.6725  0.5625  0.9244
 4451SOL     OW24985   0.510   0.671   4.474 -0.2402  0.6932 -0.3600
 4451SOL    HW124986   0.419   0.642   4.468  0.1272 -0.7122  1.2230
 4451SOL    HW224987   0.520   0.743   4.411  0.8163  1.0096  0.1645
 4452SOL     OW24988   2.774   2.756   9.970  0.6339  0.5165 -0.0278
 4452SOL    HW124989   2.735   2.842   9.952 -1.9840  0.0208  3.2128
 4452SOL    HW224990   2.856   2.752   9.921 -0.2163  0.2337 -1.4484
 4453SOL     OW24991   1.649   0.045   3.411 -0.2195  0.0070 -0.2458
 4453SOL    HW124992   1.710   0.052   3.485  0.1240  0.6192 -0.5850
 4453SOL    HW224993   1.690   4.716   3.354 -1.3502 -1.9218  1.1634
 4454SOL     OW24994   4.345   0.029   6.205  0.1409 -0.2065  0.0594
 4454SOL    HW124995   4.256   0.049   6.234 -0.5719  0.0488 -2.3796
 4454SOL    HW224996   4.335   4.675   6.175 -1.5554  0.1877 -0.5581
 4455SOL     OW24997   3.560   3.729   6.952  0.4091 -0.0098  0.0550
 4455SOL    HW124998   3.621   3.721   6.879  1.4635 -0.6632  0.9994
 4455SOL    HW224999   3.616   3.781   7.010  0.3774 -2.3084  2.1372
 4456SOL     OW25000   0.025   3.599   4.496  0.3474 -0.2837  0.1562
 4456SOL    HW125001   0.119   3.611   4.480  0.6223  0.4420  2.3803
 4456SOL    HW225002   0.007   3.505   4.489  1.1291 -0.1940 -3.2180
 4457SOL     OW25003   2.278   1.622   6.101 -0.3380  0.2088 -0.4497
 4457SOL    HW125004   2.263   1.691   6.036 -0.2222 -0.3712 -1.0889
 4457SOL    HW225005   2.246   1.545   6.055  0.8788  0.4074 -1.6205
 4458SOL     OW25006   1.266   3.635   1.939  0.3885  0.3743  0.9466
 4458SOL    HW125007   1.347   3.675   1.972  0.1414 -0.9605  3.0907
 4458SOL    HW225008   1.211   3.708   1.912 -1.1483 -0.2752  2.3461
 4459SOL     OW25009   0.259   1.993  14.010 -0.1774  0.6838 -0.3086
 4459SOL    HW125010   0.203   2.021  14.082  1.1765  0.4518  0.8242
 4459SOL    HW225011   0.243   1.902  13.983  0.7724  0.5694 -0.5045
 4460SOL     OW25012   2.465   1.794   5.124  0.5383 -0.6882 -0.8654
 4460SOL    HW125013   2.401   1.743   5.172  2.7160 -0.4819  2.2789
 4460SOL    HW225014   2.547   1.762   5.162  1.8459  1.8782 -1.5250
 4461SOL     OW25015   3.365   3.620   5.416  0.7872  0.3541  0.4388
 4461SOL    HW125016   3.456   3.591   5.416  0.7196  0.1392  0.2004
 4461SOL    HW225017   3.323   3.573   5.344  1.5013  0.8161 -0.2755
 4462SOL     OW25018   2.712   2.681   3.409  0.1914  0.4055 -0.0035
 4462SOL    HW125019   2.729   2.773   3.429  2.5521  0.3987 -1.9576
 4462SOL    HW225020   2.636   2.693   3.352 -0.0371  0.8114  0.3825
 4463SOL     OW25021   2.803   0.660   5.544 -0.3969  0.1819 -0.0816
 4463SOL    HW125022   2.844   0.574   5.538  1.2734  1.0062 -0.4398
 4463SOL    HW225023   2.711   0.633   5.537 -0.3714 -0.0984  0.7001
 4464SOL     OW25024   1.216   3.170   1.469  0.2049 -0.2393 -0.0223
 4464SOL    HW125025   1.210   3.154   1.563 -0.2675  0.6855  0.1051
 4464SOL    HW225026   1.312   3.165   1.470  0.2171  0.3980  2.1963
 4465SOL     OW25027   1.848   3.276  15.994 -0.0957 -0.0236 -0.5382
 4465SOL    HW125028   1.873   3.186  15.974 -1.0261 -0.6762  1.1841
 4465SOL    HW225029   1.910   3.297  16.064 -2.0393 -0.0854  1.2019
 4466SOL     OW25030   3.197   2.076  14.894  0.0543 -0.0258  0.3377
 4466SOL    HW125031   3.284   2.117  14.897  0.9862 -1.8210 -1.8605
 4466SOL    HW225032   3.135   2.139  14.858  2.4859  0.2048 -3.4572
 4467SOL     OW25033   1.603   4.568  16.817  0.2169 -0.1220 -0.1573
 4467SOL    HW125034   1.686   4.609  16.795 -0.8564  2.1364 -0.0257
 4467SOL    HW225035   1.633   4.477  16.828 -1.6124 -0.8562 -1.1760
 4468SOL     OW25036   4.210   0.427   1.000  0.1027  0.4130 -0.3763
 4468SOL    HW125037   4.175   0.361   0.939  1.0111 -2.3302  2.1274
 4468SOL    HW225038   4.253   0.372   1.065  1.1970  2.1552  0.3360
 4469SOL     OW25039   1.422   0.563  12.420 -0.5553  0.6539  0.0952
 4469SOL    HW125040   1.391   0.481  12.459 -2.0358  1.2856  0.2605
 4469SOL    HW225041   1.514   0.566  12.446 -0.8954  1.7307  1.2054
 4470SOL     OW25042   1.041   3.808   0.452  0.3123 -0.7529  0.0696
 4470SOL    HW125043   1.043   3.872   0.523 -1.8783 -0.1330 -0.4482
 4470SOL    HW225044   1.107   3.745   0.481  1.5695  0.4745 -0.1144
 4471SOL     OW25045   4.067   0.437   4.813 -0.2971 -0.2469  0.0071
 4471SOL    HW125046   3.988   0.388   4.835 -0.7573  0.7709  0.6410
 4471SOL    HW225047   4.078   0.421   4.719 -1.3689  1.5015 -0.4323
 4472SOL     OW25048   3.625   2.539  13.702 -0.4447  0.3623 -0.0773
 4472SOL    HW125049   3.601   2.580  13.618 -0.8369 -1.8389 -1.0250
 4472SOL    HW225050   3.560   2.581  13.759 -0.6801  0.8069 -0.6691
 4473SOL     OW25051   1.626   0.884  12.739  0.0078  0.5581  0.3048
 4473SOL    HW125052   1.540   0.841  12.747  1.3618 -2.6941 -2.7156
 4473SOL    HW225053   1.628   0.966  12.788  0.7119  1.2931 -0.9491
 4474SOL     OW25054   0.369   3.240   0.194 -0.6251 -0.0802  0.1071
 4474SOL    HW125055   0.435   3.302   0.162 -1.4162 -0.5799 -2.4394
 4474SOL    HW225056   0.425   3.174   0.233  0.4472  0.4465 -0.5273
 4475SOL     OW25057   2.437   3.691  10.155  0.0352 -0.3300  0.2042
 4475SOL    HW125058   2.462   3.674  10.246  0.2767 -0.4024  0.1241
 4475SOL    HW225059   2.351   3.649  10.160 -0.1250  0.0650  0.7258
 4476SOL     OW25060   3.950   2.325   1.820 -0.1012  1.0823  0.3826
 4476SOL    HW125061   3.880   2.260   1.808 -0.1886  1.3779 -0.6847
 4476SOL    HW225062   3.935   2.361   1.908  2.8416 -0.2895  1.4504
 4477SOL     OW25063   2.829   0.607  12.280 -0.9574  0.0774 -0.2042
 4477SOL    HW125064   2.788   0.625  12.365 -0.2857 -1.2806  0.4043
 4477SOL    HW225065   2.754   0.599  12.221 -0.7605 -0.4739 -0.3758
 4478SOL     OW25066   3.734   3.926   6.002  0.0064  0.8904  0.0112
 4478SOL    HW125067   3.787   3.855   5.967 -1.8034  0.3061 -1.5254
 4478SOL    HW225068   3.729   3.985   5.926  1.8813 -0.0502 -0.8431
 4479SOL     OW25069   4.603   3.900  13.186  0.4627  0.6858 -0.3737
 4479SOL    HW125070   4.529   3.902  13.126 -0.4824  0.0910  0.7600
 4479SOL    HW225071   4.633   3.809  13.190 -0.4464  0.2998 -2.9665
 4480SOL     OW25072   3.986   3.477   7.538  0.4518  0.5081 -0.3819
 4480SOL    HW125073   3.894   3.461   7.556 -0.0394  0.0382 -3.2649
 4480SOL    HW225074   4.011   3.532   7.612  1.7150 -3.6447  2.2740
 4481SOL     OW25075   2.179   2.063  10.297 -0.2068 -0.1449  0.3571
 4481SOL    HW125076   2.248   2.001  10.323  0.6794  0.6271 -0.1660
 4481SOL    HW225077   2.216   2.131  10.242  3.5069 -0.7479  2.1043
 4482SOL     OW25078   0.741   0.878   9.195 -0.1992 -0.3062 -0.1918
 4482SOL    HW125079   0.812   0.909   9.250 -0.7265 -2.4445  1.6972
 4482SOL    HW225080   0.730   0.792   9.236 -0.3007  0.2528  0.9427
 4483SOL     OW25081   2.075   0.913   2.856  0.6683  0.2186 -0.1232
 4483SOL    HW125082   2.132   0.973   2.903  3.2340 -1.5718 -0.9800
 4483SOL    HW225083   2.069   0.847   2.926  0.3878 -0.1930 -0.5360
 4484SOL     OW25084   4.082   2.946   3.333  0.1060  0.4053  0.2728
 4484SOL    HW125085   4.094   3.041   3.340 -2.4262  0.6559  1.0674
 4484SOL    HW225086   4.156   2.911   3.282 -0.4928  1.2375 -1.1870
 4485SOL     OW25087   1.171   0.048   2.606 -0.3148  0.1882  0.7367
 4485SOL    HW125088   1.186   0.029   2.514  2.4214 -0.1199  1.2545
 4485SOL    HW225089   1.156   4.694   2.632  0.1500 -0.2332 -0.4758
 4486SOL     OW25090   4.549   0.083   6.403 -0.0511  0.1871 -0.3031
 4486SOL    HW125091   4.473   0.061   6.349  0.7914 -2.1378 -0.5506
 4486SOL    HW225092   4.595   0.127   6.333 -0.0337  0.4969 -0.0972
 4487SOL     OW25093   0.091   2.659   6.777 -0.1169  0.0819 -0.3627
 4487SOL    HW125094   0.001   2.664   6.745  0.2798 -0.4209 -1.5403
 4487SOL    HW225095   0.070   2.661   6.871  1.6037  1.6032  0.0041
 4488SOL     OW25096   0.309   4.206   3.508 -0.3760  0.1919  0.0291
 4488SOL    HW125097   0.279   4.271   3.572  0.3255  2.1565 -1.6204
 4488SOL    HW225098   0.228   4.155   3.497  0.5066 -1.6180  2.0200
 4489SOL     OW25099   2.540   1.023  16.318  0.3104 -0.1783  0.1244
 4489SOL    HW125100   2.623   1.053  16.281  0.9194 -2.1696 -0.1483
 4489SOL    HW225101   2.495   1.106  16.328  0.3403  0.1413 -2.3077
 4490SOL     OW25102   4.595   4.723  11.946 -0.4413  0.1606  0.0136
 4490SOL    HW125103   4.594   0.016  11.855  1.4970  1.7412  0.4888
 4490SOL    HW225104   4.511   0.028  11.965 -0.3065  0.1668  0.5959
 4491SOL     OW25105   0.638   3.752   2.566  0.0617 -0.0968 -0.1800
 4491SOL    HW125106   0.556   3.762   2.516 -0.0006 -3.4565 -0.7629
 4491SOL    HW225107   0.700   3.743   2.494 -0.0729 -2.2073 -0.0524
 4492SOL     OW25108   0.540   1.667   7.881 -0.2038  0.0682 -0.4010
 4492SOL    HW125109   0.612   1.626   7.928 -0.9821 -0.5166  0.2705
 4492SOL    HW225110   0.506   1.739   7.934  3.1830  0.9266  0.5918
 4493SOL     OW25111   3.009   2.111   1.974 -0.3918  0.7059 -0.3240
 4493SOL    HW125112   3.034   2.037   1.917 -1.2071  2.1208 -2.5232
 4493SOL    HW225113   2.914   2.101   1.981 -0.2728  0.7050  1.1663
 4494SOL     OW25114   2.340   3.403   5.057  0.2521  0.8658 -0.4051
 4494SOL    HW125115   2.265   3.360   5.098  0.2435  0.0882 -1.2231
 4494SOL    HW225116   2.301   3.487   5.032 -3.6611 -1.2764 -1.4884
 4495SOL     OW25117   2.622   2.505  16.579  0.2209  0.4976 -0.7250
 4495SOL    HW125118   2.530   2.521  16.598  0.2378 -0.2475 -0.0365
 4495SOL    HW225119   2.648   2.500  16.671  0.4178 -4.0603 -1.0475
 4496SOL     OW25120   4.098   2.331   0.733 -0.6977  0.0941 -0.0245
 4496SOL    HW125121   4.066   2.408   0.685 -0.6029 -0.2790 -0.6805
 4496SOL    HW225122   4.044   2.269   0.685 -1.8645 -0.2606  1.7600
 4497SOL     OW25123   0.466   3.058   2.246 -0.1835 -0.0623  0.0285
 4497SOL    HW125124   0.509   3.026   2.167  0.7083  0.5312  0.2794
 4497SOL    HW225125   0.540   3.091   2.296  0.4769  0.4949 -1.3011
 4498SOL     OW25126   0.204   4.367   4.897  0.2877  0.2885  0.0266
 4498SOL    HW125127   0.121   4.389   4.939  1.2107  0.0160  1.9946
 4498SOL    HW225128   0.247   4.323   4.970  1.0842 -0.7801 -1.0894
 4499SOL     OW25129   3.225   3.861   4.074 -0.3793 -0.0827  0.1527
 4499SOL    HW125130   3.283   3.787   4.094 -0.6527 -0.4686 -0.4406
 4499SOL    HW225131   3.289   3.924   4.042  0.1301  0.3868  2.1253
 4500SOL     OW25132   2.225   3.382  12.005 -0.4338  0.3054 -0.3763
 4500SOL    HW125133   2.271   3.322  12.065 -0.0253  0.5243 -0.4712
 4500SOL    HW225134   2.157   3.411  12.066 -1.4487  0.0916 -1.3990
 4501SOL     OW25135   3.922   0.730  14.588 -0.1203 -0.7166  0.6935
 4501SOL    HW125136   3.920   0.735  14.684 -0.9265 -0.9059  0.6916
 4501SOL    HW225137   3.899   0.819  14.562 -1.2042 -1.1279  0.2423
 4502SOL     OW25138   0.878   2.785  17.238 -0.9477  0.3880 -0.0827
 4502SOL    HW125139   0.949   2.720  17.236 -0.8899  0.4144  1.7292
 4502SOL    HW225140   0.891   2.845  17.164  1.7589 -2.4867 -1.9474
 4503SOL     OW25141   1.392   2.286   6.562  0.3563  0.5209  0.5136
 4503SOL    HW125142   1.308   2.333   6.565  0.0236 -0.0452 -0.1490
 4503SOL    HW225143   1.382   2.203   6.607 -1.2931  0.7040  0.4918
 4504SOL     OW25144   2.277   0.980   3.906 -0.4565 -0.3220  0.3297
 4504SOL    HW125145   2.347   1.034   3.869  0.9776 -1.3474  1.5018
 4504SOL    HW225146   2.318   0.940   3.983 -0.7945 -0.5459  0.3949
 4505SOL     OW25147   1.203   2.167  12.699  0.0661 -0.1888 -0.1091
 4505SOL    HW125148   1.235   2.199  12.784 -1.1664  0.2028  0.2110
 4505SOL    HW225149   1.240   2.079  12.707  2.6725  0.7329 -2.1260
 4506SOL     OW25150   2.119   1.686   4.987 -0.0688  0.4641  0.0918
 4506SOL    HW125151   2.140   1.713   5.076  1.8360  3.5340 -1.2943
 4506SOL    HW225152   2.103   1.592   5.001 -0.5777  0.7366  1.3107
 4507SOL     OW25153   4.022   3.951  13.820 -0.0600  0.2415 -0.3636
 4507SOL    HW125154   4.078   3.913  13.752 -0.0527  0.5678 -0.5416
 4507SOL    HW225155   3.948   3.890  13.817  0.7872 -0.8893  2.3897
 4508SOL     OW25156   1.063   0.793   4.498 -0.3610 -0.4692 -0.0752
 4508SOL    HW125157   0.989   0.758   4.449 -1.5507  1.8065  0.1193
 4508SOL    HW225158   1.043   0.763   4.586  1.0421  2.4496  1.2148
 4509SOL     OW25159   0.920   4.688   8.603  0.1422 -0.3532  0.2025
 4509SOL    HW125160   0.897   4.709   8.694 -1.1750  1.4186 -0.5315
 4509SOL    HW225161   0.832   4.666   8.572  0.4462  0.7352 -1.4215
 4510SOL     OW25162   0.514   4.143  11.270 -0.2462 -0.5497  0.1687
 4510SOL    HW125163   0.499   4.146  11.175  1.2978  1.4014 -0.0182
 4510SOL    HW225164   0.435   4.116  11.316  1.1572 -1.1286  2.2231
 4511SOL     OW25165   1.796   2.147  16.905 -0.2264  0.3878  0.0969
 4511SOL    HW125166   1.746   2.189  16.975 -1.8341 -0.6071 -0.4701
 4511SOL    HW225167   1.862   2.103  16.958  1.0558  1.8799 -0.2597
 4512SOL     OW25168   3.546   3.593   2.187 -0.1732  0.2936 -0.0107
 4512SOL    HW125169   3.514   3.577   2.275  1.2885  0.3538  0.5280
 4512SOL    HW225170   3.490   3.531   2.141 -0.6342 -1.2515  2.6378
 4513SOL     OW25171   3.984   2.549   5.894 -1.0729 -0.3501 -0.2124
 4513SOL    HW125172   3.999   2.621   5.955 -1.5945 -1.3539  1.0893
 4513SOL    HW225173   4.065   2.556   5.843  0.1598 -1.4582  1.6079
 4514SOL     OW25174   2.391   2.399   6.287 -0.2712  0.8906 -0.3340
 4514SOL    HW125175   2.365   2.331   6.225 -0.6726 -0.8255  1.7299
 4514SOL    HW225176   2.449   2.344   6.340 -0.4806 -0.1669 -1.2030
 4515SOL     OW25177   0.935   4.258   2.410  0.6300  0.2501 -0.0339
 4515SOL    HW125178   1.003   4.204   2.450  0.3048 -1.1509 -1.3553
 4515SOL    HW225179   0.982   4.281   2.329 -1.0361  0.8939 -0.8131
 4516SOL     OW25180   3.271   2.200   1.960 -0.2047 -0.3573  0.5033
 4516SOL    HW125181   3.181   2.168   1.970 -0.3367  1.0994  3.8474
 4516SOL    HW225182   3.264   2.218   1.867  2.2982 -0.3770  0.3242
 4517SOL     OW25183   0.590   2.520  14.246 -0.2065  0.4552 -0.0837
 4517SOL    HW125184   0.623   2.567  14.323  0.6442  0.8051 -0.6699
 4517SOL    HW225185   0.625   2.579  14.180 -0.6166  1.1140  0.2889
 4518SOL     OW25186   3.016   4.484   5.092 -0.1003  0.4298 -0.0365
 4518SOL    HW125187   3.053   4.405   5.053 -1.7043  0.0169 -0.7108
 4518SOL    HW225188   2.956   4.437   5.150  0.6397 -0.0931  0.2970
 4519SOL     OW25189   1.016   2.103   3.949 -0.4300 -0.0573  0.3234
 4519SOL    HW125190   0.945   2.045   3.922 -1.2733  0.9442  0.3922
 4519SOL    HW225191   0.970   2.187   3.953 -0.0152  0.2279 -0.7251
 4520SOL     OW25192   3.975   2.837  12.772 -0.9008  0.4299  0.3588
 4520SOL    HW125193   3.879   2.841  12.766 -0.7211 -0.1520 -2.6857
 4520SOL    HW225194   3.975   2.827  12.867 -0.7558 -0.2533  0.2852
 4521SOL     OW25195   3.996   0.296   6.391  0.8641 -0.3768 -0.2443
 4521SOL    HW125196   4.063   0.306   6.323 -0.0302  2.1612 -0.7363
 4521SOL    HW225197   3.916   0.294   6.338  2.3050  2.9500 -2.5614
 4522SOL     OW25198   1.554   2.655   4.040 -0.2886 -0.1640 -0.2280
 4522SOL    HW125199   1.481   2.609   3.999 -0.0920 -0.7025  0.0274
 4522SOL    HW225200   1.566   2.732   3.985  0.6461 -1.5057 -1.9129
 4523SOL     OW25201   2.547   3.494  13.828 -0.4303  0.5693  0.0715
 4523SOL    HW125202   2.454   3.490  13.809 -0.2317  2.4588 -1.2525
 4523SOL    HW225203   2.585   3.435  13.763 -0.0923  0.3235  0.4862
 4524SOL     OW25204   1.802   0.386   0.643 -0.0637 -0.2440  0.1971
 4524SOL    HW125205   1.716   0.348   0.657  0.1493  0.2184  2.7566
 4524SOL    HW225206   1.819   0.418   0.731 -2.2774 -1.4550  1.0461
 4525SOL     OW25207   2.404   4.553  17.008  0.5877  0.2338 -0.3549
 4525SOL    HW125208   2.403   4.634  16.957  1.1797 -0.6659 -1.7720
 4525SOL    HW225209   2.496   4.550  17.037  0.8654 -4.5581 -1.7216
 4526SOL     OW25210   3.947   3.193   8.521  0.2163 -0.0684  0.4051
 4526SOL    HW125211   3.933   3.102   8.547  0.1274 -0.3802 -0.7135
 4526SOL    HW225212   4.008   3.185   8.447 -0.5199 -2.3446  0.0360
 4527SOL     OW25213   2.755   2.941   3.484 -0.1809 -0.8893 -0.4620
 4527SOL    HW125214   2.768   2.968   3.575 -1.1354 -0.8234 -0.3453
 4527SOL    HW225215   2.694   3.009   3.455 -1.2043 -1.4130  0.4791
 4528SOL     OW25216   2.067   0.496   2.384  0.3418  0.0986  0.1804
 4528SOL    HW125217   2.011   0.522   2.311  2.4810 -0.0361 -1.4958
 4528SOL    HW225218   2.003   0.490   2.455 -0.1823 -2.0478 -0.4911
 4529SOL     OW25219   1.583   3.602   3.061  0.3513 -0.3616 -0.3500
 4529SOL    HW125220   1.560   3.529   3.003 -2.1163 -1.0209  1.4665
 4529SOL    HW225221   1.515   3.603   3.129  0.5861  0.4710 -0.1346
 4530SOL     OW25222   3.634   3.486   3.580  0.5924  0.0132  0.3705
 4530SOL    HW125223   3.652   3.579   3.568 -1.4141  0.3301 -0.2301
 4530SOL    HW225224   3.715   3.459   3.537 -0.0459 -1.7003  0.2449
 4531SOL     OW25225   2.264   3.797   8.170  0.4488  0.0726 -0.2219
 4531SOL    HW125226   2.356   3.794   8.193  0.1455 -0.0916  0.9953
 4531SOL    HW225227   2.275   3.821   8.078 -0.4006 -1.9091 -0.8435
 4532SOL     OW25228   2.934   4.406   7.936  0.1348 -0.0098  0.1447
 4532SOL    HW125229   2.923   4.475   8.002  1.3460  1.3991 -1.1386
 4532SOL    HW225230   2.991   4.351   7.990  0.4098  0.2741  0.1395
 4533SOL     OW25231   2.348   0.890  16.791  0.6090 -0.2160  0.1021
 4533SOL    HW125232   2.331   0.860  16.702 -0.5787 -0.4292  0.4050
 4533SOL    HW225233   2.292   0.824  16.832 -1.2604  1.1025 -0.3661
 4534SOL     OW25234   2.719   3.774  11.279 -0.0922  0.0740 -0.0197
 4534SOL    HW125235   2.662   3.698  11.294  1.4227 -0.9775  0.4539
 4534SOL    HW225236   2.663   3.851  11.289 -1.4936 -0.4458 -4.0077
 4535SOL     OW25237   1.301   0.947   5.375 -0.2037  0.4399  0.3164
 4535SOL    HW125238   1.322   0.916   5.287  0.6844  1.3104  0.2219
 4535SOL    HW225239   1.279   1.039   5.365  1.8618  0.7588 -1.1909
 4536SOL     OW25240   3.148   4.600   3.812 -0.0052 -0.1556 -0.2199
 4536SOL    HW125241   3.207   4.655   3.761 -1.0912 -0.4804 -1.8094
 4536SOL    HW225242   3.094   4.667   3.855  1.7426 -0.2065  2.0777
 4537SOL     OW25243   0.304   3.261  12.377  0.1670  0.3166  0.3031
 4537SOL    HW125244   0.284   3.345  12.335 -2.1294 -0.0845  0.5753
 4537SOL    HW225245   0.350   3.285  12.457  0.3935 -0.7002  0.4720
 4538SOL     OW25246   1.903   1.233   2.748  0.1901  0.0674 -0.1177
 4538SOL    HW125247   1.948   1.318   2.746 -1.6785  1.0660 -0.1583
 4538SOL    HW225248   1.814   1.254   2.776  0.8332 -0.1883  2.1196
 4539SOL     OW25249   4.374   2.918   0.718  0.3374  0.2473 -0.5005
 4539SOL    HW125250   4.467   2.940   0.715  0.7235 -1.1793  1.4138
 4539SOL    HW225251   4.383   2.824   0.730  0.1072  0.1648 -0.9695
 4540SOL     OW25252   0.555   0.663   1.932  0.2437  0.1446  0.7733
 4540SOL    HW125253   0.460   0.662   1.940  0.3092 -0.6034  1.4459
 4540SOL    HW225254   0.565   0.726   1.861 -2.5798  0.2628  0.5003
 4541SOL     OW25255   1.242   4.495  13.730  0.6650  0.0331  0.4507
 4541SOL    HW125256   1.147   4.491  13.731  0.7014 -1.7846 -3.3765
 4541SOL    HW225257   1.273   4.409  13.758 -1.3865 -1.1249 -0.8610
 4542SOL     OW25258   1.407   1.067   8.036 -0.4152 -0.5179  0.7842
 4542SOL    HW125259   1.447   0.981   8.036 -2.1094 -1.3183 -0.6351
 4542SOL    HW225260   1.321   1.051   7.997 -0.1973  1.0466 -0.3777
 4543SOL     OW25261   4.041   0.450   7.403 -0.1044 -0.2144  0.1935
 4543SOL    HW125262   4.114   0.388   7.395  0.3383  0.2973  0.2166
 4543SOL    HW225263   4.088   0.533   7.412  0.7523 -0.7201  0.4619
 4544SOL     OW25264   1.742   2.673   6.623  0.1791 -0.3228  0.9577
 4544SOL    HW125265   1.787   2.616   6.686  3.3334  0.0458 -0.9517
 4544SOL    HW225266   1.681   2.607   6.591 -0.1671  0.4313  0.0652
 4545SOL     OW25267   2.672   0.952   5.241 -0.3081  0.7405 -0.1104
 4545SOL    HW125268   2.713   1.038   5.238  1.7402 -0.2123  0.9353
 4545SOL    HW225269   2.579   0.975   5.247 -0.4399  0.6516 -1.8066
 4546SOL     OW25270   3.003   0.177  14.723 -0.2852 -0.0973 -0.2797
 4546SOL    HW125271   3.019   0.265  14.690 -1.9191 -0.6032 -2.4182
 4546SOL    HW225272   2.964   0.194  14.809 -1.7717 -3.4145 -0.3101
 4547SOL     OW25273   3.162   3.999  11.112  0.5572 -0.0014 -0.8741
 4547SOL    HW125274   3.198   3.999  11.200 -2.5372  1.0439  0.3731
 4547SOL    HW225275   3.069   3.986  11.130  1.0657  0.2533  1.8592
 4548SOL     OW25276   0.414   1.544  13.420  0.7872  1.0155  0.1550
 4548SOL    HW125277   0.374   1.514  13.501 -0.2743  3.4781  0.5575
 4548SOL    HW225278   0.425   1.636  13.445 -0.3507  1.5465 -1.3029
 4549SOL     OW25279   4.031   3.951  13.286  0.1423 -0.4785 -0.2608
 4549SOL    HW125280   3.997   3.961  13.374  2.5869 -1.4401  0.7870
 4549SOL    HW225281   4.124   3.947  13.308  0.3034  0.4544 -0.7916
 4550SOL     OW25282   4.383   2.460   6.436  0.4663 -0.2272 -0.9061
 4550SOL    HW125283   4.458   2.401   6.438  1.1103  0.6331  0.6775
 4550SOL    HW225284   4.336   2.424   6.511 -1.3028  1.1893 -1.3264
 4551SOL     OW25285   3.186   2.967  13.905  0.3123 -0.1790 -0.3189
 4551SOL    HW125286   3.131   2.912  13.849  1.5119 -1.9319  0.2223
 4551SOL    HW225287   3.226   2.897  13.956  0.6497  1.0922  1.1789
 4552SOL     OW25288   1.927   1.120  10.613 -0.0284 -0.1108 -0.2493
 4552SOL    HW125289   1.926   1.202  10.564 -0.1767  0.5253  0.7936
 4552SOL    HW225290   2.014   1.087  10.594  0.2942  0.2890  0.5023
 4553SOL     OW25291   1.715   0.065   5.415  0.7490  0.0284  0.1028
 4553SOL    HW125292   1.789   0.053   5.355  0.8195  0.0792  0.1800
 4553SOL    HW225293   1.650   0.116   5.368 -0.8378 -1.1110  1.0720
 4554SOL     OW25294   2.922   4.381  15.120  0.0923  0.2256  0.5429
 4554SOL    HW125295   2.866   4.448  15.082  0.2981 -0.1172 -0.3538
 4554SOL    HW225296   2.902   4.304  15.067 -0.6347 -0.8796  2.4142
 4555SOL     OW25297   4.345   4.429   7.774 -0.5420 -0.1091 -1.0096
 4555SOL    HW125298   4.346   4.493   7.703  0.1059  2.0872  0.9913
 4555SOL    HW225299   4.331   4.346   7.727 -0.4489 -0.2400 -0.8072
 4556SOL     OW25300   0.592   3.594   6.709 -0.0092  0.9140 -0.4989
 4556SOL    HW125301   0.529   3.551   6.767  0.4692  0.7950 -0.0695
 4556SOL    HW225302   0.646   3.643   6.771  0.9290  0.1023 -0.6773
 4557SOL     OW25303   0.588   2.947   5.989  0.6486  0.1695  0.5557
 4557SOL    HW125304   0.529   3.008   5.944  1.9622  0.2189 -1.1149
 4557SOL    HW225305   0.668   2.999   5.985  0.5105  0.4299  1.1869
 4558SOL     OW25306   4.086   4.457   7.444  0.1065 -0.5942 -0.1724
 4558SOL    HW125307   4.140   4.474   7.367 -1.3755 -1.4038 -1.3742
 4558SOL    HW225308   4.142   4.389   7.482 -0.3739 -0.6585  0.4148
 4559SOL     OW25309   0.552   2.373   5.212  0.5800 -0.1438  0.2075
 4559SOL    HW125310   0.578   2.388   5.303 -0.7792 -2.3141  0.9477
 4559SOL    HW225311   0.633   2.333   5.183  0.3266  1.5011 -2.7128
 4560SOL     OW25312   1.894   3.060   3.469 -0.1513 -0.0493 -0.0089
 4560SOL    HW125313   1.977   3.017   3.490 -1.4395 -1.1030  2.9328
 4560SOL    HW225314   1.923   3.150   3.479 -0.1950 -0.0953  0.5401
 4561SOL     OW25315   2.572   1.276   6.790 -0.1041  0.0736  0.0870
 4561SOL    HW125316   2.582   1.283   6.695  2.3032  1.0523  0.3931
 4561SOL    HW225317   2.552   1.367   6.813  2.6600  1.2388 -2.1119
 4562SOL     OW25318   4.172   0.853   5.504 -0.5176 -0.1351  0.6325
 4562SOL    HW125319   4.179   0.942   5.467  1.2283 -0.3478  0.4287
 4562SOL    HW225320   4.082   0.842   5.533 -1.1715 -1.3996 -1.8759
 4563SOL     OW25321   0.417   4.710   7.212 -0.6549  0.0378  0.3767
 4563SOL    HW125322   0.487   4.646   7.218 -0.8166 -0.0890  0.9535
 4563SOL    HW225323   0.373   4.700   7.127  0.7866 -1.0828 -0.2338
 4564SOL     OW25324   2.243   4.155   6.891  0.7850  0.1868 -0.6641
 4564SOL    HW125325   2.175   4.095   6.863 -0.2985  1.6620 -1.2013
 4564SOL    HW225326   2.314   4.093   6.909  0.1438 -0.1524  0.7144
 4565SOL     OW25327   1.792   2.741  14.170  0.2378 -0.6345 -0.1129
 4565SOL    HW125328   1.865   2.696  14.213  1.0688  0.3739 -0.4612
 4565SOL    HW225329   1.840   2.802  14.113  0.0073  0.8489  1.2710
 4566SOL     OW25330   2.624   2.198  16.937  0.5770  0.4666 -0.4300
 4566SOL    HW125331   2.664   2.132  16.993 -0.3528 -0.8859 -1.3747
 4566SOL    HW225332   2.618   2.144  16.858 -0.0739  0.1678 -0.1724
 4567SOL     OW25333   1.444   3.735   2.303 -0.0860  0.2123  0.2860
 4567SOL    HW125334   1.500   3.809   2.328 -0.9562  1.0362 -0.2048
 4567SOL    HW225335   1.382   3.733   2.375 -2.0897  1.1938 -1.4093
 4568SOL     OW25336   0.605   1.990   4.163  0.2612  0.1807 -0.1179
 4568SOL    HW125337   0.662   2.060   4.194  0.8506 -0.9929  1.4384
 4568SOL    HW225338   0.519   2.023   4.188 -0.0835 -0.6798 -0.1492
 4569SOL     OW25339   3.794   4.566   9.523  0.0381 -0.4059 -0.2242
 4569SOL    HW125340   3.704   4.598   9.533  0.3815  1.1559 -2.1724
 4569SOL    HW225341   3.832   4.636   9.577  1.0563  0.4303 -2.0304
 4570SOL     OW25342   1.230   1.637   6.895  0.0507 -0.3528 -0.4373
 4570SOL    HW125343   1.172   1.688   6.951 -0.5262 -1.1471 -0.3185
 4570SOL    HW225344   1.284   1.586   6.955 -0.3361 -0.2870 -0.0332
 4571SOL     OW25345   1.955   0.655   1.315  0.3863  0.2236 -0.0641
 4571SOL    HW125346   1.991   0.566   1.314 -3.2394 -1.2741  1.3849
 4571SOL    HW225347   1.958   0.666   1.410  2.4902 -0.9306  0.0038
 4572SOL     OW25348   0.298   3.623   5.225 -0.3979 -0.1385  0.5438
 4572SOL    HW125349   0.233   3.684   5.190  0.1804 -0.7651 -1.6563
 4572SOL    HW225350   0.285   3.620   5.320  5.0055  0.6088  1.2994
 4573SOL     OW25351   3.390   0.428  10.503  0.1071  0.2433  0.3076
 4573SOL    HW125352   3.328   0.492  10.537 -0.7542 -0.9189  0.9039
 4573SOL    HW225353   3.403   0.470  10.418  0.7809  1.0444  0.8077
 4574SOL     OW25354   1.412   0.514   2.238  0.0053  0.0338  0.2621
 4574SOL    HW125355   1.352   0.441   2.225 -0.0796  0.5688 -2.4373
 4574SOL    HW225356   1.438   0.542   2.150 -0.6810  2.7173  0.9082
 4575SOL     OW25357   1.441   1.638  17.182 -0.7099  0.1324  0.4835
 4575SOL    HW125358   1.444   1.703  17.252 -1.1622  0.8807 -0.1912
 4575SOL    HW225359   1.346   1.631  17.170 -0.6938  1.4578 -0.4198
 4576SOL     OW25360   3.804   0.033   7.581  0.0367  0.0229 -0.1596
 4576SOL    HW125361   3.832   4.717   7.506 -0.3113  0.7482 -0.8121
 4576SOL    HW225362   3.886   0.069   7.614  0.5175  0.1149 -1.4576
 4577SOL     OW25363   2.431   3.471  13.410  0.0117 -0.1437 -0.4516
 4577SOL    HW125364   2.515   3.484  13.453  0.4551  0.3176 -1.4682
 4577SOL    HW225365   2.396   3.391  13.450  0.4552  0.2913  0.7900
 4578SOL     OW25366   3.158   3.798  15.600  0.0259  0.6123  0.6650
 4578SOL    HW125367   3.080   3.783  15.546  0.6849  2.3650 -0.7742
 4578SOL    HW225368   3.169   3.890  15.577 -0.4984  0.4095 -0.4007
 4579SOL     OW25369   2.862   3.476  10.770 -0.1367 -0.1110  0.2879
 4579SOL    HW125370   2.933   3.411  10.768 -0.4856 -0.3059 -5.1198
 4579SOL    HW225371   2.913   3.557  10.765 -0.9333  0.3900  0.3567
 4580SOL     OW25372   0.911   0.564  14.049 -0.2298  0.6027  0.6978
 4580SOL    HW125373   0.821   0.548  14.020 -0.1958 -2.3426  2.2333
 4580SOL    HW225374   0.952   0.635  13.999  0.6885  2.2297  3.7487
 4581SOL     OW25375   1.133   4.116  10.288 -0.1981 -0.0829 -0.1657
 4581SOL    HW125376   1.069   4.105  10.359 -0.4650 -0.2108 -0.4239
 4581SOL    HW225377   1.095   4.058  10.222 -0.2385 -0.8045  0.4841
 4582SOL     OW25378   0.768   4.386   2.570  0.0620  0.2465 -0.5089
 4582SOL    HW125379   0.832   4.346   2.511 -0.6593 -1.7046  0.0214
 4582SOL    HW225380   0.742   4.305   2.615  0.1979 -0.6884 -2.1152
 4583SOL     OW25381   3.483   3.821   6.265  0.5323  0.0328 -0.1525
 4583SOL    HW125382   3.414   3.761   6.295  1.0637  0.0816  1.1796
 4583SOL    HW225383   3.435   3.896   6.231  1.0124 -1.7319 -4.6777
 4584SOL     OW25384   1.143   2.719   0.597 -0.1071  0.0351  1.3394
 4584SOL    HW125385   1.189   2.790   0.552 -0.9598 -0.5856 -0.4964
 4584SOL    HW225386   1.205   2.708   0.669 -0.3545 -0.3423  1.4972
 4585SOL     OW25387   2.927   1.190   9.429 -0.0494 -0.6360 -0.4608
 4585SOL    HW125388   2.958   1.272   9.390 -0.4484  0.2462  1.0795
 4585SOL    HW225389   2.906   1.222   9.516 -0.6837  1.9776 -1.5984
 4586SOL     OW25390   4.118   0.271   8.585  0.6268  0.0684 -0.1599
 4586SOL    HW125391   4.068   0.344   8.622 -0.9977 -0.3070 -1.6040
 4586SOL    HW225392   4.065   0.262   8.506  1.4693 -0.9624 -0.6143
 4587SOL     OW25393   4.071   3.277   9.607 -0.3509 -0.3305  0.4091
 4587SOL    HW125394   4.138   3.342   9.624 -2.7078  1.4213  3.0384
 4587SOL    HW225395   4.005   3.338   9.575 -1.5055 -0.7914  1.8914
 4588SOL     OW25396   3.891   0.460   4.382  0.2202 -0.0094  0.4018
 4588SOL    HW125397   3.867   0.524   4.315  1.6031 -1.3361 -1.3528
 4588SOL    HW225398   3.815   0.459   4.441 -0.9981  0.4043 -1.1557
 4589SOL     OW25399   3.321   2.744   8.506  0.4607  0.3807  0.4094
 4589SOL    HW125400   3.283   2.662   8.476 -1.1957  0.4767  2.2066
 4589SOL    HW225401   3.383   2.758   8.435 -1.2033  3.0207 -0.5294
 4590SOL     OW25402   1.520   1.573   7.354  0.4467 -0.3060  0.2799
 4590SOL    HW125403   1.459   1.618   7.411 -0.0799  0.3824 -0.8286
 4590SOL    HW225404   1.579   1.531   7.417  0.0880 -0.4710  0.5040
 4591SOL     OW25405   2.179   0.735  16.921 -0.1990 -0.4191 -0.2903
 4591SOL    HW125406   2.191   0.693  17.006 -0.2381  0.7773  0.3139
 4591SOL    HW225407   2.126   0.672  16.873  1.2483 -0.3156 -2.0226
 4592SOL     OW25408   1.973   1.293   5.205  0.1369 -0.2557  0.1467
 4592SOL    HW125409   1.897   1.320   5.256 -1.5796 -1.5843 -1.7409
 4592SOL    HW225410   2.016   1.263   5.286  0.9288  1.8199  0.4859
 4593SOL     OW25411   3.618   4.531   6.111 -0.3141 -1.1403 -0.1490
 4593SOL    HW125412   3.657   4.491   6.190  1.8792  1.1296 -0.0702
 4593SOL    HW225413   3.560   4.592   6.156  1.1750 -0.2593  0.6077
 4594SOL     OW25414   0.102   1.429   9.078 -0.5661 -0.1411 -0.5230
 4594SOL    HW125415   0.124   1.425   8.985 -0.0221 -0.4554 -0.3803
 4594SOL    HW225416   0.074   1.338   9.082  4.0450 -1.4606  1.0408
 4595SOL     OW25417   1.095   0.579   9.807  0.5507  0.1645  0.2839
 4595SOL    HW125418   1.147   0.517   9.756 -0.6683 -0.9442  0.3893
 4595SOL    HW225419   1.031   0.516   9.841  0.1565 -0.4382 -1.6193
 4596SOL     OW25420   4.086   0.415   9.177 -0.3968  0.1167 -0.2464
 4596SOL    HW125421   4.035   0.363   9.115 -3.4405  1.5727  1.0416
 4596SOL    HW225422   4.040   0.498   9.180 -0.6252 -0.0710  1.8679
 4597SOL     OW25423   2.506   4.719   4.017  0.1019  0.0356  0.2741
 4597SOL    HW125424   2.577   4.660   4.044  0.4091  1.4047  2.4957
 4597SOL    HW225425   2.439   4.699   4.083 -1.3463  2.7389 -0.3992
 4598SOL     OW25426   1.959   2.752   3.146  0.5017 -0.2607 -0.2833
 4598SOL    HW125427   1.936   2.674   3.096  0.8981 -0.4272 -0.2003
 4598SOL    HW225428   1.914   2.821   3.097  2.3816  0.1266 -1.4815
 4599SOL     OW25429   4.015   4.040   3.191  0.3070  0.3100  0.1824
 4599SOL    HW125430   3.977   3.967   3.238 -0.8941  0.6192 -0.3123
 4599SOL    HW225431   4.079   4.062   3.259 -1.0972  2.2779  0.8819
 4600SOL     OW25432   4.507   1.641   7.106  0.1625  0.0603 -0.6204
 4600SOL    HW125433   4.466   1.714   7.060 -0.1981  0.0850 -0.2604
 4600SOL    HW225434   4.432   1.584   7.123  0.1391  0.2733 -0.0172
 4601SOL     OW25435   0.426   4.480   8.531 -0.0260 -0.1822  0.0091
 4601SOL    HW125436   0.454   4.505   8.619 -3.2588  3.5184  0.0050
 4601SOL    HW225437   0.490   4.414   8.505 -0.4050 -1.2209  1.7086
 4602SOL     OW25438   3.542   4.590   4.444  0.0601 -0.2309 -0.5851
 4602SOL    HW125439   3.564   4.652   4.375 -0.3238  0.0872 -0.4227
 4602SOL    HW225440   3.491   4.524   4.397 -1.9954  1.0379 -0.1453
 4603SOL     OW25441   4.393   3.978   4.608 -0.4002 -0.3259  0.2389
 4603SOL    HW125442   4.347   3.929   4.541  2.5074 -0.5804 -1.5889
 4603SOL    HW225443   4.481   3.946   4.589 -0.7753 -1.9207  1.1853
 4604SOL     OW25444   4.219   1.795   1.684  0.3316  0.1789 -0.5193
 4604SOL    HW125445   4.271   1.844   1.621  0.7548 -2.4330 -2.2223
 4604SOL    HW225446   4.154   1.766   1.620  1.2839 -0.7321 -1.0814
 4605SOL     OW25447   0.323   2.660   2.887 -0.0003  0.5884 -0.3635
 4605SOL    HW125448   0.342   2.587   2.828  0.5616 -0.0870  0.6571
 4605SOL    HW225449   0.310   2.626   2.975  1.6044 -0.3842 -0.5038
 4606SOL     OW25450   0.614   2.134   3.071  0.3317 -0.1434 -0.3328
 4606SOL    HW125451   0.677   2.062   3.065  0.1830 -0.3175  0.1629
 4606SOL    HW225452   0.532   2.085   3.073 -0.4945  1.2630  0.1357
 4607SOL     OW25453   0.757   2.648   3.207  0.2339 -0.4751 -0.2422
 4607SOL    HW125454   0.836   2.604   3.174  0.5324 -0.0147 -0.1362
 4607SOL    HW225455   0.686   2.595   3.171 -0.3373  0.4311 -0.4324
 4608SOL     OW25456   3.241   4.294   5.216  0.2973 -0.0472 -0.7161
 4608SOL    HW125457   3.180   4.225   5.190 -0.0986 -0.1267  0.4030
 4608SOL    HW225458   3.197   4.330   5.293 -0.2300 -0.7324 -0.6926
 4609SOL     OW25459   4.324   1.326   2.136  0.6821 -0.2576 -0.6630
 4609SOL    HW125460   4.305   1.353   2.226  0.4770 -0.0996 -0.7542
 4609SOL    HW225461   4.252   1.264   2.128 -2.8530  3.2222  3.4845
 4610SOL     OW25462   0.127   2.492   8.190  0.2321 -0.6673  0.2773
 4610SOL    HW125463   0.157   2.440   8.265  0.2163  0.3321  0.9775
 4610SOL    HW225464   0.190   2.564   8.189 -1.7511  1.0671 -0.0135
 4611SOL     OW25465   1.592   1.793  13.969  0.0190 -0.1365  0.3469
 4611SOL    HW125466   1.561   1.864  13.912  0.0807 -0.2745  0.1448
 4611SOL    HW225467   1.658   1.838  14.022  1.7200 -0.2238 -1.6948
 4612SOL     OW25468   1.295   1.285   4.724 -0.3108  0.3499 -0.1512
 4612SOL    HW125469   1.232   1.317   4.660 -0.6423  0.1895  0.0952
 4612SOL    HW225470   1.331   1.372   4.741 -1.0025  0.3586  1.2888
 4613SOL     OW25471   4.569   0.656   2.752  0.0953  0.1294  0.0431
 4613SOL    HW125472   4.641   0.608   2.711 -1.6609 -1.6957 -0.9289
 4613SOL    HW225473   4.596   0.747   2.736 -1.3594  0.2373 -1.8101
 4614SOL     OW25474   2.821   1.906   3.137 -0.2252  0.3908 -0.1937
 4614SOL    HW125475   2.869   1.899   3.055 -1.9053 -0.9394 -1.0548
 4614SOL    HW225476   2.889   1.893   3.203  0.8962  1.2456 -1.1548
 4615SOL     OW25477   1.936   1.817   9.400  0.1151  0.7474  0.2625
 4615SOL    HW125478   1.968   1.839   9.313 -1.7497 -0.5147 -0.7357
 4615SOL    HW225479   1.892   1.896   9.432  0.8726  0.8547  1.0469
 4616SOL     OW25480   4.258   3.765   5.326 -0.1668  0.0686  0.1744
 4616SOL    HW125481   4.298   3.727   5.404  0.0308 -0.7696 -0.3437
 4616SOL    HW225482   4.265   3.859   5.345  2.9085 -0.0834 -0.3150
 4617SOL     OW25483   1.990   1.319  11.861  0.1440 -0.4208 -0.0976
 4617SOL    HW125484   2.025   1.386  11.802  2.7851 -0.8298  0.9609
 4617SOL    HW225485   2.025   1.235  11.831 -0.1406 -1.1195  1.5531
 4618SOL     OW25486   2.097   1.287   8.301  0.4938  0.1414  0.1261
 4618SOL    HW125487   2.030   1.240   8.251 -0.1407  2.0042 -0.7777
 4618SOL    HW225488   2.170   1.227   8.286  0.3109 -0.2138  0.6428
 4619SOL     OW25489   0.986   2.965  12.152  0.2001 -0.6131  0.0118
 4619SOL    HW125490   0.947   2.878  12.158 -2.4278  0.6219  0.8476
 4619SOL    HW225491   1.024   2.971  12.064  1.5586  0.0135  0.6344
 4620SOL     OW25492   2.435   3.823   4.872 -0.0073 -0.3774 -0.7052
 4620SOL    HW125493   2.505   3.867   4.823 -1.1307  0.4246 -1.5953
 4620SOL    HW225494   2.421   3.885   4.943 -3.0335  1.2565 -2.7282
 4621SOL     OW25495   4.051   0.657   9.437  0.9151  0.4657  0.1264
 4621SOL    HW125496   4.042   0.576   9.487 -1.2535  2.0398  2.3274
 4621SOL    HW225497   4.138   0.689   9.462  1.5934 -0.4082 -1.1114
 4622SOL     OW25498   0.966   1.141   4.827  0.5041  0.3967 -0.5315
 4622SOL    HW125499   1.038   1.126   4.888 -0.8556  1.2995  1.3385
 4622SOL    HW225500   0.938   1.223   4.868 -2.5477 -0.2416 -1.3178
 4623SOL     OW25501   0.318   3.127   5.719 -0.4539 -0.3149 -0.4152
 4623SOL    HW125502   0.366   3.161   5.794 -2.0976  1.2659 -0.0943
 4623SOL    HW225503   0.292   3.203   5.668 -1.8232 -0.5355 -0.0381
 4624SOL     OW25504   1.849   0.281   0.039 -0.3339 -0.3687  0.8660
 4624SOL    HW125505   1.807   0.362   0.009 -0.9691 -1.5101 -1.2979
 4624SOL    HW225506   1.909   0.301   0.111  0.0489 -0.3893  0.5498
 4625SOL     OW25507   1.744   1.860  14.568 -0.4187  0.0828  0.4725
 4625SOL    HW125508   1.784   1.828  14.648 -1.1317 -0.9239  0.4181
 4625SOL    HW225509   1.654   1.831  14.577 -0.7980  0.2396 -2.6332
 4626SOL     OW25510   4.590   0.214  10.507 -0.0275  0.4575 -0.0844
 4626SOL    HW125511   4.600   0.165  10.589  0.2085  0.8726  0.1374
 4626SOL    HW225512   4.563   0.302  10.535  2.4563  1.0641  0.4017
 4627SOL     OW25513   1.198   0.966  13.218  0.3844  0.4015 -0.2212
 4627SOL    HW125514   1.180   1.056  13.245  2.4403  1.3914 -2.0949
 4627SOL    HW225515   1.246   0.924  13.289 -1.9309 -1.6734  0.1038
 4628SOL     OW25516   3.412   2.106   6.987  0.0537  0.5097  0.2095
 4628SOL    HW125517   3.490   2.157   6.966  0.0726  0.5398  0.3538
 4628SOL    HW225518   3.355   2.182   6.997 -0.8467 -0.5870  3.4941
 4629SOL     OW25519   2.077   1.688   1.530 -0.0667  0.3581 -0.2031
 4629SOL    HW125520   2.133   1.692   1.608 -2.1226 -0.0586  1.2768
 4629SOL    HW225521   2.128   1.622   1.482 -1.1562 -0.2626 -0.4945
 4630SOL     OW25522   4.658   2.371  13.691  0.0556 -0.3351 -0.6915
 4630SOL    HW125523   4.609   2.319  13.755  1.0543 -1.6136 -0.9699
 4630SOL    HW225524   0.013   2.358  13.713  0.1285  0.5928 -0.4272
 4631SOL     OW25525   2.800   4.732   5.401  0.2760  0.2895  0.2591
 4631SOL    HW125526   2.821   0.029   5.488 -0.0136  1.1711 -0.0069
 4631SOL    HW225527   2.867   4.664   5.407  0.9091  0.9908  1.2708
 4632SOL     OW25528   2.330   0.109  10.208 -0.0803  0.4404  0.4978
 4632SOL    HW125529   2.330   0.017  10.183 -0.2539  1.1664 -2.1990
 4632SOL    HW225530   2.247   0.128  10.165 -0.4508 -1.8598  0.1870
 4633SOL     OW25531   3.326   4.690   6.697  0.4699 -0.3929  0.0142
 4633SOL    HW125532   3.373   4.611   6.670  0.4309  0.1731 -1.6816
 4633SOL    HW225533   3.389   4.716   6.764 -0.1338  1.7221 -0.2391
 4634SOL     OW25534   1.805   4.587   3.881  0.1500  0.4140  0.3940
 4634SOL    HW125535   1.745   4.629   3.943 -0.8671  0.7706 -0.8370
 4634SOL    HW225536   1.789   4.495   3.902 -0.8173 -0.1008 -2.6126
 4635SOL     OW25537   4.055   0.753   7.472 -0.0232  0.4065  0.1424
 4635SOL    HW125538   4.052   0.848   7.484  5.7709  0.7638 -1.2869
 4635SOL    HW225539   4.105   0.747   7.391 -2.1296 -1.8514 -1.0082
 4636SOL     OW25540   1.262   1.496   0.955 -0.5414 -0.4139 -0.3830
 4636SOL    HW125541   1.340   1.508   0.901  1.1026  0.6157  2.2615
 4636SOL    HW225542   1.268   1.569   1.016 -0.7646  0.1849 -1.0824
 4637SOL     OW25543   3.362   1.305   3.521 -0.2754 -0.5030 -0.2458
 4637SOL    HW125544   3.404   1.360   3.587 -0.6691 -0.1633 -0.2773
 4637SOL    HW225545   3.398   1.218   3.540  1.3656  0.1115 -0.5249
 4638SOL     OW25546   1.602   2.022  15.680 -0.1387 -0.2039 -0.0941
 4638SOL    HW125547   1.565   1.996  15.765  0.6151  2.4275  1.0220
 4638SOL    HW225548   1.586   1.943  15.628  0.3804  0.1526 -0.7878
 4639SOL     OW25549   2.795   2.352  15.259  0.1133 -0.2227 -0.1042
 4639SOL    HW125550   2.852   2.343  15.183  1.7843 -1.9222  1.3725
 4639SOL    HW225551   2.734   2.282  15.236  1.3168 -0.8292 -1.4219
 4640SOL     OW25552   1.754   1.084   7.763 -0.5221  0.4572  0.3330
 4640SOL    HW125553   1.665   1.074   7.729 -0.6491  0.2104  0.7439
 4640SOL    HW225554   1.737   1.110   7.854 -1.6091  1.3447 -0.1167
 4641SOL     OW25555   1.743   2.491  11.636  0.6107 -0.2350  0.6503
 4641SOL    HW125556   1.799   2.420  11.665 -0.2034 -0.9712  0.4080
 4641SOL    HW225557   1.667   2.466  11.689  1.0001 -2.7987 -0.0118
 4642SOL     OW25558   2.805   3.507   6.304 -0.1711  0.4599 -0.7599
 4642SOL    HW125559   2.730   3.470   6.350  1.5459 -1.1113  0.7950
 4642SOL    HW225560   2.808   3.584   6.360  2.5928 -1.1990  1.3750
 4643SOL     OW25561   2.676   3.555  10.574  0.0432  0.1273  0.7850
 4643SOL    HW125562   2.732   3.514  10.640  1.0901 -0.1755 -0.2895
 4643SOL    HW225563   2.706   3.646  10.576  1.3268 -0.1849 -2.9974
 4644SOL     OW25564   3.301   2.912   9.209 -0.1994 -0.3433  0.1835
 4644SOL    HW125565   3.335   2.832   9.251 -0.7473  0.4176  2.0795
 4644SOL    HW225566   3.285   2.963   9.289  2.2452  1.5679 -0.5574
 4645SOL     OW25567   1.464   3.972   2.884 -0.1222 -0.2829  0.2426
 4645SOL    HW125568   1.413   3.916   2.942 -2.8440  1.0581 -0.8729
 4645SOL    HW225569   1.529   3.905   2.862  0.4204  0.5148 -0.5908
 4646SOL     OW25570   2.360   2.111   8.184 -0.1732  0.0668 -0.2944
 4646SOL    HW125571   2.390   2.029   8.223 -0.3966  0.2109  0.1943
 4646SOL    HW225572   2.274   2.087   8.151 -0.1099 -1.0030  0.3281
 4647SOL     OW25573   2.229   4.410   9.747  1.0832  0.3321  0.1617
 4647SOL    HW125574   2.207   4.336   9.804 -0.0166  0.5472  0.0161
 4647SOL    HW225575   2.254   4.476   9.812  0.5933 -0.7277  1.4176
 4648SOL     OW25576   2.542   4.722   7.092 -0.3173  0.6350 -0.6172
 4648SOL    HW125577   2.495   4.654   7.044  0.7006  0.1727 -0.9529
 4648SOL    HW225578   2.548   4.676   7.175  0.4101  0.6606 -0.6499
 4649SOL     OW25579   2.589   4.055   5.431 -0.1620 -0.4502 -0.2038
 4649SOL    HW125580   2.569   3.961   5.439  0.7425 -0.5455  0.9756
 4649SOL    HW225581   2.593   4.079   5.524  1.3949 -0.3078 -0.3038
 4650SOL     OW25582   0.845   2.199   5.735  0.0670  0.4551 -0.4519
 4650SOL    HW125583   0.795   2.212   5.815 -2.3368 -0.9463 -1.7623
 4650SOL    HW225584   0.772   2.168   5.682 -0.0273 -1.1263  0.6131
 4651SOL     OW25585   3.723   4.697  10.010 -0.0878 -0.2116  0.3986
 4651SOL    HW125586   3.769   0.044  10.011  1.5948 -1.1318 -0.2582
 4651SOL    HW225587   3.697   4.696  10.102 -0.6230  0.5799  0.2552
 4652SOL     OW25588   1.314   1.970   1.942  0.0206 -0.6091 -0.7781
 4652SOL    HW125589   1.369   2.048   1.946  2.6898 -2.5039 -0.5247
 4652SOL    HW225590   1.243   1.991   1.882 -0.0849  2.2069  0.3651
 4653SOL     OW25591   0.190   0.831  13.509  0.0089  0.8101 -0.1890
 4653SOL    HW125592   0.135   0.838  13.431 -4.7880 -0.6028  3.0074
 4653SOL    HW225593   0.141   0.889  13.567 -1.2791  1.3642 -1.8294
 4654SOL     OW25594   2.105   2.165  16.899 -0.5105  0.1995  0.2968
 4654SOL    HW125595   2.195   2.157  16.931 -0.0351 -1.9968 -1.5906
 4654SOL    HW225596   2.105   2.230  16.829  2.9013  1.3978  1.3886
 4655SOL     OW25597   3.758   4.079   7.435 -0.3359 -0.9320  0.2232
 4655SOL    HW125598   3.837   4.124   7.464 -0.1605 -0.8038 -0.4591
 4655SOL    HW225599   3.690   4.146   7.429  0.6047  0.1053  1.2122
 4656SOL     OW25600   3.991   3.695   5.324 -0.2754  0.0943 -0.2223
 4656SOL    HW125601   4.085   3.707   5.310  0.1945 -1.0005  2.0045
 4656SOL    HW225602   3.985   3.618   5.381  0.2560  0.7328  0.6872
 4657SOL     OW25603   0.274   2.202  14.357 -0.0888  0.1666  0.2590
 4657SOL    HW125604   0.311   2.236  14.276 -0.1823  1.1383  0.6279
 4657SOL    HW225605   0.186   2.197  14.319  0.0759 -1.4099  0.0641
 4658SOL     OW25606   3.323   2.752   8.010 -0.8878  0.0308  0.1525
 4658SOL    HW125607   3.347   2.818   7.945  2.6399 -0.0783  1.3225
 4658SOL    HW225608   3.359   2.678   7.961 -2.2803 -1.1800  0.9580
 4659SOL     OW25609   2.086   0.479  13.591 -0.0103 -0.5927 -0.3464
 4659SOL    HW125610   2.048   0.391  13.595 -0.9854 -0.0700  1.7308
 4659SOL    HW225611   2.040   0.522  13.519 -0.5003  0.6510  0.7227
 4660SOL     OW25612   2.997   2.218   8.469  0.8200 -0.3651  0.2435
 4660SOL    HW125613   3.030   2.165   8.397 -0.2987 -0.0783 -0.4967
 4660SOL    HW225614   2.913   2.174   8.481  0.4938 -0.4581 -2.3439
 4661SOL     OW25615   2.472   0.648  11.232  0.1775  0.3131  0.7946
 4661SOL    HW125616   2.476   0.687  11.319  0.9790  2.7758 -0.3581
 4661SOL    HW225617   2.564   0.663  11.211  0.2381  0.1324  0.9289
 4662SOL     OW25618   2.515   0.433   9.582  0.5984  0.7199  0.2714
 4662SOL    HW125619   2.539   0.524   9.564 -0.5557  1.1804  1.0349
 4662SOL    HW225620   2.494   0.419   9.490 -0.9557 -1.8149  1.0286
 4663SOL     OW25621   2.955   3.122  11.055 -0.0807 -0.1203  0.0829
 4663SOL    HW125622   3.005   3.186  11.005  0.4469 -0.1256  0.6108
 4663SOL    HW225623   2.872   3.130  11.007 -0.3210  2.6003  0.9373
 4664SOL     OW25624   0.823   0.922   1.854 -0.1747 -0.0184 -0.0819
 4664SOL    HW125625   0.811   0.975   1.933  0.0431 -0.7273  0.4230
 4664SOL    HW225626   0.751   0.860   1.854 -0.0171 -0.2013  0.2977
 4665SOL     OW25627   2.456   2.659   8.923  0.7610  0.5077  0.2599
 4665SOL    HW125628   2.502   2.600   8.863 -0.3984 -0.9054  0.7725
 4665SOL    HW225629   2.417   2.721   8.862 -0.7710  1.5234  2.2541
 4666SOL     OW25630   3.045   1.872  13.149  0.1959  0.1961  0.0700
 4666SOL    HW125631   3.083   1.806  13.207  0.0588 -0.7027 -0.8618
 4666SOL    HW225632   3.084   1.947  13.194  0.5886  0.0284  0.0139
 4667SOL     OW25633   4.526   0.574   8.662 -0.0394  0.3064 -0.2861
 4667SOL    HW125634   4.474   0.628   8.602 -0.1004 -0.5147 -0.9654
 4667SOL    HW225635   4.471   0.496   8.668 -0.7506  0.8429  0.1014
 4668SOL     OW25636   3.251   0.571  16.130 -0.3244 -0.4506 -0.5314
 4668SOL    HW125637   3.252   0.578  16.035  1.9569 -2.2864 -0.6369
 4668SOL    HW225638   3.210   0.484  16.135 -2.3930  0.7766  3.8267
 4669SOL     OW25639   4.426   3.277   2.672 -0.3406  0.6319 -0.0699
 4669SOL    HW125640   4.341   3.234   2.679 -0.6289  1.0947 -0.8001
 4669SOL    HW225641   4.394   3.355   2.627  1.3707  1.0283 -0.6348
 4670SOL     OW25642   0.007   0.029   7.062  0.0611  0.1382 -0.0957
 4670SOL    HW125643   0.090   4.736   7.026 -0.2786 -0.7404 -0.1453
 4670SOL    HW225644   4.720   0.094   6.995  0.7382 -2.1895 -2.6225
 4671SOL     OW25645   3.592   2.109   2.305  0.1018 -0.7491 -0.0828
 4671SOL    HW125646   3.636   2.144   2.383 -0.8438 -1.4677  0.7619
 4671SOL    HW225647   3.610   2.016   2.316 -0.4636 -0.8723 -0.2253
 4672SOL     OW25648   3.011   2.458   9.690  0.2124  0.6086 -0.0652
 4672SOL    HW125649   2.933   2.448   9.635  0.8387  0.7032 -0.9831
 4672SOL    HW225650   3.009   2.380   9.746 -3.8910  1.1858  0.5888
 4673SOL     OW25651   4.398   2.075   2.511 -0.0785  0.0432  0.0260
 4673SOL    HW125652   4.323   2.129   2.486 -1.4326 -0.8108  2.2792
 4673SOL    HW225653   4.469   2.131   2.480  0.3104 -0.2591  0.3672
 4674SOL     OW25654   4.622   3.260   4.903  0.0709 -0.5322  0.1453
 4674SOL    HW125655   4.589   3.348   4.921  1.0700 -0.2149  0.4298
 4674SOL    HW225656   4.565   3.203   4.954 -2.6765  0.3291 -1.9361
 4675SOL     OW25657   0.012   0.914   5.343  0.1294  0.3244 -0.5390
 4675SOL    HW125658   4.721   0.992   5.295 -1.5101  0.0698 -0.0140
 4675SOL    HW225659   0.086   0.894   5.286  1.7222  1.2090  1.2260
 4676SOL     OW25660   2.235   3.477   5.437 -0.2401  0.4563 -0.0978
 4676SOL    HW125661   2.157   3.510   5.393 -1.7464 -3.0725 -0.0931
 4676SOL    HW225662   2.201   3.398   5.480 -0.9495  0.3403 -0.8651
 4677SOL     OW25663   1.160   0.116  11.146 -0.6844  0.3764 -0.6780
 4677SOL    HW125664   1.144   0.120  11.240  2.1174 -0.2703 -0.1826
 4677SOL    HW225665   1.197   0.203  11.129  1.0615  0.1050  1.7269
 4678SOL     OW25666   1.797   2.554   4.548 -0.3405  0.2901  0.2081
 4678SOL    HW125667   1.804   2.459   4.556  0.6367  0.3448  0.0427
 4678SOL    HW225668   1.702   2.559   4.550 -0.4248 -0.8108 -1.4348
 4679SOL     OW25669   3.707   4.647   6.710 -0.8738  0.1735  0.5483
 4679SOL    HW125670   3.693   4.700   6.789 -3.1580  3.7585 -2.2627
 4679SOL    HW225671   3.753   4.708   6.654  0.9699 -1.8027 -0.0947
 4680SOL     OW25672   2.807   2.426   7.937 -0.4934 -0.4588 -0.0099
 4680SOL    HW125673   2.714   2.409   7.956 -0.2569 -1.1756  0.4762
 4680SOL    HW225674   2.840   2.364   8.001  0.2856  0.0159  0.0442
 4681SOL     OW25675   3.381   1.329  13.744 -0.4925  0.5628  0.5736
 4681SOL    HW125676   3.436   1.358  13.671 -1.4598 -0.2195 -0.4654
 4681SOL    HW225677   3.401   1.390  13.815 -1.9322  1.2104  0.4397
 4682SOL     OW25678   4.417   3.927  12.139 -0.4526  0.4091  1.1075
 4682SOL    HW125679   4.443   4.004  12.087  1.6061 -0.5140  0.7734
 4682SOL    HW225680   4.402   3.866  12.067  0.3915  0.7069  0.6812
 4683SOL     OW25681   0.799   4.583   3.807 -0.3062  0.0028  0.2094
 4683SOL    HW125682   0.820   4.504   3.857 -1.3770 -0.2586  0.2604
 4683SOL    HW225683   0.797   4.550   3.717  1.1019 -1.4617  0.7239
 4684SOL     OW25684   2.547   4.403   7.447 -0.2950 -0.1471  0.1409
 4684SOL    HW125685   2.470   4.354   7.476  0.5063 -1.2004  0.5191
 4684SOL    HW225686   2.609   4.330   7.440 -1.7197 -1.2905 -0.5988
 4685SOL     OW25687   4.520   1.887   8.397 -0.1592  0.1410  0.4034
 4685SOL    HW125688   4.544   1.975   8.367  0.0531 -0.6913 -1.8298
 4685SOL    HW225689   4.599   1.871   8.448 -0.5479 -1.2064  0.5813
 4686SOL     OW25690   2.086   3.792   6.674 -0.5050 -0.5129  0.1232
 4686SOL    HW125691   2.076   3.849   6.750 -1.5685  0.0534 -0.4480
 4686SOL    HW225692   1.997   3.758   6.666 -0.4801 -0.3841 -0.7101
 4687SOL     OW25693   3.236   4.114   6.417 -0.0195 -0.4339  0.2632
 4687SOL    HW125694   3.284   4.126   6.335  3.0454 -1.0318  1.9538
 4687SOL    HW225695   3.309   4.091   6.474 -0.4453 -1.3073  0.4595
 4688SOL     OW25696   1.533   1.572   8.384 -0.4175 -0.2061 -0.0559
 4688SOL    HW125697   1.523   1.478   8.396 -2.3253 -0.0238 -0.1313
 4688SOL    HW225698   1.582   1.587   8.465 -0.0885  0.3701 -0.3602
 4689SOL     OW25699   4.122   0.712   1.822 -0.1282  0.5583 -0.4072
 4689SOL    HW125700   4.167   0.674   1.897 -0.7870  1.7472  0.5866
 4689SOL    HW225701   4.183   0.688   1.752  0.7616 -3.7808  1.8650
 4690SOL     OW25702   4.203   1.100   8.890 -0.6337 -0.6381  0.1907
 4690SOL    HW125703   4.204   1.143   8.976 -0.2046 -1.0308  0.3766
 4690SOL    HW225704   4.192   1.007   8.910  0.5618 -0.5667  1.1838
 4691SOL     OW25705   2.865   0.759   6.113  0.0423 -0.5393  0.2531
 4691SOL    HW125706   2.813   0.745   6.034  0.9800 -2.5517 -0.0005
 4691SOL    HW225707   2.797   0.804   6.163 -0.8489  0.0243 -1.4454
 4692SOL     OW25708   1.302   0.162   2.818 -0.0755 -0.2789  0.2537
 4692SOL    HW125709   1.389   0.137   2.787 -0.7474 -0.7392 -1.2894
 4692SOL    HW225710   1.245   0.129   2.748 -0.8029 -2.5178  1.9003
 4693SOL     OW25711   2.150   3.103   4.197 -0.1418  0.0461 -0.0485
 4693SOL    HW125712   2.205   3.096   4.119 -0.1709  0.8173 -0.1382
 4693SOL    HW225713   2.063   3.086   4.161 -0.6302 -0.0209  1.1681
 4694SOL     OW25714   1.635   2.561   2.535 -0.0664  1.0245 -0.0816
 4694SOL    HW125715   1.601   2.489   2.482 -0.4929  0.9304  0.3141
 4694SOL    HW225716   1.603   2.639   2.491 -0.3695  1.5936  1.1393
 4695SOL     OW25717   3.805   0.290   3.037  0.7676 -0.3210 -0.5478
 4695SOL    HW125718   3.885   0.260   3.081 -0.2186  0.2689  1.6240
 4695SOL    HW225719   3.841   0.317   2.953 -0.2343 -1.1959 -1.2596
 4696SOL     OW25720   3.223   2.172   4.514  1.0819  0.0937  0.2391
 4696SOL    HW125721   3.141   2.186   4.562  0.7324 -2.6700  0.4467
 4696SOL    HW225722   3.274   2.107   4.562 -1.1005 -2.6137 -1.1127
 4697SOL     OW25723   2.675   2.801  17.013 -0.2624  0.1252 -0.9592
 4697SOL    HW125724   2.666   2.895  17.033 -0.6978  0.1554 -1.2935
 4697SOL    HW225725   2.610   2.794  16.943  0.5290  0.8495 -1.7496
 4698SOL     OW25726   3.702   3.007   9.383  0.1594 -0.2022  0.5587
 4698SOL    HW125727   3.796   3.015   9.400 -0.2201 -0.6992  2.9135
 4698SOL    HW225728   3.691   3.082   9.324 -0.7369 -0.1859  0.7500
 4699SOL     OW25729   0.657   1.962   2.053 -0.0495 -0.7251  0.2824
 4699SOL    HW125730   0.653   1.866   2.048  2.6709 -0.9088  2.0080
 4699SOL    HW225731   0.749   1.980   2.036 -0.5088  3.2846  2.0755
 4700SOL     OW25732   4.490   0.369   0.074 -0.0344  0.2440  0.0800
 4700SOL    HW125733   4.510   0.368  17.726 -2.5761  1.4266 -0.4844
 4700SOL    HW225734   4.576   0.402   0.100  1.1463 -1.5929 -1.5567
 4701SOL     OW25735   0.950   2.069   0.388 -0.6846 -0.0174  0.3835
 4701SOL    HW125736   0.911   2.156   0.402 -2.1871 -0.8971  1.8009
 4701SOL    HW225737   1.043   2.083   0.404 -1.6970  2.9128  3.8532
 4702SOL     OW25738   2.894   3.105   6.545 -0.0383 -0.2281  0.5973
 4702SOL    HW125739   2.845   3.111   6.463  1.1713 -1.9123 -0.2481
 4702SOL    HW225740   2.897   3.195   6.577 -0.3872  0.5201 -1.4769
 4703SOL     OW25741   4.084   1.350   8.445 -0.1426  0.0013  0.2799
 4703SOL    HW125742   4.068   1.279   8.507  4.3408 -0.4212  0.9428
 4703SOL    HW225743   4.091   1.431   8.496 -0.0823  0.2369 -0.1020
 4704SOL     OW25744   2.631   0.890   3.623  0.6426  0.1013  0.1590
 4704SOL    HW125745   2.599   0.807   3.588  1.7214 -1.3593  2.6474
 4704SOL    HW225746   2.598   0.946   3.554 -0.4398 -1.4275 -0.5675
 4705SOL     OW25747   2.257   3.496  10.520 -0.2483  0.3649 -0.3906
 4705SOL    HW125748   2.163   3.512  10.531 -0.5821  1.0139 -4.0094
 4705SOL    HW225749   2.288   3.494  10.610  2.6148 -1.8398 -1.4043
 4706SOL     OW25750   1.859   0.949   4.081 -0.3352 -0.2265 -0.8182
 4706SOL    HW125751   1.856   0.877   4.144 -2.2909  1.3625  0.8972
 4706SOL    HW225752   1.911   0.909   4.011  0.9884  0.3365 -0.1709
 4707SOL     OW25753   2.263   1.961   5.234 -0.0576  0.2671  0.1869
 4707SOL    HW125754   2.311   1.925   5.308  0.0807 -3.0897 -1.5529
 4707SOL    HW225755   2.342   1.963   5.181  1.4264 -0.5020  2.3859
 4708SOL     OW25756   0.279   4.733   9.517 -0.2005  0.5408 -0.1003
 4708SOL    HW125757   0.218   0.031   9.582  2.7227 -0.3331  3.1293
 4708SOL    HW225758   0.356   0.053   9.515 -1.3866  2.1614  0.5257
 4709SOL     OW25759   1.468   3.869  10.918 -0.0737  0.1915  0.0616
 4709SOL    HW125760   1.557   3.896  10.943 -0.2507 -0.3382  1.2790
 4709SOL    HW225761   1.474   3.788  10.867  2.3900 -1.0723  2.3110
 4710SOL     OW25762   3.746   2.794   9.176 -0.2966 -0.0027  0.5639
 4710SOL    HW125763   3.740   2.838   9.260 -0.8625 -1.0749  1.0921
 4710SOL    HW225764   3.670   2.830   9.130 -1.7666 -3.0171  0.5846
 4711SOL     OW25765   1.926   1.844   4.537  0.1002  0.6672  0.2992
 4711SOL    HW125766   1.878   1.760   4.538  0.2574  0.5715 -0.0965
 4711SOL    HW225767   1.850   1.898   4.515 -1.1307 -1.3722 -0.4930
 4712SOL     OW25768   0.163   1.413   4.722  0.1892 -0.2289 -0.1365
 4712SOL    HW125769   0.248   1.378   4.747 -0.2603  0.4644  2.3566
 4712SOL    HW225770   0.122   1.338   4.680  0.4175 -1.2183  1.4134
 4713SOL     OW25771   3.608   4.057   4.749  0.6991  0.3169 -0.0104
 4713SOL    HW125772   3.547   4.082   4.679  0.6193  1.3274  0.4263
 4713SOL    HW225773   3.566   3.978   4.785 -1.5591  0.9417 -1.2617
 4714SOL     OW25774   0.069   0.783   9.598 -0.2066 -0.0089  0.1402
 4714SOL    HW125775   4.726   0.830   9.620 -0.7397 -1.1012  0.5274
 4714SOL    HW225776   0.065   0.788   9.502 -2.0813  0.2729  0.2398
 4715SOL     OW25777   3.237   1.778  11.725  0.1490  0.6213 -0.3415
 4715SOL    HW125778   3.309   1.719  11.749  0.5682  0.8029 -1.1391
 4715SOL    HW225779   3.266   1.831  11.650  0.5065 -0.6525 -1.0984
 4716SOL     OW25780   2.959   3.131   6.124 -0.4613  0.1195  0.2582
 4716SOL    HW125781   3.029   3.110   6.063  0.8567  0.7484  1.5588
 4716SOL    HW225782   2.942   3.048   6.168 -3.8007  0.7102  0.1383
 4717SOL     OW25783   2.148   1.319   2.063  0.4338 -0.0627 -0.0952
 4717SOL    HW125784   2.063   1.343   2.027  0.3124 -1.4135 -0.6999
 4717SOL    HW225785   2.149   1.226   2.038 -0.7582 -0.5255  1.5994
 4718SOL     OW25786   3.558   1.210   7.852  0.2662 -0.4438 -0.0053
 4718SOL    HW125787   3.648   1.223   7.823 -0.1086  1.0288 -0.5326
 4718SOL    HW225788   3.532   1.125   7.816  1.1306 -1.0073  0.6955
 4719SOL     OW25789   2.703   4.500   9.795 -0.0082 -0.6938  0.1129
 4719SOL    HW125790   2.745   4.415   9.808 -2.1982 -1.6733  0.7665
 4719SOL    HW225791   2.719   4.552   9.874  1.0305 -0.3402 -0.3284
 4720SOL     OW25792   0.177   1.655  17.687 -0.5364 -0.4413 -0.2921
 4720SOL    HW125793   0.164   1.725  17.622  1.5370 -1.0348 -1.3541
 4720SOL    HW225794   0.193   1.717   0.012  1.3423 -0.8959 -0.3126
 4721SOL     OW25795   0.676   3.533   8.285  0.4600 -0.2877 -0.0221
 4721SOL    HW125796   0.768   3.551   8.305  0.2428  1.6698 -0.8103
 4721SOL    HW225797   0.672   3.494   8.197 -0.1273 -1.6524  0.6092
 4722SOL     OW25798   0.279   4.128  11.415 -0.0357 -0.5915  0.3706
 4722SOL    HW125799   0.280   4.073  11.493  1.9474 -0.3856  0.5026
 4722SOL    HW225800   0.186   4.150  11.417  0.3851  0.9019  3.5536
 4723SOL     OW25801   4.600   4.585   4.730  0.0800 -1.1925 -0.2453
 4723SOL    HW125802   4.510   4.592   4.698 -0.3771  1.9097  1.7940
 4723SOL    HW225803   4.647   4.660   4.695  1.0966 -1.2586  0.9836
 4724SOL     OW25804   1.137   1.067   5.803  0.2959 -0.1054  0.2320
 4724SOL    HW125805   1.064   1.071   5.741  0.9429  0.2661 -0.5091
 4724SOL    HW225806   1.106   1.006   5.871  0.9985  0.4602  1.0608
 4725SOL     OW25807   1.891   2.066  13.770 -0.8654 -0.4313 -0.1159
 4725SOL    HW125808   1.887   2.082  13.864  0.2559 -0.6939 -0.0213
 4725SOL    HW225809   1.903   1.972  13.757 -1.8237 -0.4702 -0.6457
 4726SOL     OW25810   1.357   4.447   4.505 -0.4206  0.2685 -0.0840
 4726SOL    HW125811   1.402   4.364   4.490 -0.3038 -0.0699  2.0635
 4726SOL    HW225812   1.407   4.481   4.580 -1.4230  1.8063 -0.1254
 4727SOL     OW25813   2.620   3.892   7.771  0.2451  1.0667  0.2453
 4727SOL    HW125814   2.663   3.912   7.854 -0.5229 -0.5029  1.0316
 4727SOL    HW225815   2.569   3.814   7.794  1.1584  0.8650  1.5848
 4728SOL     OW25816   0.525   4.181   8.872  0.2707 -0.2947 -0.0972
 4728SOL    HW125817   0.461   4.113   8.892 -1.5949  1.4244 -0.3109
 4728SOL    HW225818   0.580   4.137   8.807  0.5272  1.2523 -0.9271
 4729SOL     OW25819   3.742   4.247   3.434  0.4302  0.0313 -0.4929
 4729SOL    HW125820   3.663   4.289   3.399 -0.3789 -0.9228  0.1495
 4729SOL    HW225821   3.781   4.318   3.485  0.1651  1.4626 -2.2817
 4730SOL     OW25822   1.619   3.031   9.796 -0.0469  0.5970 -0.0533
 4730SOL    HW125823   1.533   3.070   9.778  0.3703  1.0051 -1.1603
 4730SOL    HW225824   1.611   2.979   9.876 -1.7440  0.7668 -0.1028
 4731SOL     OW25825   3.950   0.116   7.275 -0.2130 -0.3846 -0.5294
 4731SOL    HW125826   3.906   0.033   7.295 -0.6597 -0.3610 -1.4370
 4731SOL    HW225827   3.892   0.163   7.216  1.5338  1.9325 -0.3898
 4732SOL     OW25828   3.889   2.671   1.440  0.7415  0.1554  0.1510
 4732SOL    HW125829   3.896   2.589   1.489  2.1716  0.3531  0.2983
 4732SOL    HW225830   3.979   2.674   1.406  0.5492 -1.4888 -0.5012
 4733SOL     OW25831   1.562   4.171   3.812 -0.3335 -0.1635  0.4849
 4733SOL    HW125832   1.552   4.203   3.723 -2.0977 -0.6071  0.5292
 4733SOL    HW225833   1.538   4.249   3.862 -2.0793  0.0271 -0.6802
 4734SOL     OW25834   0.461   2.093   5.726  0.0066 -0.2230 -0.3651
 4734SOL    HW125835   0.505   2.159   5.780 -1.4240  0.4290  0.0292
 4734SOL    HW225836   0.371   2.109   5.757  0.3347  1.4418 -0.2650
 4735SOL     OW25837   4.692   3.356   0.417 -0.7415 -0.0799 -0.1831
 4735SOL    HW125838   4.670   3.448   0.435  0.5717  0.0818  0.6302
 4735SOL    HW225839   0.001   3.360   0.333 -1.6887  0.9361 -0.6491
 4736SOL     OW25840   0.663   3.650   4.860 -0.2199  0.3092  0.0157
 4736SOL    HW125841   0.598   3.637   4.929 -2.2510 -2.0736 -2.3821
 4736SOL    HW225842   0.693   3.734   4.894 -0.9254 -0.4824  2.6635
 4737SOL     OW25843   2.039   1.732   5.660  0.3341 -0.2692  0.2463
 4737SOL    HW125844   2.051   1.758   5.569 -0.2182 -0.2231  0.1864
 4737SOL    HW225845   1.994   1.651   5.639 -0.1695 -0.3330  1.5444
 4738SOL     OW25846   0.833   2.654  10.420  0.0103 -0.1632  0.5166
 4738SOL    HW125847   0.912   2.605  10.442 -0.4032 -1.8526 -1.8136
 4738SOL    HW225848   0.804   2.612  10.339  0.9538  2.8536 -1.3932
 4739SOL     OW25849   3.933   3.952   7.844  0.4129 -0.0824 -0.5512
 4739SOL    HW125850   3.863   3.895   7.875  1.1641 -1.6527 -1.6912
 4739SOL    HW225851   3.928   4.036   7.889 -0.9224  0.4040 -1.5986
 4740SOL     OW25852   3.377   0.953   8.051  0.5505  0.1913  0.1481
 4740SOL    HW125853   3.380   0.960   7.955 -2.5855  0.6391  0.0626
 4740SOL    HW225854   3.449   0.897   8.077  1.2569 -0.3531 -3.0011
 4741SOL     OW25855   2.764   0.402   3.246  0.0269  0.3344 -0.4881
 4741SOL    HW125856   2.747   0.484   3.293  2.8621  0.2789  0.6219
 4741SOL    HW225857   2.764   0.339   3.318 -0.0030  0.1854 -0.6170
 4742SOL     OW25858   0.165   1.725  12.461 -0.1582  0.1576  0.4646
 4742SOL    HW125859   0.102   1.765  12.521 -1.9470 -1.8581 -0.0533
 4742SOL    HW225860   0.221   1.795  12.427  1.2246 -1.6037 -0.8941
 4743SOL     OW25861   4.009   1.602   3.539  0.6406 -0.7918  0.7197
 4743SOL    HW125862   4.089   1.568   3.579  2.1165 -0.1691 -1.7068
 4743SOL    HW225863   4.021   1.695   3.559  1.4429 -0.7397  0.0152
 4744SOL     OW25864   4.097   3.926   4.842 -0.4732  0.2544 -0.6408
 4744SOL    HW125865   4.011   3.964   4.860 -1.1184 -2.0201  1.1579
 4744SOL    HW225866   4.091   3.841   4.885  0.3635 -0.6770 -2.3932
 4745SOL     OW25867   0.377   0.137   9.836 -0.4721  0.7558 -0.1239
 4745SOL    HW125868   0.291   0.150   9.796 -0.9780  0.5520  0.8916
 4745SOL    HW225869   0.368   0.174   9.924  0.9991  2.2051 -0.5757
 4746SOL     OW25870   0.133   0.167   8.915  0.0506  0.1459  0.1893
 4746SOL    HW125871   0.205   0.121   8.871  0.0823 -0.0735  0.4769
 4746SOL    HW225872   0.128   0.116   8.995  1.5226  1.7072  1.2688
 4747SOL     OW25873   1.587   4.554   4.657 -0.4868  0.0399 -0.1247
 4747SOL    HW125874   1.641   4.628   4.686 -0.8272  0.1485  0.2277
 4747SOL    HW225875   1.553   4.529   4.743  0.9421 -2.3856 -0.2762
 4748SOL     OW25876   2.781   1.432   6.634  0.3225 -0.4526  0.3081
 4748SOL    HW125877   2.721   1.383   6.578 -1.2721  1.7069  0.1252
 4748SOL    HW225878   2.805   1.500   6.570 -0.6992 -2.2339 -1.9811
 4749SOL     OW25879   2.564   0.659  12.071 -0.1092  0.4522  0.2535
 4749SOL    HW125880   2.600   0.702  11.994  3.5779 -2.0885  0.5495
 4749SOL    HW225881   2.578   0.566  12.053 -2.4889  0.2788 -0.6364
 4750SOL     OW25882   0.117   3.987   4.476  0.2702 -0.2204 -0.3911
 4750SOL    HW125883   0.135   4.002   4.569  0.5647  0.1962 -0.5160
 4750SOL    HW225884   0.176   4.054   4.442 -0.3155  1.1064  1.1252
 4751SOL     OW25885   2.563   2.001   2.152  0.2085  0.4348  0.7789
 4751SOL    HW125886   2.583   1.924   2.206  1.3535  0.6270  0.6181
 4751SOL    HW225887   2.469   2.010   2.170 -0.0039  0.8174 -0.5722
 4752SOL     OW25888   2.466   1.024  13.728 -0.4955 -0.1070  0.2781
 4752SOL    HW125889   2.514   1.098  13.690  1.2354 -0.0155  2.6866
 4752SOL    HW225890   2.505   0.949  13.683 -0.1949  0.7400 -0.8722
 4753SOL     OW25891   0.141   3.788   5.072  0.1122 -0.4916  0.1406
 4753SOL    HW125892   0.048   3.807   5.064  0.4527  1.0956 -0.1287
 4753SOL    HW225893   0.171   3.790   4.981 -0.0831  0.2957  0.0885
 4754SOL     OW25894   0.326   2.097  17.351  0.2380  0.1415  0.0879
 4754SOL    HW125895   0.344   2.182  17.312 -0.8253  0.0258 -0.6535
 4754SOL    HW225896   0.353   2.108  17.442  4.5806 -0.3874 -1.1054
 4755SOL     OW25897   3.956   3.084   3.641 -0.0945  0.3429 -0.7578
 4755SOL    HW125898   3.922   3.023   3.707 -0.7818 -0.1431 -1.5595
 4755SOL    HW225899   3.879   3.090   3.584 -0.4549  0.4760 -0.2538
 4756SOL     OW25900   2.586   2.652  14.170 -0.0684 -0.1134 -0.0795
 4756SOL    HW125901   2.670   2.688  14.197  0.3334  0.4600 -2.1092
 4756SOL    HW225902   2.576   2.686  14.081  1.1896 -3.7505 -1.6250
 4757SOL     OW25903   0.120   2.930   9.871  0.3378 -0.6117 -0.5005
 4757SOL    HW125904   0.109   2.941   9.966 -0.8237 -1.6945 -0.5093
 4757SOL    HW225905   0.196   2.986   9.857  0.6290 -1.1174 -0.9130
 4758SOL     OW25906   1.430   2.434  12.556 -0.7516 -0.8688  0.6236
 4758SOL    HW125907   1.487   2.424  12.480 -2.4017  0.0085 -0.7391
 4758SOL    HW225908   1.487   2.467  12.626 -1.7696  2.8919 -0.3271
 4759SOL     OW25909   4.122   0.278   7.055  0.1335 -0.3203  0.2597
 4759SOL    HW125910   4.088   0.216   7.120 -0.4069 -1.2165 -0.8805
 4759SOL    HW225911   4.169   0.223   6.993 -2.2122 -0.7807 -1.1149
 4760SOL     OW25912   1.582   0.635  11.264 -0.1448  0.0586  0.0758
 4760SOL    HW125913   1.634   0.666  11.338 -0.3785  1.6817 -0.4529
 4760SOL    HW225914   1.655   0.600  11.213  0.0161 -1.4955  1.3697
 4761SOL     OW25915   1.822   3.849  12.968 -0.1977 -0.2953 -0.4274
 4761SOL    HW125916   1.915   3.851  12.949  0.3683  1.9595  2.6466
 4761SOL    HW225917   1.791   3.905  12.897 -2.8036 -1.3839 -0.1835
 4762SOL     OW25918   0.680   3.658   4.591 -0.0040  0.8401  0.2284
 4762SOL    HW125919   0.602   3.706   4.564  0.4223  0.6160 -1.3960
 4762SOL    HW225920   0.666   3.655   4.686  1.4597  1.8430  0.4679
 4763SOL     OW25921   1.565   2.768   9.889 -0.0795 -0.1892 -0.4721
 4763SOL    HW125922   1.507   2.696   9.914 -0.1769 -0.1853 -0.6900
 4763SOL    HW225923   1.645   2.742   9.936 -0.5838 -1.2195 -0.1755
 4764SOL     OW25924   2.708   2.749   3.815  0.0712  0.2583  0.4330
 4764SOL    HW125925   2.801   2.768   3.809  0.1147  0.3840  1.4337
 4764SOL    HW225926   2.667   2.835   3.828  1.2757  1.3778 -3.4278
 4765SOL     OW25927   1.517   1.435   3.636  0.3671 -0.2758 -0.3730
 4765SOL    HW125928   1.518   1.341   3.619  1.2652 -0.5822  1.4353
 4765SOL    HW225929   1.605   1.444   3.673  1.1086  0.5802 -2.2908
 4766SOL     OW25930   3.613   3.559   9.099 -0.2613 -0.6350  0.1937
 4766SOL    HW125931   3.654   3.601   9.024  0.1760 -0.0557  0.7628
 4766SOL    HW225932   3.660   3.475   9.094  0.6204  0.0089 -1.9931
 4767SOL     OW25933   3.550   3.272   7.044  0.1816  0.1397  0.4047
 4767SOL    HW125934   3.561   3.276   6.949  2.2466 -0.5120  0.6198
 4767SOL    HW225935   3.503   3.355   7.043 -0.2235 -0.0946 -0.6985
 4768SOL     OW25936   2.205   1.777   0.994  0.5640 -0.6793 -0.4944
 4768SOL    HW125937   2.180   1.776   1.086  0.8256 -0.0783 -0.4243
 4768SOL    HW225938   2.122   1.744   0.958  1.3133 -2.1475 -0.9012
 4769SOL     OW25939   3.653   0.312   5.092 -0.5145 -0.6554  0.1177
 4769SOL    HW125940   3.569   0.349   5.120  0.2530  0.9138  0.3229
 4769SOL    HW225941   3.661   0.246   5.161  0.4080 -1.9273 -1.2041
 4770SOL     OW25942   4.168   4.464   7.059 -0.0604  0.1502 -0.3649
 4770SOL    HW125943   4.161   4.542   7.004 -0.7273  0.9031  0.7916
 4770SOL    HW225944   4.076   4.439   7.051  0.0493 -1.0033  1.9579
 4771SOL     OW25945   2.362   0.124  11.387  0.5154 -0.4173 -0.0619
 4771SOL    HW125946   2.409   0.053  11.344  1.4763  0.5767 -0.6550
 4771SOL    HW225947   2.316   0.156  11.309 -1.5983 -3.1204  0.0860
 4772SOL     OW25948   1.637   0.381   9.024 -0.2832  0.3057  0.0161
 4772SOL    HW125949   1.561   0.359   9.079  0.4021  1.0443  1.2430
 4772SOL    HW225950   1.619   0.330   8.944 -0.1103  0.0086  0.1658
 4773SOL     OW25951   1.740   0.713  14.598  1.0501  0.3075  0.2255
 4773SOL    HW125952   1.688   0.757  14.532  1.9526 -0.5904 -1.0984
 4773SOL    HW225953   1.691   0.734  14.678  0.4052 -1.1966  0.2359
 4774SOL     OW25954   1.159   0.564   1.629 -0.0128 -0.5835  0.0976
 4774SOL    HW125955   1.235   0.613   1.598  0.0450 -1.2781 -0.8348
 4774SOL    HW225956   1.200   0.512   1.698  1.0327  0.2904  0.1356
 4775SOL     OW25957   4.390   3.349   8.834  0.2293 -0.2736  0.5484
 4775SOL    HW125958   4.473   3.389   8.808  0.3857  0.1048  1.6023
 4775SOL    HW225959   4.341   3.416   8.882  1.1229  1.2433 -0.6404
 4776SOL     OW25960   0.597   2.735   5.501  0.4632  0.0807  0.1672
 4776SOL    HW125961   0.642   2.771   5.578  1.1442  1.6007 -0.9250
 4776SOL    HW225962   0.670   2.712   5.444  0.9863 -0.4872  1.0680
 4777SOL     OW25963   3.558   1.328   0.708 -0.3599 -0.1457 -0.0727
 4777SOL    HW125964   3.610   1.283   0.775  1.3518  1.6245 -0.2200
 4777SOL    HW225965   3.574   1.269   0.634 -3.0513  0.7165 -1.3134
 4778SOL     OW25966   2.825   0.568  16.592 -0.3194 -0.6467 -0.4336
 4778SOL    HW125967   2.765   0.558  16.666 -2.1375  4.4292 -1.1934
 4778SOL    HW225968   2.771   0.623  16.535  0.0368 -0.4361 -0.5701
 4779SOL     OW25969   2.856   1.034   8.360 -0.5326  0.3592 -0.0671
 4779SOL    HW125970   2.802   1.053   8.284  0.8292  0.4414 -1.0159
 4779SOL    HW225971   2.823   1.095   8.425  1.2107  0.5386  0.6387
 4780SOL     OW25972   4.136   2.413  10.335 -0.0783  0.6531 -0.4495
 4780SOL    HW125973   4.165   2.467  10.409 -0.3205  1.4999 -0.9777
 4780SOL    HW225974   4.068   2.359  10.375  0.3061  1.0414  0.7286
 4781SOL     OW25975   2.339   2.665   2.829 -0.4037 -0.2099  0.3844
 4781SOL    HW125976   2.292   2.727   2.884 -0.5242  0.1328 -0.1093
 4781SOL    HW225977   2.276   2.647   2.760 -3.0723 -0.8382  2.9709
 4782SOL     OW25978   2.955   0.424  14.645 -0.4457  0.3475  0.0505
 4782SOL    HW125979   2.885   0.454  14.586  0.5577 -1.1513 -1.8935
 4782SOL    HW225980   3.027   0.483  14.622 -0.2583  0.1664  0.1728
 4783SOL     OW25981   3.653   2.008   2.798 -0.0051 -0.0784  0.0989
 4783SOL    HW125982   3.616   1.925   2.828  0.9307 -0.1066  1.1530
 4783SOL    HW225983   3.631   2.060   2.875 -0.9657 -0.1371 -0.1304
 4784SOL     OW25984   2.621   1.745   6.582  0.3342 -0.1363  0.5092
 4784SOL    HW125985   2.683   1.675   6.561 -0.6260 -0.8358 -0.0052
 4784SOL    HW225986   2.668   1.793   6.650 -0.3092  1.4902 -0.2111
 4785SOL     OW25987   2.065   4.393   3.842 -0.7052 -0.3040  0.1263
 4785SOL    HW125988   1.973   4.386   3.870 -0.2366 -0.5310  1.6026
 4785SOL    HW225989   2.086   4.316   3.788  1.3082  0.6196 -0.3967
 4786SOL     OW25990   0.800   2.733   0.859 -0.1259 -0.1199 -0.1455
 4786SOL    HW125991   0.732   2.668   0.841  0.1099 -0.7588  1.2791
 4786SOL    HW225992   0.756   2.778   0.932 -0.3977 -1.2881  0.4098
 4787SOL     OW25993   0.476   4.300   1.636  0.8546  0.3496 -0.4568
 4787SOL    HW125994   0.407   4.355   1.599  0.8208  1.4928  1.2907
 4787SOL    HW225995   0.535   4.366   1.673  0.3712  0.5978 -0.1280
 4788SOL     OW25996   1.032   0.269   7.943 -0.4840  1.0931 -0.2097
 4788SOL    HW125997   0.976   0.250   7.868 -2.3615 -0.4465  1.5644
 4788SOL    HW225998   1.031   0.183   7.987 -0.3868  0.6226 -1.1266
 4789SOL     OW25999   1.680   2.463  11.355 -0.4670 -0.1707 -0.6625
 4789SOL    HW126000   1.731   2.543  11.342 -1.9483  0.7563 -0.7730
 4789SOL    HW226001   1.674   2.479  11.450 -1.2434 -1.4674 -0.4982
 4790SOL     OW26002   1.426   1.765   8.218  0.5952  0.0675  0.4141
 4790SOL    HW126003   1.458   1.692   8.270 -0.4139  0.5292  1.6655
 4790SOL    HW226004   1.493   1.759   8.150  1.2417  0.9985  0.9700
 4791SOL     OW26005   4.390   1.803  10.772 -0.0767 -0.0347  0.7726
 4791SOL    HW126006   4.457   1.816  10.705 -0.0401 -1.9614  0.4168
 4791SOL    HW226007   4.314   1.844  10.729  1.3108  0.4630 -1.2016
 4792SOL     OW26008   4.492   4.163  11.925 -0.2587 -0.0223  0.0847
 4792SOL    HW126009   4.482   4.234  11.989 -0.7256 -1.1552  1.2889
 4792SOL    HW226010   4.523   4.221  11.855 -0.4675 -0.2691 -0.2091
 4793SOL     OW26011   4.719   3.011   0.763 -0.3765 -0.3245 -0.2633
 4793SOL    HW126012   4.680   3.022   0.677  4.2274  1.6992 -2.1145
 4793SOL    HW226013   0.059   3.066   0.749 -0.6142  0.0848  0.0582
 4794SOL     OW26014   0.750   1.439   0.281 -0.8311 -0.4860 -0.3312
 4794SOL    HW126015   0.796   1.381   0.221 -2.5684 -0.1306 -2.0027
 4794SOL    HW226016   0.719   1.380   0.350  0.9320 -0.7343  0.2406
 4795SOL     OW26017   3.423   3.476  12.750  0.2468 -0.5903 -0.0296
 4795SOL    HW126018   3.499   3.419  12.736  0.1104 -0.4476 -1.3912
 4795SOL    HW226019   3.449   3.522  12.830 -2.2892  1.4445 -0.3997
 4796SOL     OW26020   2.397   1.046   7.617  0.0559  0.3898 -0.3005
 4796SOL    HW126021   2.420   1.110   7.550 -0.2174  1.4003  0.5708
 4796SOL    HW226022   2.302   1.057   7.623 -0.0561 -0.3930 -0.6177
 4797SOL     OW26023   3.129   2.396  15.098 -0.3033 -0.2283  0.0231
 4797SOL    HW126024   3.128   2.457  15.171 -2.3937 -0.8688  0.5285
 4797SOL    HW226025   3.094   2.445  15.024  2.1473 -1.3937 -1.9404
 4798SOL     OW26026   4.360   2.569   2.379  0.4406  0.6317  0.2113
 4798SOL    HW126027   4.337   2.612   2.462  2.2412  0.8654  0.6007
 4798SOL    HW226028   4.290   2.505   2.364  1.7303 -0.5834 -0.5973
 4799SOL     OW26029   4.549   1.690   8.173  0.1820 -0.2241 -1.1601
 4799SOL    HW126030   4.604   1.744   8.231 -0.4180 -0.4321 -0.3971
 4799SOL    HW226031   4.593   1.605   8.182 -0.2128 -0.3412 -0.3725
 4800SOL     OW26032   2.300   4.733  12.024 -0.1458  0.1563 -0.0684
 4800SOL    HW126033   2.215   4.734  11.981 -1.0004 -2.6104  1.5679
 4800SOL    HW226034   2.265   4.694  12.104  1.9560  0.1757  0.8725
 4801SOL     OW26035   2.144   0.900  10.237  0.0424 -0.1525  0.5386
 4801SOL    HW126036   2.083   0.840  10.280 -1.4352  0.2866 -0.9326
 4801SOL    HW226037   2.092   0.941  10.168 -2.3653 -0.4781  2.1466
 4802SOL     OW26038   3.968   1.859   1.506  0.3610 -0.3362 -0.0302
 4802SOL    HW126039   3.927   1.772   1.508  0.2637 -0.2379  2.0723
 4802SOL    HW226040   4.017   1.854   1.424  0.5392 -1.1493  0.1252
 4803SOL     OW26041   4.138   4.385   5.747  0.0910  0.3639 -0.4830
 4803SOL    HW126042   4.227   4.364   5.774 -0.2510 -2.2533 -1.3902
 4803SOL    HW226043   4.155   4.448   5.677 -1.6749 -0.9832 -2.1310
 4804SOL     OW26044   0.058   4.514   9.858 -0.1961  0.3937 -0.2963
 4804SOL    HW126045   0.101   4.464   9.789  1.5937 -1.6823  2.3111
 4804SOL    HW226046   4.706   4.477   9.861  1.6758 -4.3219 -3.2237
 4805SOL     OW26047   1.462   3.544  10.176  0.1868  0.1384 -0.0771
 4805SOL    HW126048   1.499   3.462  10.143  0.2900 -0.4378  1.4961
 4805SOL    HW226049   1.375   3.548  10.135  0.7518 -1.2060 -1.3848
 4806SOL     OW26050   2.406   2.472  15.136  0.0208 -0.1631  0.4276
 4806SOL    HW126051   2.478   2.466  15.073  0.1343 -1.8529  0.7208
 4806SOL    HW226052   2.367   2.385  15.138  0.3546 -0.3143  0.4249
 4807SOL     OW26053   2.751   0.200   0.204 -0.4365  0.0411 -0.5300
 4807SOL    HW126054   2.829   0.178   0.153 -0.5830 -1.0985 -0.2755
 4807SOL    HW226055   2.681   0.171   0.146  0.6815  1.9609 -2.8233
 4808SOL     OW26056   0.857   0.995  11.201  0.0301 -0.2382 -0.0157
 4808SOL    HW126057   0.920   0.944  11.150  0.2701 -1.2166  1.2719
 4808SOL    HW226058   0.808   0.937  11.260 -2.7188 -0.9104 -2.9942
 4809SOL     OW26059   0.660   3.338  12.143 -0.2823  0.2953  0.6328
 4809SOL    HW126060   0.745   3.309  12.110  0.7727  2.8352  1.1411
 4809SOL    HW226061   0.601   3.275  12.101  2.6015 -1.6203 -0.5339
 4810SOL     OW26062   2.585   3.639   4.061  0.2547  0.2919 -0.7171
 4810SOL    HW126063   2.518   3.572   4.045  0.4887 -0.5154  1.6608
 4810SOL    HW226064   2.635   3.604   4.135 -0.0337 -1.3929 -1.3118
 4811SOL     OW26065   0.282   3.457   6.874  0.4311  0.0393  0.3483
 4811SOL    HW126066   0.257   3.508   6.797  0.7421 -0.2158  0.0788
 4811SOL    HW226067   0.267   3.526   6.939  1.4977  0.0866  0.5499
 4812SOL     OW26068   0.970   2.708   4.251 -0.2189 -0.5902  0.8997
 4812SOL    HW126069   0.994   2.636   4.308 -1.3093 -1.6768 -0.0169
 4812SOL    HW226070   0.876   2.717   4.271 -0.5275  1.6307 -1.3715
 4813SOL     OW26071   0.532   2.720   7.090 -0.0190 -0.4606  0.1712
 4813SOL    HW126072   0.546   2.626   7.098  1.6902 -0.2554 -0.5483
 4813SOL    HW226073   0.584   2.743   7.013  0.2343  2.1069  1.0901
 4814SOL     OW26074   1.458   2.217   0.065 -0.4834  0.3364 -0.6506
 4814SOL    HW126075   1.389   2.253   0.009 -2.4064 -0.0926  1.4784
 4814SOL    HW226076   1.466   2.264   0.148  1.0118 -1.0769  0.0101
 4815SOL     OW26077   1.340   0.625   8.444 -0.4717  0.5991 -0.3068
 4815SOL    HW126078   1.293   0.638   8.362  0.7413  1.8362 -0.8123
 4815SOL    HW226079   1.429   0.603   8.415  0.4858  0.1592  2.9669
 4816SOL     OW26080   0.138   3.700  10.666  0.0630  0.4543 -0.0652
 4816SOL    HW126081   0.225   3.659  10.666 -0.2391 -0.1931 -0.1181
 4816SOL    HW226082   0.158   3.785  10.627 -1.4581  0.6628 -0.3849
 4817SOL     OW26083   1.903   3.998  11.949  0.1107 -0.7184  0.3608
 4817SOL    HW126084   1.907   4.058  11.875  0.4899  1.1335  1.8748
 4817SOL    HW226085   1.854   3.924  11.914 -2.0997  0.8683  0.1356
 4818SOL     OW26086   1.492   2.988  14.854 -0.2745  0.4930 -0.1596
 4818SOL    HW126087   1.546   3.018  14.781  0.8255 -2.5555 -0.5923
 4818SOL    HW226088   1.475   2.902  14.817 -0.0149  0.8639 -1.1248
 4819SOL     OW26089   2.027   3.453   6.798  0.3535 -0.0891  0.0786
 4819SOL    HW126090   1.974   3.378   6.821 -1.3840  1.0967 -0.0720
 4819SOL    HW226091   1.971   3.531   6.789  1.6866  0.5938 -2.2593
 4820SOL     OW26092   2.495   0.290  10.362  0.2051 -0.0984  0.0802
 4820SOL    HW126093   2.559   0.230  10.401 -0.0644 -0.5104 -0.1076
 4820SOL    HW226094   2.455   0.235  10.295 -1.2588  2.3261 -1.0035
 4821SOL     OW26095   1.765   3.090   1.646  0.1256  0.5903 -0.1408
 4821SOL    HW126096   1.820   3.057   1.575  1.9790 -0.5291  1.8376
 4821SOL    HW226097   1.694   3.025   1.646  1.3744 -0.7805  2.2419
 4822SOL     OW26098   0.016   3.567   1.827 -0.1361 -0.0799 -0.0515
 4822SOL    HW126099   4.696   3.508   1.778  1.4870 -1.4881 -0.2068
 4822SOL    HW226100   4.702   3.565   1.908 -0.6990 -2.8010 -0.4645
 4823SOL     OW26101   4.661   1.963  17.209 -0.7069 -0.2070  0.1232
 4823SOL    HW126102   4.602   1.934  17.139 -0.2909  2.0112 -1.1497
 4823SOL    HW226103   0.003   1.987  17.161  0.6529 -1.5496  1.6532
 4824SOL     OW26104   1.663   3.452   8.354  0.7861 -0.0248 -0.1882
 4824SOL    HW126105   1.644   3.359   8.366 -0.4682  0.3017  0.3160
 4824SOL    HW226106   1.706   3.455   8.268 -0.8159 -1.6500 -1.0369
 4825SOL     OW26107   0.128   3.203   4.960 -0.2241 -0.1295 -0.2634
 4825SOL    HW126108   0.036   3.223   4.942  0.0117 -0.1001 -1.4642
 4825SOL    HW226109   0.154   3.271   5.021  1.3305  0.9083 -2.0716
 4826SOL     OW26110   4.475   2.218   3.044 -0.6901 -0.2221  0.4122
 4826SOL    HW126111   4.403   2.276   3.020  0.6069  1.3913  0.3574
 4826SOL    HW226112   4.484   2.156   2.973  2.6816 -0.2044  0.8135
 4827SOL     OW26113   1.902   3.061   7.662  0.7802  0.2946  0.2165
 4827SOL    HW126114   1.889   3.109   7.580 -1.5385 -1.3218 -0.3746
 4827SOL    HW226115   1.976   3.007   7.635  0.6785 -0.1948  0.9096
 4828SOL     OW26116   2.260   0.694  12.495 -0.3006 -0.3952 -0.5687
 4828SOL    HW126117   2.173   0.732  12.484 -0.2409 -0.0697  0.0893
 4828SOL    HW226118   2.296   0.703  12.407  1.0554  1.8917  0.2100
 4829SOL     OW26119   1.547   0.844   4.875  0.5267 -0.3256 -0.2701
 4829SOL    HW126120   1.624   0.894   4.901  0.3010 -1.4328  2.5020
 4829SOL    HW226121   1.483   0.885   4.934 -0.2389 -0.4855 -0.9929
 4830SOL     OW26122   1.595   1.986   2.290  0.1995 -0.0950  0.1837
 4830SOL    HW126123   1.629   2.018   2.374 -0.9205  2.4309 -0.3114
 4830SOL    HW226124   1.502   1.988   2.313  0.8443  0.6400  2.7210
 4831SOL     OW26125   4.282   0.139   1.586 -0.1693 -0.0655 -0.6146
 4831SOL    HW126126   4.218   0.140   1.515 -0.4639  2.3791 -0.3249
 4831SOL    HW226127   4.259   0.052   1.620  0.2680  0.1817  0.2910
 4832SOL     OW26128   2.841   0.810   3.783 -0.3046 -0.2405 -0.5131
 4832SOL    HW126129   2.767   0.847   3.735 -0.4778 -2.2055 -1.7822
 4832SOL    HW226130   2.883   0.754   3.717 -0.8672 -0.9061 -0.2982
 4833SOL     OW26131   2.003   0.948   6.774 -0.3460  0.0467  0.4894
 4833SOL    HW126132   2.019   0.878   6.837  0.5311  0.8766  1.1839
 4833SOL    HW226133   1.926   0.994   6.806 -0.3345  0.5068 -0.1367
 4834SOL     OW26134   2.754   2.774   2.582 -0.4956  0.2675 -0.2407
 4834SOL    HW126135   2.743   2.833   2.657  2.4730 -0.7592  0.9997
 4834SOL    HW226136   2.850   2.771   2.574 -0.4499 -1.2213  0.8956
 4835SOL     OW26137   3.564   2.541   6.099  0.2310 -0.2807  0.0936
 4835SOL    HW126138   3.569   2.632   6.068  0.1412  0.3293  1.8640
 4835SOL    HW226139   3.581   2.546   6.193 -0.1594 -2.6777  0.2702
 4836SOL     OW26140   2.956   0.651  11.254 -0.1762  0.5610 -0.3840
 4836SOL    HW126141   3.036   0.600  11.260 -0.6992 -0.1230  0.8198
 4836SOL    HW226142   2.986   0.740  11.272 -1.9927  1.1790 -0.3267
 4837SOL     OW26143   4.117   3.879   6.353  0.0266 -0.2182  0.5358
 4837SOL    HW126144   4.085   3.798   6.393 -0.3904 -0.0750  0.5017
 4837SOL    HW226145   4.154   3.916   6.433  1.3966 -1.3516  0.4264
 4838SOL     OW26146   0.047   4.569  12.862  0.0112 -0.1204 -0.2252
 4838SOL    HW126147   0.114   4.512  12.901 -0.3708  0.6803  1.5909
 4838SOL    HW226148   0.015   4.507  12.797 -0.4221 -0.9148  0.7465
 4839SOL     OW26149   3.135   4.420  16.902 -0.4726  0.0014  0.6195
 4839SOL    HW126150   3.117   4.351  16.838 -0.4874  0.3917  0.2015
 4839SOL    HW226151   3.129   4.490  16.836  1.4485  1.8586  2.4168
 4840SOL     OW26152   0.749   4.155   8.707 -0.0802  0.7108 -0.7068
 4840SOL    HW126153   0.766   4.120   8.620 -0.7794 -3.1213  0.7155
 4840SOL    HW226154   0.755   4.249   8.688  1.4531  1.0810  1.6162
 4841SOL     OW26155   2.738   2.593   6.029  0.1241 -0.1365  0.3005
 4841SOL    HW126156   2.728   2.684   6.001  0.6159 -0.4598 -0.9144
 4841SOL    HW226157   2.770   2.552   5.949  1.7849  1.0287  0.3597
 4842SOL     OW26158   0.081   2.817   1.987  0.6960  0.0678 -0.1625
 4842SOL    HW126159   0.038   2.898   1.960 -2.3492 -0.3999  3.3400
 4842SOL    HW226160   0.136   2.851   2.057 -0.6563  0.0533  0.8902
 4843SOL     OW26161   1.488   3.446   7.300  0.1476  0.7894  0.5471
 4843SOL    HW126162   1.497   3.357   7.265  1.7732  0.6274  1.4001
 4843SOL    HW226163   1.428   3.481   7.234  2.0579  0.1339 -1.5718
 4844SOL     OW26164   4.008   4.550   5.021  0.9101  0.0123  0.7248
 4844SOL    HW126165   3.956   4.631   5.031 -0.6179 -1.2134  2.5936
 4844SOL    HW226166   4.035   4.526   5.109  1.4914 -0.7423  0.3301
 4845SOL     OW26167   2.207   3.557   7.291 -0.3228  0.4032  0.1668
 4845SOL    HW126168   2.242   3.468   7.281  1.8427  1.3579 -0.7939
 4845SOL    HW226169   2.115   3.539   7.269  0.5270 -1.8615 -1.5136
 4846SOL     OW26170   2.443   0.891   6.731  0.6113 -0.0412 -0.4774
 4846SOL    HW126171   2.516   0.933   6.777  0.4774  0.4805 -0.7342
 4846SOL    HW226172   2.487   0.858   6.653  3.0175 -0.6958  1.1565
 4847SOL     OW26173   0.073   4.406   0.057 -0.3461  0.4530  0.0348
 4847SOL    HW126174   0.077   4.412   0.153 -0.4233  1.5757 -0.0393
 4847SOL    HW226175   0.119   4.322   0.048 -0.6514  0.4544 -1.4484
 4848SOL     OW26176   3.049   3.287   1.350  0.3409 -0.3942  0.7908
 4848SOL    HW126177   2.954   3.290   1.339  0.6810  0.5212 -1.7690
 4848SOL    HW226178   3.074   3.224   1.283  0.0444 -3.0557  3.1932
 4849SOL     OW26179   2.756   3.274   3.447 -0.2324 -0.5664  0.3648
 4849SOL    HW126180   2.716   3.300   3.530 -0.9420 -1.5980  0.3484
 4849SOL    HW226181   2.680   3.237   3.403  0.5730 -1.8332  0.0378
 4850SOL     OW26182   1.589   2.105   6.857  0.3534  0.2194 -0.0779
 4850SOL    HW126183   1.595   2.200   6.850  1.0231  0.2012  0.2542
 4850SOL    HW226184   1.498   2.082   6.839  0.2237 -0.2168  1.1158
 4851SOL     OW26185   4.422   1.117   2.739 -0.5468 -0.0316 -0.2331
 4851SOL    HW126186   4.490   1.166   2.784 -2.2527 -0.7461  3.1041
 4851SOL    HW226187   4.476   1.062   2.682 -2.4178 -1.2781 -0.8063
 4852SOL     OW26188   2.946   3.942   9.119  0.6445 -0.1887  0.8751
 4852SOL    HW126189   2.876   4.005   9.103  0.7773 -0.5721 -1.1950
 4852SOL    HW226190   2.990   3.930   9.035 -0.0676 -0.7224  0.5774
 4853SOL     OW26191   3.997   3.633  12.190 -0.3317 -0.3319 -0.3650
 4853SOL    HW126192   4.001   3.702  12.124  0.1550 -0.4129 -0.4210
 4853SOL    HW226193   4.085   3.629  12.227  0.0097  1.3999 -1.0421
 4854SOL     OW26194   0.994   3.103  17.308  0.2349 -0.5958 -0.1522
 4854SOL    HW126195   1.054   3.127  17.379 -0.4350 -0.6043  0.4067
 4854SOL    HW226196   1.056   3.049  17.258 -1.8241 -2.1778 -0.9905
 4855SOL     OW26197   4.149   0.733   7.233 -0.0559 -0.6137 -0.2001
 4855SOL    HW126198   4.225   0.773   7.192 -0.2200 -0.5976 -0.4897
 4855SOL    HW226199   4.131   0.665   7.169 -0.6965 -0.1627 -0.4962
 4856SOL     OW26200   0.223   2.141   5.075  0.0930  0.4259  0.1770
 4856SOL    HW126201   0.156   2.079   5.045 -1.5637  2.5107 -0.3557
 4856SOL    HW226202   0.273   2.094   5.143  0.1477  2.4142  1.4944
 4857SOL     OW26203   4.441   3.328  14.913  0.0858  0.3019 -0.1425
 4857SOL    HW126204   4.450   3.259  14.979  0.0075  0.7522  0.3451
 4857SOL    HW226205   4.407   3.393  14.976 -2.0586 -0.7000 -0.2785
 4858SOL     OW26206   4.127   1.034   5.186  0.1974 -0.1977  0.0833
 4858SOL    HW126207   4.199   0.972   5.195 -1.0570 -2.1342 -3.4709
 4858SOL    HW226208   4.114   1.059   5.278  1.3687  1.1419 -0.1251
 4859SOL     OW26209   3.377   0.415   2.797  0.0009 -0.0928  0.0181
 4859SOL    HW126210   3.468   0.404   2.769  0.4068  1.4579  0.7251
 4859SOL    HW226211   3.347   0.488   2.744  0.3038 -0.1308 -0.2033
 4860SOL     OW26212   2.534   1.340   4.367  0.3116  0.6892 -0.3542
 4860SOL    HW126213   2.438   1.342   4.359  0.2128 -0.0735  0.6354
 4860SOL    HW226214   2.567   1.416   4.318  0.7515  1.1114  0.5847
 4861SOL     OW26215   2.551   1.851   2.875 -0.5473  0.4662  0.1766
 4861SOL    HW126216   2.510   1.936   2.860 -0.1646  0.2109 -2.3921
 4861SOL    HW226217   2.614   1.851   2.803 -0.3209 -0.4102  0.3708
 4862SOL     OW26218   1.880   0.565   8.144 -0.1561 -0.8498  0.1317
 4862SOL    HW126219   1.837   0.484   8.172  0.7935 -0.8332  1.6682
 4862SOL    HW226220   1.970   0.544   8.117  0.2282  1.8367 -0.6769
 4863SOL     OW26221   3.018   4.665  17.372  0.2793  0.5773  0.2781
 4863SOL    HW126222   3.013   4.734  17.306 -2.0816 -0.1407 -0.3140
 4863SOL    HW226223   3.058   4.595  17.320  1.3876  1.2205  0.2690
 4864SOL     OW26224   0.296   0.349   5.534  0.0542 -0.4087 -0.2216
 4864SOL    HW126225   0.244   0.427   5.553 -1.5796 -1.0721 -1.9430
 4864SOL    HW226226   0.239   0.279   5.501  1.2219 -0.5369 -1.9576
 4865SOL     OW26227   3.160   3.889   5.962 -0.4844  0.1534 -0.0013
 4865SOL    HW126228   3.205   3.918   6.042  1.0408  0.9204 -1.1470
 4865SOL    HW226229   3.222   3.823   5.930  1.2758  0.0480  3.5027
 4866SOL     OW26230   0.625   3.621   1.189 -0.2499  0.0177  0.4328
 4866SOL    HW126231   0.566   3.549   1.166  0.4423 -1.1497  2.3402
 4866SOL    HW226232   0.706   3.577   1.166 -0.8031 -0.4577 -0.6124
 4867SOL     OW26233   2.090   1.627  11.512 -0.3284 -0.0057 -0.1130
 4867SOL    HW126234   2.119   1.631  11.421  2.9376 -1.6657  0.8760
 4867SOL    HW226235   2.060   1.536  11.519  1.4147 -0.5633 -0.0875
 4868SOL     OW26236   1.289   0.741   2.841  0.0596  0.0251 -0.2468
 4868SOL    HW126237   1.274   0.750   2.935 -0.1742  0.6353 -0.3482
 4868SOL    HW226238   1.258   0.651   2.830 -0.4905  0.4305 -1.9971
 4869SOL     OW26239   3.682   3.271   0.871  0.1684 -0.0881  0.0005
 4869SOL    HW126240   3.770   3.233   0.865 -0.1400 -0.9686  1.0476
 4869SOL    HW226241   3.685   3.320   0.953  2.4012 -0.1706 -0.0244
 4870SOL     OW26242   3.604   3.698  11.989 -0.0065  0.5035  0.4561
 4870SOL    HW126243   3.624   3.698  12.083  0.1046  2.4994  0.4381
 4870SOL    HW226244   3.555   3.619  11.965 -1.2385  1.6727 -0.8596
 4871SOL     OW26245   1.042   0.188   5.236  0.2276  0.5540 -0.6272
 4871SOL    HW126246   1.128   0.181   5.195  1.1073  2.2612  0.9254
 4871SOL    HW226247   0.989   0.135   5.176  0.8722  0.9374 -1.5254
 4872SOL     OW26248   2.170   2.766   6.957 -0.3987  0.3374 -0.8334
 4872SOL    HW126249   2.156   2.751   7.050  1.0151  0.3960 -0.6103
 4872SOL    HW226250   2.263   2.745   6.950 -0.7260 -1.2839 -0.2232
 4873SOL     OW26251   1.371   0.226   4.844  0.3183 -0.0176 -0.5452
 4873SOL    HW126252   1.309   0.295   4.820 -0.7289 -1.2598 -1.4583
 4873SOL    HW226253   1.454   0.271   4.830  1.5224 -1.0189  3.3195
 4874SOL     OW26254   0.775   3.699  16.956  0.3538  0.3275 -0.1579
 4874SOL    HW126255   0.689   3.661  16.976 -0.1378  0.4667 -1.9869
 4874SOL    HW226256   0.821   3.616  16.966  0.3893  0.3680  0.0199
 4875SOL     OW26257   4.729   2.790  10.769 -0.2541  0.2327  0.0605
 4875SOL    HW126258   0.059   2.845  10.810  1.1678 -1.2138 -0.3601
 4875SOL    HW226259   4.696   2.732  10.837 -0.6511 -1.0138 -1.2053
 4876SOL     OW26260   0.738   2.622  17.559  0.3756 -0.3648  0.0075
 4876SOL    HW126261   0.756   2.533  17.587  0.2866 -0.8110 -1.3841
 4876SOL    HW226262   0.699   2.607  17.473  1.1792 -2.2461 -0.0251
 4877SOL     OW26263   2.347   4.243   2.453  0.0130 -0.0707 -0.0971
 4877SOL    HW126264   2.322   4.308   2.387 -1.4709 -0.7302 -0.1869
 4877SOL    HW226265   2.362   4.162   2.405 -1.4249  0.0234 -0.7175
 4878SOL     OW26266   2.874   0.044   5.645 -0.6500 -0.7394  0.0585
 4878SOL    HW126267   2.916   4.713   5.699  0.1471  1.4828  2.2176
 4878SOL    HW226268   2.856   0.114   5.707 -0.7802  2.0164 -3.1107
 4879SOL     OW26269   0.394   3.486   8.049  0.2358  0.6148  0.1625
 4879SOL    HW126270   0.392   3.462   8.142  0.8170  1.5307  0.4136
 4879SOL    HW226271   0.488   3.498   8.033 -0.3173  2.2230 -1.7871
 4880SOL     OW26272   1.386   0.690  14.925  0.2267  0.0301 -0.4484
 4880SOL    HW126273   1.345   0.744  14.992  3.0364  1.8153 -0.2000
 4880SOL    HW226274   1.377   0.601  14.959  0.5741 -0.5003 -1.7600
 4881SOL     OW26275   0.228   4.633   6.963  0.0229  0.3015 -0.0910
 4881SOL    HW126276   0.229   4.539   6.980 -1.2263  0.6175  1.7493
 4881SOL    HW226277   0.293   4.630   6.893  0.0671 -0.7553 -0.0016
 4882SOL     OW26278   3.150   1.168   8.785  0.4653  0.2494  0.3000
 4882SOL    HW126279   3.237   1.180   8.746 -0.4054  1.9064 -1.1295
 4882SOL    HW226280   3.100   1.208   8.714 -0.0769  0.2761  0.7016
 4883SOL     OW26281   1.200   3.202   7.086  0.6606 -0.1760  0.7184
 4883SOL    HW126282   1.292   3.224   7.072  0.5782 -1.0847 -1.2693
 4883SOL    HW226283   1.164   3.208   6.997  0.1929 -0.6548  0.8745
 4884SOL     OW26284   3.431   4.409   4.683 -0.2410  0.2186 -0.5320
 4884SOL    HW126285   3.352   4.461   4.699 -0.9910 -1.3714  1.0469
 4884SOL    HW226286   3.479   4.472   4.630  2.0217 -0.2616  0.9829
 4885SOL     OW26287   0.525   3.577   7.137 -0.2035  0.0818  0.8567
 4885SOL    HW126288   0.445   3.528   7.153  0.0363 -0.4974  0.2444
 4885SOL    HW226289   0.577   3.565   7.217  2.4423 -0.9518 -1.0117
 4886SOL     OW26290   3.928   1.673  16.253 -0.1034 -0.5024 -0.2401
 4886SOL    HW126291   3.979   1.698  16.177  0.2751  1.1100  0.5348
 4886SOL    HW226292   3.850   1.728  16.239 -0.3571 -1.4525 -2.5115
 4887SOL     OW26293   2.010   0.871  12.115 -0.7573  0.1016 -0.6479
 4887SOL    HW126294   1.992   0.962  12.092  1.0328  0.8406  0.8785
 4887SOL    HW226295   2.019   0.891  12.208 -1.8033  0.2248 -0.5649
 4888SOL     OW26296   2.840   0.912   4.879  0.1415 -0.1605 -0.3999
 4888SOL    HW126297   2.837   0.841   4.943  2.6366  1.8480  1.9478
 4888SOL    HW226298   2.749   0.926   4.855  0.1226  1.2636  0.4967
 4889SOL     OW26299   1.167   2.304  17.338  0.0086 -0.2550 -0.1282
 4889SOL    HW126300   1.083   2.346  17.320 -1.1607 -2.5078  0.1295
 4889SOL    HW226301   1.140   2.236  17.400  1.1667 -2.4850 -2.0837
 4890SOL     OW26302   0.824   2.649   5.421 -0.2319 -0.0496  0.4668
 4890SOL    HW126303   0.912   2.674   5.450  0.6415 -1.1650 -1.1705
 4890SOL    HW226304   0.819   2.678   5.330 -1.0989 -1.3432  0.0978
 4891SOL     OW26305   1.813   0.589   3.237 -0.1921  0.2077  0.0676
 4891SOL    HW126306   1.803   0.601   3.143 -1.4836  1.0458  0.3128
 4891SOL    HW226307   1.773   0.672   3.264 -0.4969 -0.4628  1.6586
 4892SOL     OW26308   3.462   3.127   0.820 -0.0647 -0.4982  0.6835
 4892SOL    HW126309   3.540   3.182   0.827  0.6900 -1.7154  1.7434
 4892SOL    HW226310   3.414   3.176   0.753 -1.1273 -1.7653  0.5299
 4893SOL     OW26311   1.037   2.425   5.282  0.0203 -0.1226  0.6283
 4893SOL    HW126312   1.071   2.514   5.281 -3.3211  1.1484  0.2111
 4893SOL    HW226313   1.023   2.409   5.188  0.6273  1.7572  0.2159
 4894SOL     OW26314   2.188   1.979  14.453  0.0725 -0.0920 -0.0005
 4894SOL    HW126315   2.170   1.885  14.462 -0.4730  0.1215  1.0895
 4894SOL    HW226316   2.215   1.994  14.543 -0.2755 -2.3632  0.4827
 4895SOL     OW26317   3.301   2.152   6.366 -0.2395 -0.4534  0.5005
 4895SOL    HW126318   3.373   2.099   6.331  0.1595  1.4685 -1.5686
 4895SOL    HW226319   3.309   2.240   6.329  2.5045 -0.8725  0.0696
 4896SOL     OW26320   0.588   0.101   2.070 -0.2646 -0.1478 -0.4162
 4896SOL    HW126321   0.525   0.121   2.002 -1.4102  2.3492  1.3998
 4896SOL    HW226322   0.584   0.005   2.071  2.0599 -0.2458  0.7929
 4897SOL     OW26323   4.256   1.372   5.353 -0.6380 -0.2953  0.5169
 4897SOL    HW126324   4.325   1.421   5.399  0.2003 -0.4619 -0.5495
 4897SOL    HW226325   4.187   1.420   5.399 -0.6735 -0.4429  0.6164
 4898SOL     OW26326   4.561   0.570   3.357  0.1921  0.0529  0.2708
 4898SOL    HW126327   4.511   0.651   3.368  0.2400 -0.0721  1.4206
 4898SOL    HW226328   4.612   0.590   3.436  0.5976  0.4043 -0.0849
 4899SOL     OW26329   1.343   3.769   4.634 -0.1543 -0.0089 -0.0250
 4899SOL    HW126330   1.352   3.752   4.727 -4.6388 -1.3658  0.1438
 4899SOL    HW226331   1.404   3.843   4.630  0.5879 -0.5703  1.1105
 4900SOL     OW26332   4.660   1.423   2.785  0.1388 -0.2189 -0.6691
 4900SOL    HW126333   4.636   1.351   2.844 -0.7019 -0.4955 -1.3516
 4900SOL    HW226334   4.577   1.468   2.773 -1.2240 -1.8500  2.6150
 4901SOL     OW26335   2.334   1.335  11.907 -0.1347 -0.3900  0.1575
 4901SOL    HW126336   2.338   1.407  11.844 -1.2838 -0.2198  0.2812
 4901SOL    HW226337   2.286   1.273  11.852  0.1393  0.5303 -1.1148
 4902SOL     OW26338   3.348   3.183  12.589  0.4020 -0.0181 -0.0781
 4902SOL    HW126339   3.423   3.130  12.617  0.0134  0.9941  2.9632
 4902SOL    HW226340   3.280   3.161  12.653 -0.1186  1.0488 -0.2562
 4903SOL     OW26341   2.736   3.673   8.080  0.3808 -0.2880  0.4314
 4903SOL    HW126342   2.790   3.598   8.104 -0.7498 -1.1779  0.2073
 4903SOL    HW226343   2.650   3.636   8.058  0.9628 -0.3024 -1.7416
 4904SOL     OW26344   2.608   3.350   7.828 -0.0010 -0.3030 -0.0581
 4904SOL    HW126345   2.583   3.401   7.905 -1.8819 -0.2968 -0.6568
 4904SOL    HW226346   2.702   3.343   7.842  0.0858 -0.3167 -0.6408
 4905SOL     OW26347   4.203   0.013   7.083 -0.3412 -0.4029  0.5544
 4905SOL    HW126348   4.295   0.023   7.105 -0.4995  0.4350  0.8036
 4905SOL    HW226349   4.178   4.672   7.134  2.0352 -0.8596  0.9996
 4906SOL     OW26350   1.224   1.403   6.284  0.6026  0.2752 -0.0040
 4906SOL    HW126351   1.207   1.321   6.239  0.4864  0.0835  0.3951
 4906SOL    HW226352   1.291   1.432   6.221 -0.2672  0.0736 -1.0289
 4907SOL     OW26353   2.897   3.638   1.487 -0.1299  0.1372 -0.2317
 4907SOL    HW126354   2.855   3.694   1.552  0.4624  0.6957 -0.3273
 4907SOL    HW226355   2.987   3.631   1.518  0.3621  1.5676 -1.3614
 4908SOL     OW26356   0.316   3.504   6.457 -0.0251 -0.5589  0.2651
 4908SOL    HW126357   0.299   3.412   6.441  3.7749 -1.3720  0.8612
 4908SOL    HW226358   0.226   3.535   6.466  0.6083  1.4211 -0.2611
 4909SOL     OW26359   0.486   4.439   7.244  0.3656  0.8463  0.3428
 4909SOL    HW126360   0.549   4.368   7.251 -1.3332 -0.8574 -1.8868
 4909SOL    HW226361   0.399   4.401   7.253  0.6566  0.1794  0.3579
 4910SOL     OW26362   0.291   2.983   2.962 -0.1411 -0.1937 -0.4707
 4910SOL    HW126363   0.360   2.978   3.027  0.4867  0.6442 -1.0592
 4910SOL    HW226364   0.285   2.891   2.938  1.9805 -0.7992  1.3519
 4911SOL     OW26365   4.584   3.307   2.909 -0.1122  0.1121 -0.1099
 4911SOL    HW126366   4.538   3.318   2.826  0.0824 -1.2945 -0.4034
 4911SOL    HW226367   4.639   3.384   2.903  0.6196 -0.3015  1.2597
 4912SOL     OW26368   3.347   2.459  12.659 -0.0933  0.1841  0.1868
 4912SOL    HW126369   3.393   2.455  12.575  1.4437 -1.8315  1.1409
 4912SOL    HW226370   3.267   2.414  12.633  0.8485  0.1530 -2.6075
 4913SOL     OW26371   0.701   4.130   6.213 -0.5030  0.3917  0.0479
 4913SOL    HW126372   0.782   4.112   6.165 -1.0010 -0.2159 -0.5703
 4913SOL    HW226373   0.679   4.041   6.241 -1.6096  0.5047 -0.4781
 4914SOL     OW26374   0.618   1.627   3.037  0.0494  0.5814  0.4003
 4914SOL    HW126375   0.622   1.688   3.111  0.6924 -0.4359  1.1932
 4914SOL    HW226376   0.522   1.626   3.034  0.0650  2.3392 -0.9014
 4915SOL     OW26377   3.874   4.055  16.041  0.4107 -0.1597  0.5266
 4915SOL    HW126378   3.857   3.979  15.985 -0.3327 -2.3375  3.7224
 4915SOL    HW226379   3.892   4.015  16.126 -0.4375 -1.6432  0.0241
 4916SOL     OW26380   1.580   2.578   7.345  0.0748  1.2794 -0.3764
 4916SOL    HW126381   1.512   2.645   7.347  0.3875  1.5311  1.3204
 4916SOL    HW226382   1.562   2.527   7.265  0.4757 -1.2975  1.1868
 4917SOL     OW26383   4.640   2.738  12.243 -0.2553  0.7871 -0.1613
 4917SOL    HW126384   4.689   2.758  12.164 -2.4874 -3.7992 -2.6870
 4917SOL    HW226385   4.700   2.793  12.294 -0.4264  0.1956  0.6842
 4918SOL     OW26386   0.516   0.388   8.090 -0.1947  0.0874 -0.2672
 4918SOL    HW126387   0.510   0.298   8.058  0.4753 -0.2741  0.6029
 4918SOL    HW226388   0.558   0.427   8.013  0.9034  0.6634  0.6178
 4919SOL     OW26389   3.387   2.796  10.662 -0.2675 -0.4005  0.5045
 4919SOL    HW126390   3.363   2.789  10.570  1.5813  0.9028 -0.0862
 4919SOL    HW226391   3.364   2.889  10.671 -0.1089 -0.3055 -0.0419
 4920SOL     OW26392   4.094   3.400  15.925  0.2359 -0.2379  0.0320
 4920SOL    HW126393   4.141   3.473  15.965  3.0036 -1.9873 -0.0270
 4920SOL    HW226394   4.046   3.452  15.861  1.0673 -0.7445 -0.9884
 4921SOL     OW26395   0.661   3.495   8.011 -0.4823 -0.0366  0.9280
 4921SOL    HW126396   0.719   3.569   8.031 -1.0250  0.5449  0.3569
 4921SOL    HW226397   0.717   3.437   7.959  0.2719  0.5193  1.1020
 4922SOL     OW26398   1.967   2.065  15.963  0.2207  0.0582  0.3301
 4922SOL    HW126399   2.026   2.043  15.891  1.7762 -0.7902  1.8312
 4922SOL    HW226400   2.013   2.139  16.003 -1.6654  2.0848 -1.2463
 4923SOL     OW26401   2.505   2.627   6.172 -0.8591  0.0769 -0.0210
 4923SOL    HW126402   2.468   2.558   6.227  0.1564  0.4363  1.1015
 4923SOL    HW226403   2.599   2.611   6.169 -0.5968  1.3247  1.6441
 4924SOL     OW26404   3.948   1.921   9.875 -0.4720 -0.6314 -0.1219
 4924SOL    HW126405   3.955   2.011   9.907  1.1051 -0.4775 -0.8822
 4924SOL    HW226406   4.025   1.889   9.923 -0.6890  0.0705  0.6957
 4925SOL     OW26407   2.977   1.021   5.879  0.3089  0.3003 -0.5678
 4925SOL    HW126408   2.944   1.003   5.791  1.1222 -0.9487 -0.6161
 4925SOL    HW226409   3.053   1.078   5.867  1.0740 -1.0625 -2.1984
 4926SOL     OW26410   0.136   0.160   0.599 -0.3544  0.2136  0.2622
 4926SOL    HW126411   0.106   0.092   0.538 -0.8827  1.5455 -0.9664
 4926SOL    HW226412   0.158   0.224   0.532  3.7545  0.8829  2.2687
 4927SOL     OW26413   2.067   2.630   5.136 -0.2951 -0.0314 -0.1236
 4927SOL    HW126414   1.995   2.578   5.101 -0.4258 -0.5160  0.8639
 4927SOL    HW226415   2.106   2.668   5.057 -1.0800 -0.6047 -0.7716
 4928SOL     OW26416   1.519   1.116   5.235  0.3161  0.1630 -0.2766
 4928SOL    HW126417   1.590   1.135   5.174  0.6694  3.1222  1.0566
 4928SOL    HW226418   1.571   1.122   5.315 -0.7016 -0.0531  0.4019
 4929SOL     OW26419   1.412   0.464   6.543  0.2975 -0.1713 -0.8076
 4929SOL    HW126420   1.427   0.531   6.610 -4.1963 -1.9998  2.0281
 4929SOL    HW226421   1.370   0.522   6.480 -0.4739  0.4405  0.2621
 4930SOL     OW26422   0.223   4.131   6.814  0.1581  0.4590 -0.3873
 4930SOL    HW126423   0.310   4.093   6.822  0.2639  0.7156 -0.3362
 4930SOL    HW226424   0.239   4.193   6.744  0.8493 -1.7480 -2.1796
 4931SOL     OW26425   4.400   0.238  10.968  0.5470  0.0790  0.2250
 4931SOL    HW126426   4.392   0.266  11.060 -0.7337  0.0552  0.1172
 4931SOL    HW226427   4.335   0.168  10.967 -0.5144  1.0749  0.0352
 4932SOL     OW26428   2.392   2.629  15.895 -0.3027 -0.5190  0.2489
 4932SOL    HW126429   2.430   2.548  15.929 -1.9688 -0.7710  1.5316
 4932SOL    HW226430   2.436   2.684  15.959  1.0559 -2.4374  0.9527
 4933SOL     OW26431   0.030   1.620   7.175  0.1762 -0.9295  0.0198
 4933SOL    HW126432   4.673   1.633   7.169  0.6194  1.9158 -0.7593
 4933SOL    HW226433   0.030   1.526   7.155 -0.2969 -0.7739 -0.6770
 4934SOL     OW26434   1.793   0.315   8.225 -0.2392  0.4821 -0.0496
 4934SOL    HW126435   1.836   0.231   8.241 -0.9943  0.5498  2.3998
 4934SOL    HW226436   1.714   0.307   8.278 -1.3009 -0.0329 -1.7384
 4935SOL     OW26437   1.021   2.407   3.663 -0.1688  0.2293  0.0925
 4935SOL    HW126438   1.083   2.466   3.705  1.4701 -1.4553  0.0210
 4935SOL    HW226439   1.028   2.443   3.574  1.0363 -0.9095 -0.2716
 4936SOL     OW26440   1.448   1.638   5.857 -0.2670  0.0252  0.3093
 4936SOL    HW126441   1.516   1.681   5.909 -2.1839  2.8372  0.4605
 4936SOL    HW226442   1.371   1.686   5.886 -0.6544 -0.8220  0.7024
 4937SOL     OW26443   3.350   3.021   4.280  0.1450  0.0202  0.6549
 4937SOL    HW126444   3.349   2.948   4.219 -0.4603  0.9069 -0.4079
 4937SOL    HW226445   3.442   3.035   4.305 -0.6059 -0.1861  3.5368
 4938SOL     OW26446   3.491   2.633  12.826  0.1203  0.0813 -0.2055
 4938SOL    HW126447   3.563   2.570  12.833 -3.2401 -3.6574  0.6606
 4938SOL    HW226448   3.423   2.582  12.783  2.1809 -0.9251 -2.2602
 4939SOL     OW26449   0.694   1.356   6.373 -0.4572  0.0485 -0.1570
 4939SOL    HW126450   0.686   1.422   6.441 -1.9554 -2.4791  2.1459
 4939SOL    HW226451   0.692   1.285   6.437 -1.2808  1.2563  1.1612
 4940SOL     OW26452   1.161   2.434   6.627  0.8410  0.0528  0.2559
 4940SOL    HW126453   1.085   2.488   6.651 -0.2054 -0.9313 -0.8666
 4940SOL    HW226454   1.206   2.509   6.588 -1.1292  1.0166 -0.1692
 4941SOL     OW26455   4.581   3.993   7.506  0.7960 -0.6382  0.0057
 4941SOL    HW126456   4.586   4.074   7.556  0.6523  0.3010 -1.5212
 4941SOL    HW226457   4.616   3.932   7.572  2.8686 -0.0295 -0.5321
 4942SOL     OW26458   0.322   3.545  15.329 -0.5379  0.6553 -0.1561
 4942SOL    HW126459   0.333   3.528  15.235  2.0071 -0.4132  0.3284
 4942SOL    HW226460   0.247   3.604  15.325 -0.3924  0.7075 -2.1909
 4943SOL     OW26461   3.816   1.594  15.351  0.1686 -0.1080 -0.2043
 4943SOL    HW126462   3.730   1.611  15.313 -0.4046  0.3287  1.2733
 4943SOL    HW226463   3.819   1.653  15.427  0.1025 -0.0579 -0.2403
 4944SOL     OW26464   3.377   2.590  13.831 -0.5366 -0.3590 -0.9298
 4944SOL    HW126465   3.386   2.501  13.865  0.3755  0.5879  1.2829
 4944SOL    HW226466   3.343   2.638  13.907 -1.2977  1.8358 -2.6486
 4945SOL     OW26467   4.008   3.100  12.341  0.1401  0.4184  0.2509
 4945SOL    HW126468   4.083   3.096  12.401  1.4868 -0.6705 -1.5254
 4945SOL    HW226469   4.013   3.193  12.318 -0.6717  0.0148 -1.5384
 4946SOL     OW26470   2.610   3.298   8.719 -0.1763 -0.5074 -0.7149
 4946SOL    HW126471   2.596   3.337   8.805 -0.4530  0.2904 -1.1188
 4946SOL    HW226472   2.520   3.270   8.703 -0.5378  0.1648  0.1954
 4947SOL     OW26473   1.341   3.174   5.570  0.1550  0.1269  0.0776
 4947SOL    HW126474   1.401   3.101   5.584  0.5314  0.8393  2.2163
 4947SOL    HW226475   1.284   3.162   5.646  1.5423 -4.0021  0.4336
 4948SOL     OW26476   3.340   1.440   8.773  0.2360 -0.2374  0.7895
 4948SOL    HW126477   3.415   1.493   8.799  0.4768 -0.1736 -0.0278
 4948SOL    HW226478   3.382   1.356   8.791  2.6844  0.6127 -0.8549
 4949SOL     OW26479   1.936   2.741   8.443 -0.3209  0.0683 -0.5041
 4949SOL    HW126480   1.890   2.820   8.471 -0.2799 -0.4720  1.1403
 4949SOL    HW226481   2.014   2.775   8.400 -1.2461 -0.0431 -2.2471
 4950SOL     OW26482   3.233   1.431   6.954  0.1492 -0.6646 -0.3432
 4950SOL    HW126483   3.287   1.375   7.011  0.5972  2.1064  1.9241
 4950SOL    HW226484   3.151   1.451   6.998 -0.3828 -0.1564 -1.5706
 4951SOL     OW26485   0.285   2.877   0.002  0.2231  0.1501 -0.2567
 4951SOL    HW126486   0.335   2.880  17.666  0.5184  0.1180 -0.0804
 4951SOL    HW226487   0.285   2.784   0.023  0.0589 -0.2659 -2.0667
 4952SOL     OW26488   4.379   0.743   7.855  0.0716 -0.5630  0.2123
 4952SOL    HW126489   4.403   0.744   7.948 -1.0205 -1.7378  0.5076
 4952SOL    HW226490   4.300   0.795   7.867  0.4693 -0.1128  0.9530
 4953SOL     OW26491   2.856   1.673   7.013 -0.0716 -0.2396  0.3315
 4953SOL    HW126492   2.836   1.758   7.052  2.5719  0.2692  0.5687
 4953SOL    HW226493   2.938   1.656   7.057 -1.0825  0.4364  2.4598
 4954SOL     OW26494   0.655   3.473   7.701  0.0649  0.2613 -0.2612
 4954SOL    HW126495   0.577   3.484   7.754 -0.1989  0.0169 -0.6030
 4954SOL    HW226496   0.684   3.564   7.693 -2.0648  0.9034 -0.4941
 4955SOL     OW26497   0.522   1.749   0.697  0.1903  0.0317  0.0797
 4955SOL    HW126498   0.524   1.669   0.750 -0.3529  0.3427  0.5673
 4955SOL    HW226499   0.573   1.806   0.755  1.2872 -0.4710 -0.3744
 4956SOL     OW26500   4.133   1.719  13.518 -0.4090 -0.2547  0.1312
 4956SOL    HW126501   4.157   1.809  13.500 -3.0139  0.2630 -0.7177
 4956SOL    HW226502   4.039   1.733  13.518 -0.6484 -1.7650  2.0262
 4957SOL     OW26503   0.016   0.994  10.045 -0.2443  0.0433  0.1582
 4957SOL    HW126504   0.028   0.962   9.956 -2.2102  2.4544 -0.9928
 4957SOL    HW226505   4.732   1.087  10.036  0.3516  0.1704  0.1395
 4958SOL     OW26506   4.299   2.149   9.204  0.3035 -0.0064  0.3699
 4958SOL    HW126507   4.292   2.104   9.288 -0.7144  0.4323  0.5236
 4958SOL    HW226508   4.295   2.071   9.147 -2.3344 -0.0653  0.6609
 4959SOL     OW26509   2.164   2.153  12.367 -0.5195 -0.0187 -0.4418
 4959SOL    HW126510   2.076   2.116  12.378 -1.1279  1.6992  0.5060
 4959SOL    HW226511   2.205   2.080  12.322 -0.2504  0.5704 -1.1510
 4960SOL     OW26512   4.115   1.811   5.532 -0.2045 -0.0698 -0.5922
 4960SOL    HW126513   4.045   1.850   5.584  0.6075  1.3074 -0.5206
 4960SOL    HW226514   4.183   1.793   5.597  0.1217 -0.8475 -1.1372
 4961SOL     OW26515   2.937   0.460   8.888 -0.6773 -0.2397 -0.0842
 4961SOL    HW126516   2.988   0.382   8.909  0.7231  0.6256 -0.3040
 4961SOL    HW226517   2.972   0.484   8.803  0.3807 -0.4499  0.2947
 4962SOL     OW26518   2.234   1.501   1.392  0.6851 -0.5810  0.4161
 4962SOL    HW126519   2.329   1.495   1.379  0.0639 -2.2079 -3.3781
 4962SOL    HW226520   2.204   1.468   1.307 -0.7297 -0.8985  1.0343
 4963SOL     OW26521   2.924   2.587  12.656 -0.8814  0.1438 -0.0021
 4963SOL    HW126522   2.835   2.621  12.655 -0.6257  0.9391  3.9286
 4963SOL    HW226523   2.904   2.494  12.665  0.9400 -0.3977 -1.6037
 4964SOL     OW26524   1.723   1.185   5.755 -0.2433 -0.3263  0.1227
 4964SOL    HW126525   1.677   1.257   5.797  0.1369  0.7900 -1.3668
 4964SOL    HW226526   1.777   1.160   5.830  0.1601 -1.5935 -0.5860
 4965SOL     OW26527   1.874   3.568  15.208  0.0911  0.3667 -0.5790
 4965SOL    HW126528   1.879   3.478  15.175 -0.0269 -0.3178  1.2369
 4965SOL    HW226529   1.944   3.561  15.273 -1.0277  2.2185  0.8151
 4966SOL     OW26530   1.906   1.930   1.122 -0.2218 -0.2631 -0.4007
 4966SOL    HW126531   1.859   2.014   1.122 -0.9647 -0.6807  0.7780
 4966SOL    HW226532   1.836   1.867   1.101  0.6181 -1.4696  0.4258
 4967SOL     OW26533   1.567   2.456  12.818 -0.1257 -0.4633  0.2353
 4967SOL    HW126534   1.650   2.478  12.776 -0.3093 -1.1711 -0.4975
 4967SOL    HW226535   1.540   2.529  12.873 -0.2073 -0.2136 -0.1328
 4968SOL     OW26536   3.464   0.668  17.523  0.1592  0.4769 -0.2160
 4968SOL    HW126537   3.387   0.714  17.489  1.3341  3.2366  0.8757
 4968SOL    HW226538   3.426   0.600  17.579 -0.2592  1.2139  0.3886
 4969SOL     OW26539   2.438   2.679   5.871  0.0962 -0.1773  0.1340
 4969SOL    HW126540   2.373   2.624   5.915 -0.1513  0.4877  0.5962
 4969SOL    HW226541   2.480   2.612   5.817 -0.4625 -2.5398  2.6147
 4970SOL     OW26542   2.377   1.301   9.034  0.3125  0.1986  0.3622
 4970SOL    HW126543   2.329   1.258   9.105 -1.7402  1.3577 -0.3094
 4970SOL    HW226544   2.305   1.349   8.991 -0.1124 -1.2230 -0.5057
 4971SOL     OW26545   0.209   1.622   4.927  0.6774 -0.0506  0.3270
 4971SOL    HW126546   0.200   1.562   4.853  2.5343 -0.0240  0.0780
 4971SOL    HW226547   0.271   1.680   4.884  2.3983 -0.7156  1.8526
 4972SOL     OW26548   0.498   3.927   5.998 -0.3664 -0.1187 -0.4644
 4972SOL    HW126549   0.559   3.876   6.051 -0.7725 -1.0534 -0.8975
 4972SOL    HW226550   0.519   4.009   6.044 -2.5527  1.2516 -1.8937
 4973SOL     OW26551   3.851   2.951   1.537  0.1470  0.3874  0.4306
 4973SOL    HW126552   3.904   2.995   1.470  0.3833 -2.0481 -0.9960
 4973SOL    HW226553   3.844   2.866   1.492  0.9207 -0.5674  2.1186
 4974SOL     OW26554   1.580   0.647   8.822  0.4220  0.0559  0.4198
 4974SOL    HW126555   1.498   0.639   8.872  0.3853 -1.9835  0.0126
 4974SOL    HW226556   1.554   0.714   8.759 -1.3284 -1.6050 -0.6269
 4975SOL     OW26557   1.271   2.008   5.499  0.2846 -0.0982  0.0769
 4975SOL    HW126558   1.246   1.994   5.408  1.2092 -0.8978 -0.0591
 4975SOL    HW226559   1.355   1.961   5.497  0.5666  0.5084 -1.7298
 4976SOL     OW26560   1.686   1.475   8.102 -0.5790 -0.1207  0.3516
 4976SOL    HW126561   1.765   1.456   8.052  0.7906  0.1362  2.4283
 4976SOL    HW226562   1.694   1.423   8.183 -0.9531  1.1433  1.2042
 4977SOL     OW26563   0.065   1.769   9.605 -0.1916 -0.7202 -0.3899
 4977SOL    HW126564   0.146   1.739   9.562  1.2902  0.0180  1.8639
 4977SOL    HW226565   0.094   1.858   9.625 -3.0868 -0.1859  1.3579
 4978SOL     OW26566   3.162   1.108   8.393  0.3415  0.4334  0.4965
 4978SOL    HW126567   3.072   1.087   8.368  0.8111  0.9623 -1.6338
 4978SOL    HW226568   3.151   1.191   8.440  0.1250  1.5398 -1.5246
 4979SOL     OW26569   1.888   4.155  11.721 -0.0141  0.5198  0.2024
 4979SOL    HW126570   1.928   4.099  11.654 -1.0703  0.5897 -0.4920
 4979SOL    HW226571   1.799   4.172  11.689  0.0096  0.1136 -0.0799
 4980SOL     OW26572   1.705   1.253  11.585  0.4659 -0.1461  0.2507
 4980SOL    HW126573   1.717   1.347  11.596 -2.2267 -0.1046  2.8411
 4980SOL    HW226574   1.692   1.245  11.490 -0.9050  2.7911  0.1931
 4981SOL     OW26575   3.780   0.139   6.563  0.4271  0.2622  0.0507
 4981SOL    HW126576   3.852   0.175   6.512  1.4393 -1.2336  0.4260
 4981SOL    HW226577   3.733   0.217   6.592  0.1647  0.9028 -2.1596
 4982SOL     OW26578   2.920   2.801   7.713  0.3897 -0.2928  0.0868
 4982SOL    HW126579   2.878   2.768   7.793 -0.0662 -0.4408 -0.2167
 4982SOL    HW226580   2.971   2.874   7.749  0.9032  0.2768 -1.8127
 4983SOL     OW26581   2.460   0.809  17.047 -0.0381  0.5435 -0.9115
 4983SOL    HW126582   2.443   0.898  17.076 -1.0275  0.1616 -0.3161
 4983SOL    HW226583   2.389   0.757  17.086  0.7223 -0.7224 -1.2145
 4984SOL     OW26584   2.852   4.167  17.566 -0.6434  0.0913  0.1778
 4984SOL    HW126585   2.936   4.189  17.605 -0.2950 -1.8624  0.5055
 4984SOL    HW226586   2.875   4.139  17.477 -0.6697 -1.1472  0.5704
 4985SOL     OW26587   0.776   1.080   5.208 -0.0697 -0.0293 -0.5260
 4985SOL    HW126588   0.754   0.986   5.209 -1.7547  0.3660  0.0133
 4985SOL    HW226589   0.728   1.120   5.136 -2.9897 -0.9025  0.9071
 4986SOL     OW26590   0.571   0.618   4.037  0.9484 -0.7819  0.0190
 4986SOL    HW126591   0.583   0.563   4.115 -1.7802 -3.5140 -1.5061
 4986SOL    HW226592   0.481   0.591   4.019  0.9641  0.1234 -1.4206
 4987SOL     OW26593   3.735   2.638   1.739  0.2396  0.2417  0.0875
 4987SOL    HW126594   3.800   2.708   1.743  0.7949 -0.2604  0.0191
 4987SOL    HW226595   3.718   2.625   1.832 -2.0091  3.5459  0.1198
 4988SOL     OW26596   2.057   2.433   5.827 -0.0143 -0.3126  0.0014
 4988SOL    HW126597   2.063   2.425   5.732 -0.5231 -1.1453  0.0445
 4988SOL    HW226598   1.967   2.411   5.852  0.2178 -3.4045 -1.9508
 4989SOL     OW26599   2.185   1.146   5.716 -0.2774 -0.3663  0.2757
 4989SOL    HW126600   2.146   1.078   5.770 -1.1148  0.0434  0.1864
 4989SOL    HW226601   2.264   1.106   5.680  0.5944 -0.1696  1.9344
 4990SOL     OW26602   1.343   3.230   8.067  0.2468  0.1019 -0.0979
 4990SOL    HW126603   1.342   3.299   8.001  0.7251 -0.5128 -0.7503
 4990SOL    HW226604   1.410   3.176   8.026  3.2058  3.1941  0.7204
 4991SOL     OW26605   4.501   2.853  16.474  0.4066  0.6011 -0.2510
 4991SOL    HW126606   4.437   2.856  16.403  1.2817 -0.9407 -1.0979
 4991SOL    HW226607   4.443   2.890  16.542 -1.1936  1.7091 -2.2168
 4992SOL     OW26608   4.387   0.053  12.699 -0.1557 -0.2963  0.8417
 4992SOL    HW126609   4.482   0.051  12.690 -0.4922  0.0621 -2.8229
 4992SOL    HW226610   4.377   0.104  12.619 -1.1672  0.3070  1.3521
 4993SOL     OW26611   1.226   3.857   7.464  0.4174 -0.0238 -0.2800
 4993SOL    HW126612   1.271   3.877   7.382  0.1890  1.5052 -0.0197
 4993SOL    HW226613   1.207   3.764   7.450  0.2081  0.2545 -1.8173
 4994SOL     OW26614   2.784   0.025   6.522  0.2767  0.5365  0.1471
 4994SOL    HW126615   2.815   0.010   6.612  1.2629 -2.9026 -0.7580
 4994SOL    HW226616   2.717   0.092   6.535 -1.2095 -1.1085  0.8610
 4995SOL     OW26617   1.069   0.542  11.417  0.1179  0.2913  0.3970
 4995SOL    HW126618   1.135   0.579  11.476 -1.3449  1.6593  1.1806
 4995SOL    HW226619   0.998   0.600  11.445 -1.2886 -0.1467 -2.2025
 4996SOL     OW26620   1.753   2.362   3.487 -0.4710  0.2648 -0.4906
 4996SOL    HW126621   1.704   2.325   3.413 -0.6881  0.7170 -0.5692
 4996SOL    HW226622   1.695   2.332   3.557  0.4977  0.3456  0.3472
 4997SOL     OW26623   4.453   1.049   8.158 -0.3746 -0.3186 -0.1423
 4997SOL    HW126624   4.474   1.113   8.089 -1.1511 -0.8309 -0.8578
 4997SOL    HW226625   4.537   1.003   8.158 -0.4936 -0.5396 -0.9726
 4998SOL     OW26626   4.528   4.051   5.432  0.6958  0.6768  0.5335
 4998SOL    HW126627   4.561   3.962   5.445  1.0874  0.8293  0.6121
 4998SOL    HW226628   4.607   4.099   5.458  1.8782  0.2947 -2.3482
 4999SOL     OW26629   1.887   3.452   1.007  0.7170  0.2076  0.2479
 4999SOL    HW126630   1.924   3.498   0.932  1.5419 -2.2074 -0.8270
 4999SOL    HW226631   1.958   3.448   1.071 -0.1933 -1.9218  1.1356
 5000SOL     OW26632   2.863   0.183  14.981  0.2947 -0.0325 -0.2058
 5000SOL    HW126633   2.807   0.109  14.956 -1.2211  0.6174  1.3223
 5000SOL    HW226634   2.904   0.160  15.065 -0.0999  0.2569  0.0636
 5001SOL     OW26635   0.230   2.791  17.235 -0.2866 -0.4178 -0.0207
 5001SOL    HW126636   0.225   2.845  17.156  1.4979  0.1265  0.2360
 5001SOL    HW226637   0.166   2.832  17.293  0.9370 -0.5652  1.4208
 5002SOL     OW26638   2.181   2.849   7.659 -0.0103 -0.5423  0.2421
 5002SOL    HW126639   2.113   2.803   7.708 -0.3109 -0.2547  0.0916
 5002SOL    HW226640   2.258   2.832   7.714 -0.4392  1.4225  1.4679
 5003SOL     OW26641   4.069   4.619   6.839  0.2406  0.3800  0.4142
 5003SOL    HW126642   4.131   4.692   6.837  2.0178 -1.0945  1.1271
 5003SOL    HW226643   4.087   4.584   6.752  1.3890 -0.2064  0.8781
 5004SOL     OW26644   3.284   0.872  10.492 -0.0200  0.2418 -0.5140
 5004SOL    HW126645   3.237   0.942  10.447 -0.0947  1.6605  1.7801
 5004SOL    HW226646   3.361   0.909  10.536 -1.1717 -1.0777  2.6132
 5005SOL     OW26647   1.009   3.828  12.268 -0.1897 -0.5461 -0.0404
 5005SOL    HW126648   0.917   3.819  12.242 -0.0024  0.7370 -1.1534
 5005SOL    HW226649   1.031   3.735  12.262  0.5414 -0.4160  0.5046
 5006SOL     OW26650   4.088   1.387   8.846 -0.1686  0.9620  0.6362
 5006SOL    HW126651   4.018   1.445   8.877  0.7352  2.4449 -0.1064
 5006SOL    HW226652   4.123   1.350   8.927 -2.4152  0.1695  1.2484
 5007SOL     OW26653   3.193   3.837  11.527 -0.6075 -0.8099  0.2100
 5007SOL    HW126654   3.109   3.842  11.482 -0.4319 -0.5433 -0.0873
 5007SOL    HW226655   3.166   3.791  11.607  1.0301 -3.7937 -0.9401
 5008SOL     OW26656   0.632   1.272   1.970  0.2834  0.3337 -0.4601
 5008SOL    HW126657   0.598   1.200   2.022  1.3312  0.7087  0.7279
 5008SOL    HW226658   0.689   1.315   2.034  0.6993 -0.4383 -0.3078
 5009SOL     OW26659   0.003   3.462   4.073 -0.0739 -0.0506  0.1488
 5009SOL    HW126660   4.693   3.543   4.053 -0.9072 -0.1751  1.5619
 5009SOL    HW226661   4.680   3.436   4.143  1.1573 -1.8857  0.5064
 5010SOL     OW26662   0.384   3.575  10.758 -0.4451  0.7549 -0.1100
 5010SOL    HW126663   0.453   3.574  10.824 -2.0672  0.7214  1.6182
 5010SOL    HW226664   0.349   3.486  10.765 -0.7647  0.9262  0.4437
 5011SOL     OW26665   1.319   2.236   5.651  0.0683 -0.3339  0.2314
 5011SOL    HW126666   1.288   2.154   5.610 -1.7103  1.0107 -1.1308
 5011SOL    HW226667   1.243   2.267   5.699  0.5058 -3.0436  2.6648
 5012SOL     OW26668   0.632   1.580   5.837 -0.4381 -0.2256  0.3779
 5012SOL    HW126669   0.723   1.605   5.851 -0.0669 -0.6624 -1.3132
 5012SOL    HW226670   0.585   1.628   5.906 -0.0833 -1.6484  1.6264
 5013SOL     OW26671   3.004   3.997   4.338 -0.4161 -0.1528  0.1077
 5013SOL    HW126672   2.974   4.024   4.251  0.8586  2.5411  0.4899
 5013SOL    HW226673   3.085   3.961   4.302 -1.1339  0.0490 -1.6830
 5014SOL     OW26674   4.652   3.938   4.281 -0.5510  0.2987  0.8171
 5014SOL    HW126675   4.713   3.967   4.348  2.4392 -1.3183 -1.2356
 5014SOL    HW226676   4.660   4.001   4.209  0.3808 -1.5099 -0.6440
 5015SOL     OW26677   2.216   2.141  15.509  0.5146  0.2487  0.3867
 5015SOL    HW126678   2.227   2.125  15.602 -2.0333 -1.6341  0.3798
 5015SOL    HW226679   2.137   2.089  15.496 -0.7220  2.0916  0.4486
 5016SOL     OW26680   1.733   1.183   5.067  0.1872 -0.3576  0.1224
 5016SOL    HW126681   1.821   1.219   5.082 -0.5129  1.7945 -0.8786
 5016SOL    HW226682   1.701   1.252   5.008 -0.7819 -1.3987 -0.5595
 5017SOL     OW26683   0.732   3.533   5.439  0.1528 -0.0203 -0.1200
 5017SOL    HW126684   0.767   3.588   5.369  1.0736 -0.5194 -0.0532
 5017SOL    HW226685   0.812   3.487   5.465 -0.5093 -0.5922  0.9083
 5018SOL     OW26686   1.174   3.594   7.733 -0.5757  0.3607  0.2072
 5018SOL    HW126687   1.215   3.541   7.802 -1.1598  0.7229  0.8379
 5018SOL    HW226688   1.239   3.664   7.734  0.5674 -0.6931 -0.5171
 5019SOL     OW26689   1.643   4.400   3.081  0.0660  0.2108 -0.3285
 5019SOL    HW126690   1.729   4.393   3.039 -0.8399 -0.0749 -2.1114
 5019SOL    HW226691   1.594   4.348   3.017 -0.2869  1.2129 -0.8821
 5020SOL     OW26692   3.541   0.391   2.247 -0.1451 -0.0679 -0.6586
 5020SOL    HW126693   3.521   0.354   2.161 -0.5874  0.8753 -0.9612
 5020SOL    HW226694   3.622   0.347   2.273 -1.7413 -2.1480  0.8104
 5021SOL     OW26695   0.790   0.682   4.523  0.5144  0.0400 -0.0144
 5021SOL    HW126696   0.771   0.755   4.581  0.8131  1.1128 -1.2826
 5021SOL    HW226697   0.699   0.667   4.497  0.2242 -1.3036  1.7266
 5022SOL     OW26698   2.146   2.636  10.351  0.4964  0.0927  0.1600
 5022SOL    HW126699   2.162   2.731  10.354  0.3164  0.0528  1.8460
 5022SOL    HW226700   2.231   2.595  10.333 -0.1987 -0.8314 -1.0318
 5023SOL     OW26701   1.687   1.086  15.279 -0.0242 -0.0911  0.0261
 5023SOL    HW126702   1.604   1.064  15.323 -0.3267 -1.7731 -1.3604
 5023SOL    HW226703   1.737   1.115  15.356 -4.2479  2.2034  1.8884
 5024SOL     OW26704   0.668   0.395   2.328  0.4547  0.0219  0.2634
 5024SOL    HW126705   0.737   0.453   2.360 -1.2477  2.1851  0.0300
 5024SOL    HW226706   0.708   0.308   2.331 -0.2557 -0.3139 -0.0656
 5025SOL     OW26707   0.262   0.311  13.927 -0.5231 -0.1473 -0.1276
 5025SOL    HW126708   0.210   0.366  13.985  0.6024  1.5104 -0.7010
 5025SOL    HW226709   0.218   0.230  13.954  1.2639 -2.2114 -3.4561
 5026SOL     OW26710   4.265   1.280  16.401  0.4692 -0.2883  0.1588
 5026SOL    HW126711   4.222   1.201  16.368 -0.7100  0.0364  0.9334
 5026SOL    HW226712   4.197   1.343  16.376  0.0092  0.0262  2.2770
 5027SOL     OW26713   4.407   0.073  10.063 -0.1893 -0.3455  0.4413
 5027SOL    HW126714   4.441   0.144  10.009 -1.9425  0.3020  0.1818
 5027SOL    HW226715   4.446   0.100  10.147  1.4174  0.5535 -0.6070
 5028SOL     OW26716   1.021   3.658   6.429 -0.2429 -0.2581 -0.0553
 5028SOL    HW126717   1.089   3.725   6.422  1.0962 -1.3168  2.4887
 5028SOL    HW226718   1.041   3.615   6.346 -2.3268 -2.3295  0.5146
 5029SOL     OW26719   4.297   3.441  11.178 -0.0653  0.2192  0.4635
 5029SOL    HW126720   4.298   3.434  11.082 -1.9077  1.4223  0.3674
 5029SOL    HW226721   4.314   3.535  11.186 -0.0659  0.0648  2.1688
 5030SOL     OW26722   2.520   3.293   0.982 -0.0611  0.2553  0.3079
 5030SOL    HW126723   2.550   3.238   0.909 -1.4144 -0.0368 -0.0423
 5030SOL    HW226724   2.496   3.371   0.933 -1.4860 -1.8275 -2.3614
 5031SOL     OW26725   2.482   2.867   4.063 -0.0291 -0.4421 -0.1236
 5031SOL    HW126726   2.576   2.845   4.062 -0.1606 -0.8903 -3.0411
 5031SOL    HW226727   2.448   2.795   4.011 -0.6299 -0.4359  0.2639
 5032SOL     OW26728   0.127   2.835   8.919 -0.4814  0.4064  0.4669
 5032SOL    HW126729   0.115   2.793   9.004 -1.3042  2.4684  1.3862
 5032SOL    HW226730   0.040   2.867   8.897 -1.0208 -1.3539  0.0645
 5033SOL     OW26731   3.412   2.437  17.695 -0.2991  0.3917  0.0321
 5033SOL    HW126732   3.375   2.355  17.728  2.0219 -0.4828  0.5174
 5033SOL    HW226733   3.470   2.409  17.624 -0.4840  1.5845 -0.5931
 5034SOL     OW26734   1.732   3.205   0.924 -0.1739 -0.1864 -0.9259
 5034SOL    HW126735   1.663   3.218   0.989 -0.5683 -0.3390 -1.3161
 5034SOL    HW226736   1.743   3.297   0.898  0.2867 -0.3830 -1.4132
 5035SOL     OW26737   0.881   1.348   5.013  0.3734  0.4454  0.1745
 5035SOL    HW126738   0.888   1.362   5.107  0.9921  0.4748  0.1222
 5035SOL    HW226739   0.928   1.421   4.973  1.2599 -1.4953 -2.3693
 5036SOL     OW26740   4.491   3.257   4.636  0.4780 -0.0552 -0.2252
 5036SOL    HW126741   4.444   3.260   4.553 -1.9944  2.0153  1.2426
 5036SOL    HW226742   4.580   3.283   4.613 -0.1453  4.1789  2.0812
 5037SOL     OW26743   0.510   3.465   0.819  0.0996  0.0785  0.2408
 5037SOL    HW126744   0.419   3.473   0.788  0.0276 -1.9456 -0.0824
 5037SOL    HW226745   0.525   3.382   0.774 -0.3186 -0.0802  0.3878
 5038SOL     OW26746   2.275   0.044   4.382  0.1655  0.3875 -0.2023
 5038SOL    HW126747   2.255   0.134   4.407  0.2752  0.3098  0.1564
 5038SOL    HW226748   2.325   0.018   4.459  0.4946 -1.3333 -1.0098
 5039SOL     OW26749   4.248   1.569   1.344 -0.3763  0.2408  0.0574
 5039SOL    HW126750   4.226   1.508   1.272 -2.1367  1.0582 -0.0965
 5039SOL    HW226751   4.311   1.506   1.380 -0.0177 -0.5197 -1.8419
 5040SOL     OW26752   4.116   4.044   9.179  0.6392  0.2961  0.2607
 5040SOL    HW126753   4.147   4.082   9.096 -2.6994  1.4112 -0.4548
 5040SOL    HW226754   4.156   4.096   9.248  1.7272  1.2940 -1.1200
 5041SOL     OW26755   4.060   1.907  16.326 -0.0123  0.3009  0.1815
 5041SOL    HW126756   4.150   1.889  16.352 -0.4958 -0.7330  1.1289
 5041SOL    HW226757   4.030   1.824  16.287  0.2094 -1.0434  2.8977
 5042SOL     OW26758   0.876   0.134   2.048 -0.1744  0.1207 -0.1389
 5042SOL    HW126759   0.892   0.205   2.109 -1.6027  0.8974 -0.6857
 5042SOL    HW226760   0.784   0.125   2.070 -0.7542  1.2386 -2.1657
 5043SOL     OW26761   2.632   0.504  14.802  0.3291 -0.3119  0.1206
 5043SOL    HW126762   2.553   0.535  14.758  0.2590 -0.6920 -0.0259
 5043SOL    HW226763   2.696   0.561  14.760 -1.5174  0.0007 -2.2820
 5044SOL     OW26764   0.062   0.651   8.570 -0.2456 -0.2837 -0.5699
 5044SOL    HW126765   0.110   0.581   8.615 -0.1687 -0.1085 -0.3751
 5044SOL    HW226766   4.717   0.647   8.619 -0.0154 -2.2884 -0.3387
 5045SOL     OW26767   1.942   2.129  15.101 -0.0984  0.1705 -0.8812
 5045SOL    HW126768   1.895   2.087  15.028  0.9711 -0.5477 -1.1523
 5045SOL    HW226769   1.864   2.169  15.141  1.6941  1.4241  1.3632
 5046SOL     OW26770   3.206   0.033   4.934 -0.2974  0.2481 -0.4527
 5046SOL    HW126771   3.129   0.086   4.955 -0.9548 -0.4629 -1.0591
 5046SOL    HW226772   3.270   0.099   4.908  0.0223 -0.0553 -0.4334
 5047SOL     OW26773   4.599   2.006   6.434 -1.1102 -0.0597  0.6415
 5047SOL    HW126774   4.638   1.950   6.501 -0.3606 -0.5730 -0.2189
 5047SOL    HW226775   4.512   1.980   6.405 -0.5561  0.6428 -1.6366
 5048SOL     OW26776   4.442   2.151   3.973 -0.1723 -0.2130 -0.4706
 5048SOL    HW126777   4.381   2.101   3.918 -1.1806 -0.0124  0.4705
 5048SOL    HW226778   4.415   2.238   3.942  0.6146 -0.4669 -1.8805
 5049SOL     OW26779   0.022   3.598   2.458  0.5781 -1.0226 -0.0892
 5049SOL    HW126780   0.113   3.568   2.449  1.6696  2.5807 -1.3005
 5049SOL    HW226781   0.012   3.678   2.406 -0.6209 -0.7151  0.6008
 5050SOL     OW26782   4.596   4.331   4.923  0.0904 -0.5435  0.0478
 5050SOL    HW126783   4.519   4.346   4.978 -1.1008 -0.4054 -1.6528
 5050SOL    HW226784   4.585   4.404   4.861  0.5911 -1.5407 -1.2262
 5051SOL     OW26785   3.649   4.645   9.004 -0.0301 -0.5031  0.2445
 5051SOL    HW126786   3.666   4.662   9.096 -2.6320  1.3003  0.4163
 5051SOL    HW226787   3.684   4.726   8.966 -1.6603  0.2972  0.4157
 5052SOL     OW26788   4.215   1.442   3.592 -0.7564  0.3691 -0.1668
 5052SOL    HW126789   4.309   1.443   3.611 -0.8850 -0.7008  0.5237
 5052SOL    HW226790   4.186   1.382   3.661  1.0782  1.0064  1.1793
 5053SOL     OW26791   1.302   1.733   0.575  0.1616 -0.0121 -0.3940
 5053SOL    HW126792   1.321   1.717   0.668 -2.6024  1.6188  0.4652
 5053SOL    HW226793   1.207   1.724   0.569  0.2912 -0.6490 -1.4197
 5054SOL     OW26794   2.874   4.045   3.489 -0.1832 -0.6073  0.5228
 5054SOL    HW126795   2.952   4.029   3.436 -0.5953 -2.6937  0.5252
 5054SOL    HW226796   2.910   4.037   3.578  0.2965 -1.2709  0.2734
 5055SOL     OW26797   2.246   2.486   5.290  0.4567 -1.0037  0.5401
 5055SOL    HW126798   2.163   2.512   5.250  1.1475  1.1341  0.5007
 5055SOL    HW226799   2.296   2.492   5.209  2.4132  1.1715  1.9394
 5056SOL     OW26800   1.959   2.714   7.737 -0.2680 -0.1032  0.6436
 5056SOL    HW126801   1.989   2.635   7.782  2.3962  0.1772 -0.6398
 5056SOL    HW226802   1.903   2.682   7.666  0.6814  0.3977 -0.3269
 5057SOL     OW26803   0.313   0.569   4.033  0.0813 -0.1395  0.3790
 5057SOL    HW126804   0.262   0.546   4.111  0.4912  0.2326  0.7560
 5057SOL    HW226805   0.258   0.555   3.956  0.0668  3.1128 -0.1963
 5058SOL     OW26806   4.570   0.411  17.063 -0.1084 -0.2581  0.0750
 5058SOL    HW126807   4.531   0.438  16.980  1.0621 -1.5466 -0.9035
 5058SOL    HW226808   4.489   0.410  17.114 -0.1485 -1.3467 -0.0147
 5059SOL     OW26809   0.498   3.349   0.450 -0.1692  0.0567 -0.6154
 5059SOL    HW126810   0.566   3.341   0.383  1.1358 -1.9125  0.9633
 5059SOL    HW226811   0.448   3.421   0.411 -0.1132  0.9012  0.8856
 5060SOL     OW26812   3.445   1.465   7.751 -0.4673 -0.7540 -0.3146
 5060SOL    HW126813   3.524   1.432   7.709  1.3045 -0.0182  2.4527
 5060SOL    HW226814   3.386   1.390   7.746 -1.0346 -0.4524  1.7887
 5061SOL     OW26815   4.386   0.443   7.893  0.0176  0.8930  0.2449
 5061SOL    HW126816   4.367   0.535   7.875 -0.9931  0.9266  1.4636
 5061SOL    HW226817   4.368   0.432   7.986  2.1638 -0.8151  0.4597
 5062SOL     OW26818   0.368   0.477   6.274  0.9230  0.0080  0.3696
 5062SOL    HW126819   0.293   0.442   6.226  2.0837  1.1097 -2.2530
 5062SOL    HW226820   0.321   0.555   6.305  1.9100  0.9873 -0.6003
 5063SOL     OW26821   0.266   0.763   1.508  0.0219 -0.2501  0.2689
 5063SOL    HW126822   0.247   0.811   1.427 -2.0043  1.1639  1.5783
 5063SOL    HW226823   0.345   0.715   1.483 -1.1142 -1.5875 -0.6904
 5064SOL     OW26824   0.655   1.795   8.405 -0.0493 -0.0118 -0.3233
 5064SOL    HW126825   0.653   1.865   8.341 -1.7688  0.2179 -0.0172
 5064SOL    HW226826   0.622   1.722   8.352  0.2790  0.5539 -1.2835
 5065SOL     OW26827   0.497   4.192   6.931  0.1923  0.6205  0.2177
 5065SOL    HW126828   0.463   4.106   6.956  3.0632 -0.9566 -1.2057
 5065SOL    HW226829   0.426   4.249   6.959 -0.6137 -0.0154 -0.5297
 5066SOL     OW26830   2.525   0.087   7.524 -0.3197 -0.5310 -0.1591
 5066SOL    HW126831   2.444   0.101   7.573 -0.2006  0.1162 -0.1552
 5066SOL    HW226832   2.584   0.134   7.584  0.0583 -1.3176  0.0949
 5067SOL     OW26833   1.536   2.682  15.380  0.4320 -0.1431 -0.1184
 5067SOL    HW126834   1.516   2.620  15.450  0.5628 -0.0749 -0.0213
 5067SOL    HW226835   1.497   2.763  15.414 -1.4059 -0.9354 -0.3448
 5068SOL     OW26836   4.275   3.699  15.504  0.6364  0.0326  0.3303
 5068SOL    HW126837   4.186   3.731  15.516  0.5741  0.2490 -0.6640
 5068SOL    HW226838   4.330   3.777  15.499  0.9461 -0.1986  0.0958
 5069SOL     OW26839   2.600   1.337   2.235 -0.0963 -0.5797  0.1229
 5069SOL    HW126840   2.695   1.343   2.224 -0.0767  4.0326  2.5897
 5069SOL    HW226841   2.570   1.400   2.170  0.2325  0.2840  0.7999
 5070SOL     OW26842   2.630   2.938   5.203  0.0802  0.4816 -0.5289
 5070SOL    HW126843   2.551   2.884   5.200  0.5011 -0.1647 -0.1922
 5070SOL    HW226844   2.634   2.988   5.122  2.1861  0.7493 -0.2601
 5071SOL     OW26845   1.951   4.563  11.026 -0.3373 -0.4960 -0.5491
 5071SOL    HW126846   2.027   4.610  11.059 -0.0721 -1.4512  0.1791
 5071SOL    HW226847   1.888   4.581  11.096 -0.7247  1.2449 -1.3164
 5072SOL     OW26848   4.142   0.557  14.967  0.0525 -0.1607 -0.1549
 5072SOL    HW126849   4.083   0.483  14.956 -0.2374  0.1619 -0.7188
 5072SOL    HW226850   4.091   0.630  15.001  3.6661  1.3652  1.9799
 5073SOL     OW26851   3.441   1.827   7.734 -0.0502 -0.6076 -0.4220
 5073SOL    HW126852   3.525   1.782   7.744 -0.6006 -2.0435 -2.4728
 5073SOL    HW226853   3.426   1.829   7.828 -1.6276  1.7146 -0.7325
 5074SOL     OW26854   3.294   4.391   4.022 -0.2009  0.4709  0.1729
 5074SOL    HW126855   3.256   4.473   3.990 -0.9942 -0.3647 -1.0436
 5074SOL    HW226856   3.303   4.343   3.940  0.8639 -1.9803  1.7280
 5075SOL     OW26857   1.974   0.580  13.114 -0.0333  0.2730  0.1400
 5075SOL    HW126858   1.895   0.535  13.083  0.5834  0.9542 -2.4005
 5075SOL    HW226859   1.972   0.656  13.055 -0.1287  0.9246  0.9891
 5076SOL     OW26860   0.334   4.627   4.296 -0.1517  0.0176  0.4067
 5076SOL    HW126861   0.395   4.628   4.370 -0.6607 -1.5803  0.8509
 5076SOL    HW226862   0.283   4.549   4.317 -0.5190  0.2882  0.5329
 5077SOL     OW26863   4.602   0.153   9.068 -0.3056  0.4662 -0.0661
 5077SOL    HW126864   4.576   0.134   9.158 -3.3126  1.8428 -0.6534
 5077SOL    HW226865   4.686   0.106   9.071  0.8639  2.5607  0.3556
 5078SOL     OW26866   2.249   1.479  12.142 -0.3651  0.4523  0.3388
 5078SOL    HW126867   2.339   1.478  12.176 -0.0322 -2.0478 -0.6187
 5078SOL    HW226868   2.271   1.422  12.069 -0.0198  0.4223  0.4630
 5079SOL     OW26869   2.265   4.398   6.770 -0.1132  0.3388 -0.7415
 5079SOL    HW126870   2.254   4.306   6.793 -1.4463 -0.0362 -2.8267
 5079SOL    HW226871   2.325   4.397   6.695  2.4779  0.1088  1.3246
 5080SOL     OW26872   1.830   2.085   7.562  0.4714  0.4593  0.2640
 5080SOL    HW126873   1.816   2.174   7.593 -0.2850  1.4949 -3.1117
 5080SOL    HW226874   1.884   2.096   7.484 -0.9474 -2.1661 -1.0951
 5081SOL     OW26875   1.490   3.483  11.104 -0.8022  0.2034  0.2697
 5081SOL    HW126876   1.553   3.429  11.056  1.5246  1.4455  1.9163
 5081SOL    HW226877   1.546   3.522  11.171 -0.3281 -0.2106  0.1127
 5082SOL     OW26878   1.112   0.681   5.790 -0.8551 -0.2561  0.1412
 5082SOL    HW126879   1.186   0.624   5.811 -0.9868 -0.7867 -0.7981
 5082SOL    HW226880   1.135   0.709   5.701 -2.1063  1.1258  0.2451
 5083SOL     OW26881   2.994   3.722   5.640 -0.6511  0.3164 -0.0958
 5083SOL    HW126882   2.993   3.653   5.574 -0.4186  0.5406 -0.3337
 5083SOL    HW226883   3.069   3.762   5.595 -0.9770  1.4929  0.4150
 5084SOL     OW26884   4.253   1.243   1.588  0.0584 -0.2157 -0.2322
 5084SOL    HW126885   4.254   1.247   1.683  0.6805 -2.0218 -0.1661
 5084SOL    HW226886   4.325   1.300   1.561 -0.7783 -0.0252 -2.0631
 5085SOL     OW26887   2.051   0.993   9.511  0.1644  0.2157  0.0750
 5085SOL    HW126888   2.109   1.033   9.576 -0.5348  1.6507 -0.1687
 5085SOL    HW226889   2.029   1.066   9.453 -1.3678 -0.8891 -0.7191
 5086SOL     OW26890   4.481   3.778   6.237  0.2824  0.0640 -0.4111
 5086SOL    HW126891   4.451   3.806   6.324  1.5117  1.5776 -0.4619
 5086SOL    HW226892   4.463   3.857   6.186 -0.5060 -0.4785 -0.9631
 5087SOL     OW26893   2.087   2.365   3.171 -0.4335 -0.4003 -0.1021
 5087SOL    HW126894   1.996   2.378   3.145  0.4843  1.3014 -2.4933
 5087SOL    HW226895   2.076   2.341   3.263 -1.7432  2.4400  0.4853
 5088SOL     OW26896   1.585   3.102  12.763  0.1056 -0.3699 -0.2495
 5088SOL    HW126897   1.557   3.146  12.683 -0.9432  0.6058  0.6630
 5088SOL    HW226898   1.641   3.171  12.797 -1.7344  0.3920  1.1947
 5089SOL     OW26899   3.794   2.389  10.215 -0.2619  0.1591  0.5819
 5089SOL    HW126900   3.851   2.462  10.188 -1.7264  0.0884 -2.6928
 5089SOL    HW226901   3.722   2.450  10.230 -0.9949 -1.3314  3.0202
 5090SOL     OW26902   3.491   0.323   9.138  0.2421 -0.0644 -0.2542
 5090SOL    HW126903   3.506   0.255   9.204  0.7938 -0.0018 -0.3091
 5090SOL    HW226904   3.578   0.349   9.108  0.3781 -1.7724 -1.3405
 5091SOL     OW26905   4.203   1.764   7.445  0.0782 -0.2370  0.7981
 5091SOL    HW126906   4.280   1.715   7.414  1.4035  2.3264  0.0219
 5091SOL    HW226907   4.237   1.852   7.461  0.6486  0.5756 -4.8265
 5092SOL     OW26908   0.328   3.126   4.153  0.1790  0.3015 -0.1286
 5092SOL    HW126909   0.269   3.175   4.095 -0.2191  1.2114  1.0540
 5092SOL    HW226910   0.409   3.177   4.149  0.6816 -0.5240 -0.3088
 5093SOL     OW26911   2.158   3.201   7.160  0.1935  0.4736  0.0779
 5093SOL    HW126912   2.066   3.229   7.156  1.1533  3.6926  0.0510
 5093SOL    HW226913   2.180   3.175   7.071  1.2740  3.3236 -0.4881
 5094SOL     OW26914   1.631   1.933   3.349  0.2171 -0.4553  0.9568
 5094SOL    HW126915   1.584   1.852   3.334 -1.4964  0.8115 -0.4579
 5094SOL    HW226916   1.572   1.975   3.411  0.3065  1.6725 -0.3970
 5095SOL     OW26917   4.625   1.158   2.288  0.0168 -0.2619 -0.3144
 5095SOL    HW126918   4.623   1.124   2.198 -1.1593 -2.6356  0.6089
 5095SOL    HW226919   4.546   1.117   2.324  0.0568  0.0174  0.0841
 5096SOL     OW26920   3.523   2.287  16.239 -0.1476  0.3009 -0.1324
 5096SOL    HW126921   3.466   2.335  16.179 -0.2622 -0.9432 -1.0149
 5096SOL    HW226922   3.605   2.281  16.189 -0.5031  1.0634 -0.8222
 5097SOL     OW26923   3.877   3.525   4.891  0.4994  0.3909  0.3925
 5097SOL    HW126924   3.890   3.432   4.909  0.6318  0.2752 -0.3008
 5097SOL    HW226925   3.889   3.514   4.797 -1.7198  0.4686  0.1145
 5098SOL     OW26926   1.394   2.894  17.345  0.0012 -0.3928 -0.0714
 5098SOL    HW126927   1.312   2.925  17.383  0.6558  2.4933 -0.9933
 5098SOL    HW226928   1.379   2.915  17.253 -0.8634 -1.0146 -0.0755
 5099SOL     OW26929   0.769   3.397   3.533  0.5724  0.0140  0.0444
 5099SOL    HW126930   0.758   3.401   3.628  0.0187  0.6329 -0.0499
 5099SOL    HW226931   0.688   3.436   3.502  0.4480 -0.5663 -0.3641
 5100SOL     OW26932   0.439   3.687   3.282 -0.3674  0.3646  0.1735
 5100SOL    HW126933   0.487   3.725   3.208 -1.4421  2.8070  0.7234
 5100SOL    HW226934   0.449   3.756   3.347 -0.9706 -0.0186  0.6757
 5101SOL     OW26935   3.244   2.980   3.428  0.0244 -0.4364 -0.4317
 5101SOL    HW126936   3.223   2.954   3.517 -1.0917 -2.3598 -1.2555
 5101SOL    HW226937   3.307   3.047   3.454  0.5778 -1.0377 -0.2415
 5102SOL     OW26938   1.848   2.075   3.950  0.1130 -0.3085 -0.4857
 5102SOL    HW126939   1.929   2.115   3.981 -0.2286  0.5639 -0.7224
 5102SOL    HW226940   1.880   2.029   3.872 -0.4875  1.6280 -1.8828
 5103SOL     OW26941   1.803   0.900   5.412 -0.0715 -0.2745 -0.0197
 5103SOL    HW126942   1.736   0.915   5.479 -1.9234 -2.8953 -1.2766
 5103SOL    HW226943   1.811   0.986   5.371  0.2544 -0.6402 -0.7042
 5104SOL     OW26944   0.853   1.852   0.503 -0.0787 -0.0574 -0.2304
 5104SOL    HW126945   0.897   1.928   0.466 -0.1963  0.7828  1.3715
 5104SOL    HW226946   0.763   1.885   0.492 -0.3790 -0.6809  0.3047
 5105SOL     OW26947   0.865   3.394   0.509 -0.5178 -0.0049 -0.2416
 5105SOL    HW126948   0.815   3.453   0.565  1.2236 -0.9162  2.2680
 5105SOL    HW226949   0.813   3.401   0.428 -1.3752 -0.9564  0.2288
 5106SOL     OW26950   0.256   1.534  10.690  0.1916 -0.2638 -0.1431
 5106SOL    HW126951   0.161   1.536  10.696 -0.0148 -1.0294 -3.1162
 5106SOL    HW226952   0.273   1.545  10.597 -1.6803 -1.5909 -0.6327
 5107SOL     OW26953   0.550   4.551   2.620 -0.1150  0.6709  0.3880
 5107SOL    HW126954   0.617   4.485   2.606  1.1334  1.6369  1.6903
 5107SOL    HW226955   0.593   4.587   2.698 -2.0506 -1.4775  2.4504
 5108SOL     OW26956   1.567   0.449  17.211  0.1157 -0.3495 -0.5324
 5108SOL    HW126957   1.613   0.370  17.182 -3.3642 -2.5231 -0.1243
 5108SOL    HW226958   1.523   0.479  17.131 -3.0518  0.9111  1.6920
 5109SOL     OW26959   0.466   2.388   1.720  0.2724  0.0400  0.5585
 5109SOL    HW126960   0.415   2.312   1.691  0.0011  0.2144  0.5746
 5109SOL    HW226961   0.514   2.352   1.795  0.3412 -1.3768 -0.1647
 5110SOL     OW26962   2.194   0.708  16.206  0.2777  0.2986  0.0157
 5110SOL    HW126963   2.210   0.614  16.219 -0.5840  0.1199 -0.1762
 5110SOL    HW226964   2.149   0.732  16.288  1.2668 -2.8247  1.4816
 5111SOL     OW26965   4.089   3.630  17.713 -0.0796 -0.4095 -0.7006
 5111SOL    HW126966   4.029   3.603   0.037 -0.1271 -0.6431 -0.8325
 5111SOL    HW226967   4.123   3.714  17.744 -1.3441  0.4345 -1.6203
 5112SOL     OW26968   4.231   3.898   6.820 -0.0343  0.2502 -0.0828
 5112SOL    HW126969   4.286   3.828   6.855  0.7734  1.4158  0.9566
 5112SOL    HW226970   4.287   3.968   6.853  1.2925 -1.3138  0.9481
 5113SOL     OW26971   0.663   2.844   2.295 -0.2906  0.5342 -0.1922
 5113SOL    HW126972   0.571   2.823   2.309  0.1347 -1.4511 -0.3136
 5113SOL    HW226973   0.671   2.843   2.199 -2.0205 -0.9666 -0.3348
 5114SOL     OW26974   1.935   0.926   7.642  0.1402  0.8119  0.7772
 5114SOL    HW126975   1.901   0.912   7.554 -1.2774  0.5700  1.3544
 5114SOL    HW226976   1.868   0.984   7.680  0.2661  0.4560  1.5584
 5115SOL     OW26977   0.609   0.931  17.461 -0.2417  0.2033  0.6032
 5115SOL    HW126978   0.553   0.853  17.457  0.9466 -0.5344 -1.5564
 5115SOL    HW226979   0.593   0.958  17.551  1.4260 -1.5044  1.4097
 5116SOL     OW26980   0.494   3.870   2.368  0.1879 -0.5699 -0.0586
 5116SOL    HW126981   0.442   3.925   2.309  0.2099 -0.7100 -0.2099
 5116SOL    HW226982   0.586   3.894   2.353  0.0199  1.0453  1.4808
 5117SOL     OW26983   0.191   4.227  15.417  0.3050 -0.5020  0.0361
 5117SOL    HW126984   0.217   4.316  15.397  0.1881 -0.4748  0.0013
 5117SOL    HW226985   0.244   4.179  15.354 -0.8622  1.4388 -2.3881
 5118SOL     OW26986   1.319   4.166   4.299  0.1474 -0.5101 -0.3785
 5118SOL    HW126987   1.258   4.182   4.227  0.1797  4.2328  0.6136
 5118SOL    HW226988   1.247   4.135   4.355  0.5386  2.2958  1.6804
 5119SOL     OW26989   1.296   2.017   6.630 -0.1439 -0.0095 -0.0188
 5119SOL    HW126990   1.277   1.924   6.616 -0.5712  0.0902 -0.0733
 5119SOL    HW226991   1.293   2.023   6.726 -4.6440  0.1492 -0.1854
 5120SOL     OW26992   2.519   1.493   2.041 -0.4689 -0.1616  0.1919
 5120SOL    HW126993   2.562   1.575   2.017  0.7094 -0.8532 -0.0598
 5120SOL    HW226994   2.428   1.510   2.017 -0.4570 -0.6827 -0.2156
 5121SOL     OW26995   0.481   1.070   7.235 -0.3906 -0.3802 -0.4623
 5121SOL    HW126996   0.544   1.019   7.184  0.1774  0.4156 -0.5673
 5121SOL    HW226997   0.530   1.150   7.253 -0.0284 -0.1469 -2.4405
 5122SOL     OW26998   3.682   2.202   8.415 -0.3327 -0.0452  0.2046
 5122SOL    HW126999   3.632   2.207   8.496 -0.8518 -1.2353 -0.0430
 5122SOL    HW227000   3.716   2.112   8.420  0.1319  0.2458  2.1791
 5123SOL     OW27001   0.318   2.086   7.623 -0.1567 -0.7306  0.0770
 5123SOL    HW127002   0.360   2.001   7.617  1.3795  0.1073 -1.1891
 5123SOL    HW227003   0.387   2.142   7.659  2.0498 -3.6614  0.3832
 5124SOL     OW27004   2.832   2.772   6.709 -0.0029 -0.1983 -0.5189
 5124SOL    HW127005   2.792   2.856   6.731  0.4483  0.0783 -0.7467
 5124SOL    HW227006   2.776   2.741   6.639  0.2471 -0.6866 -0.5054
 5125SOL     OW27007   3.663   2.998   8.402  0.8663  0.7967 -0.0747
 5125SOL    HW127008   3.684   3.069   8.343  1.3841  1.8849  1.4252
 5125SOL    HW227009   3.621   2.930   8.349  2.2998  1.5763 -2.1797
 5126SOL     OW27010   0.043   1.139   8.999 -0.4121 -0.1087 -0.2439
 5126SOL    HW127011   4.686   1.142   8.984 -0.4027  0.5278 -0.2000
 5126SOL    HW227012   0.081   1.088   8.928 -3.3744 -1.7901 -0.6195
 5127SOL     OW27013   2.372   1.633   8.538  0.2844  0.0038  0.2371
 5127SOL    HW127014   2.282   1.602   8.534  1.0241 -2.4023  2.5194
 5127SOL    HW227015   2.397   1.573   8.609  0.5291  0.5212  0.5903
 5128SOL     OW27016   1.046   1.297  14.946 -0.5916  0.1108 -0.9467
 5128SOL    HW127017   1.111   1.328  14.882 -0.7696 -0.4990 -1.4284
 5128SOL    HW227018   0.974   1.283  14.884  0.4829 -1.1832 -1.9101
 5129SOL     OW27019   0.996   0.256   4.365  0.2670 -0.2964  0.5097
 5129SOL    HW127020   0.955   0.342   4.356  0.1501  0.0041  3.6623
 5129SOL    HW227021   1.039   0.259   4.280 -1.4279 -1.1140 -0.3696
 5130SOL     OW27022   2.303   1.023   3.575 -0.1266  0.7715 -0.3629
 5130SOL    HW127023   2.297   1.117   3.555 -2.3843  0.5589 -0.6985
 5130SOL    HW227024   2.378   0.994   3.522  0.8174  1.6732  0.4696
 5131SOL     OW27025   0.707   3.864   8.339  0.4920  0.7832  0.1265
 5131SOL    HW127026   0.618   3.897   8.354  0.4046  0.4807  0.2808
 5131SOL    HW227027   0.732   3.862   8.432 -0.2075  1.7270  0.3354
 5132SOL     OW27028   3.110   3.406   6.471 -1.0495 -0.0115  0.1849
 5132SOL    HW127029   3.061   3.371   6.546  1.2183  1.0245  2.1378
 5132SOL    HW227030   3.183   3.447   6.518 -1.4454  1.9445 -0.9311
 5133SOL     OW27031   2.260   1.724   4.480 -0.0062  0.2560  0.1225
 5133SOL    HW127032   2.264   1.675   4.562  1.7493 -0.0024 -0.1206
 5133SOL    HW227033   2.239   1.811   4.513  2.7865  0.2449  1.8934
 5134SOL     OW27034   2.706   4.410   5.015 -0.2464  0.1393 -0.7843
 5134SOL    HW127035   2.663   4.483   5.059  1.6151  0.3225  0.7435
 5134SOL    HW227036   2.758   4.383   5.091  0.0567 -0.1251 -1.0865
 5135SOL     OW27037   0.701   4.154   1.370 -0.2456 -0.0313  0.3740
 5135SOL    HW127038   0.714   4.227   1.430 -2.7728 -0.3804  1.3526
 5135SOL    HW227039   0.794   4.133   1.365 -0.1977 -0.1126  1.5903
 5136SOL     OW27040   0.521   4.183   4.501 -0.5621  0.2233  0.4193
 5136SOL    HW127041   0.437   4.223   4.481 -0.5874 -0.7812 -1.4366
 5136SOL    HW227042   0.526   4.224   4.588  0.6101 -2.8192  1.7771
 5137SOL     OW27043   3.426   0.361   3.270 -0.1239  0.2304 -0.3781
 5137SOL    HW127044   3.517   0.372   3.296  1.5255 -0.4772 -5.8364
 5137SOL    HW227045   3.382   0.416   3.336 -1.6316 -2.5567  0.9278
 5138SOL     OW27046   0.694   0.405   3.414 -0.1619 -0.5744  0.1883
 5138SOL    HW127047   0.782   0.432   3.438 -1.0192  2.2466  0.1538
 5138SOL    HW227048   0.702   0.314   3.444 -0.2280 -0.4220  0.6702
 5139SOL     OW27049   2.303   0.542   7.578 -0.0759 -0.4573 -0.2369
 5139SOL    HW127050   2.223   0.588   7.605  0.1435 -0.8303  1.0813
 5139SOL    HW227051   2.268   0.489   7.507  1.1475 -1.2152 -0.2708
 5140SOL     OW27052   1.134   1.643   3.502 -0.2042 -0.2528 -0.0202
 5140SOL    HW127053   1.163   1.642   3.411  2.1559  0.8343  0.7090
 5140SOL    HW227054   1.162   1.729   3.533 -1.9410  0.3528 -0.1547
 5141SOL     OW27055   0.050   0.132   5.245  0.3053  0.0162 -0.0810
 5141SOL    HW127056   0.112   0.120   5.317  2.0307  0.0582 -1.5423
 5141SOL    HW227057   0.027   0.225   5.249 -2.5266 -0.6751 -0.7150
 5142SOL     OW27058   3.513   4.245   3.195 -0.6049  0.1563 -0.8655
 5142SOL    HW127059   3.555   4.176   3.144  3.7374  1.9253  0.3151
 5142SOL    HW227060   3.441   4.193   3.231  0.1056 -0.8862 -0.9459
 5143SOL     OW27061   3.699   3.466  13.430 -0.0477  0.4620  0.3697
 5143SOL    HW127062   3.767   3.515  13.384 -0.8098  1.9360  0.8321
 5143SOL    HW227063   3.687   3.514  13.511 -0.1066 -1.3336  1.4290
 5144SOL     OW27064   1.273   1.788   7.731  0.1723 -0.2419  0.2376
 5144SOL    HW127065   1.355   1.739   7.725 -0.5161 -1.4620  0.6815
 5144SOL    HW227066   1.204   1.722   7.719 -0.9555  0.7503  1.2091
 5145SOL     OW27067   2.102   2.995   8.590  0.1710 -0.2506 -0.8901
 5145SOL    HW127068   2.019   3.028   8.554 -0.4473  0.5167  1.2559
 5145SOL    HW227069   2.153   2.960   8.517  0.8350 -0.4239 -0.3372
 5146SOL     OW27070   1.144   0.391  14.715 -0.0742  0.2348 -0.6525
 5146SOL    HW127071   1.205   0.464  14.708  0.3793  0.0872  2.1276
 5146SOL    HW227072   1.108   0.392  14.626  1.1500 -1.0330 -1.1532
 5147SOL     OW27073   2.191   4.629  14.108 -0.7922  0.0304  0.0434
 5147SOL    HW127074   2.098   4.614  14.119 -0.7349  0.7543  1.4518
 5147SOL    HW227075   2.209   4.637  14.201  0.5160  0.3279 -0.2248
 5148SOL     OW27076   0.750   2.063  11.265  0.3209 -0.8399 -0.3431
 5148SOL    HW127077   0.797   2.056  11.348 -0.9743  0.8969  0.5255
 5148SOL    HW227078   0.812   2.012  11.213 -0.3827  0.0867 -2.0818
 5149SOL     OW27079   3.657   3.045  16.906 -0.3251  0.2863 -0.0991
 5149SOL    HW127080   3.688   2.985  16.838 -0.5188  0.1199 -0.0421
 5149SOL    HW227081   3.576   3.001  16.931 -0.4132  0.5711  0.1119
 5150SOL     OW27082   0.811   2.974  14.805  0.5479  0.1432 -0.5236
 5150SOL    HW127083   0.761   3.031  14.863  1.6086  0.7528 -0.2160
 5150SOL    HW227084   0.796   3.025  14.725 -2.1835 -0.1067 -0.1688
 5151SOL     OW27085   2.981   0.424   5.476  0.1571  0.6360 -0.4012
 5151SOL    HW127086   3.076   0.435   5.477  0.1930  0.0250  1.3757
 5151SOL    HW227087   2.946   0.447   5.389 -1.1002  2.1233  0.5005
 5152SOL     OW27088   2.491   2.641  14.842  0.3432  0.2768 -0.2979
 5152SOL    HW127089   2.516   2.653  14.933 -0.4108 -0.8601  0.0719
 5152SOL    HW227090   2.548   2.571  14.809 -1.2975 -1.8151  1.2927
 5153SOL     OW27091   4.591   1.503   8.573 -0.0010  0.0002 -0.0492
 5153SOL    HW127092   4.582   1.409   8.590  0.5222  0.1923  1.2390
 5153SOL    HW227093   4.637   1.540   8.648 -2.0133  0.6747  0.8558
 5154SOL     OW27094   4.723   1.821   0.669  0.8368 -0.5371  0.6284
 5154SOL    HW127095   4.687   1.838   0.756 -2.5504  0.1384 -0.8911
 5154SOL    HW227096   0.020   1.910   0.655 -0.7863 -0.0424 -0.2447
 5155SOL     OW27097   0.072   0.880  15.724  0.6232  0.1376  0.0412
 5155SOL    HW127098   0.067   0.933  15.644  1.9039 -1.4369 -1.0797
 5155SOL    HW227099   4.719   0.849  15.715  0.5076  0.1707  1.1050
 5156SOL     OW27100   1.959   1.756  15.253  0.1111  0.7748  0.1263
 5156SOL    HW127101   2.007   1.791  15.178 -2.5605 -0.3049 -2.0900
 5156SOL    HW227102   1.868   1.740  15.228  0.5448 -0.6234 -0.5907
 5157SOL     OW27103   0.164   1.738   2.749  0.6194 -0.0195 -0.3839
 5157SOL    HW127104   0.238   1.681   2.727  0.1799 -1.2772  1.3151
 5157SOL    HW227105   0.109   1.714   2.675 -0.2258  0.2937  0.1444
 5158SOL     OW27106   2.437   0.091  17.238 -0.3091  0.2501  0.0885
 5158SOL    HW127107   2.483   0.172  17.216 -1.1158  0.1733 -1.8879
 5158SOL    HW227108   2.380   0.085  17.161  0.7004  1.7756 -0.7865
 5159SOL     OW27109   3.256   0.840   8.683 -0.1327  0.3594  0.1651
 5159SOL    HW127110   3.216   0.764   8.642 -1.7567 -0.5981  3.5493
 5159SOL    HW227111   3.203   0.834   8.762 -0.3699  1.4682  0.0892
 5160SOL     OW27112   0.037   4.524  15.187 -0.0618 -0.9294  0.0559
 5160SOL    HW127113   0.051   4.512  15.093 -1.9614  2.0061 -0.6195
 5160SOL    HW227114   0.105   4.585  15.214 -1.0201 -1.3020  3.2576
 5161SOL     OW27115   1.409   1.312  12.388 -0.0012 -0.8876 -0.5462
 5161SOL    HW127116   1.336   1.254  12.410 -0.3988 -0.3510 -0.4422
 5161SOL    HW227117   1.382   1.320  12.296  1.5402  1.9296 -0.7519
 5162SOL     OW27118   2.205   0.853   2.476 -0.0752  0.0816 -0.3600
 5162SOL    HW127119   2.137   0.897   2.527 -0.1252 -0.7821  0.3057
 5162SOL    HW227120   2.281   0.904   2.505 -0.4814 -1.3421  3.2746
 5163SOL     OW27121   4.631   1.689   6.419  0.0622 -0.5692 -0.1001
 5163SOL    HW127122   4.603   1.703   6.328  2.3820 -0.8674 -0.8466
 5163SOL    HW227123   4.724   1.698   6.400  0.5043 -0.8476  1.9724
 5164SOL     OW27124   0.263   2.232   3.168 -0.6492 -0.3394 -0.2804
 5164SOL    HW127125   0.176   2.192   3.173 -0.3078 -1.1532 -0.8856
 5164SOL    HW227126   0.285   2.246   3.260  1.4542 -0.9132 -0.6976
 5165SOL     OW27127   2.043   2.551   6.415 -0.0206  0.2217  0.1754
 5165SOL    HW127128   2.062   2.524   6.505 -1.3667  0.1196  0.4432
 5165SOL    HW227129   2.037   2.646   6.418 -0.7805  0.1672  0.4975
 5166SOL     OW27130   3.131   2.555   5.463 -0.0765  0.0923 -0.3055
 5166SOL    HW127131   3.140   2.639   5.508 -0.6977  0.0022 -0.0090
 5166SOL    HW227132   3.212   2.513   5.493  0.1366  1.3987  0.9984
 5167SOL     OW27133   4.599   1.869  11.867 -0.0479  0.2973  0.0480
 5167SOL    HW127134   4.596   1.955  11.825 -0.5431  0.6464  0.7930
 5167SOL    HW227135   4.602   1.891  11.961 -1.0104  3.6783 -0.7245
 5168SOL     OW27136   2.374   3.753   3.438  0.5347 -0.2557  0.6361
 5168SOL    HW127137   2.285   3.781   3.416  0.2969 -2.4199 -1.2205
 5168SOL    HW227138   2.427   3.830   3.419  1.1593 -0.8498 -0.0453
 5169SOL     OW27139   2.688   4.146   7.399 -0.5390 -0.3823 -0.1466
 5169SOL    HW127140   2.714   4.108   7.315  0.6437  0.5879 -0.2182
 5169SOL    HW227141   2.686   4.067   7.453 -0.5897 -1.7469 -2.1449
 5170SOL     OW27142   0.763   3.127   1.177  0.8572  0.0917 -0.3337
 5170SOL    HW127143   0.669   3.110   1.186  0.8832  0.3484  0.3786
 5170SOL    HW227144   0.768   3.108   1.083  2.5735  1.0127 -0.4187
 5171SOL     OW27145   1.715   1.905   1.801 -0.5143 -0.3909  0.4705
 5171SOL    HW127146   1.677   1.993   1.796  1.3473  0.1939 -3.1459
 5171SOL    HW227147   1.756   1.900   1.887 -1.7327 -1.7643  0.9755
 5172SOL     OW27148   2.729   3.531   9.042 -0.1743  0.0875  0.4336
 5172SOL    HW127149   2.750   3.617   9.078 -1.1272  0.7152 -0.5271
 5172SOL    HW227150   2.757   3.468   9.109  2.3489  0.5707 -0.1680
 5173SOL     OW27151   2.808   2.439   8.836 -0.4159 -0.1916 -0.1003
 5173SOL    HW127152   2.799   2.528   8.871 -0.6758 -0.0621 -0.4919
 5173SOL    HW227153   2.716   2.421   8.817 -0.4496  1.0075 -1.0903
 5174SOL     OW27154   3.589   2.030   3.846 -0.7669 -0.1973 -0.2457
 5174SOL    HW127155   3.566   2.085   3.771  0.1862 -0.0903 -0.4597
 5174SOL    HW227156   3.609   1.944   3.809  0.2372  0.1716 -0.5495
 5175SOL     OW27157   1.637   0.239   2.528 -0.3496 -0.1544  0.1313
 5175SOL    HW127158   1.583   0.192   2.464  0.2733 -1.3836  0.5191
 5175SOL    HW227159   1.632   0.182   2.605  0.7760  1.2880  1.2634
 5176SOL     OW27160   2.128   2.522   1.386 -0.6256 -0.2285 -0.1590
 5176SOL    HW127161   2.150   2.428   1.386 -0.5540 -0.2109  1.0942
 5176SOL    HW227162   2.188   2.551   1.455 -1.2156  1.5649 -0.4199
 5177SOL     OW27163   0.450   1.720  15.615  0.3181  0.3273  0.0508
 5177SOL    HW127164   0.497   1.766  15.545 -1.3584  0.8609 -0.7468
 5177SOL    HW227165   0.469   1.770  15.694  1.7051 -0.0142 -0.0652
 5178SOL     OW27166   3.874   0.967  14.489 -0.1597 -0.2569 -0.0862
 5178SOL    HW127167   3.893   1.030  14.419 -1.1473 -0.2658 -0.3774
 5178SOL    HW227168   3.799   1.016  14.525 -0.6078 -1.5208  0.6980
 5179SOL     OW27169   1.076   4.519  17.257 -0.1267 -0.2888  0.0177
 5179SOL    HW127170   1.081   4.595  17.199  1.0926 -2.1401 -2.2679
 5179SOL    HW227171   1.129   4.447  17.223 -2.2165 -2.7043  1.8958
 5180SOL     OW27172   0.460   0.053   2.477  0.2282 -0.3519  0.3937
 5180SOL    HW127173   0.495   4.722   2.535  0.4357  0.6725  1.4666
 5180SOL    HW227174   0.511   0.126   2.513 -0.9276  0.6652 -0.0062
 5181SOL     OW27175   1.533   4.222   2.926 -0.1669  0.3758  0.2853
 5181SOL    HW127176   1.501   4.132   2.924  2.1648 -0.3742 -2.4882
 5181SOL    HW227177   1.454   4.268   2.898 -0.1840 -0.5237 -1.1191
 5182SOL     OW27178   1.069   4.093   8.254 -0.0312  0.1850 -0.0120
 5182SOL    HW127179   1.113   4.127   8.176  1.0624  2.2674  1.5340
 5182SOL    HW227180   1.124   4.018   8.278 -0.1177  0.4867  1.1471
 5183SOL     OW27181   1.712   2.491   1.876 -0.1805  0.0332 -0.0620
 5183SOL    HW127182   1.625   2.460   1.903 -0.5652  0.0921 -1.2494
 5183SOL    HW227183   1.765   2.411   1.881  1.1102  1.0029  1.3614
 5184SOL     OW27184   1.546   2.348   2.401 -0.6751  0.5744 -0.0989
 5184SOL    HW127185   1.558   2.344   2.306 -0.1759  2.0361 -0.0987
 5184SOL    HW227186   1.451   2.365   2.400 -0.5106  1.5950  2.0890
 5185SOL     OW27187   1.634   0.720   7.815  0.7225 -0.2221  0.5430
 5185SOL    HW127188   1.646   0.706   7.721  1.0027 -0.4304  0.6089
 5185SOL    HW227189   1.727   0.726   7.836  0.6307 -0.3933  1.0096
 5186SOL     OW27190   3.560   0.805   7.609 -0.6089 -0.0897 -0.0417
 5186SOL    HW127191   3.579   0.711   7.612 -0.9950 -0.2897 -3.0364
 5186SOL    HW227192   3.630   0.840   7.664 -1.5987 -0.8843  1.7158
 5187SOL     OW27193   1.302   3.566   8.478 -0.4368  0.5238  0.3307
 5187SOL    HW127194   1.369   3.633   8.461  0.8695 -0.6986  0.6358
 5187SOL    HW227195   1.320   3.504   8.407  1.4468  1.2314  0.1808
 5188SOL     OW27196   1.267   1.117   8.832  0.0015  0.4770  0.5037
 5188SOL    HW127197   1.185   1.167   8.840 -0.0238  0.6271 -0.6563
 5188SOL    HW227198   1.236   1.031   8.860  0.1631  0.0807 -0.5093
 5189SOL     OW27199   1.207   4.056  12.786  0.1565  0.8130  0.3940
 5189SOL    HW127200   1.278   4.052  12.850 -1.1691 -0.6301  1.7728
 5189SOL    HW227201   1.246   4.096  12.709  0.2703  0.7312  0.4102
 5190SOL     OW27202   0.745   2.435  10.293  0.0197 -0.1710 -0.4326
 5190SOL    HW127203   0.812   2.370  10.315  1.0466  1.5046  1.3670
 5190SOL    HW227204   0.695   2.379  10.234 -1.1462 -0.2828  0.6498
 5191SOL     OW27205   1.234   4.444   2.514  0.0059 -0.1463 -0.8389
 5191SOL    HW127206   1.319   4.410   2.487 -0.5706 -0.1395 -2.6659
 5191SOL    HW227207   1.210   4.403   2.597  0.3464  2.3399  0.5139
 5192SOL     OW27208   3.301   0.678   9.908  0.2339  0.1239  0.2301
 5192SOL    HW127209   3.372   0.713   9.961  1.0147  1.9664 -2.0389
 5192SOL    HW227210   3.227   0.731   9.936 -0.9818 -0.7948 -1.2032
 5193SOL     OW27211   3.084   2.924   1.671 -0.2119 -0.0521 -0.4132
 5193SOL    HW127212   3.040   3.006   1.651  0.0376 -0.2606 -1.8258
 5193SOL    HW227213   3.019   2.865   1.708  0.8112  0.7598  2.6565
 5194SOL     OW27214   2.190   3.536  16.197 -0.0641  0.4305  0.6471
 5194SOL    HW127215   2.251   3.523  16.269  0.8418 -0.7442 -0.3273
 5194SOL    HW227216   2.110   3.564  16.242 -0.7889  0.8235 -0.8560
 5195SOL     OW27217   2.184   0.294   7.127 -0.6238  0.1710  0.6744
 5195SOL    HW127218   2.222   0.229   7.186  0.7816 -0.8421 -1.3539
 5195SOL    HW227219   2.248   0.300   7.057 -1.6707  0.7725 -0.2258
 5196SOL     OW27220   3.242   2.716  14.065  0.5318  0.5753  0.1640
 5196SOL    HW127221   3.277   2.651  14.127 -0.9435 -0.7297 -0.3733
 5196SOL    HW227222   3.226   2.787  14.127 -1.4592  0.7978 -0.5958
 5197SOL     OW27223   1.650   3.719   7.643  0.2315 -0.3971 -0.4143
 5197SOL    HW127224   1.595   3.655   7.597 -1.4898  0.4886  0.4056
 5197SOL    HW227225   1.734   3.675   7.638  0.0166 -0.6626 -1.7060
 5198SOL     OW27226   0.703   3.773   0.885  0.1442 -0.0273  0.3195
 5198SOL    HW127227   0.723   3.766   0.978  0.7448  2.0524  0.3551
 5198SOL    HW227228   0.752   3.853   0.864  0.9364 -1.0202 -1.6737
 5199SOL     OW27229   4.316   3.361   5.439  0.0821  0.4612  0.3369
 5199SOL    HW127230   4.332   3.327   5.527  0.7476  0.8719  0.3840
 5199SOL    HW227231   4.326   3.455   5.457 -0.4638  0.2972  1.4567
 5200SOL     OW27232   3.618   4.256   6.758 -0.4705  0.5262 -0.0964
 5200SOL    HW127233   3.669   4.235   6.836 -0.7377  0.3433  0.0269
 5200SOL    HW227234   3.628   4.174   6.709 -0.2113  0.1800  0.5384
 5201SOL     OW27235   2.754   3.557   1.265 -0.0258 -0.3082 -0.2484
 5201SOL    HW127236   2.790   3.598   1.344 -0.3119  1.4954 -1.0438
 5201SOL    HW227237   2.684   3.617   1.240  1.9048  2.7458  1.5782
 5202SOL     OW27238   2.966   2.441   4.169  0.3524 -0.4170  0.4861
 5202SOL    HW127239   3.023   2.364   4.161 -0.5821 -0.8610 -1.7796
 5202SOL    HW227240   2.891   2.411   4.118  1.7944 -0.2114 -1.7250
 5203SOL     OW27241   2.483   2.726   4.524  0.0774  0.0280  0.0019
 5203SOL    HW127242   2.457   2.635   4.533  0.0411 -0.1312 -1.7580
 5203SOL    HW227243   2.441   2.736   4.439 -0.0305  2.8026  0.3841
 5204SOL     OW27244   2.896   4.578   8.129 -0.1391 -0.3204  0.1461
 5204SOL    HW127245   2.812   4.622   8.138  0.7167  1.1804  0.7899
 5204SOL    HW227246   2.909   4.553   8.221 -1.1646  1.6584  0.8365
 5205SOL     OW27247   3.910   3.404   6.476 -0.6520  0.0882  0.1328
 5205SOL    HW127248   3.816   3.410   6.489 -0.7984 -1.8900 -0.0928
 5205SOL    HW227249   3.919   3.312   6.501  0.7177  0.1769 -0.0210
 5206SOL     OW27250   1.266   0.535   3.418  0.7647 -0.7148 -0.0083
 5206SOL    HW127251   1.224   0.453   3.444 -0.2743 -0.3104 -0.4086
 5206SOL    HW227252   1.341   0.500   3.370  3.1189  2.3803  1.3656
 5207SOL     OW27253   3.152   0.034   5.780 -0.2425  0.6360  0.0561
 5207SOL    HW127254   3.165   0.128   5.770 -1.9773  0.8349 -0.3881
 5207SOL    HW227255   3.239   4.735   5.797 -0.4004 -0.2985 -1.1117
 5208SOL     OW27256   1.764   0.674   6.991  0.2369 -0.1530  0.8302
 5208SOL    HW127257   1.820   0.611   6.946  0.1523  1.2062 -1.1665
 5208SOL    HW227258   1.684   0.623   7.005  0.5976 -1.2507 -1.2483
 5209SOL     OW27259   0.328   4.063   2.760  0.2024  0.5070  0.3791
 5209SOL    HW127260   0.276   4.057   2.840 -0.3135 -1.3990 -0.1130
 5209SOL    HW227261   0.276   4.018   2.694  0.0314  1.3655 -0.0684
 5210SOL     OW27262   3.420   3.513   7.854  0.3155  0.3635 -0.4244
 5210SOL    HW127263   3.360   3.577   7.817 -0.3386  0.0727  0.1405
 5210SOL    HW227264   3.394   3.435   7.804  0.2506  0.0469  0.1123
 5211SOL     OW27265   4.007   4.039  15.562 -0.7515  0.5687 -0.5413
 5211SOL    HW127266   4.051   4.010  15.481  1.3123 -0.9119  1.1046
 5211SOL    HW227267   4.046   3.983  15.629 -0.2034  1.6843  0.0667
 5212SOL     OW27268   2.807   2.682   9.011 -0.2563  0.1218  0.2704
 5212SOL    HW127269   2.746   2.725   9.071 -0.7399  1.1227 -0.9275
 5212SOL    HW227270   2.874   2.681   9.079  0.7568  2.8938 -0.6679
 5213SOL     OW27271   1.396   3.692   5.329 -0.1088 -0.0663  0.4735
 5213SOL    HW127272   1.365   3.781   5.346 -2.0194 -0.7640  0.7022
 5213SOL    HW227273   1.324   3.650   5.377 -1.3588  0.8514 -0.5900
 5214SOL     OW27274   2.587   2.925  15.456 -0.2293 -0.1383 -0.6782
 5214SOL    HW127275   2.622   2.990  15.517 -1.2897  2.1773 -2.5602
 5214SOL    HW227276   2.577   2.851  15.517  0.3276  2.5160  2.5951
 5215SOL     OW27277   3.686   3.520   5.607  0.7748  0.6132 -0.8262
 5215SOL    HW127278   3.651   3.609   5.612 -0.2766  0.1851 -0.4288
 5215SOL    HW227279   3.757   3.532   5.544  1.6449 -1.7055 -0.3071
 5216SOL     OW27280   2.869   2.264  12.639  0.0447  0.5217 -0.1980
 5216SOL    HW127281   2.806   2.275  12.711 -0.5378  1.7603 -0.8974
 5216SOL    HW227282   2.890   2.173  12.662 -2.9937 -0.2723 -0.5403
 5217SOL     OW27283   3.417   3.218   6.628  0.0763  0.2045  0.2025
 5217SOL    HW127284   3.348   3.206   6.694  0.3257 -1.2418  0.1879
 5217SOL    HW227285   3.391   3.310   6.619 -0.2812  0.2510  1.6579
 5218SOL     OW27286   1.533   3.009  15.327 -0.2841 -0.1959 -0.4930
 5218SOL    HW127287   1.617   2.983  15.290  0.4108  2.2949 -0.6825
 5218SOL    HW227288   1.489   3.029  15.244  0.8685  1.4769 -0.7051
 5219SOL     OW27289   3.869   4.727  17.147  0.0819  0.8495 -0.3231
 5219SOL    HW127290   3.946   0.046  17.147 -0.1510  1.1679  0.3954
 5219SOL    HW227291   3.890   4.656  17.208 -2.4644 -1.9905 -2.7447
 5220SOL     OW27292   0.651   4.510   0.287  0.1093  0.4264  0.4645
 5220SOL    HW127293   0.671   4.416   0.293  1.4942  0.6626 -0.4521
 5220SOL    HW227294   0.556   4.503   0.273  0.6462 -1.3597 -2.2193
 5221SOL     OW27295   1.768   3.765   2.581 -0.4419  1.1852  0.0789
 5221SOL    HW127296   1.726   3.798   2.501  0.1114  0.4833 -0.5109
 5221SOL    HW227297   1.706   3.697   2.606 -0.0215  0.6741 -0.2603
 5222SOL     OW27298   2.182   4.428   8.199  0.0082  0.2804 -0.3058
 5222SOL    HW127299   2.179   4.512   8.153  2.8161 -0.3856 -1.7551
 5222SOL    HW227300   2.254   4.383   8.154 -1.6514 -1.5369 -1.1686
 5223SOL     OW27301   2.897   1.426  13.021  0.5349 -0.5481  0.1473
 5223SOL    HW127302   2.930   1.483  12.951 -0.7221  0.4053  0.3251
 5223SOL    HW227303   2.803   1.444  13.028  1.2392  2.9771  0.2846
 5224SOL     OW27304   0.724   2.578   7.578  0.0793 -0.4300  0.4909
 5224SOL    HW127305   0.691   2.636   7.510  2.6954  0.0850 -0.3251
 5224SOL    HW227306   0.661   2.506   7.579 -1.0957  0.5960 -0.5903
 5225SOL     OW27307   2.305   1.087   4.527  0.2278  0.4200 -0.5941
 5225SOL    HW127308   2.283   1.005   4.483 -1.2922 -0.2399  1.4295
 5225SOL    HW227309   2.282   1.154   4.462 -1.9551  0.9867  0.7908
 5226SOL     OW27310   2.601   3.364   5.399 -0.5357 -0.0064  0.5379
 5226SOL    HW127311   2.608   3.325   5.312  0.9636  0.7894  0.3044
 5226SOL    HW227312   2.546   3.441   5.384 -0.9010 -0.7666 -1.9274
 5227SOL     OW27313   3.168   2.595  17.622  0.0984  0.1242  0.2320
 5227SOL    HW127314   3.160   2.638  17.707  1.2076 -1.6396  1.2286
 5227SOL    HW227315   3.256   2.558  17.629 -1.3575 -3.0375  1.6233
 5228SOL     OW27316   2.599   0.161   9.269 -0.1178  0.5305 -0.0241
 5228SOL    HW127317   2.682   0.119   9.290  0.4385  0.5076 -2.2618
 5228SOL    HW227318   2.556   0.090   9.221 -3.8885  0.7805  2.9417
 5229SOL     OW27319   2.144   3.355   8.315 -0.2890 -0.1500 -0.3085
 5229SOL    HW127320   2.199   3.278   8.307 -1.2722 -0.7178 -1.6152
 5229SOL    HW227321   2.210   3.423   8.326 -0.5638  0.0764 -0.0598
 5230SOL     OW27322   1.396   3.271   4.941  0.1186  0.1852 -0.5595
 5230SOL    HW127323   1.327   3.213   4.908  1.7096 -0.5666 -2.5054
 5230SOL    HW227324   1.381   3.357   4.902  0.7637  0.8366  0.6315
 5231SOL     OW27325   0.002   3.339  14.747 -0.1034  0.9580  0.3118
 5231SOL    HW127326   0.037   3.348  14.658  0.7982  1.1591  0.6823
 5231SOL    HW227327   4.663   3.396  14.754 -0.8891  0.0996 -1.2175
 5232SOL     OW27328   0.023   0.467   4.112  0.8418  0.0557 -0.4126
 5232SOL    HW127329   4.680   0.428   4.148  0.7069 -0.4310 -1.2417
 5232SOL    HW227330   0.037   0.426   4.027  1.8930 -1.2428  0.3619
 5233SOL     OW27331   1.643   1.007   8.685  0.1357 -0.2045  0.0196
 5233SOL    HW127332   1.570   0.945   8.678  0.5582 -0.5800 -0.9003
 5233SOL    HW227333   1.678   1.007   8.596 -2.0892 -0.1505 -0.8639
 5234SOL     OW27334   1.102   4.232  16.761  0.2020 -0.3557  0.1716
 5234SOL    HW127335   1.073   4.314  16.802  0.0347 -0.3467  0.0410
 5234SOL    HW227336   1.020   4.186  16.742 -0.8122  2.0074 -1.3165
 5235SOL     OW27337   1.233   4.195  10.618  0.5001  0.0169 -0.3511
 5235SOL    HW127338   1.243   4.287  10.594  1.0604 -0.5786 -2.3966
 5235SOL    HW227339   1.150   4.170  10.577 -0.3210  2.4343 -0.1425
 5236SOL     OW27340   3.418   3.710  12.590 -0.2237 -0.0817  0.2770
 5236SOL    HW127341   3.388   3.635  12.540 -1.7043 -0.2724  1.4259
 5236SOL    HW227342   3.457   3.660  12.662  0.5908  0.0991 -0.0320
 5237SOL     OW27343   0.517   3.175  10.418 -0.5122  0.0655  0.3179
 5237SOL    HW127344   0.489   3.123  10.494  0.6109 -2.6763 -1.1255
 5237SOL    HW227345   0.531   3.257  10.464  0.0173 -0.1293  0.5044
 5238SOL     OW27346   4.517   3.558   9.174  0.0016 -0.4888  0.0388
 5238SOL    HW127347   4.608   3.587   9.169 -0.6358  1.2207 -1.6850
 5238SOL    HW227348   4.462   3.636   9.178 -0.6840 -0.8868 -1.5897
 5239SOL     OW27349   3.390   2.325  15.100  0.2787 -0.9635  0.0370
 5239SOL    HW127350   3.418   2.283  15.018 -2.0795 -2.7940  0.1702
 5239SOL    HW227351   3.297   2.328  15.080 -0.1343 -2.5427  1.7726
 5240SOL     OW27352   0.672   3.385   6.220  0.8865 -0.0159 -0.1789
 5240SOL    HW127353   0.659   3.446   6.293 -2.8499  0.4414 -1.1854
 5240SOL    HW227354   0.586   3.343   6.231  0.6768  0.7403  1.1217
 5241SOL     OW27355   1.804   2.700  14.651 -0.0650 -0.1138 -0.0943
 5241SOL    HW127356   1.754   2.618  14.658 -2.0621  1.1960  0.7423
 5241SOL    HW227357   1.800   2.728  14.742 -1.0043  1.8911 -0.7506
 5242SOL     OW27358   4.238   0.279   5.725  0.2157 -1.1462 -0.1845
 5242SOL    HW127359   4.297   0.333   5.779  0.9611  0.4871 -2.6528
 5242SOL    HW227360   4.281   0.281   5.640  1.0834  0.6197  0.2902
 5243SOL     OW27361   4.371   0.914   5.211  0.1339 -0.0768 -0.1904
 5243SOL    HW127362   4.434   0.847   5.184 -1.1055 -0.7843 -1.3360
 5243SOL    HW227363   4.378   0.981   5.143  1.4214  1.6812  1.6850
 5244SOL     OW27364   0.331   0.379   5.921  0.0209  0.6035 -0.1363
 5244SOL    HW127365   0.400   0.445   5.908 -0.5533  1.1660 -0.3455
 5244SOL    HW227366   0.264   0.420   5.867 -0.4585  1.1925  0.9257
 5245SOL     OW27367   0.690   3.380   1.598  0.2176  0.2998  0.4350
 5245SOL    HW127368   0.735   3.381   1.513  1.7401 -0.6700  1.2400
 5245SOL    HW227369   0.598   3.392   1.572 -0.3251 -1.8730  1.3583
 5246SOL     OW27370   2.137   2.166   5.069  0.1105  0.4774 -0.7967
 5246SOL    HW127371   2.166   2.087   5.114 -0.2860  0.4381 -0.6087
 5246SOL    HW227372   2.225   2.200   5.055  0.7791 -0.2073  1.7266
 5247SOL     OW27373   3.283   1.828   4.127 -0.1166 -0.9305  0.0496
 5247SOL    HW127374   3.361   1.842   4.180  1.2492  0.0925 -2.2383
 5247SOL    HW227375   3.257   1.914   4.094  1.9827 -0.8698 -1.4496
 5248SOL     OW27376   1.985   3.121  12.610 -0.0301  0.8501  0.5734
 5248SOL    HW127377   1.923   3.049  12.609  1.8735 -0.7822  0.5220
 5248SOL    HW227378   2.064   3.068  12.613  0.4589  1.3853 -2.8373
 5249SOL     OW27379   2.325   4.451   3.945  0.4362  0.3126  0.0764
 5249SOL    HW127380   2.231   4.436   3.939  0.5221  0.5130 -1.7315
 5249SOL    HW227381   2.332   4.538   3.983  0.5104  1.5306 -2.7591
 5250SOL     OW27382   3.707   4.008   5.739 -0.0687 -0.3061  0.1050
 5250SOL    HW127383   3.678   3.935   5.685 -0.4102  0.1814 -0.3709
 5250SOL    HW227384   3.802   4.010   5.728  0.1725 -4.4790  1.4618
 5251SOL     OW27385   3.620   3.302   3.279 -0.0668 -0.5110  0.5138
 5251SOL    HW127386   3.549   3.281   3.339  0.1512 -0.9805  0.6058
 5251SOL    HW227387   3.639   3.395   3.289  2.4860 -1.1511  1.6462
 5252SOL     OW27388   0.918   0.485   4.669 -0.0216 -0.0049 -0.4738
 5252SOL    HW127389   0.994   0.519   4.716 -0.1568 -0.0112 -0.2511
 5252SOL    HW227390   0.873   0.568   4.651 -1.1833 -0.8842 -1.5934
 5253SOL     OW27391   3.726   0.373   9.055  0.6013  0.3802  0.6035
 5253SOL    HW127392   3.809   0.354   9.011 -2.3335 -1.4417 -4.0902
 5253SOL    HW227393   3.743   0.461   9.089  0.1943  1.4174 -1.9269
 5254SOL     OW27394   3.498   4.178   5.364 -0.2651  0.6738 -0.1319
 5254SOL    HW127395   3.444   4.238   5.312 -0.1885  0.4127 -0.5086
 5254SOL    HW227396   3.578   4.186   5.313  0.4240  1.2455  1.0409
 5255SOL     OW27397   4.030   0.225   0.472  0.0088  1.1257  0.0624
 5255SOL    HW127398   4.075   0.166   0.411 -1.3381  0.6226 -0.4232
 5255SOL    HW227399   3.967   0.264   0.412 -0.4537 -2.4314 -1.7462
 5256SOL     OW27400   0.535   1.006   5.076  0.3619 -0.3291  0.6292
 5256SOL    HW127401   0.521   0.938   5.010  0.8812  1.3736 -1.2336
 5256SOL    HW227402   0.552   1.082   5.020  0.5099  0.2950  1.5192
 5257SOL     OW27403   3.866   1.098   4.651 -0.2845 -0.9929 -0.8048
 5257SOL    HW127404   3.809   1.121   4.578 -1.5825 -1.6059  0.0061
 5257SOL    HW227405   3.870   1.004   4.634 -1.0059 -0.9565 -1.1723
 5258SOL     OW27406   4.467   3.690   7.392  0.1651 -0.5994 -0.3430
 5258SOL    HW127407   4.389   3.635   7.398  0.7722 -1.5535 -1.2559
 5258SOL    HW227408   4.527   3.634   7.441 -0.3199  0.1079  1.0634
 5259SOL     OW27409   4.259   4.243   7.545 -0.2666  0.6032 -0.0739
 5259SOL    HW127410   4.210   4.179   7.597  0.6864  1.2711  1.6589
 5259SOL    HW227411   4.278   4.198   7.463  0.8835 -0.5350  0.8175
 5260SOL     OW27412   4.243   2.127  11.971  0.0405  1.0937  0.8325
 5260SOL    HW127413   4.210   2.044  11.937  0.5186  1.5482 -0.7271
 5260SOL    HW227414   4.266   2.166  11.887  3.2955  1.1372  1.7459
 5261SOL     OW27415   0.647   0.040  10.454 -0.4272  0.4514  0.2557
 5261SOL    HW127416   0.556   0.022  10.478  0.1437 -0.8961  1.4658
 5261SOL    HW227417   0.674   0.097  10.526 -1.8917  1.6975 -0.2062
 5262SOL     OW27418   0.905   4.275   7.342 -0.0939 -0.0745 -0.0636
 5262SOL    HW127419   0.935   4.189   7.372 -1.7060 -1.3809 -2.2591
 5262SOL    HW227420   0.828   4.285   7.398 -0.7341  1.4010 -1.2033
 5263SOL     OW27421   2.898   3.034   4.751  0.1375  0.6988 -0.3881
 5263SOL    HW127422   2.851   3.103   4.797  0.7347  1.0722 -0.3410
 5263SOL    HW227423   2.878   3.063   4.662 -2.2563  2.5301  0.7455
 5264SOL     OW27424   1.874   1.819   2.725  0.3110  0.3609  0.8769
 5264SOL    HW127425   1.940   1.887   2.741  1.8673 -0.9850  0.1627
 5264SOL    HW227426   1.920   1.756   2.671  0.1770  1.1127 -0.1203
 5265SOL     OW27427   1.715   2.523   6.311  0.2731 -0.2722 -0.1637
 5265SOL    HW127428   1.755   2.605   6.279  0.9716 -0.4003  0.3787
 5265SOL    HW227429   1.787   2.496   6.367 -1.3505  1.0807  2.5750
 5266SOL     OW27430   3.618   2.583  16.176  0.8120  0.3160 -0.3098
 5266SOL    HW127431   3.683   2.535  16.228  1.5908  0.0162 -1.5617
 5266SOL    HW227432   3.603   2.520  16.106  0.3879 -1.3046  1.2276
 5267SOL     OW27433   1.650   4.105   6.573 -0.0190  0.2511 -0.8703
 5267SOL    HW127434   1.740   4.079   6.555 -0.9332 -2.6517 -1.2427
 5267SOL    HW227435   1.600   4.070   6.500  2.5385 -0.4841 -2.2536
 5268SOL     OW27436   4.109   0.125  17.158  0.5687 -0.2497 -0.2237
 5268SOL    HW127437   4.204   0.130  17.159  0.3827  2.3342  2.1652
 5268SOL    HW227438   4.091   0.218  17.171  0.6180 -0.0105 -1.8533
 5269SOL     OW27439   2.355   2.161  16.986  0.0495  0.4742  0.4350
 5269SOL    HW127440   2.387   2.128  17.070  1.2837 -0.3232 -0.3594
 5269SOL    HW227441   2.434   2.205  16.952 -2.5581  3.2545 -1.9953
 5270SOL     OW27442   2.812   0.855   8.940 -0.4757  0.2964 -0.0748
 5270SOL    HW127443   2.744   0.796   8.972  0.3737  0.9934  3.0355
 5270SOL    HW227444   2.809   0.932   8.997 -0.5001 -0.7766  1.3740
 5271SOL     OW27445   2.342   3.468  16.418  0.1868  0.1219 -0.2311
 5271SOL    HW127446   2.353   3.374  16.407  2.4544  0.3520  0.1246
 5271SOL    HW227447   2.430   3.503  16.411  0.0942  0.4005 -0.0186
 5272SOL     OW27448   3.791   2.128  13.794  0.6165 -0.2570  0.4853
 5272SOL    HW127449   3.826   2.042  13.772  0.3528 -0.4119  0.6789
 5272SOL    HW227450   3.858   2.152  13.858  0.7391 -2.1314  1.0448
 5273SOL     OW27451   1.355   2.759  15.171  0.3387 -0.1121 -0.3448
 5273SOL    HW127452   1.368   2.854  15.170 -0.7523  0.0914  2.7530
 5273SOL    HW227453   1.275   2.756  15.118 -0.3451  0.8092  0.6179
 5274SOL     OW27454   1.695   0.694   1.793  0.8714 -0.0651  0.0889
 5274SOL    HW127455   1.647   0.650   1.863  1.2124 -1.9284 -0.8449
 5274SOL    HW227456   1.756   0.624   1.768  2.7638  1.3420  0.7788
 5275SOL     OW27457   1.842   1.775  12.287 -0.1451  0.0931 -0.3422
 5275SOL    HW127458   1.906   1.705  12.291 -1.2338 -0.7947  1.6331
 5275SOL    HW227459   1.766   1.736  12.243  0.6601 -1.3682 -0.4211
 5276SOL     OW27460   1.042   2.655  17.607 -0.0953 -0.3461  0.1387
 5276SOL    HW127461   1.014   2.668  17.517 -2.8158 -1.2801  0.8682
 5276SOL    HW227462   0.964   2.666  17.661  1.6247  0.6033  2.4402
 5277SOL     OW27463   2.104   0.899  13.339 -0.2252  0.2103  0.2016
 5277SOL    HW127464   2.127   0.946  13.259 -0.8611  0.6839  0.3004
 5277SOL    HW227465   2.195   0.894  13.370 -0.1542  0.3802  0.0183
 5278SOL     OW27466   2.304   3.375   3.208 -0.1058  0.3058  0.1415
 5278SOL    HW127467   2.362   3.431   3.259  0.4780 -0.6163  0.4737
 5278SOL    HW227468   2.274   3.315   3.276 -2.0635  0.8594 -0.2201
 5279SOL     OW27469   2.550   1.866   3.816 -0.3048 -1.1680 -0.0464
 5279SOL    HW127470   2.544   1.927   3.743 -0.8778  0.5545  1.4295
 5279SOL    HW227471   2.623   1.808   3.796  1.7751  0.9609  1.3948
 5280SOL     OW27472   4.212   4.113   6.560  0.3902  0.1824 -0.3222
 5280SOL    HW127473   4.297   4.074   6.539  1.0222  0.8045  1.0929
 5280SOL    HW227474   4.236   4.144   6.647  2.4152 -0.3223 -0.7067
 5281SOL     OW27475   0.046   0.105  14.552 -0.4471  0.3429 -0.6053
 5281SOL    HW127476   0.097   0.134  14.628  0.4068 -1.5599 -0.4573
 5281SOL    HW227477   0.004   0.185  14.520 -0.2553  0.6880  0.0069
 5282SOL     OW27478   1.261   4.620   1.620  0.3133 -0.0569 -0.3416
 5282SOL    HW127479   1.357   4.619   1.629  0.2291 -0.2069  0.4934
 5282SOL    HW227480   1.241   4.536   1.578 -1.1175 -0.2538  0.7390
 5283SOL     OW27481   0.225   1.078   2.787 -0.2209 -0.0002  0.1764
 5283SOL    HW127482   0.230   1.002   2.729 -0.5925  0.6525 -0.7027
 5283SOL    HW227483   0.315   1.091   2.818  0.0416 -1.7648  0.1615
 5284SOL     OW27484   3.649   1.162   8.400 -0.3087  0.0222 -0.4381
 5284SOL    HW127485   3.666   1.140   8.492  0.9546  0.1437 -0.6438
 5284SOL    HW227486   3.568   1.114   8.386  1.1716 -1.9109 -2.3978
 5285SOL     OW27487   1.585   4.386  13.750 -0.3901  0.7576 -0.9869
 5285SOL    HW127488   1.516   4.320  13.741 -0.3641  0.3236  1.8042
 5285SOL    HW227489   1.587   4.385  13.846 -2.5588  1.4802 -0.9400
 5286SOL     OW27490   4.108   1.502   4.537  0.5529  0.3145  0.3815
 5286SOL    HW127491   4.126   1.488   4.444 -2.2290 -2.8524  0.3512
 5286SOL    HW227492   4.129   1.418   4.577 -0.7666  0.6272  1.7432
 5287SOL     OW27493   0.095   0.408   8.766  0.1123 -0.7048 -0.0751
 5287SOL    HW127494   0.101   0.313   8.772 -0.8944 -0.7429  0.1767
 5287SOL    HW227495   0.008   0.418   8.804  0.2788 -0.4716  0.2465
 5288SOL     OW27496   2.055   0.391   3.581  0.1140 -0.1242  0.2338
 5288SOL    HW127497   2.051   0.296   3.588  2.2239 -0.0120  2.5168
 5288SOL    HW227498   1.979   0.399   3.523  1.3663  0.6726 -1.3080
 5289SOL     OW27499   4.203   2.913   7.710 -0.0515 -0.1399  0.6302
 5289SOL    HW127500   4.278   2.924   7.652 -2.0670 -0.7007 -2.0764
 5289SOL    HW227501   4.135   2.918   7.643  0.9124 -2.0685 -0.4901
 5290SOL     OW27502   3.919   3.474   9.490 -0.1895  0.0465 -0.2498
 5290SOL    HW127503   3.923   3.544   9.556 -1.5605  1.6441 -1.8688
 5290SOL    HW227504   3.957   3.535   9.428 -0.0783  0.4296  0.1926
 5291SOL     OW27505   1.143   0.234  11.400 -0.1587 -0.0451 -0.4152
 5291SOL    HW127506   1.150   0.215  11.493  2.1250  2.9551  0.0394
 5291SOL    HW227507   1.156   0.329  11.399  0.1754 -0.0868  0.0035
 5292SOL     OW27508   3.798   4.236   2.215  0.2459 -0.1713 -0.0360
 5292SOL    HW127509   3.890   4.242   2.241  0.4606  0.4503 -0.9308
 5292SOL    HW227510   3.801   4.329   2.191  0.6949  0.0925  1.0213
 5293SOL     OW27511   3.472   4.721   7.307 -0.1202  0.4631 -0.6969
 5293SOL    HW127512   3.409   4.650   7.319 -1.7326  1.5469 -2.7367
 5293SOL    HW227513   3.491   0.004   7.399 -0.4874  1.6521 -0.8702
 5294SOL     OW27514   1.394   0.275   9.352  0.3971  0.1082 -0.7542
 5294SOL    HW127515   1.428   0.271   9.441  0.0199  0.8253 -0.5781
 5294SOL    HW227516   1.324   0.211   9.336  1.1433 -0.3143 -2.3950
 5295SOL     OW27517   1.504   3.156   0.041  0.0408  0.3874  0.0243
 5295SOL    HW127518   1.449   3.228   0.072 -0.2100  1.3587 -2.6263
 5295SOL    HW227519   1.542   3.185  17.704  0.2275  0.2065  0.0481
 5296SOL     OW27520   3.405   2.135  11.635 -0.4493  0.5639 -0.8576
 5296SOL    HW127521   3.363   2.182  11.563 -0.9344  0.3219 -0.7383
 5296SOL    HW227522   3.479   2.093  11.592 -1.3670 -1.1211 -0.8250
 5297SOL     OW27523   3.549   4.485   8.409  0.1851  0.0435 -0.6828
 5297SOL    HW127524   3.559   4.547   8.337 -0.3764  0.5333 -0.3362
 5297SOL    HW227525   3.640   4.482   8.438  0.2754 -2.5389 -1.2867
 5298SOL     OW27526   1.221   0.516   4.022 -0.1320  0.8931 -0.5533
 5298SOL    HW127527   1.228   0.610   4.038 -2.4258  0.8996  0.4146
 5298SOL    HW227528   1.223   0.513   3.927 -1.9505 -0.7479 -0.5410
 5299SOL     OW27529   2.825   1.239  12.817  0.4130 -0.4346  0.1602
 5299SOL    HW127530   2.886   1.311  12.829  1.0014 -0.8300 -0.4805
 5299SOL    HW227531   2.820   1.209  12.907 -2.0918  0.4722  0.3251
 5300SOL     OW27532   3.581   1.357  10.287 -0.0102 -0.1940 -0.2755
 5300SOL    HW127533   3.665   1.387  10.320  0.9744  0.3295 -3.2942
 5300SOL    HW227534   3.553   1.423  10.224 -3.1196 -0.0531  1.2782
 5301SOL     OW27535   1.396   3.724   0.012 -0.4314 -0.4948  0.0017
 5301SOL    HW127536   1.360   3.751   0.096 -2.6593 -1.3015 -0.6805
 5301SOL    HW227537   1.469   3.664   0.027 -0.8667 -0.6094  1.6266
 5302SOL     OW27538   4.470   0.091   7.861 -0.5027  0.0325 -0.0481
 5302SOL    HW127539   4.393   0.147   7.868 -1.0472 -0.5640 -1.2905
 5302SOL    HW227540   4.445   0.028   7.928 -0.0100 -1.8572 -1.6297
 5303SOL     OW27541   3.805   0.461  11.731  0.1072  0.5225  0.3003
 5303SOL    HW127542   3.751   0.524  11.684 -1.1681 -0.3899  0.5292
 5303SOL    HW227543   3.785   0.383  11.680  2.0579 -0.3741  0.8634
 5304SOL     OW27544   1.518   3.572   9.791 -0.4296 -0.3117  0.4428
 5304SOL    HW127545   1.541   3.599   9.702  0.9358 -2.6915  0.0568
 5304SOL    HW227546   1.464   3.648   9.814 -3.8237 -3.1101  1.7997
 5305SOL     OW27547   2.450   3.581   5.315 -0.2136 -0.0203 -0.5971
 5305SOL    HW127548   2.399   3.576   5.234 -0.1859  1.6902 -0.7116
 5305SOL    HW227549   2.379   3.556   5.373 -0.4644  0.3284 -0.7525
 5306SOL     OW27550   4.420   2.273   7.124  0.3244 -0.3355 -0.5026
 5306SOL    HW127551   4.376   2.318   7.197  1.5912 -0.0567  0.0765
 5306SOL    HW227552   4.460   2.195   7.161  0.2193  0.3099  1.0101
 5307SOL     OW27553   1.647   1.575  14.165  0.3838  0.1376 -0.0190
 5307SOL    HW127554   1.695   1.507  14.118 -0.9983 -0.8026 -0.0589
 5307SOL    HW227555   1.635   1.644  14.099 -1.3712  1.1425  1.3563
 5308SOL     OW27556   1.767   2.143  14.019  0.2904 -0.3273 -0.2761
 5308SOL    HW127557   1.841   2.203  14.030  0.6652 -0.8063 -0.1972
 5308SOL    HW227558   1.772   2.074  14.085 -1.5676  0.1120  0.3232
 5309SOL     OW27559   0.794   4.699   7.819 -0.0499 -0.4850  0.0603
 5309SOL    HW127560   0.731   4.721   7.750  1.1758 -0.5159 -1.0673
 5309SOL    HW227561   0.869   0.002   7.774  0.2839  0.9375  1.8932
 5310SOL     OW27562   0.892   1.716   6.620  0.2540 -0.2019  0.3505
 5310SOL    HW127563   0.914   1.806   6.595 -1.7353 -0.1070 -1.1055
 5310SOL    HW227564   0.954   1.670   6.563 -0.6876 -1.2745  0.1866
 5311SOL     OW27565   2.799   3.903   9.521 -0.3538  0.2455  0.2151
 5311SOL    HW127566   2.841   3.965   9.581  0.0264  0.3905 -0.2002
 5311SOL    HW227567   2.868   3.840   9.498 -0.4062  0.1378  0.3513
 5312SOL     OW27568   3.049   3.776   7.301 -0.0036  0.3677  0.0746
 5312SOL    HW127569   3.016   3.844   7.359  0.0847  2.3353 -2.1886
 5312SOL    HW227570   3.026   3.699   7.354 -0.9587  0.3146 -0.4227
 5313SOL     OW27571   0.694   3.749   7.626 -0.3281  0.0928  0.8433
 5313SOL    HW127572   0.747   3.809   7.679  0.7431 -2.8512  3.1037
 5313SOL    HW227573   0.605   3.782   7.639 -1.2355 -1.3411 -1.6669
 5314SOL     OW27574   3.314   0.395   8.276 -0.2493 -0.1576 -0.1169
 5314SOL    HW127575   3.331   0.484   8.309  0.7654 -0.9842  1.6181
 5314SOL    HW227576   3.251   0.366   8.342 -0.4579  4.3718  1.7000
 5315SOL     OW27577   2.916   2.610  14.693  0.0675 -0.8926 -0.1054
 5315SOL    HW127578   2.826   2.589  14.670  0.6107 -0.4063 -2.6142
 5315SOL    HW227579   2.945   2.632  14.605  0.4754  0.5438  0.3708
 5316SOL     OW27580   0.746   1.279   2.777 -0.0136 -0.0611  0.6771
 5316SOL    HW127581   0.822   1.334   2.796  0.5878 -0.1960 -1.4022
 5316SOL    HW227582   0.689   1.299   2.851  1.0103  2.7173  0.6864
 5317SOL     OW27583   1.322   3.083   3.788  0.1186 -0.3126 -0.5801
 5317SOL    HW127584   1.354   3.113   3.873  0.3892  0.0960 -0.8284
 5317SOL    HW227585   1.373   3.143   3.733 -1.1431  1.8441  0.5883
 5318SOL     OW27586   3.713   0.106   5.783 -0.1315 -0.0375  0.5440
 5318SOL    HW127587   3.722   0.177   5.719 -0.3783 -0.1810  0.3493
 5318SOL    HW227588   3.779   0.051   5.741  1.3397  1.4496  0.9030
 5319SOL     OW27589   0.757   2.249   3.443 -0.0246  0.3548  0.5661
 5319SOL    HW127590   0.738   2.219   3.532 -1.4032  0.4042  0.2971
 5319SOL    HW227591   0.670   2.263   3.405  0.4240  0.4933 -0.4113
 5320SOL     OW27592   4.501   4.171   4.308 -0.1314  0.4313  0.1197
 5320SOL    HW127593   4.491   4.122   4.226 -1.4226  1.9118 -0.6164
 5320SOL    HW227594   4.411   4.179   4.337 -0.0222  0.9791  0.3016
 5321SOL     OW27595   1.745   2.888  13.662  0.0186 -0.0201 -0.1653
 5321SOL    HW127596   1.656   2.912  13.637  0.8888  1.9027 -1.4487
 5321SOL    HW227597   1.756   2.814  13.602  2.3280  0.9278 -0.9208
 5322SOL     OW27598   1.842   2.879   4.876  0.0447 -0.0266  0.2075
 5322SOL    HW127599   1.812   2.888   4.785  0.5223 -2.0017 -0.1506
 5322SOL    HW227600   1.912   2.814   4.868 -2.7284 -3.0858  0.4750
 5323SOL     OW27601   3.112   3.792   3.037  0.1856  0.1061  0.7102
 5323SOL    HW127602   3.040   3.756   3.089 -0.6186 -0.9675 -1.1415
 5323SOL    HW227603   3.123   3.726   2.969 -0.2966  0.0705  0.6678
 5324SOL     OW27604   3.067   0.125   5.422 -0.1898 -0.7264 -0.5361
 5324SOL    HW127605   2.989   0.159   5.465  0.7092 -0.5595  0.9813
 5324SOL    HW227606   3.067   0.038   5.461  1.4724 -0.1058  0.8865
 5325SOL     OW27607   3.027   3.586   7.758 -0.4621 -0.4176 -0.1098
 5325SOL    HW127608   2.996   3.637   7.833 -2.0043 -0.6661 -0.5801
 5325SOL    HW227609   3.118   3.614   7.745 -0.0123 -1.7157  0.1913
 5326SOL     OW27610   1.908   4.486  12.262  0.3404  0.0124 -0.9991
 5326SOL    HW127611   1.846   4.547  12.303 -0.3451 -0.7855 -0.8384
 5326SOL    HW227612   1.905   4.514  12.171 -1.8306 -0.4508 -1.0837
 5327SOL     OW27613   1.353   4.063   9.069  0.1191 -0.0398  0.1589
 5327SOL    HW127614   1.269   4.037   9.107  1.8737 -4.2421  1.2026
 5327SOL    HW227615   1.313   4.113   8.998 -0.1379  0.9274  0.9980
 5328SOL     OW27616   1.394   2.409   3.958 -0.1866  0.4450  0.0280
 5328SOL    HW127617   1.339   2.339   3.994  0.3301 -0.4254 -0.8708
 5328SOL    HW227618   1.345   2.453   3.888  0.4057 -0.0145 -0.6845
 5329SOL     OW27619   1.267   0.355   3.061 -0.3934  0.1120  0.4075
 5329SOL    HW127620   1.262   0.259   3.062  0.8194  0.0413 -0.0542
 5329SOL    HW227621   1.184   0.382   3.099 -0.4552  0.0940  0.2857
 5330SOL     OW27622   1.724   3.639   7.342  0.5355 -0.2342  0.0886
 5330SOL    HW127623   1.652   3.577   7.329  0.2402  0.4973 -1.8932
 5330SOL    HW227624   1.795   3.591   7.299  0.9212  0.1179  0.3330
 5331SOL     OW27625   1.350   2.448   7.746  0.8628  0.1622 -0.6607
 5331SOL    HW127626   1.413   2.375   7.746  0.6813 -0.0046  1.7522
 5331SOL    HW227627   1.344   2.462   7.651 -0.6329  0.3660 -0.5293
 5332SOL     OW27628   4.272   3.112   8.736  0.4158  0.5194 -0.3457
 5332SOL    HW127629   4.336   3.041   8.733 -2.0517 -1.8291  2.2985
 5332SOL    HW227630   4.330   3.179   8.771  1.8632  0.0318 -1.7873
 5333SOL     OW27631   3.559   4.650   4.961 -0.0826 -0.7375  0.4226
 5333SOL    HW127632   3.496   4.588   4.999 -2.1386 -0.0949 -1.9477
 5333SOL    HW227633   3.618   4.673   5.032  0.3417  1.8393 -0.7871
 5334SOL     OW27634   4.365   3.004   4.303  0.1535  0.0532  0.3291
 5334SOL    HW127635   4.340   3.048   4.384  0.6461  0.5897  0.1970
 5334SOL    HW227636   4.434   2.945   4.332 -1.2296 -1.4275  0.6171
 5335SOL     OW27637   0.767   1.849   5.687 -0.2637 -0.4867 -0.3493
 5335SOL    HW127638   0.719   1.786   5.633  1.3809 -1.3704 -0.7940
 5335SOL    HW227639   0.803   1.907   5.620 -0.7835 -0.1642 -0.3485
 5336SOL     OW27640   0.808   3.343   1.334  0.5964  0.7646 -0.3641
 5336SOL    HW127641   0.778   3.285   1.264 -0.2095  0.6338  0.0890
 5336SOL    HW227642   0.902   3.325   1.337  0.3818  0.3153  3.4029
 5337SOL     OW27643   0.789   4.161   1.792  0.6476 -0.4050  0.0187
 5337SOL    HW127644   0.723   4.114   1.740  0.4391  0.2398 -0.2986
 5337SOL    HW227645   0.787   4.130   1.883 -2.9196  1.0500  0.4496
 5338SOL     OW27646   2.729   0.690   5.875 -0.2611 -0.2231 -0.2555
 5338SOL    HW127647   2.660   0.627   5.857 -0.7289  0.4717 -0.8901
 5338SOL    HW227648   2.744   0.713   5.784 -1.6837  2.3144  0.1561
 5339SOL     OW27649   3.777   1.123   8.140  0.2071 -0.1689  0.3485
 5339SOL    HW127650   3.817   1.194   8.089 -1.0228  0.0756 -0.2847
 5339SOL    HW227651   3.742   1.173   8.213 -0.1211  1.6918 -1.0702
 5340SOL     OW27652   1.808   3.360   6.448 -0.0611 -0.7193 -0.3868
 5340SOL    HW127653   1.835   3.310   6.371 -0.1938  1.7288 -2.0355
 5340SOL    HW227654   1.789   3.290   6.510  1.5523 -0.6021  0.2312
 5341SOL     OW27655   0.911   2.444  14.374 -0.5464 -0.1143  0.7300
 5341SOL    HW127656   0.990   2.449  14.321  0.0792 -0.7595  1.6073
 5341SOL    HW227657   0.837   2.476  14.323  0.4413  0.5329 -0.2890
 5342SOL     OW27658   3.032   3.030  15.084  0.5399  0.3998  0.2421
 5342SOL    HW127659   3.000   3.078  15.160  3.0951 -0.0263  1.5874
 5342SOL    HW227660   3.046   3.104  15.025  0.1559  0.7430  0.5840
 5343SOL     OW27661   4.634   1.355   6.805  0.1993 -0.2487 -0.0621
 5343SOL    HW127662   4.721   1.350   6.845  0.3817 -0.5499 -0.4973
 5343SOL    HW227663   4.593   1.288   6.861 -0.9940 -1.0001 -1.8551
 5344SOL     OW27664   3.636   0.362  16.413  0.2603  0.0197  0.0523
 5344SOL    HW127665   3.573   0.304  16.457 -0.7156  2.1402  1.4575
 5344SOL    HW227666   3.712   0.305  16.426  0.0253 -0.2339  0.3060
 5345SOL     OW27667   0.990   0.178   4.889  0.2605  0.5712 -0.0851
 5345SOL    HW127668   1.021   0.177   4.798 -1.5418 -3.5484 -0.6078
 5345SOL    HW227669   1.043   0.252   4.921 -1.4271  1.6161  0.3192
 5346SOL     OW27670   3.257   1.688   3.353  0.6097  0.4785 -0.0120
 5346SOL    HW127671   3.348   1.686   3.383  0.8550  1.0998 -0.6904
 5346SOL    HW227672   3.245   1.600   3.316 -2.0496  0.6229  0.4972
 5347SOL     OW27673   2.557   4.682   8.665  0.5393  0.1949  0.4519
 5347SOL    HW127674   2.503   0.021   8.686 -0.9500 -1.2166  1.7267
 5347SOL    HW227675   2.531   4.661   8.575 -1.7603 -0.4461  1.2643
 5348SOL     OW27676   1.733   2.327   0.149 -0.3644  0.1138  0.7384
 5348SOL    HW127677   1.708   2.252   0.094  1.6269  0.7996 -1.1115
 5348SOL    HW227678   1.663   2.318   0.212 -2.2319  1.2090 -1.1864
 5349SOL     OW27679   1.892   4.350   2.219  0.4355  0.3468  0.4329
 5349SOL    HW127680   1.850   4.434   2.240 -0.7544  0.3350 -1.8930
 5349SOL    HW227681   1.949   4.340   2.295  0.0432  1.6984  0.9006
 5350SOL     OW27682   2.178   0.680   6.018  0.0157 -0.1175 -0.1746
 5350SOL    HW127683   2.199   0.587   6.022 -0.5964 -0.3345 -1.7391
 5350SOL    HW227684   2.201   0.699   5.927  0.6232 -1.0865 -0.2219
 5351SOL     OW27685   1.519   0.823   8.048 -0.0225  0.7607  0.2061
 5351SOL    HW127686   1.608   0.806   8.078  0.1765 -0.1045 -0.9072
 5351SOL    HW227687   1.536   0.768   7.972 -1.5542 -0.3898  0.7027
 5352SOL     OW27688   2.052   1.966   4.317  0.6551 -0.1293  0.5768
 5352SOL    HW127689   2.023   1.884   4.278  0.3879  0.7952 -1.1395
 5352SOL    HW227690   2.055   1.930   4.406 -0.0161  2.1954  1.5769
 5353SOL     OW27691   2.888   1.465  12.370  0.6775 -0.3916  0.3921
 5353SOL    HW127692   2.851   1.539  12.419  1.3050  0.2203 -0.0573
 5353SOL    HW227693   2.889   1.392  12.432 -0.5906 -1.3846 -0.7756
 5354SOL     OW27694   2.050   1.767   7.115 -0.6060 -0.3380  0.3286
 5354SOL    HW127695   2.110   1.744   7.185  0.5153 -1.3866 -0.9771
 5354SOL    HW227696   2.038   1.684   7.068  3.6125 -0.5482 -0.3099
 5355SOL     OW27697   4.736   2.352   7.982 -0.3263 -0.0197  0.3332
 5355SOL    HW127698   0.024   2.411   8.053  2.1250 -2.1709  1.2723
 5355SOL    HW227699   0.048   2.389   7.909 -1.2279 -2.1342 -1.3404
 5356SOL     OW27700   4.640   2.662  13.087 -0.4264 -0.0544 -0.1135
 5356SOL    HW127701   4.645   2.570  13.113  0.2138 -0.0034 -0.0512
 5356SOL    HW227702   4.674   2.700  13.168  2.0435 -0.5152 -0.9356
 5357SOL     OW27703   1.575   2.125   2.563 -0.5222  0.3532 -0.2570
 5357SOL    HW127704   1.557   2.208   2.519 -3.4190  0.0948  0.4455
 5357SOL    HW227705   1.627   2.157   2.638 -2.9603  1.1907  1.0751
 5358SOL     OW27706   3.691   0.177  17.225 -0.5934  0.0642  0.4241
 5358SOL    HW127707   3.736   0.101  17.189  0.5149  0.5530  0.7817
 5358SOL    HW227708   3.750   0.194  17.299 -0.7765  1.8934  0.1649
 5359SOL     OW27709   2.152   3.331  12.501  0.0366 -0.7059  0.5227
 5359SOL    HW127710   2.136   3.242  12.533  0.5309 -1.1865 -0.5714
 5359SOL    HW227711   2.096   3.387  12.554  0.0256  0.3067 -0.5725
 5360SOL     OW27712   4.295   1.060   6.332  0.2834  0.1022  0.5842
 5360SOL    HW127713   4.337   1.140   6.302  2.0353 -1.3701 -0.9067
 5360SOL    HW227714   4.202   1.079   6.323 -0.0430 -2.2520 -1.2234
 5361SOL     OW27715   1.860   3.521   7.647 -0.1109  0.4068 -0.0315
 5361SOL    HW127716   1.893   3.450   7.702  3.4709 -0.7971 -3.7991
 5361SOL    HW227717   1.825   3.475   7.571 -3.0594  1.2127  0.8043
 5362SOL     OW27718   3.750   3.712   0.765  0.3912  0.0261  0.0217
 5362SOL    HW127719   3.841   3.689   0.745  0.7134  0.5335  0.9045
 5362SOL    HW227720   3.758   3.793   0.815  0.2500 -0.9932  1.7115
 5363SOL     OW27721   1.975   4.532  12.614 -0.1239 -0.0121 -1.0694
 5363SOL    HW127722   2.046   4.579  12.571  1.3978  1.1343  2.6302
 5363SOL    HW227723   2.011   4.539  12.703 -3.2681 -0.1672  0.2142
 5364SOL     OW27724   0.352   2.646   3.638 -0.3663  0.1662  0.1941
 5364SOL    HW127725   0.374   2.684   3.724 -1.1499 -0.5276  0.6972
 5364SOL    HW227726   0.439   2.625   3.604  0.0263  2.7407 -0.4087
 5365SOL     OW27727   3.350   4.719  14.945  0.5111  0.2789 -0.1624
 5365SOL    HW127728   3.288   4.670  14.998  1.2745  1.3622  1.7325
 5365SOL    HW227729   3.299   4.728  14.865  0.9881 -2.4633 -0.7699
 5366SOL     OW27730   3.006   0.239   4.742 -0.3218  0.1384  0.0041
 5366SOL    HW127731   2.925   0.191   4.762  0.0853  0.0790  1.5520
 5366SOL    HW227732   2.990   0.332   4.754 -0.0436  0.2003 -0.1129
 5367SOL     OW27733   4.614   3.937  16.201  1.0194 -0.5797  0.2639
 5367SOL    HW127734   4.701   3.938  16.162  1.3495  0.9945  1.0128
 5367SOL    HW227735   4.587   4.025  16.174  4.8440 -0.1465 -2.1548
 5368SOL     OW27736   0.346   0.109   4.120  0.4454 -0.4352 -0.7064
 5368SOL    HW127737   0.286   0.165   4.168 -0.9963 -1.7498 -0.9749
 5368SOL    HW227738   0.336   0.030   4.173  1.3922  0.8061  1.3440
 5369SOL     OW27739   4.006   3.515   3.230 -0.2131 -0.2687  0.5129
 5369SOL    HW127740   4.076   3.540   3.170 -0.2389  1.5696  1.2536
 5369SOL    HW227741   3.927   3.511   3.177 -0.4660 -0.9757  0.9369
 5370SOL     OW27742   0.081   3.976  17.620 -0.1123  0.7820 -0.1059
 5370SOL    HW127743   0.010   3.956  17.680  2.0975 -2.2425  1.4717
 5370SOL    HW227744   0.048   3.922  17.548 -1.8600 -0.7686  1.8952
 5371SOL     OW27745   4.602   4.419   1.866  1.1067  0.6777 -0.0639
 5371SOL    HW127746   4.644   4.349   1.816  1.4769  0.6218  0.3255
 5371SOL    HW227747   4.679   4.450   1.913  1.6830 -1.9627  0.6933
 5372SOL     OW27748   3.107   4.694   2.615  0.1821  0.3168 -0.1421
 5372SOL    HW127749   3.134   4.626   2.677  1.5388  0.7285 -0.2759
 5372SOL    HW227750   3.122   0.034   2.669 -1.8656  0.6538 -0.0481
 5373SOL     OW27751   2.959   1.055   7.072 -0.1267  0.0909 -0.7178
 5373SOL    HW127752   2.908   1.121   7.119  1.4108  0.1042  0.9523
 5373SOL    HW227753   3.050   1.082   7.086 -0.4221  1.1745 -0.8456
 5374SOL     OW27754   2.233   4.071   5.327  0.1222  0.3387  0.7137
 5374SOL    HW127755   2.186   3.991   5.353 -0.1273 -0.3363 -1.7653
 5374SOL    HW227756   2.274   4.108   5.405  3.3949  0.7594 -1.2503
 5375SOL     OW27757   0.022   3.010  17.269 -0.3928 -0.3212  0.1205
 5375SOL    HW127758   0.021   2.971  17.356 -1.5922  1.6348  0.9855
 5375SOL    HW227759   4.677   3.059  17.282 -1.4226 -2.2291  0.8473
 5376SOL     OW27760   3.846   1.066   1.626 -0.0070 -0.1730 -0.2580
 5376SOL    HW127761   3.887   1.043   1.543 -0.9625 -2.0516 -0.2021
 5376SOL    HW227762   3.883   0.992   1.675 -1.5046  0.1699  1.4149
 5377SOL     OW27763   1.221   3.423  13.505 -0.0146  0.1150  0.1121
 5377SOL    HW127764   1.177   3.504  13.480 -0.2724  0.2419  0.9954
 5377SOL    HW227765   1.249   3.397  13.417 -1.3961 -1.0613  0.0323
 5378SOL     OW27766   0.530   1.056   2.152 -0.1368 -0.6683 -0.3194
 5378SOL    HW127767   0.512   1.052   2.246 -3.5773 -0.3788 -0.9632
 5378SOL    HW227768   0.444   1.041   2.112 -0.0323  1.3104 -1.2837
 5379SOL     OW27769   0.615   4.219  16.728  0.2218 -0.0943 -0.4131
 5379SOL    HW127770   0.571   4.141  16.763 -1.2617  1.2786  0.7551
 5379SOL    HW227771   0.591   4.223  16.636  1.5337 -0.8863 -0.7893
 5380SOL     OW27772   1.719   1.293  11.898  0.6919  0.0932 -0.1477
 5380SOL    HW127773   1.766   1.228  11.950 -0.4307 -0.9351 -0.4215
 5380SOL    HW227774   1.794   1.336  11.858 -0.4406  0.5177 -1.8530
 5381SOL     OW27775   0.643   1.335   3.017 -0.1855 -0.4132 -0.3648
 5381SOL    HW127776   0.700   1.355   3.091 -0.6759 -0.6861  0.0905
 5381SOL    HW227777   0.563   1.300   3.057 -0.6246  0.9379 -0.0441
 5382SOL     OW27778   1.224   2.386   7.093 -0.3261  0.3498 -0.2642
 5382SOL    HW127779   1.316   2.409   7.079 -0.5373  0.4158 -1.5393
 5382SOL    HW227780   1.233   2.306   7.146 -0.9728  1.5845  1.7135
 5383SOL     OW27781   1.737   3.929   2.783 -0.5923  0.7320  0.3596
 5383SOL    HW127782   1.761   3.873   2.709 -2.0549  1.6311 -0.7794
 5383SOL    HW227783   1.747   3.861   2.849 -0.1006  1.6717  1.2454
 5384SOL     OW27784   4.422   1.447   1.750  0.0125  0.2633 -0.6449
 5384SOL    HW127785   4.365   1.515   1.787 -0.3841  0.0829 -0.9322
 5384SOL    HW227786   4.485   1.503   1.704  0.5616 -1.2770 -1.7630
 5385SOL     OW27787   1.117   2.352   0.375  0.2720 -0.4769 -0.4149
 5385SOL    HW127788   1.172   2.294   0.322  2.5462  1.4231 -0.1388
 5385SOL    HW227789   1.182   2.406   0.419  0.0483 -2.2879  2.1154
 5386SOL     OW27790   3.491   0.966   2.635  0.6970 -0.1385  0.2970
 5386SOL    HW127791   3.549   0.901   2.594 -1.0365 -1.9654  0.7618
 5386SOL    HW227792   3.484   1.033   2.567  0.0214  0.1861  0.6968
 5387SOL     OW27793   2.495   0.515  15.324 -0.1802 -0.1151 -0.2413
 5387SOL    HW127794   2.544   0.460  15.385 -1.3989 -0.9457 -0.0178
 5387SOL    HW227795   2.546   0.500  15.244 -0.3609 -1.3288 -0.1285
 5388SOL     OW27796   2.406   1.404  11.466  0.0391 -0.3447  0.3957
 5388SOL    HW127797   2.327   1.375  11.420  1.0366 -0.6144 -1.1531
 5388SOL    HW227798   2.424   1.323  11.515 -0.4754  1.0940  2.9392
 5389SOL     OW27799   2.944   3.192   9.038  0.0919 -0.3314  0.1831
 5389SOL    HW127800   3.039   3.196   9.026  0.2443 -2.1860  0.8578
 5389SOL    HW227801   2.903   3.136   8.972 -2.7618  1.1938  0.6865
 5390SOL     OW27802   0.707   4.471  16.777 -0.0912  0.3579  0.3507
 5390SOL    HW127803   0.730   4.476  16.870  1.6413 -3.6135  0.1422
 5390SOL    HW227804   0.702   4.378  16.754 -0.1751  0.4997 -0.1836
 5391SOL     OW27805   4.658   1.089   6.127  0.0981 -0.1051 -0.1653
 5391SOL    HW127806   0.003   1.082   6.079  0.2518 -2.1023  0.3987
 5391SOL    HW227807   4.632   1.175   6.093 -2.5255 -0.5645  0.6450
 5392SOL     OW27808   0.248   2.592  16.661  0.0271  0.5084  0.3911
 5392SOL    HW127809   0.172   2.635  16.699  1.9417  2.2027  2.3561
 5392SOL    HW227810   0.244   2.498  16.677 -1.1636  0.1464 -2.0532
 5393SOL     OW27811   3.946   1.988   4.556 -0.2242 -0.5491 -0.2374
 5393SOL    HW127812   4.022   2.038   4.585 -0.1765 -1.1045  0.5589
 5393SOL    HW227813   3.949   1.918   4.621 -1.8686 -2.5516 -2.3081
 5394SOL     OW27814   0.460   2.765   0.314  0.1708 -0.2254 -0.6877
 5394SOL    HW127815   0.522   2.738   0.381 -0.6765 -1.0347 -0.2278
 5394SOL    HW227816   0.393   2.809   0.368 -0.0012 -1.5944  0.2009
 5395SOL     OW27817   2.411   4.006  14.672 -0.2691  0.4789 -0.1160
 5395SOL    HW127818   2.363   4.014  14.589  0.3660  1.8062 -0.3570
 5395SOL    HW227819   2.349   3.990  14.742 -0.0685 -0.4963 -0.1616
 5396SOL     OW27820   2.815   1.693   9.396 -0.4777 -0.1275  0.1250
 5396SOL    HW127821   2.730   1.658   9.423 -0.3182 -1.5586 -1.2282
 5396SOL    HW227822   2.856   1.622   9.348  1.7764  0.0868  1.7318
 5397SOL     OW27823   3.950   4.380   0.170 -0.1911 -0.4764 -0.2786
 5397SOL    HW127824   3.933   4.372   0.076 -1.1232  0.9648 -0.2499
 5397SOL    HW227825   4.040   4.404   0.190  0.1985 -0.5847 -1.9136
 5398SOL     OW27826   1.386   3.168   5.932 -0.5096 -0.5060 -0.1630
 5398SOL    HW127827   1.425   3.149   6.017 -1.4516  0.6362  0.5287
 5398SOL    HW227828   1.468   3.165   5.882 -0.9986  1.0888 -1.0341
 5399SOL     OW27829   1.678   2.014   0.020 -0.3290  0.7912 -0.5419
 5399SOL    HW127830   1.635   1.929   0.024 -2.1937  1.7650  0.3009
 5399SOL    HW227831   1.599   2.061   0.049 -1.0849 -0.3903 -0.6722
 5400SOL     OW27832   3.905   2.244  17.431 -0.7698 -0.3801  0.1947
 5400SOL    HW127833   3.945   2.200  17.356 -0.2636  1.3800 -0.5765
 5400SOL    HW227834   3.842   2.296  17.382 -1.8046 -1.3606  0.5061
 5401SOL     OW27835   0.004   0.030   8.181 -0.2605 -0.1378 -0.4284
 5401SOL    HW127836   0.085   0.062   8.220 -1.5483  0.8289  1.4509
 5401SOL    HW227837   4.672   0.053   8.244 -2.3762  1.3418 -3.2589
 5402SOL     OW27838   2.138   2.856  15.532  0.0639  0.6736  0.0852
 5402SOL    HW127839   2.168   2.781  15.583  3.4159  0.0700 -2.7195
 5402SOL    HW227840   2.171   2.933  15.578 -1.1236  0.2505  1.6363
 5403SOL     OW27841   2.842   3.251   7.230 -0.0532  0.6286 -0.8758
 5403SOL    HW127842   2.886   3.324   7.274 -0.5004  0.5129 -0.2234
 5403SOL    HW227843   2.751   3.281   7.223 -0.0384  1.0557  0.5729
 5404SOL     OW27844   4.659   2.576   2.500  1.0253 -0.1698  0.7918
 5404SOL    HW127845   4.702   2.518   2.563 -1.1527 -1.0570  1.4570
 5404SOL    HW227846   4.579   2.533   2.470  1.4667  0.0578 -0.7233
 5405SOL     OW27847   0.519   1.899  11.320  0.2009 -0.1962 -0.1864
 5405SOL    HW127848   0.519   1.888  11.415  1.6536  1.0918 -0.0453
 5405SOL    HW227849   0.595   1.956  11.316 -0.0477  0.2700  1.9131
 5406SOL     OW27850   0.076   2.309   0.588 -0.2750 -0.3235  0.2880
 5406SOL    HW127851   0.100   2.363   0.513  0.9822 -1.8066 -0.3720
 5406SOL    HW227852   0.149   2.329   0.647  0.2086  2.2675 -1.1495
 5407SOL     OW27853   2.161   4.171   3.680 -0.5306  0.6620  0.4122
 5407SOL    HW127854   2.189   4.079   3.685 -0.0089  0.8396  0.6788
 5407SOL    HW227855   2.238   4.201   3.633 -0.4372 -2.0029 -1.1200
 5408SOL     OW27856   2.347   0.260   5.366  0.1288 -0.5008  0.5215
 5408SOL    HW127857   2.356   0.167   5.383  0.5496 -1.0861 -2.8804
 5408SOL    HW227858   2.432   0.290   5.334 -0.5485  1.0124  0.1278
 5409SOL     OW27859   2.808   3.612   8.434 -0.4573 -0.1363 -0.6856
 5409SOL    HW127860   2.828   3.532   8.483 -2.5724  0.0474  0.4674
 5409SOL    HW227861   2.839   3.678   8.496 -0.4564 -1.7131  0.9782
 5410SOL     OW27862   1.540   4.231   4.456 -0.0181  0.4047  0.0192
 5410SOL    HW127863   1.494   4.207   4.376 -1.4864 -0.0052  0.9994
 5410SOL    HW227864   1.518   4.155   4.509  0.7775 -0.7152 -1.2417
 5411SOL     OW27865   3.235   4.124  11.594  0.2560  0.2159 -0.0082
 5411SOL    HW127866   3.243   4.037  11.633  2.5345  0.4118 -0.0430
 5411SOL    HW227867   3.174   4.107  11.522  0.4757  1.7326 -0.5435
 5412SOL     OW27868   3.179   2.657   2.826  0.5518 -0.5983 -0.0672
 5412SOL    HW127869   3.132   2.681   2.746 -1.8029 -0.7534  1.2434
 5412SOL    HW227870   3.261   2.619   2.796 -0.5550 -1.6530 -1.7505
 5413SOL     OW27871   0.706   2.204   8.094  0.7047 -0.2470 -0.6238
 5413SOL    HW127872   0.621   2.248   8.088  1.0051  0.3066 -0.7421
 5413SOL    HW227873   0.746   2.219   8.008 -2.0651  3.3379 -1.2992
 5414SOL     OW27874   1.523   4.380   5.528 -0.0865  0.0803  0.0429
 5414SOL    HW127875   1.552   4.436   5.599  2.2769 -3.4550  1.8637
 5414SOL    HW227876   1.503   4.443   5.459 -2.5383 -0.2135  0.5127
 5415SOL     OW27877   1.463   3.567   5.995  0.0012  0.0816  0.8327
 5415SOL    HW127878   1.396   3.507   5.962  1.6383 -2.2224  1.6683
 5415SOL    HW227879   1.410   3.646   5.990 -0.8018 -0.7076 -2.9296
 5416SOL     OW27880   3.796   0.422  13.824 -0.7229  0.2496 -0.0359
 5416SOL    HW127881   3.718   0.412  13.879 -0.1204 -0.2431  0.7408
 5416SOL    HW227882   3.854   0.368  13.879 -0.2107  0.7964 -0.0373
 5417SOL     OW27883   4.473   1.504  12.019  0.5346  0.8041  0.1958
 5417SOL    HW127884   4.536   1.576  12.015  0.3851  0.8493 -1.3245
 5417SOL    HW227885   4.392   1.538  11.981  1.2455  0.6608 -1.4123
 5418SOL     OW27886   0.425   0.737   9.029  0.5287 -0.2180 -0.0558
 5418SOL    HW127887   0.364   0.802   9.065  0.7853 -0.7758  1.3911
 5418SOL    HW227888   0.363   0.667   9.007  2.0280 -1.5188 -0.1011
 5419SOL     OW27889   1.747   3.260  13.426  0.3161 -0.5678  0.0516
 5419SOL    HW127890   1.753   3.232  13.518  1.5666  0.8291  0.4017
 5419SOL    HW227891   1.837   3.272  13.395 -0.2979  1.4905 -0.9506
 5420SOL     OW27892   0.513   3.013   6.392  0.0125 -0.6626 -0.1814
 5420SOL    HW127893   0.528   2.938   6.335  1.2485  0.9568 -1.9996
 5420SOL    HW227894   0.489   2.970   6.474  1.0986  0.6614  0.8374
 5421SOL     OW27895   2.512   0.085   6.077 -0.0297  0.1858  0.3021
 5421SOL    HW127896   2.569   0.161   6.079  0.9464 -0.6123  2.3701
 5421SOL    HW227897   2.465   0.081   6.160  0.3276 -0.1705  0.4869
 5422SOL     OW27898   0.306   4.448   3.633  0.3047 -0.2095 -0.2902
 5422SOL    HW127899   0.387   4.486   3.668  1.0938 -1.9334 -0.2453
 5422SOL    HW227900   0.258   4.516   3.585 -0.7960 -0.6224  0.2404
 5423SOL     OW27901   3.127   1.419  10.923  0.1022  0.1249 -0.0583
 5423SOL    HW127902   3.041   1.425  10.882  0.3994 -2.5006 -1.0998
 5423SOL    HW227903   3.185   1.448  10.853  2.0047 -0.8082  1.1246
 5424SOL     OW27904   3.406   1.111  16.519 -0.1381  0.5296  0.2835
 5424SOL    HW127905   3.472   1.097  16.451  0.0034 -0.4085  0.6231
 5424SOL    HW227906   3.355   1.030  16.516  0.6116  0.0672  0.2547
 5425SOL     OW27907   3.751   1.122  13.182  0.2139  0.0789 -0.2821
 5425SOL    HW127908   3.804   1.076  13.116  0.2063  0.7687 -0.7758
 5425SOL    HW227909   3.796   1.084  13.258  0.1759  2.6296  1.0074
 5426SOL     OW27910   1.465   2.413   1.656  0.0622  0.7503  0.2517
 5426SOL    HW127911   1.487   2.363   1.578  2.8756 -0.2892  1.7185
 5426SOL    HW227912   1.379   2.442   1.627  0.1234  1.4104  0.7256
 5427SOL     OW27913   1.302   3.252   2.684 -0.1454  0.3435 -0.8157
 5427SOL    HW127914   1.230   3.217   2.632 -0.7652 -0.0865  0.3288
 5427SOL    HW227915   1.301   3.346   2.666 -1.0591  0.2608 -1.1637
 5428SOL     OW27916   2.276   3.740  16.899  0.1573 -0.1221  0.1454
 5428SOL    HW127917   2.291   3.835  16.902  0.0776 -0.0259 -2.5445
 5428SOL    HW227918   2.246   3.726  16.809 -0.5655 -0.5768  0.4619
 5429SOL     OW27919   4.423   3.689   7.836 -0.1035  0.3041 -0.4941
 5429SOL    HW127920   4.369   3.611   7.821  1.4821 -0.4947 -2.1100
 5429SOL    HW227921   4.367   3.736   7.897 -0.7664  1.1854 -1.7962
 5430SOL     OW27922   4.347   4.700   5.672  0.5272 -0.0128 -0.3688
 5430SOL    HW127923   4.353   4.680   5.579  2.7033 -0.6252 -0.0796
 5430SOL    HW227924   4.362   0.057   5.672 -0.8171  0.1817 -3.2390
 5431SOL     OW27925   3.238   1.167   0.975  0.2358  0.1933 -1.4877
 5431SOL    HW127926   3.149   1.146   0.947 -0.2226 -1.5251  1.3095
 5431SOL    HW227927   3.285   1.182   0.893  0.2969  0.2773 -1.4368
 5432SOL     OW27928   2.130   1.111   7.671  0.2003 -0.6942  0.5515
 5432SOL    HW127929   2.070   1.037   7.667  0.3401 -0.9458  2.9107
 5432SOL    HW227930   2.125   1.133   7.764 -0.0232 -1.1823  0.6550
 5433SOL     OW27931   1.818   1.286  10.082 -0.3091  0.4283  0.3572
 5433SOL    HW127932   1.856   1.199  10.082 -1.0314  0.1102  0.1124
 5433SOL    HW227933   1.885   1.331  10.134 -1.1350  1.4069  0.5801
 5434SOL     OW27934   3.810   1.446   4.617  0.3580  0.1589  0.1598
 5434SOL    HW127935   3.884   1.456   4.676 -1.4090  0.1641  2.3620
 5434SOL    HW227936   3.855   1.463   4.534  1.0671  1.1103  0.7406
 5435SOL     OW27937   2.207   1.759   5.877 -0.4888 -0.3037 -0.1557
 5435SOL    HW127938   2.284   1.736   5.825  1.0418  0.2431  1.8527
 5435SOL    HW227939   2.134   1.748   5.816 -0.3359  0.2380 -0.4340
 5436SOL     OW27940   3.361   0.554  10.248  0.0007 -0.4561  0.0787
 5436SOL    HW127941   3.394   0.635  10.288  0.2246 -0.8188  0.6295
 5436SOL    HW227942   3.433   0.531  10.190 -2.1775 -3.7893 -1.2807
 5437SOL     OW27943   3.920   0.040   9.662 -0.5544  0.3675 -0.6068
 5437SOL    HW127944   3.861   0.115   9.665 -1.5170 -0.4263  0.2684
 5437SOL    HW227945   3.967   0.046   9.745  0.6924  1.8311 -1.4164
 5438SOL     OW27946   1.132   3.454   0.574  0.7101 -0.4204 -0.0587
 5438SOL    HW127947   1.152   3.457   0.668 -1.3004  0.9129  0.3299
 5438SOL    HW227948   1.040   3.440   0.550  1.2323 -1.6224 -1.3674
 5439SOL     OW27949   2.097   3.589   8.477  0.4188  0.5109  0.2797
 5439SOL    HW127950   2.079   3.632   8.393  1.2020  0.2565 -0.0164
 5439SOL    HW227951   2.184   3.554   8.460  0.5074  0.8125  0.1052
 5440SOL     OW27952   2.483   3.655   7.272  0.3031  0.2767 -0.2491
 5440SOL    HW127953   2.418   3.588   7.295 -0.7503  0.5348 -2.4756
 5440SOL    HW227954   2.425   3.725   7.302  0.9372  1.0494 -0.8596
 5441SOL     OW27955   3.520   2.930   7.863  0.1208 -0.4667  0.0864
 5441SOL    HW127956   3.506   2.945   7.770  0.8576 -1.7291 -0.2306
 5441SOL    HW227957   3.615   2.931   7.847  0.0081 -0.6225 -0.5716
 5442SOL     OW27958   3.711   1.138  15.215  0.1198 -0.4717 -0.1556
 5442SOL    HW127959   3.703   1.050  15.178 -1.6237 -0.4932  0.2778
 5442SOL    HW227960   3.653   1.185  15.156  1.3524  1.0931 -0.1195
 5443SOL     OW27961   4.231   4.600   2.217 -0.1472  0.0275 -0.5986
 5443SOL    HW127962   4.324   4.580   2.205 -0.4043 -1.3547 -0.3465
 5443SOL    HW227963   4.225   4.670   2.282 -0.1679 -0.8126  0.3049
 5444SOL     OW27964   0.848   0.234  11.390 -0.2316 -0.2883  0.2211
 5444SOL    HW127965   0.841   0.326  11.412 -2.0030 -0.0015 -1.4966
 5444SOL    HW227966   0.944   0.229  11.391 -0.3761 -2.9631  1.7969
 5445SOL     OW27967   0.936   1.524   4.805  0.5361  0.5134  0.2601
 5445SOL    HW127968   0.979   1.569   4.732  0.6920  0.3527  0.2537
 5445SOL    HW227969   0.890   1.452   4.763 -1.5648  1.8130  0.3420
 5446SOL     OW27970   3.022   3.718  17.066 -0.1619 -0.2442  0.1984
 5446SOL    HW127971   2.958   3.707  16.996 -0.2070  2.5226 -0.1895
 5446SOL    HW227972   2.972   3.763  17.133  1.5137  3.6388 -1.1361
 5447SOL     OW27973   4.536   0.472  10.596 -0.3308  0.3991  0.0420
 5447SOL    HW127974   4.560   0.558  10.562 -0.0959  0.5344  0.5453
 5447SOL    HW227975   4.596   0.476  10.671  0.6504 -0.7904 -0.6821
 5448SOL     OW27976   3.959   4.115   2.790 -0.7153  0.5234  0.2508
 5448SOL    HW127977   4.018   4.091   2.718 -2.7334  0.0694 -1.2356
 5448SOL    HW227978   4.013   4.178   2.838 -0.0314 -0.0541  0.2426
 5449SOL     OW27979   3.150   3.704   8.691  0.0013 -0.1976  0.9659
 5449SOL    HW127980   3.124   3.677   8.603 -1.1849  1.7364  0.7241
 5449SOL    HW227981   3.244   3.691   8.698  0.0540 -0.0859  0.3922
 5450SOL     OW27982   0.713   2.731   7.357  0.5621  0.8039  0.7672
 5450SOL    HW127983   0.778   2.716   7.289 -1.0785  2.2199 -1.1389
 5450SOL    HW227984   0.646   2.758   7.294 -1.6793  0.3071  2.9436
 5451SOL     OW27985   0.631   0.324   8.878  0.4859 -0.0101  0.3889
 5451SOL    HW127986   0.679   0.370   8.808  0.7358 -1.8520 -0.6440
 5451SOL    HW227987   0.630   0.402   8.934 -1.6684  1.0958 -1.2056
 5452SOL     OW27988   3.464   1.469   3.712  0.2467 -0.0605  0.1225
 5452SOL    HW127989   3.535   1.448   3.773  2.7890  0.6605 -2.5713
 5452SOL    HW227990   3.431   1.550   3.751 -0.2369  0.7846 -2.0742
 5453SOL     OW27991   3.833   4.554  16.662  0.5021  0.3462  0.6988
 5453SOL    HW127992   3.825   4.482  16.599  0.2864  0.6466  0.3840
 5453SOL    HW227993   3.912   4.595  16.628  1.5010 -1.9914  0.2039
 5454SOL     OW27994   0.131   1.561   6.676 -0.3696  0.0577  0.1100
 5454SOL    HW127995   0.213   1.595   6.641 -0.4064 -0.3253 -0.3445
 5454SOL    HW227996   0.142   1.603   6.762 -0.8165 -0.4316  0.4038
 5455SOL     OW27997   0.408   1.586  17.167  0.4926 -0.0675  0.0400
 5455SOL    HW127998   0.371   1.671  17.189  0.6190  0.0560 -0.2274
 5455SOL    HW227999   0.412   1.546  17.254 -2.3965  0.6713  0.4921
 5456SOL     OW28000   4.583   2.676   6.111  0.0405 -0.4542  0.2518
 5456SOL    HW128001   4.496   2.691   6.073 -0.2543 -2.3542  0.2024
 5456SOL    HW228002   4.612   2.605   6.054 -2.0266 -1.2090  0.1436
 5457SOL     OW28003   2.064   0.312  12.342 -0.3109  0.0478 -0.3649
 5457SOL    HW128004   2.098   0.379  12.283  0.9476  0.2662  0.6053
 5457SOL    HW228005   2.091   0.345  12.428  1.6372 -1.5229 -0.3668
 5458SOL     OW28006   1.261   0.718   7.622  0.3851 -0.1861  0.0873
 5458SOL    HW128007   1.317   0.640   7.623 -0.0771 -0.5426 -1.8359
 5458SOL    HW228008   1.187   0.687   7.570  0.3473 -2.1324  1.2932
 5459SOL     OW28009   4.011   2.652   7.361 -0.1620  0.0834  0.3924
 5459SOL    HW128010   3.975   2.739   7.341  3.5711  1.0735 -2.0937
 5459SOL    HW228011   4.012   2.634   7.455  0.4960 -1.3477  0.1096
 5460SOL     OW28012   1.515   0.105  12.881  0.5463 -1.0083 -0.0821
 5460SOL    HW128013   1.448   0.087  12.814  1.1188 -0.7885 -0.7208
 5460SOL    HW228014   1.575   0.165  12.836 -0.4783 -0.0734 -0.1869
 5461SOL     OW28015   2.014   3.663   4.274  0.2356  0.1476  0.4289
 5461SOL    HW128016   2.042   3.736   4.330  0.8403 -0.7022  1.2358
 5461SOL    HW228017   2.054   3.590   4.321  0.8509 -0.5126 -1.1143
 5462SOL     OW28018   1.091   2.044  16.218  0.2615  0.8985  0.3119
 5462SOL    HW128019   1.097   2.086  16.304 -0.1061  1.6262 -0.0108
 5462SOL    HW228020   1.008   1.997  16.220 -0.5718  2.3313 -0.3523
 5463SOL     OW28021   1.357   3.709   4.364  0.3153  0.0145  0.2497
 5463SOL    HW128022   1.326   3.754   4.442 -0.1629 -0.4596  0.3326
 5463SOL    HW228023   1.392   3.780   4.312  0.4533 -1.1014 -1.1830
 5464SOL     OW28024   2.318   3.525   2.980  0.0933 -0.5470 -0.6559
 5464SOL    HW128025   2.277   3.489   3.059  0.2758 -0.4193 -0.5048
 5464SOL    HW228026   2.329   3.441   2.935 -2.0493 -0.3773 -1.5345
 5465SOL     OW28027   0.257   2.359   4.729 -0.1643 -0.5194 -0.1368
 5465SOL    HW128028   0.237   2.405   4.648  0.4508  1.0918  0.6394
 5465SOL    HW228029   0.215   2.412   4.796 -2.0746 -1.8670 -0.2762
 5466SOL     OW28030   3.822   1.334   5.707  0.1700  0.0521 -0.4721
 5466SOL    HW128031   3.791   1.244   5.693 -1.0876  0.3782  0.2670
 5466SOL    HW228032   3.823   1.362   5.615 -0.7720  0.5595 -0.3242
 5467SOL     OW28033   0.951   2.281  12.854  0.3809 -0.1917  0.4208
 5467SOL    HW128034   1.039   2.313  12.834  1.2388 -2.1895  1.0172
 5467SOL    HW228035   0.955   2.187  12.837  0.3528 -0.0352 -0.4176
 5468SOL     OW28036   3.749   3.016   5.547  0.2930  0.1183  0.2123
 5468SOL    HW128037   3.797   3.062   5.616 -1.3632 -0.7084  1.9211
 5468SOL    HW228038   3.761   2.926   5.576 -2.2452  0.0726  1.0861
 5469SOL     OW28039   3.483   0.508   9.720  0.0437  0.2386 -0.1547
 5469SOL    HW128040   3.444   0.561   9.789 -1.1969  2.0639 -2.2352
 5469SOL    HW228041   3.458   0.418   9.742  0.2595 -0.0241 -0.9714
 5470SOL     OW28042   4.423   2.388   8.168  0.0721  0.2521 -0.5128
 5470SOL    HW128043   4.329   2.378   8.187  0.6153 -0.0539  2.0125
 5470SOL    HW228044   4.416   2.369   8.074  1.5024 -0.1778 -0.5368
 5471SOL     OW28045   3.637   0.433  11.308  0.5296  0.0131 -0.5716
 5471SOL    HW128046   3.694   0.482  11.368  1.4856 -2.1577  0.2854
 5471SOL    HW228047   3.581   0.502  11.271 -1.3397  0.4351  3.0568
 5472SOL     OW28048   1.960   3.612   2.771  0.1480  0.1641 -0.4590
 5472SOL    HW128049   1.897   3.663   2.823  1.8703 -1.1604  2.9028
 5472SOL    HW228050   2.036   3.668   2.787 -1.0531  2.1450 -1.6572
 5473SOL     OW28051   2.784   0.846  15.610 -0.4394  0.0480  0.0452
 5473SOL    HW128052   2.707   0.807  15.650 -0.1882 -0.3312  0.1576
 5473SOL    HW228053   2.788   0.931  15.653 -1.7756  0.7152 -1.1228
 5474SOL     OW28054   3.332   0.423  17.084  0.1350  0.6037  0.3069
 5474SOL    HW128055   3.364   0.396  17.170 -0.1179 -2.0721 -0.4298
 5474SOL    HW228056   3.354   0.359  17.016 -1.6015  1.5992 -1.2173
 5475SOL     OW28057   2.657   2.063   4.047  0.5533 -0.5274 -0.0848
 5475SOL    HW128058   2.649   2.005   3.971  0.8672 -0.2741 -0.3142
 5475SOL    HW228059   2.564   2.052   4.065  0.6528 -0.4062  0.5092
 5476SOL     OW28060   4.319   3.662   4.418  0.1740 -0.5001 -0.2617
 5476SOL    HW128061   4.380   3.652   4.491  1.0387 -0.9053 -1.0417
 5476SOL    HW228062   4.273   3.741   4.445  1.3230 -0.3477  1.2476
 5477SOL     OW28063   2.236   2.804  16.378 -0.2115  0.3658  0.8077
 5477SOL    HW128064   2.331   2.804  16.391  0.1198  1.7487 -1.6794
 5477SOL    HW228065   2.211   2.711  16.381 -2.4189  0.9567  1.1155
 5478SOL     OW28066   0.177   0.975   5.131 -0.3044 -0.3135  0.1334
 5478SOL    HW128067   0.133   1.030   5.066 -0.1606 -0.6137 -0.2213
 5478SOL    HW228068   0.266   0.998   5.107 -0.3789  2.7010  2.7720
 5479SOL     OW28069   2.125   3.728   5.646  0.7122  0.1692  0.2528
 5479SOL    HW128070   2.086   3.699   5.728  1.4221  1.0521  0.9109
 5479SOL    HW228071   2.101   3.652   5.592 -0.7851  1.0919 -0.3767
 5480SOL     OW28072   0.586   4.191   3.524  0.0934 -0.4578 -0.7134
 5480SOL    HW128073   0.652   4.194   3.593 -1.1405  0.4871  0.4210
 5480SOL    HW228074   0.501   4.193   3.568  2.3664  0.7441  3.5567
 5481SOL     OW28075   0.338   0.140   2.224  0.4497  0.6045  0.0351
 5481SOL    HW128076   0.374   0.217   2.267  1.0277  0.2188  0.2361
 5481SOL    HW228077   0.403   0.075   2.251 -1.2225 -0.2214  2.0111
 5482SOL     OW28078   0.191   4.389   8.416 -0.0665 -0.3611  0.0466
 5482SOL    HW128079   0.255   4.444   8.460 -1.5317  3.0312 -2.0334
 5482SOL    HW228080   0.221   4.308   8.456 -1.5108 -0.4831  0.8985
 5483SOL     OW28081   3.626   0.671   2.665 -0.2755 -0.8484  0.1296
 5483SOL    HW128082   3.622   0.752   2.715 -0.8806 -0.4254 -0.5863
 5483SOL    HW228083   3.646   0.700   2.576  0.8763  0.8133  0.9421
 5484SOL     OW28084   1.897   3.978   8.561 -0.2759 -0.0828  0.6317
 5484SOL    HW128085   1.947   4.051   8.599  2.1900 -1.0442 -0.8076
 5484SOL    HW228086   1.842   3.951   8.635 -0.5717  1.6724  1.0598
 5485SOL     OW28087   3.598   2.770   9.963  0.0998  0.0007  0.3774
 5485SOL    HW128088   3.587   2.865   9.951 -0.2413  0.1155  1.6308
 5485SOL    HW228089   3.692   2.754   9.952  0.0332 -0.0763 -0.0610
 5486SOL     OW28090   0.720   4.251   3.165  0.3640  0.6552 -0.0308
 5486SOL    HW128091   0.734   4.340   3.198  0.9365  0.8786 -0.8381
 5486SOL    HW228092   0.684   4.260   3.077  0.7543 -0.0023 -0.2638
 5487SOL     OW28093   0.926   4.605   1.890 -0.1711 -0.3689 -0.1332
 5487SOL    HW128094   0.863   4.600   1.819 -0.1878  1.0036 -0.2037
 5487SOL    HW228095   0.905   4.684   1.940 -0.9105  0.0058 -1.0450
 5488SOL     OW28096   4.182   4.682   5.892  0.3594  0.0685 -0.2979
 5488SOL    HW128097   4.242   4.659   5.963  2.3690 -1.2808 -2.4338
 5488SOL    HW228098   4.238   4.682   5.815  0.3660  1.3250 -0.2977
 5489SOL     OW28099   0.868   1.507   5.981 -0.1302  0.2188 -0.2841
 5489SOL    HW128100   0.928   1.565   6.028  0.2720  0.0364 -0.5741
 5489SOL    HW228101   0.930   1.463   5.923 -1.4165 -2.0001  0.0180
 5490SOL     OW28102   4.108   0.650   2.379  0.5090  0.4562  0.1586
 5490SOL    HW128103   4.132   0.708   2.306  1.4244 -1.6369 -1.1742
 5490SOL    HW228104   4.178   0.668   2.441 -0.5813  0.3389  1.4049
 5491SOL     OW28105   2.085   4.566   6.703 -0.0201 -0.3987  0.2547
 5491SOL    HW128106   2.139   4.494   6.735  2.1082  0.8237 -0.5876
 5491SOL    HW228107   1.995   4.539   6.723 -1.0014  2.6290  0.0341
 5492SOL     OW28108   2.804   2.657   1.029 -0.0924 -0.4693  0.1622
 5492SOL    HW128109   2.761   2.590   1.081  0.9103 -0.3885  1.0970
 5492SOL    HW228110   2.837   2.596   0.964 -0.8282  0.2904 -0.9306
 5493SOL     OW28111   0.568   1.651   4.912  0.2731  0.4731 -0.3524
 5493SOL    HW128112   0.581   1.620   4.822 -0.0713  2.2930 -1.0410
 5493SOL    HW228113   0.507   1.725   4.913 -0.8632 -0.4774 -0.0662
 5494SOL     OW28114   0.517   1.013   3.139  0.4824  0.2442  0.2252
 5494SOL    HW128115   0.490   0.954   3.210  0.2094  1.4716  1.1480
 5494SOL    HW228116   0.611   1.007   3.158  0.6944  0.3870 -0.8074
 5495SOL     OW28117   3.655   4.036   3.050 -0.0552  0.2931  0.4330
 5495SOL    HW128118   3.630   3.997   2.966 -1.6149  1.0459  0.5490
 5495SOL    HW228119   3.620   3.970   3.109  2.1728 -0.7216  0.6214
 5496SOL     OW28120   4.432   1.314   4.545 -0.0765  0.2916  0.2415
 5496SOL    HW128121   4.453   1.401   4.509 -0.8777  0.5013  0.2896
 5496SOL    HW228122   4.397   1.335   4.631 -0.2709  2.3163 -0.3227
 5497SOL     OW28123   3.977   2.537   2.998 -0.0376 -0.0273  0.9101
 5497SOL    HW128124   4.031   2.530   2.919 -0.1917  2.5475  0.5818
 5497SOL    HW228125   3.917   2.609   2.978  0.3414  0.3012  0.9340
 5498SOL     OW28126   3.462   3.113   2.140  0.1339  0.3845  0.2101
 5498SOL    HW128127   3.478   3.126   2.047  0.1037  2.0224  0.4297
 5498SOL    HW228128   3.370   3.135   2.148  0.2331  0.1672  1.9619
 5499SOL     OW28129   0.497   3.571   4.247  0.3517  0.5287  0.3153
 5499SOL    HW128130   0.588   3.578   4.275  1.4030 -0.7041 -2.7749
 5499SOL    HW228131   0.498   3.478   4.222 -2.0990  0.3313  0.9385
 5500SOL     OW28132   1.973   4.205   1.953 -0.0471  0.6658 -0.2122
 5500SOL    HW128133   1.934   4.252   2.026  0.9666 -2.1579  2.1774
 5500SOL    HW228134   2.031   4.274   1.920 -0.2171  0.4388 -0.9786
 5501SOL     OW28135   2.508   1.053  15.957 -0.3735  0.0827 -0.5601
 5501SOL    HW128136   2.492   1.130  16.011  1.4527 -1.2047  1.8420
 5501SOL    HW228137   2.487   0.985  16.021 -0.2434  0.0047 -0.6006
 5502SOL     OW28138   1.189   0.172  13.038  0.0693  0.9539 -0.1751
 5502SOL    HW128139   1.253   0.243  13.027  0.2080  0.9889  0.8432
 5502SOL    HW228140   1.111   0.220  13.066 -1.0182  0.0044 -1.6606
 5503SOL     OW28141   2.761   2.285  13.619  0.0741  0.2149  0.3565
 5503SOL    HW128142   2.680   2.303  13.668 -0.4171  1.3841 -0.8797
 5503SOL    HW228143   2.735   2.318  13.533 -0.7457 -0.2552  0.4271
 5504SOL     OW28144   4.379   0.080   9.595 -0.1733  0.1760  0.2015
 5504SOL    HW128145   4.461   0.127   9.608  0.0550  0.0303 -0.7490
 5504SOL    HW228146   4.374   0.037   9.680 -0.2567 -1.5590 -0.6760
 5505SOL     OW28147   2.582   1.882  10.021 -0.1721  0.3830  0.0464
 5505SOL    HW128148   2.608   1.924   9.939  1.4439  1.4110  1.0782
 5505SOL    HW228149   2.518   1.817   9.994 -0.3080  0.7216 -0.4435
 5506SOL     OW28150   1.868   3.514   9.091 -0.2121  0.1143 -0.2675
 5506SOL    HW128151   1.784   3.502   9.047 -0.7147 -0.0375  0.7373
 5506SOL    HW228152   1.899   3.590   9.041 -2.0906  2.2000  1.7263
 5507SOL     OW28153   2.471   3.623  10.409  0.8960  0.6458 -0.2268
 5507SOL    HW128154   2.388   3.600  10.449  0.6217 -0.3469 -1.3636
 5507SOL    HW228155   2.534   3.612  10.480 -1.0905  0.4724  1.4734
 5508SOL     OW28156   2.469   3.041  13.205 -0.1405  0.1256 -0.0927
 5508SOL    HW128157   2.430   3.105  13.264  0.3421  0.5343 -0.2160
 5508SOL    HW228158   2.399   3.015  13.145 -1.5018  0.2472  1.4395
 5509SOL     OW28159   1.756   3.807   8.360 -0.7133  0.0239 -0.3869
 5509SOL    HW128160   1.834   3.829   8.310  1.6992 -0.5785  3.1715
 5509SOL    HW228161   1.790   3.734   8.411 -0.9620 -0.0558 -0.3350
 5510SOL     OW28162   2.009   4.551  13.409 -0.0023 -0.6917  0.4642
 5510SOL    HW128163   2.058   4.626  13.442  0.7464 -1.2375  0.6001
 5510SOL    HW228164   1.933   4.549  13.467 -0.4420 -1.9609 -0.1598
 5511SOL     OW28165   0.515   2.621   5.122  0.4240  0.6798 -0.1233
 5511SOL    HW128166   0.521   2.535   5.164 -0.4493  0.6530 -0.0678
 5511SOL    HW228167   0.521   2.603   5.028 -1.4592 -0.3178 -0.0506
 5512SOL     OW28168   3.295   0.465   4.362 -0.1575 -0.0881 -0.4033
 5512SOL    HW128169   3.296   0.373   4.385 -1.6514  0.3483  1.4758
 5512SOL    HW228170   3.204   0.470   4.332 -0.3817 -2.3319 -0.0937
 5513SOL     OW28171   3.136   0.168   2.754  0.0576  0.0993  0.0501
 5513SOL    HW128172   3.051   0.212   2.750 -0.9473 -1.8955 -0.9050
 5513SOL    HW228173   3.189   0.210   2.687 -0.2574  0.9927  0.3597
 5514SOL     OW28174   4.245   1.896   4.799 -0.2660  0.1648 -0.2139
 5514SOL    HW128175   4.220   1.952   4.725  1.3394  1.7241  0.4517
 5514SOL    HW228176   4.255   1.818   4.743  0.4016 -0.1100  0.2913
 5515SOL     OW28177   2.233   3.336  10.302  0.2846 -0.4554 -0.3145
 5515SOL    HW128178   2.252   3.359  10.393  1.5159  1.2383 -1.0013
 5515SOL    HW228179   2.319   3.315  10.266 -0.1819 -0.5366 -1.3769
 5516SOL     OW28180   1.354   3.634   3.338  0.1100 -0.3722  0.6160
 5516SOL    HW128181   1.294   3.561   3.351 -0.6854  0.6089  2.4461
 5516SOL    HW228182   1.360   3.672   3.425  2.5570  1.0157 -0.1562
 5517SOL     OW28183   0.846   1.681   0.262 -0.3754 -0.1253  0.1550
 5517SOL    HW128184   0.806   1.599   0.290  1.2942 -1.2339 -0.6738
 5517SOL    HW228185   0.817   1.745   0.327 -0.5980 -0.4537  0.3773
 5518SOL     OW28186   0.895   1.459   9.396  0.4601 -0.1832 -0.0544
 5518SOL    HW128187   0.835   1.393   9.362  1.3128 -0.9820 -0.0054
 5518SOL    HW228188   0.861   1.466   9.486 -0.0206 -0.2799 -0.2294
 5519SOL     OW28189   3.319   1.225  10.606 -0.0850 -0.0059 -0.3352
 5519SOL    HW128190   3.252   1.183  10.553 -1.0797 -1.7280  2.3109
 5519SOL    HW228191   3.286   1.312  10.628  1.2150  0.3685  0.1856
 5520SOL     OW28192   3.073   2.372  10.766 -0.4661 -0.0790  0.1628
 5520SOL    HW128193   3.148   2.365  10.826 -0.9564 -1.1568  0.6658
 5520SOL    HW228194   3.011   2.304  10.793 -0.0548 -0.7265 -0.5309
 5521SOL     OW28195   3.596   2.454   7.769  0.3063 -0.2456  0.2541
 5521SOL    HW128196   3.603   2.531   7.713  1.9134 -1.1024 -0.7316
 5521SOL    HW228197   3.679   2.406   7.760 -0.1863 -0.7173 -1.6474
 5522SOL     OW28198   3.551   2.199   3.600 -0.0584  0.1551 -0.1213
 5522SOL    HW128199   3.557   2.208   3.505  0.6970  2.4394  0.1501
 5522SOL    HW228200   3.463   2.235   3.607  1.0917  3.1182 -1.0200
 5523SOL     OW28201   2.564   3.915   8.569  0.1927  0.6968  0.0027
 5523SOL    HW128202   2.559   4.009   8.552 -3.9524  0.1526 -1.6984
 5523SOL    HW228203   2.640   3.899   8.513 -1.4922 -0.3555 -1.9712
 5524SOL     OW28204   4.237   3.057   1.699  0.2222 -0.0528 -0.0022
 5524SOL    HW128205   4.251   3.118   1.772  1.8021 -0.9749  0.4613
 5524SOL    HW228206   4.145   3.076   1.682  0.4516 -0.1543 -1.3308
 5525SOL     OW28207   0.100   4.257  10.525 -0.0173 -0.2376 -0.8234
 5525SOL    HW128208   0.187   4.282  10.493  0.6418 -0.9693  0.4139
 5525SOL    HW228209   0.072   4.340  10.565  1.2132  0.0485 -0.5484
 5526SOL     OW28210   0.532   1.550   0.869 -0.4648 -0.4746  0.5360
 5526SOL    HW128211   0.553   1.457   0.881 -1.3209 -0.7671 -0.1818
 5526SOL    HW228212   0.465   1.556   0.937  0.4571 -0.3588  1.4296
 5527SOL     OW28213   4.581   0.657   7.218  0.4039  0.1955 -0.1366
 5527SOL    HW128214   4.558   0.568   7.245  0.4322  0.3903  0.5268
 5527SOL    HW228215   4.665   0.642   7.175  1.0707  0.0625  1.2453
 5528SOL     OW28216   4.679   4.032   6.840 -0.2399 -0.4351 -0.2744
 5528SOL    HW128217   0.030   4.070   6.831  0.3872 -2.1321 -1.3352
 5528SOL    HW228218   4.636   4.096   6.897 -0.6499 -0.7226 -0.2550
 5529SOL     OW28219   0.369   0.082   4.794  0.2297  0.1937  0.6148
 5529SOL    HW128220   0.376   4.729   4.763  0.0768  0.3108  0.2379
 5529SOL    HW228221   0.388   0.128   4.712 -0.4891 -0.8544 -0.1322
 5530SOL     OW28222   3.247   1.219   9.204 -0.4397 -0.0600 -0.1545
 5530SOL    HW128223   3.169   1.208   9.150 -0.8668  1.2492  0.2046
 5530SOL    HW228224   3.291   1.134   9.197  0.8606  0.5111  1.0428
 5531SOL     OW28225   3.613   3.105   3.081 -0.1756 -0.2567  0.4116
 5531SOL    HW128226   3.672   3.034   3.106  1.5311  0.2675 -2.1744
 5531SOL    HW228227   3.652   3.182   3.122 -0.4196 -2.6121  5.0705
 5532SOL     OW28228   1.584   2.128   5.804  0.3968  0.2683  0.1166
 5532SOL    HW128229   1.637   2.053   5.777  0.7456  0.5689 -0.0377
 5532SOL    HW228230   1.581   2.118   5.899 -0.8178 -0.3826  0.0126
 5533SOL     OW28231   1.854   1.625   7.434 -0.2076 -0.3689 -0.3330
 5533SOL    HW128232   1.946   1.597   7.427 -0.4281 -1.4425  0.9613
 5533SOL    HW228233   1.854   1.664   7.521  0.3819 -2.0045  0.4128
 5534SOL     OW28234   2.238   3.011   8.830  0.1384 -0.6211 -0.0082
 5534SOL    HW128235   2.169   2.999   8.765 -0.0365 -0.5234  0.1561
 5534SOL    HW228236   2.242   3.107   8.834  3.2849 -0.5798 -4.5227
 5535SOL     OW28237   1.660   4.432  11.803  0.2607  0.1478 -0.6029
 5535SOL    HW128238   1.685   4.502  11.743  2.0589 -0.5578 -0.6802
 5535SOL    HW228239   1.632   4.360  11.746 -0.6685  1.0136 -1.2495
 5536SOL     OW28240   4.018   1.620   3.105  0.4281 -0.1783  0.5416
 5536SOL    HW128241   3.963   1.691   3.136 -2.3267 -1.3566 -1.6372
 5536SOL    HW228242   3.977   1.589   3.024 -1.0025 -1.5613  1.7891
 5537SOL     OW28243   0.487   0.490   3.236 -0.2064  0.0095 -0.2303
 5537SOL    HW128244   0.562   0.459   3.288  0.5552  0.6753 -0.9291
 5537SOL    HW228245   0.472   0.422   3.171  1.6594 -2.6384  2.0726
 5538SOL     OW28246   3.283   4.600   0.557 -0.5446 -0.3213  0.3828
 5538SOL    HW128247   3.263   4.545   0.481  0.3639 -1.1247  0.7228
 5538SOL    HW228248   3.333   4.540   0.613  1.6453 -0.3840 -1.6390
 5539SOL     OW28249   4.239   3.431   4.814 -0.3116  0.1986  0.1677
 5539SOL    HW128250   4.320   3.452   4.860  1.2203  0.3622 -2.6254
 5539SOL    HW228251   4.275   3.353   4.772  0.4646 -0.1054  1.3790
 5540SOL     OW28252   2.691   2.233   5.482  0.3104  0.1407 -0.4445
 5540SOL    HW128253   2.752   2.304   5.461  0.1385  0.2149 -0.6803
 5540SOL    HW228254   2.665   2.251   5.573  1.1537 -1.8399  0.1968
 5541SOL     OW28255   4.527   2.279   2.387 -0.0490 -0.0129 -0.4858
 5541SOL    HW128256   4.561   2.258   2.300 -0.2844  2.1624 -1.0964
 5541SOL    HW228257   4.453   2.334   2.364 -2.3391 -2.7251  0.3706
 5542SOL     OW28258   2.478   3.505   3.390 -0.0770 -0.6209  0.6839
 5542SOL    HW128259   2.537   3.502   3.466  0.8628 -1.5897 -0.1033
 5542SOL    HW228260   2.436   3.591   3.391 -0.2056 -0.6674 -1.2841
 5543SOL     OW28261   0.624   4.400   7.555 -0.2586  0.8219  0.8922
 5543SOL    HW128262   0.688   4.471   7.566 -0.3419  1.1046 -0.4377
 5543SOL    HW228263   0.542   4.446   7.535 -0.8119 -0.8409 -0.7295
 5544SOL     OW28264   1.269   0.988   6.684  0.2559  0.4279  0.2705
 5544SOL    HW128265   1.198   1.029   6.636  1.0925  0.6578 -0.7617
 5544SOL    HW228266   1.230   0.946   6.761  1.2123 -2.7769 -0.9641
 5545SOL     OW28267   4.176   2.475   2.095 -0.0351 -0.1722  0.1709
 5545SOL    HW128268   4.266   2.443   2.097 -0.2472 -0.6934  1.5346
 5545SOL    HW228269   4.204   2.562   2.069 -1.2871 -1.0284 -4.0726
 5546SOL     OW28270   0.795   3.569   1.922  0.3602  0.9094 -0.3256
 5546SOL    HW128271   0.802   3.601   1.832 -0.3917 -0.9111 -1.0259
 5546SOL    HW228272   0.706   3.535   1.925  1.0837 -0.9087  0.9738
 5547SOL     OW28273   1.923   3.851   3.237  0.1737  0.6178 -0.0945
 5547SOL    HW128274   2.016   3.866   3.252  0.2100 -0.8536  1.2374
 5547SOL    HW228275   1.882   3.894   3.312 -0.5679  0.2075 -0.2604
 5548SOL     OW28276   2.279   2.536  12.503 -0.2931 -0.6669 -0.1052
 5548SOL    HW128277   2.342   2.474  12.538 -0.6408 -0.6530  0.5511
 5548SOL    HW228278   2.338   2.592  12.452 -1.1584  1.4822  1.2344
 5549SOL     OW28279   0.311   2.758   0.755  0.4215 -0.1324 -0.2519
 5549SOL    HW128280   0.297   2.806   0.673 -0.7298  0.0905  0.0794
 5549SOL    HW228281   0.232   2.711   0.782 -0.3804  2.0327  1.1974
 5550SOL     OW28282   1.740   4.130   9.288 -0.5664 -0.0933 -0.0891
 5550SOL    HW128283   1.664   4.072   9.290 -0.7295  0.2070  2.1311
 5550SOL    HW228284   1.697   4.212   9.265 -2.4445 -1.4343 -1.3349
 5551SOL     OW28285   2.302   1.492   3.660 -0.5477 -0.6495 -0.1708
 5551SOL    HW128286   2.391   1.495   3.693 -1.4184 -0.1222  2.0850
 5551SOL    HW228287   2.277   1.584   3.646 -0.9521 -0.8255 -0.6199
 5552SOL     OW28288   4.065   4.386   2.625 -0.0614  0.4037 -0.5814
 5552SOL    HW128289   4.077   4.399   2.719  2.1645  1.7668 -1.0526
 5552SOL    HW228290   3.990   4.443   2.606 -0.0856  1.1571  1.8827
 5553SOL     OW28291   1.012   3.514   1.659 -0.1798 -0.2463  0.1542
 5553SOL    HW128292   0.982   3.426   1.685  3.5979 -1.8996 -1.0789
 5553SOL    HW228293   1.053   3.541   1.740 -0.1536 -1.0091  0.4016
 5554SOL     OW28294   3.887   0.598   3.673 -0.0893 -0.5033  0.9464
 5554SOL    HW128295   3.927   0.666   3.618  1.3996 -1.1818  1.1892
 5554SOL    HW228296   3.870   0.530   3.608 -0.4588  0.1566  0.3503
 5555SOL     OW28297   1.840   3.394  10.363 -0.5274 -0.1948  0.6001
 5555SOL    HW128298   1.814   3.420  10.274  0.9931 -2.2456 -0.4667
 5555SOL    HW228299   1.763   3.362  10.409  0.6618 -1.4350  1.7379
 5556SOL     OW28300   1.422   3.721   3.589 -0.5443 -0.4678  0.3486
 5556SOL    HW128301   1.368   3.693   3.663  0.2573 -2.0616  0.3281
 5556SOL    HW228302   1.406   3.815   3.598  2.2121 -0.0376  0.9514
 5557SOL     OW28303   0.906   1.561   1.161  0.2950  0.2146 -0.2585
 5557SOL    HW128304   0.990   1.587   1.198 -0.3192 -0.6145  1.7204
 5557SOL    HW228305   0.914   1.465   1.161  1.4909  0.3104 -1.3956
 5558SOL     OW28306   2.568   2.035  15.990 -0.5952 -0.6865 -0.2307
 5558SOL    HW128307   2.513   2.096  16.041  2.9280  1.0561  1.4846
 5558SOL    HW228308   2.510   2.011  15.918 -1.8403  1.9841 -0.1173
 5559SOL     OW28309   4.071   0.827  12.042  0.2093 -0.4711 -0.4473
 5559SOL    HW128310   4.062   0.850  12.134 -0.8550 -1.9307 -0.1865
 5559SOL    HW228311   4.063   0.915  12.004 -0.1176 -0.8599 -1.2753
 5560SOL     OW28312   2.068   4.653   3.748  0.1993 -0.4899 -0.6209
 5560SOL    HW128313   2.012   4.711   3.800 -0.4309 -1.8440  0.1917
 5560SOL    HW228314   2.066   4.570   3.795  3.6275 -0.6101 -0.7009
 5561SOL     OW28315   1.669   1.760   8.104  0.1390 -0.2431 -0.4613
 5561SOL    HW128316   1.764   1.766   8.114  0.4485 -4.8080 -0.9960
 5561SOL    HW228317   1.656   1.667   8.122  0.2833 -0.1934 -0.1023
 5562SOL     OW28318   1.203   2.561   1.635 -0.4769 -0.0159  0.0433
 5562SOL    HW128319   1.225   2.626   1.702  0.8760  1.3361 -1.7066
 5562SOL    HW228320   1.181   2.485   1.688  0.7621 -0.0869  0.4669
 5563SOL     OW28321   3.799   3.017   7.938 -0.4408 -0.5235 -0.1604
 5563SOL    HW128322   3.744   3.052   8.008 -1.9297  3.2906 -3.2549
 5563SOL    HW228323   3.831   3.099   7.901 -0.7037 -0.7279 -0.8414
 5564SOL     OW28324   4.312   2.357   4.924  0.2919  0.3598 -0.2615
 5564SOL    HW128325   4.380   2.400   4.872  1.2943  1.1285  1.6716
 5564SOL    HW228326   4.277   2.424   4.983  2.0639  0.6399  0.4816
 5565SOL     OW28327   4.676   4.200   3.268  0.2221  0.1549 -0.0527
 5565SOL    HW128328   4.622   4.251   3.208  1.5795  3.3333  1.4700
 5565SOL    HW228329   0.030   4.206   3.238  0.2743  1.8643  0.4759
 5566SOL     OW28330   2.792   0.028   2.805 -0.1326 -0.3493 -0.0402
 5566SOL    HW128331   2.794   0.120   2.781 -0.0054 -0.2525  0.3466
 5566SOL    HW228332   2.884   0.006   2.819 -0.8684 -2.3705  1.6173
 5567SOL     OW28333   1.562   2.501  11.043 -0.4199 -0.0168  0.1734
 5567SOL    HW128334   1.638   2.556  11.026 -0.6509  0.8819  2.0146
 5567SOL    HW228335   1.589   2.419  11.002 -1.6827 -0.5094  0.3311
 5568SOL     OW28336   1.038   2.680   6.709  0.2464  0.2898 -0.2770
 5568SOL    HW128337   1.108   2.715   6.764  1.2714 -2.2943  0.1030
 5568SOL    HW228338   0.980   2.755   6.717 -0.3020  0.1396 -2.9454
 5569SOL     OW28339   4.683   0.942   6.822 -0.1888  0.0743 -0.2337
 5569SOL    HW128340   4.672   0.896   6.739  0.3694 -1.4338  0.5254
 5569SOL    HW228341   0.029   0.903   6.851 -0.5960 -1.9013 -1.7245
 5570SOL     OW28342   3.587   4.666   8.211 -0.2278  0.5024 -0.0550
 5570SOL    HW128343   3.607   0.021   8.226 -0.1670  0.6730 -1.1728
 5570SOL    HW228344   3.499   4.689   8.181 -0.4054 -1.8671 -1.3950
 5571SOL     OW28345   4.334   2.051   9.474 -0.1881 -0.2572  0.1326
 5571SOL    HW128346   4.359   1.961   9.492  1.2749  0.6890  2.8340
 5571SOL    HW228347   4.261   2.076   9.532 -0.3298  1.4228 -0.7560
 5572SOL     OW28348   2.638   4.707   2.458 -0.5619  0.0383 -0.3013
 5572SOL    HW128349   2.721   4.663   2.476  0.9237  2.8696 -0.1752
 5572SOL    HW228350   2.590   4.698   2.540  3.1623 -0.6352  1.8056
 5573SOL     OW28351   2.026   1.487   2.754 -0.7643  0.2128  0.1955
 5573SOL    HW128352   2.091   1.553   2.731 -1.7380  1.2548  0.4585
 5573SOL    HW228353   2.062   1.467   2.841  3.2419  1.2992 -1.1917
 5574SOL     OW28354   1.129   1.003   7.136  0.3991  0.0880  0.1875
 5574SOL    HW128355   1.070   1.021   7.209 -1.3871  1.4688 -1.6035
 5574SOL    HW228356   1.214   1.017   7.179 -0.5648  0.6675  1.9275
 5575SOL     OW28357   2.085   0.743   7.783 -0.2017 -0.2022 -0.0137
 5575SOL    HW128358   2.125   0.801   7.848  2.0921 -1.7224 -0.0700
 5575SOL    HW228359   2.025   0.808   7.746 -0.2095  0.0339  0.4192
 5576SOL     OW28360   3.949   1.255   2.371  0.2795  0.3533 -0.2912
 5576SOL    HW128361   3.887   1.190   2.337  1.4316 -0.7654 -0.2788
 5576SOL    HW228362   3.939   1.245   2.466  0.4579 -0.3856 -0.3502
 5577SOL     OW28363   0.747   0.049   4.618 -0.0865 -0.1432 -0.2386
 5577SOL    HW128364   0.841   0.063   4.629  0.0220  1.4582 -3.1164
 5577SOL    HW228365   0.732   4.702   4.661  0.8045 -1.0857 -1.7331
 5578SOL     OW28366   2.239   1.140   8.647 -0.0542 -0.2715 -0.2785
 5578SOL    HW128367   2.193   1.117   8.728 -1.4253  0.5321 -0.8290
 5578SOL    HW228368   2.270   1.057   8.611 -0.1131  0.0508 -1.0725
 5579SOL     OW28369   0.685   2.547   1.077  0.0560  0.5326 -0.0451
 5579SOL    HW128370   0.768   2.535   1.123 -0.5327  1.9079  1.3999
 5579SOL    HW228371   0.684   2.461   1.036  2.1395  0.3951  0.2084
 5580SOL     OW28372   1.089   1.073   4.566  0.9735  0.7335 -0.1586
 5580SOL    HW128373   1.067   1.062   4.659  0.1842  0.9534 -0.3197
 5580SOL    HW228374   1.095   0.980   4.543  0.0646  0.3925  1.0132
 5581SOL     OW28375   4.157   3.821   2.910  0.0365  0.2417 -0.0323
 5581SOL    HW128376   4.235   3.782   2.949  1.0806  1.2188 -1.1241
 5581SOL    HW228377   4.195   3.906   2.887  0.5329 -0.0759 -0.3663
 5582SOL     OW28378   1.037   1.029   5.117  0.3913 -0.2829  0.1700
 5582SOL    HW128379   1.094   1.105   5.107 -0.1678  0.0048 -0.8546
 5582SOL    HW228380   0.953   1.066   5.144  0.8706  1.6992 -1.0686
 5583SOL     OW28381   2.613   3.352  17.434 -0.5281 -0.3815  0.0584
 5583SOL    HW128382   2.561   3.339  17.354  0.4569  0.9154 -0.7888
 5583SOL    HW228383   2.613   3.448  17.433  1.4330 -0.3851 -1.6513
 5584SOL     OW28384   4.269   4.132   4.787 -0.6803  0.3912 -0.3596
 5584SOL    HW128385   4.200   4.068   4.804 -0.7237  1.0421  1.9121
 5584SOL    HW228386   4.313   4.085   4.716  1.3732 -2.8947  3.1256
 5585SOL     OW28387   2.663   3.939   2.276 -0.2408 -0.3716 -0.1511
 5585SOL    HW128388   2.608   3.881   2.328 -2.6989  1.0344 -1.2021
 5585SOL    HW228389   2.654   4.024   2.319  1.3035 -0.0293 -0.4805
 5586SOL     OW28390   3.837   0.021   6.947  0.1740  0.9665  0.1508
 5586SOL    HW128391   3.768   4.724   7.005 -0.2894  1.6910  0.0257
 5586SOL    HW228392   3.887   4.678   6.933 -0.9940  0.0971  0.9348
 5587SOL     OW28393   3.046   2.799   2.610  0.2294  0.5160 -0.0463
 5587SOL    HW128394   3.048   2.884   2.654  0.9918  0.2268  0.4810
 5587SOL    HW228395   3.079   2.833   2.527  2.0629 -0.0407  0.4472
 5588SOL     OW28396   2.390   2.300   5.456 -0.4009 -0.7151 -0.7123
 5588SOL    HW128397   2.351   2.345   5.381  0.2020  1.5130  0.3117
 5588SOL    HW228398   2.470   2.263   5.418  0.2782  1.0734 -1.0332
 5589SOL     OW28399   3.429   3.380  10.316  0.3145  0.5503 -0.0230
 5589SOL    HW128400   3.494   3.361  10.248 -1.8650  0.0857 -1.9768
 5589SOL    HW228401   3.460   3.332  10.393  3.7442  1.4547 -0.8828
 5590SOL     OW28402   0.107   3.025   6.283 -0.2934 -0.6605 -0.1585
 5590SOL    HW128403   0.047   2.974   6.338  1.4221 -1.4946  0.9266
 5590SOL    HW228404   0.078   2.982   6.202  0.3342  1.2722 -1.4234
 5591SOL     OW28405   1.416   3.512  16.772 -0.6862 -0.7145 -0.4531
 5591SOL    HW128406   1.356   3.560  16.715  0.1522  1.5883  0.5807
 5591SOL    HW228407   1.360   3.445  16.812  0.3440 -1.9445 -1.0867
 5592SOL     OW28408   1.278   1.732  10.454  0.2403 -0.2029  0.1109
 5592SOL    HW128409   1.354   1.773  10.414  0.6767 -0.4541  0.6803
 5592SOL    HW228410   1.209   1.780  10.408  0.8252  0.4929 -0.0309
 5593SOL     OW28411   1.098   0.959   7.432 -0.1363 -0.6353  0.1752
 5593SOL    HW128412   1.066   0.876   7.468  1.3014 -1.5571 -0.6157
 5593SOL    HW228413   1.033   1.019   7.466 -0.1045 -1.2633  1.3263
 5594SOL     OW28414   0.540   3.858   3.932  0.7486 -0.2834  0.2300
 5594SOL    HW128415   0.466   3.801   3.956  0.3624 -0.1511 -0.6580
 5594SOL    HW228416   0.587   3.862   4.015 -0.3249  1.0467  0.7801
 5595SOL     OW28417   4.520   2.789  12.863 -0.0850 -0.0223 -0.0997
 5595SOL    HW128418   4.430   2.786  12.893  0.4667 -0.7049  1.5041
 5595SOL    HW228419   4.554   2.718  12.917  0.0280 -0.4464 -0.7328
 5596SOL     OW28420   3.314   0.063   9.698 -0.1561  0.6083  0.2185
 5596SOL    HW128421   3.378   0.029   9.760 -0.3477 -1.9708 -0.9781
 5596SOL    HW228422   3.278   4.718   9.663 -1.6749  0.9038  1.0650
 5597SOL     OW28423   0.993   2.550   6.366 -0.3385 -0.1150 -0.3770
 5597SOL    HW128424   1.038   2.483   6.314  1.0679  0.9061 -0.4814
 5597SOL    HW228425   1.064   2.601   6.405  0.3679 -1.2798 -0.1627
 5598SOL     OW28426   0.004   1.244   5.450 -0.2394 -0.0398  0.3006
 5598SOL    HW128427   4.708   1.206   5.369 -1.6351  1.7171  0.0406
 5598SOL    HW228428   0.099   1.237   5.437 -0.0814 -1.6434  2.3098
 5599SOL     OW28429   3.388   3.535   5.928 -0.2390  0.0893  0.1256
 5599SOL    HW128430   3.410   3.623   5.959  0.4898 -0.4845  1.2417
 5599SOL    HW228431   3.292   3.542   5.926 -0.3237 -1.5647 -1.3004
 5600SOL     OW28432   2.557   1.721   1.275  0.2359 -0.2535 -0.5139
 5600SOL    HW128433   2.570   1.653   1.341 -1.3457  0.2143  0.2869
 5600SOL    HW228434   2.502   1.778   1.329  0.6626 -0.4490  0.1390
 5601SOL     OW28435   3.662   1.128  12.860 -0.5981  0.3530 -0.0615
 5601SOL    HW128436   3.669   1.220  12.883 -0.0798  0.6931 -1.5549
 5601SOL    HW228437   3.745   1.099  12.897 -0.1080  1.4599 -0.3027
 5602SOL     OW28438   1.053   4.236   9.356  0.5168 -0.4194 -0.0470
 5602SOL    HW128439   0.977   4.262   9.408  0.1670  0.9308 -1.2384
 5602SOL    HW228440   1.089   4.164   9.409  0.2535 -1.1529 -0.8593
 5603SOL     OW28441   2.526   2.441   9.323  0.4199  0.8960 -0.3307
 5603SOL    HW128442   2.546   2.418   9.233 -0.2156  1.2262 -0.5549
 5603SOL    HW228443   2.562   2.363   9.365 -1.9568  0.8008  1.5766
 5604SOL     OW28444   0.860   3.216   9.270  0.3234  0.0587  0.1038
 5604SOL    HW128445   0.884   3.286   9.209 -0.0907  0.4104  0.3429
 5604SOL    HW228446   0.914   3.144   9.238  2.0067  2.3262 -2.0551
 5605SOL     OW28447   3.568   1.457   8.544 -0.1236  0.2034 -0.8929
 5605SOL    HW128448   3.504   1.428   8.479  0.0834  1.5915 -1.7166
 5605SOL    HW228449   3.647   1.433   8.495  0.9869  0.7443  0.6127
 5606SOL     OW28450   0.644   0.214  16.264  0.5580  0.1881  0.3185
 5606SOL    HW128451   0.550   0.212  16.244  1.4292  0.3127 -3.8462
 5606SOL    HW228452   0.677   0.190  16.177  1.6634 -0.2042  0.8521
 5607SOL     OW28453   4.412   1.391   9.307  0.2657  0.5482 -0.3012
 5607SOL    HW128454   4.394   1.300   9.283  2.0832 -0.1541  0.9569
 5607SOL    HW228455   4.468   1.396   9.385  0.3743  2.8550 -0.5084
 5608SOL     OW28456   3.621   3.297   2.265  0.3723 -0.6505  0.2925
 5608SOL    HW128457   3.584   3.290   2.352 -0.7249 -0.7595 -0.1840
 5608SOL    HW228458   3.561   3.253   2.204  1.4686 -1.8051  0.0437
 5609SOL     OW28459   4.135   3.806   8.749 -0.3711  0.0056 -0.7652
 5609SOL    HW128460   4.214   3.853   8.777  0.9730 -1.3098 -2.2899
 5609SOL    HW228461   4.065   3.863   8.781  0.3747 -0.3144  1.4324
 5610SOL     OW28462   4.245   1.742   4.587 -0.0371  0.3252 -0.1573
 5610SOL    HW128463   4.207   1.655   4.581  1.2624 -0.4442  2.9966
 5610SOL    HW228464   4.198   1.783   4.515  0.0379 -1.0440 -0.9820
 5611SOL     OW28465   4.727   1.348   6.555 -0.2222  0.1350  0.5902
 5611SOL    HW128466   4.679   1.336   6.637 -1.4465  2.9098  0.3009
 5611SOL    HW228467   0.045   1.422   6.579  0.4799 -0.0400 -0.4976
 5612SOL     OW28468   2.643   4.018  13.517  0.1364  0.1149 -0.2023
 5612SOL    HW128469   2.566   4.045  13.467 -1.5621  1.3416  3.0685
 5612SOL    HW228470   2.604   3.998  13.602 -0.3710  3.4011  0.3331
 5613SOL     OW28471   0.937   1.893   4.184 -0.4410 -0.2650  0.1575
 5613SOL    HW128472   1.030   1.901   4.167 -0.6016 -0.6909 -0.9254
 5613SOL    HW228473   0.917   1.985   4.202  2.3794  0.2461  0.5582
 5614SOL     OW28474   0.986   0.803   4.761  0.1289  0.0839  0.5169
 5614SOL    HW128475   1.019   0.801   4.851 -0.0949  0.7996  0.6080
 5614SOL    HW228476   0.904   0.852   4.767  0.0940 -0.1673  2.0570
 5615SOL     OW28477   4.677   4.041   4.018 -0.0365 -0.4036  0.4242
 5615SOL    HW128478   0.028   4.009   4.039 -0.1964 -0.6896  0.6382
 5615SOL    HW228479   4.677   4.023   3.924  2.7679 -1.2490  0.5721
 5616SOL     OW28480   2.386   0.415   3.116 -0.3831 -0.0808  0.5094
 5616SOL    HW128481   2.350   0.406   3.205  0.5329 -1.0722  0.7872
 5616SOL    HW228482   2.374   0.508   3.097  0.0619  0.1252  1.2512
 5617SOL     OW28483   3.351   1.799   6.517  0.4765 -0.1114 -0.1004
 5617SOL    HW128484   3.418   1.735   6.542 -2.5806 -2.1032  2.9748
 5617SOL    HW228485   3.398   1.849   6.451  0.3932  1.5439  1.0902
 5618SOL     OW28486   1.542   3.946   3.960  0.2280  0.4307 -0.1266
 5618SOL    HW128487   1.535   4.016   3.895  0.2242  0.3038 -0.2636
 5618SOL    HW228488   1.629   3.916   3.933 -0.0882  1.1448 -1.9294
 5619SOL     OW28489   3.045   0.870   8.015  0.7914 -0.1731 -0.1694
 5619SOL    HW128490   3.071   0.841   7.928 -1.1531 -0.1248 -0.7779
 5619SOL    HW228491   3.128   0.887   8.059  0.8271  0.3047 -0.4184
 5620SOL     OW28492   2.442   2.738   5.470 -0.0882  0.3155 -0.8021
 5620SOL    HW128493   2.526   2.708   5.505  0.5693  2.7231 -0.2716
 5620SOL    HW228494   2.450   2.754   5.376 -0.6087  0.6341 -0.7901
 5621SOL     OW28495   0.805   1.958  16.276  0.3419  0.3574 -0.2949
 5621SOL    HW128496   0.748   2.028  16.244 -0.3587 -0.2931 -0.4814
 5621SOL    HW228497   0.784   1.958  16.369  1.0490 -0.3380 -0.1327
 5622SOL     OW28498   0.233   1.586   3.812 -0.0231 -0.3989 -0.5940
 5622SOL    HW128499   0.216   1.492   3.820 -1.0440 -0.2077 -0.5489
 5622SOL    HW228500   0.192   1.599   3.727  1.0764 -1.2684 -1.2523
 5623SOL     OW28501   4.279   1.793   3.848 -0.7867 -0.0931  0.6974
 5623SOL    HW128502   4.204   1.840   3.886  0.1993 -0.0567  2.6272
 5623SOL    HW228503   4.294   1.717   3.904 -1.5677 -2.1613 -1.9552
 5624SOL     OW28504   4.314   3.885  10.370  0.3728 -0.6470  0.6321
 5624SOL    HW128505   4.358   3.835  10.439  2.3837 -1.7518 -1.4494
 5624SOL    HW228506   4.368   3.861  10.295 -0.1486  0.9483 -0.2347
 5625SOL     OW28507   3.686   4.528   8.017 -0.0397  0.3130  0.0284
 5625SOL    HW128508   3.651   4.575   8.092  0.5688  3.1548 -1.4788
 5625SOL    HW228509   3.778   4.528   8.042  0.2154 -3.1371 -0.9622
 5626SOL     OW28510   3.843   3.744  17.181  0.2451  1.1109 -0.4952
 5626SOL    HW128511   3.924   3.774  17.140  0.7155 -0.3252 -0.6371
 5626SOL    HW228512   3.885   3.702  17.257 -0.3611  2.6052  0.6650
 5627SOL     OW28513   4.711   4.080  11.414 -0.4226  0.1181  0.1420
 5627SOL    HW128514   4.637   4.027  11.382  0.2233 -0.4885 -0.3423
 5627SOL    HW228515   4.696   4.158  11.360 -0.0580  0.1142  0.0384
 5628SOL     OW28516   4.633   0.326  15.430 -0.2117 -0.1579 -0.1195
 5628SOL    HW128517   4.695   0.362  15.367  1.9124  0.1966  2.1871
 5628SOL    HW228518   4.656   0.369  15.512  0.8748  0.5396 -0.7932
 5629SOL     OW28519   1.104   2.946  16.823 -0.0879 -0.0250  0.0463
 5629SOL    HW128520   1.177   2.966  16.765 -1.0561  1.2117 -0.7445
 5629SOL    HW228521   1.046   3.020  16.802  0.3392  1.2298  3.2105
 5630SOL     OW28522   3.145   3.587   8.431  0.5871  0.1761 -0.4807
 5630SOL    HW128523   3.144   3.492   8.430 -1.1124  0.1970 -0.6503
 5630SOL    HW228524   3.124   3.604   8.340 -1.8364  0.4919  0.1294
 5631SOL     OW28525   1.301   2.581  10.974  0.1135 -0.0422 -0.2197
 5631SOL    HW128526   1.249   2.609  11.049  3.5418 -0.8002  2.4019
 5631SOL    HW228527   1.384   2.565  11.019 -0.4334  2.0835  1.5170
 5632SOL     OW28528   0.913   3.098   6.356  0.2837 -0.3227  0.0409
 5632SOL    HW128529   0.854   3.131   6.424  1.4554 -0.0579  0.9297
 5632SOL    HW228530   0.870   3.106   6.271  2.2250  2.7158 -0.6602
 5633SOL     OW28531   0.700   0.605   7.230  0.0848  0.4115  0.4922
 5633SOL    HW128532   0.613   0.575   7.204  0.6139 -1.0036  0.3263
 5633SOL    HW228533   0.750   0.573   7.155 -1.1342 -0.4895  0.0619
 5634SOL     OW28534   0.048   0.272   3.897  0.1675 -0.2334 -0.5699
 5634SOL    HW128535   0.066   0.182   3.925 -1.2522  0.3253  2.1905
 5634SOL    HW228536   0.054   0.269   3.802 -1.7726 -0.3572 -0.6730
 5635SOL     OW28537   3.296   1.118  15.981  0.4106 -0.4036 -0.3476
 5635SOL    HW128538   3.301   1.039  16.034 -1.3370  0.1261  0.5994
 5635SOL    HW228539   3.261   1.188  16.037  1.3079  0.2147 -0.5596
 5636SOL     OW28540   2.386   1.946  10.392  0.2172 -0.4970  0.1101
 5636SOL    HW128541   2.356   1.932  10.482  2.8428 -0.2443  1.0288
 5636SOL    HW228542   2.437   1.865  10.383 -0.5477 -0.9254 -0.3073
 5637SOL     OW28543   0.990   1.738  17.116 -0.4471  0.0800 -0.0232
 5637SOL    HW128544   1.053   1.676  17.152 -0.6841  0.4740  1.0753
 5637SOL    HW228545   1.009   1.737  17.023 -1.4627 -0.2815 -0.2311
 5638SOL     OW28546   2.175   0.137  16.455 -0.6541 -0.2484 -0.3439
 5638SOL    HW128547   2.080   0.130  16.463 -0.8271  3.3470  0.5891
 5638SOL    HW228548   2.164   0.175  16.368  0.9084 -0.4737 -0.6506
 5639SOL     OW28549   1.822   3.452   3.808 -0.0446  0.1836 -0.5559
 5639SOL    HW128550   1.804   3.499   3.889 -0.0870 -0.0888 -0.4058
 5639SOL    HW228551   1.896   3.503   3.777 -0.2787  1.0799  0.3842
 5640SOL     OW28552   2.434   2.782   7.741  0.0152  0.0445 -0.3161
 5640SOL    HW128553   2.487   2.861   7.734  0.9908 -0.6233 -0.4965
 5640SOL    HW228554   2.483   2.719   7.688  1.3979  1.3019 -0.5172
 5641SOL     OW28555   1.882   3.275   7.125  0.6724  0.2870  0.2306
 5641SOL    HW128556   1.819   3.258   7.195  1.0024 -0.3354  0.3775
 5641SOL    HW228557   1.829   3.241   7.052  0.4817 -0.2204  0.6020
 5642SOL     OW28558   0.838   3.581   6.141  0.9140 -0.0228 -0.6269
 5642SOL    HW128559   0.933   3.570   6.144  1.3427  3.1393 -2.1305
 5642SOL    HW228560   0.803   3.505   6.187  0.1149  1.3430  1.0084
 5643SOL     OW28561   1.168   1.822  10.790 -0.6984 -0.8685 -0.0593
 5643SOL    HW128562   1.233   1.779  10.735 -0.5043  0.4768 -0.8836
 5643SOL    HW228563   1.121   1.869  10.721  1.0549 -0.0268 -0.6588
 5644SOL     OW28564   0.753   2.779  13.637  0.0422 -0.3372 -0.0664
 5644SOL    HW128565   0.848   2.774  13.631 -0.0131 -0.0626 -1.0489
 5644SOL    HW228566   0.737   2.730  13.556 -0.4446 -0.3777  0.0508
 5645SOL     OW28567   2.597   0.728   4.673  0.2925 -0.0739 -0.1470
 5645SOL    HW128568   2.606   0.813   4.630  2.4891 -0.9442 -1.3829
 5645SOL    HW228569   2.516   0.737   4.723  0.0992 -0.4164 -0.3969
 5646SOL     OW28570   3.678   1.306   0.422  0.2638 -0.0206 -0.3970
 5646SOL    HW128571   3.626   1.385   0.412  1.1439  0.1011 -3.9039
 5646SOL    HW228572   3.766   1.344   0.419  0.6441 -0.8510  0.2292
 5647SOL     OW28573   3.946   0.058   8.826 -0.1644  0.6990  0.1351
 5647SOL    HW128574   4.003   0.016   8.762 -1.3162  0.5014 -0.7558
 5647SOL    HW228575   3.949   4.735   8.901 -0.4924  0.6210  0.0851
 5648SOL     OW28576   2.953   4.574  17.607 -0.0413  0.4355 -0.2357
 5648SOL    HW128577   2.868   4.612  17.632 -0.4588 -0.5115 -0.2222
 5648SOL    HW228578   2.961   4.606  17.518  0.3733 -2.9154 -1.3873
 5649SOL     OW28579   2.375   2.168   4.932 -0.6235  0.3720 -0.2088
 5649SOL    HW128580   2.441   2.137   4.994 -1.0376  0.2349  0.1644
 5649SOL    HW228581   2.425   2.140   4.855 -2.1026 -1.7903 -0.3813
 5650SOL     OW28582   0.459   1.125   2.905  0.0923  0.4531 -0.1223
 5650SOL    HW128583   0.480   1.079   2.987  0.6009 -1.6090 -1.3931
 5650SOL    HW228584   0.542   1.128   2.856 -0.3254 -1.3610 -0.9587
 5651SOL     OW28585   1.045   3.237   6.829 -0.8061  0.2594  0.4181
 5651SOL    HW128586   1.094   3.268   6.753 -2.0867 -1.3274 -1.0693
 5651SOL    HW228587   1.005   3.321   6.849  1.0315  1.2392 -0.0623
 5652SOL     OW28588   1.155   3.236   5.397 -0.2586  0.1462 -0.1149
 5652SOL    HW128589   1.105   3.155   5.397  1.4065 -0.8805 -2.0992
 5652SOL    HW228590   1.233   3.204   5.443 -1.2377 -0.2807  1.2305
 5653SOL     OW28591   3.106   3.566   2.893  0.1381  0.5993 -0.1373
 5653SOL    HW128592   3.112   3.537   2.802 -1.2015 -1.7090  0.5018
 5653SOL    HW228593   3.023   3.526   2.918  0.7732  0.2619  1.3947
 5654SOL     OW28594   2.948   1.913   5.020 -0.1505 -0.1793 -0.3156
 5654SOL    HW128595   2.908   1.884   5.101  2.8676  1.0818  1.6242
 5654SOL    HW228596   2.944   2.008   5.030  0.2829 -0.4530  2.4746
 5655SOL     OW28597   4.288   4.444  10.026  0.3852 -0.0939  0.1399
 5655SOL    HW128598   4.290   4.529  10.069  1.8599 -1.2237  2.2850
 5655SOL    HW228599   4.213   4.467   9.971 -0.2519 -1.8535  0.2806
 5656SOL     OW28600   0.918   0.191  13.144  0.2318  0.0036 -0.2277
 5656SOL    HW128601   0.905   0.237  13.061 -0.9235  0.8250  0.3949
 5656SOL    HW228602   0.860   0.239  13.204 -1.0663  0.9849 -2.2625
 5657SOL     OW28603   4.694   1.280  15.624  0.3668 -0.0494  0.2807
 5657SOL    HW128604   4.635   1.286  15.699 -0.7663  0.0150 -0.6229
 5657SOL    HW228605   4.652   1.338  15.560 -0.9217 -0.0004  1.1689
 5658SOL     OW28606   2.381   3.871   9.066 -0.2214 -0.7156  0.1230
 5658SOL    HW128607   2.314   3.834   9.009 -2.4956  2.4066  0.7999
 5658SOL    HW228608   2.449   3.855   9.000  0.0314 -1.6984  0.6420
 5659SOL     OW28609   0.871   1.100   5.733  0.0276  0.1204  0.3863
 5659SOL    HW128610   0.809   1.166   5.763  0.8300  0.5061  1.1928
 5659SOL    HW228611   0.826   1.088   5.649 -1.0131  1.0029  0.8203
 5660SOL     OW28612   1.073   2.226   4.598 -0.0337  0.7235  0.2636
 5660SOL    HW128613   1.164   2.198   4.590  0.1634  1.5114 -0.3203
 5660SOL    HW228614   1.089   2.278   4.676 -1.5699 -0.0957  1.1209
 5661SOL     OW28615   2.272   0.749   5.763 -0.0222 -0.2532  0.6174
 5661SOL    HW128616   2.353   0.782   5.802  0.7137 -0.8551 -0.3855
 5661SOL    HW228617   2.203   0.812   5.783  2.1814  2.5471 -0.5647
 5662SOL     OW28618   4.269   4.010   5.503 -0.4554  0.4305  0.1066
 5662SOL    HW128619   4.355   4.051   5.516 -0.1897  0.2173 -1.0178
 5662SOL    HW228620   4.253   3.962   5.584 -1.1155 -1.6529 -1.2765
 5663SOL     OW28621   3.773   4.420   8.873 -0.3370  0.1005  0.3604
 5663SOL    HW128622   3.700   4.474   8.900 -1.4960 -1.0684 -0.4436
 5663SOL    HW228623   3.739   4.349   8.819 -1.1061  0.5934  0.1999
 5664SOL     OW28624   4.260   2.631   3.001  0.4619 -0.0887 -0.5728
 5664SOL    HW128625   4.283   2.697   2.935  0.3486  0.3520 -0.1695
 5664SOL    HW228626   4.224   2.687   3.070  1.5454  0.0273 -0.0975
 5665SOL     OW28627   1.855   0.620   2.594  0.0877 -0.2464 -0.0686
 5665SOL    HW128628   1.768   0.603   2.631 -0.2321 -0.1573 -0.7934
 5665SOL    HW228629   1.906   0.662   2.663 -0.5165  1.0941 -0.4497
 5666SOL     OW28630   0.849   2.041   0.125 -0.2482 -0.3592  0.6936
 5666SOL    HW128631   0.922   2.089   0.088 -0.8520  0.3841  0.4597
 5666SOL    HW228632   0.889   2.009   0.206 -0.5965  0.6166  1.2445
 5667SOL     OW28633   2.568   4.449   9.067  0.2568 -0.1356 -0.2484
 5667SOL    HW128634   2.659   4.477   9.055  0.5050 -0.8094  0.0287
 5667SOL    HW228635   2.563   4.388   9.141 -0.5035  1.1212  0.7284
 5668SOL     OW28636   2.010   2.790   8.068  0.2220  0.6477  0.4542
 5668SOL    HW128637   1.975   2.789   7.979 -0.3853  0.8515  0.6932
 5668SOL    HW228638   1.991   2.880   8.094 -2.2140 -0.0793  1.0968
 5669SOL     OW28639   3.826   3.351   4.260 -0.1421 -0.3622 -0.1179
 5669SOL    HW128640   3.815   3.258   4.281  0.3346 -0.5366 -0.6567
 5669SOL    HW228641   3.778   3.399   4.329 -1.9140 -1.6084 -0.4705
 5670SOL     OW28642   0.739   3.597   0.664  0.0751  0.1650 -0.1450
 5670SOL    HW128643   0.727   3.667   0.728 -1.0436 -2.2077  2.2788
 5670SOL    HW228644   0.651   3.558   0.666 -0.0715  0.5345  0.5623
 5671SOL     OW28645   1.452   4.299   2.479  0.4147 -0.3325  0.5500
 5671SOL    HW128646   1.417   4.242   2.412  1.6245 -1.1721  0.6322
 5671SOL    HW228647   1.492   4.230   2.532 -0.9961 -0.5432  1.3322
 5672SOL     OW28648   4.407   0.097   4.996  0.5144  0.6966 -0.0703
 5672SOL    HW128649   4.379   0.006   5.001 -0.5927  1.0475  0.1778
 5672SOL    HW228650   4.391   0.129   5.084  0.1833  0.0364  0.1079
 5673SOL     OW28651   1.153   3.128   5.767 -0.1771 -0.2066 -0.4386
 5673SOL    HW128652   1.091   3.200   5.780 -0.3376 -0.1477 -1.5326
 5673SOL    HW228653   1.210   3.131   5.843  1.5413 -2.6843 -1.6399
 5674SOL     OW28654   2.610   0.574   8.977  0.2785  0.2664  0.1935
 5674SOL    HW128655   2.676   0.586   9.045  1.6071 -2.7584 -0.5602
 5674SOL    HW228656   2.644   0.498   8.931 -2.3129 -1.1830  0.6540
 5675SOL     OW28657   1.969   4.514   7.816 -0.4511  0.6574  0.2903
 5675SOL    HW128658   1.942   4.511   7.908  0.4738 -0.8282  0.5286
 5675SOL    HW228659   1.888   4.479   7.780  0.7550  0.2795 -2.0211
 5676SOL     OW28660   0.380   4.423  12.765 -0.5934  0.2001  0.4788
 5676SOL    HW128661   0.405   4.502  12.716 -0.7492  0.1151  0.2602
 5676SOL    HW228662   0.431   4.350  12.730  0.7548  0.9460  0.9131
 5677SOL     OW28663   2.782   4.701   3.824 -0.2386  0.0626  0.1897
 5677SOL    HW128664   2.823   0.043   3.858 -0.6395  1.0605 -1.6626
 5677SOL    HW228665   2.704   4.697   3.879 -2.3504 -1.0615 -2.8397
 5678SOL     OW28666   4.668   0.528   6.527 -0.2448  0.4791  0.1432
 5678SOL    HW128667   4.577   0.512   6.505 -0.1516  2.0977 -1.4789
 5678SOL    HW228668   4.693   0.579   6.450 -1.3563 -2.5135 -2.1932
 5679SOL     OW28669   0.307   4.241   5.094  0.6587 -0.3269  0.0126
 5679SOL    HW128670   0.256   4.262   5.173  2.7565  1.6752  0.8275
 5679SOL    HW228671   0.318   4.148   5.111  4.4461  0.1272 -0.0326
 5680SOL     OW28672   3.602   2.576   4.807  0.7102  0.4596  0.8925
 5680SOL    HW128673   3.660   2.648   4.831  1.4475  0.3489 -0.5882
 5680SOL    HW228674   3.609   2.531   4.892  1.9167 -0.9171  0.0604
 5681SOL     OW28675   0.846   0.290   6.940 -0.0227  0.3120  0.4402
 5681SOL    HW128676   0.798   0.208   6.929  0.1623  0.5089 -1.9109
 5681SOL    HW228677   0.825   0.332   6.856  1.5069  1.6543  0.7427
 5682SOL     OW28678   1.297   3.143   1.728  0.1541 -0.1667 -0.2395
 5682SOL    HW128679   1.386   3.150   1.762 -0.1875 -0.4260  0.6951
 5682SOL    HW228680   1.279   3.236   1.742  2.0960  0.6006 -2.7228
 5683SOL     OW28681   3.204   0.519   6.158 -0.2216 -0.2321  0.2953
 5683SOL    HW128682   3.130   0.462   6.180 -0.3239 -0.7043 -1.2586
 5683SOL    HW228683   3.272   0.481   6.215 -1.1411 -1.3472  0.6381
 5684SOL     OW28684   1.547   3.109   1.885  0.9602  0.3503  0.1824
 5684SOL    HW128685   1.533   3.076   1.974  0.0594  0.1339 -0.0404
 5684SOL    HW228686   1.530   3.029   1.835 -1.2219  1.3070 -0.5842
 5685SOL     OW28687   0.371   0.612   8.178 -0.2564 -0.2573 -0.4220
 5685SOL    HW128688   0.420   0.538   8.141  0.9936 -0.1545  1.0310
 5685SOL    HW228689   0.424   0.689   8.158  0.2859 -0.7581 -0.9106
 5686SOL     OW28690   0.427   2.214   8.074  0.0115 -0.2055  0.0561
 5686SOL    HW128691   0.375   2.166   8.010  0.0048 -0.3152  0.1446
 5686SOL    HW228692   0.373   2.199   8.151  1.0968 -1.8190  0.5014
 5687SOL     OW28693   3.809   2.283  14.081  0.2963 -0.5197 -0.1741
 5687SOL    HW128694   3.838   2.285  14.172  0.9479  1.0827 -0.4162
 5687SOL    HW228695   3.886   2.281  14.025  0.1708 -1.2636 -0.3142
 5688SOL     OW28696   0.416   2.080  11.141  0.5925  0.4448  0.0811
 5688SOL    HW128697   0.324   2.055  11.148  0.5676  1.0648  2.1687
 5688SOL    HW228698   0.458   2.006  11.186  2.3923  1.3331 -0.1221
 5689SOL     OW28699   3.627   3.628   2.531  0.0422  0.0247 -0.5501
 5689SOL    HW128700   3.665   3.678   2.603 -0.5617 -0.1126 -0.1377
 5689SOL    HW228701   3.563   3.693   2.503 -0.0111  0.7662  1.3038
 5690SOL     OW28702   2.988   3.190   2.374 -0.3834 -0.7381  0.3399
 5690SOL    HW128703   2.957   3.219   2.459  2.7977 -1.7061  1.8463
 5690SOL    HW228704   2.935   3.112   2.360 -1.7902  0.1474  0.7884
 5691SOL     OW28705   3.018   0.717  16.425 -0.2557 -0.1777 -0.1637
 5691SOL    HW128706   2.957   0.643  16.423 -1.8909  1.0761  1.9089
 5691SOL    HW228707   2.964   0.795  16.444 -1.4296 -0.6101 -1.7129
 5692SOL     OW28708   2.811   4.102   5.272  0.8101  0.4380  0.0172
 5692SOL    HW128709   2.742   4.085   5.335  1.7726  2.0827  1.5180
 5692SOL    HW228710   2.884   4.055   5.314  1.2081 -0.6177 -1.8560
 5693SOL     OW28711   0.720   0.673   5.672 -0.0310  0.1470 -0.2554
 5693SOL    HW128712   0.648   0.630   5.719  1.6235 -0.0403  2.0882
 5693SOL    HW228713   0.795   0.636   5.718 -0.5110  0.6577  0.9376
 5694SOL     OW28714   3.172   3.047   5.995 -0.0602 -0.4301  0.0815
 5694SOL    HW128715   3.248   3.092   5.959 -1.0159 -0.1062 -1.5394
 5694SOL    HW228716   3.190   2.967   5.946 -0.9139 -1.3451  1.2454
 5695SOL     OW28717   4.560   4.660   7.408 -0.3740 -0.1513 -0.5100
 5695SOL    HW128718   4.611   4.734   7.441 -0.2293 -0.0235 -1.0138
 5695SOL    HW228719   4.505   4.641   7.483 -0.9610  1.5791 -0.5120
 5696SOL     OW28720   0.036   3.757  11.727 -0.6791 -0.2251  0.5374
 5696SOL    HW128721   4.728   3.709  11.658  2.7417  0.0826 -1.9269
 5696SOL    HW228722   4.699   3.809  11.758  0.8391  3.2490 -1.7172
 5697SOL     OW28723   3.450   0.944   0.759 -1.0882 -0.0192  0.3717
 5697SOL    HW128724   3.385   0.881   0.729 -1.7098  1.4178 -1.2802
 5697SOL    HW228725   3.489   0.902   0.836  1.0950  1.3905  0.0359
 5698SOL     OW28726   4.516   0.610   6.315 -0.8190 -0.0277 -0.0691
 5698SOL    HW128727   4.484   0.694   6.284 -0.6974  0.1148  0.1913
 5698SOL    HW228728   4.566   0.583   6.238 -2.6534 -2.5557 -0.3831
 5699SOL     OW28729   1.833   4.012   8.009  0.2581  0.7452 -0.3757
 5699SOL    HW128730   1.926   4.027   8.022  0.7636 -0.5506 -2.4397
 5699SOL    HW228731   1.800   4.101   8.024  1.8728  1.1692  0.5244
 5700SOL     OW28732   0.020   3.794  10.150  0.6678 -0.1394  0.1958
 5700SOL    HW128733   0.064   3.714  10.177  0.9505  0.1555  0.6127
 5700SOL    HW228734   0.062   3.857  10.210 -1.2207  3.1239 -1.9282
 5701SOL     OW28735   1.969   1.254   6.803 -0.0361 -0.3333  0.0292
 5701SOL    HW128736   2.054   1.287   6.774 -0.0556 -0.1960  0.1291
 5701SOL    HW228737   1.979   1.221   6.892 -0.9340  0.3953  0.4064
 5702SOL     OW28738   3.116   1.633   7.160  0.5186 -0.1687  0.3944
 5702SOL    HW128739   3.187   1.675   7.208  0.2127  0.4944  0.2628
 5702SOL    HW228740   3.163   1.619   7.077 -1.9053 -0.1155 -0.9958
 5703SOL     OW28741   1.490   1.708   0.771  0.0837  0.6161 -0.1871
 5703SOL    HW128742   1.535   1.630   0.804 -0.7762  0.3421  0.3464
 5703SOL    HW228743   1.511   1.708   0.678  0.4917  0.9336 -0.0972
 5704SOL     OW28744   0.950   4.583   2.754 -0.2606 -0.4307 -0.2196
 5704SOL    HW128745   0.982   4.564   2.842  1.5892  0.5177 -0.7111
 5704SOL    HW228746   0.946   4.496   2.714 -0.1981  0.1013 -1.3711
 5705SOL     OW28747   3.632   3.858   7.677  0.0879  0.0590 -0.1773
 5705SOL    HW128748   3.693   3.870   7.604 -1.4400  0.9529 -1.3138
 5705SOL    HW228749   3.568   3.920   7.641  1.1119  0.1241 -1.9092
 5706SOL     OW28750   1.999   4.427   4.637 -0.2499  0.0202 -0.7742
 5706SOL    HW128751   2.012   4.392   4.548  3.4507 -0.4679 -0.0365
 5706SOL    HW228752   2.017   4.517   4.609  0.8961  0.5453  1.6391
 5707SOL     OW28753   2.500   0.454   3.812  0.0389  0.2958 -0.1974
 5707SOL    HW128754   2.426   0.394   3.827  1.6804 -1.3844  1.2588
 5707SOL    HW228755   2.492   0.519   3.882  0.0158  1.0167 -0.8655
 5708SOL     OW28756   0.490   3.575   0.051  0.1434  0.1995  0.3054
 5708SOL    HW128757   0.547   3.633   0.000  1.4617 -0.1879  1.3693
 5708SOL    HW228758   0.501   3.613   0.138 -1.2966 -1.2901  1.1339
 5709SOL     OW28759   4.308   2.394   5.283  0.2593  0.6353  0.4171
 5709SOL    HW128760   4.371   2.330   5.315  1.2623  1.0147 -0.8077
 5709SOL    HW228761   4.311   2.467   5.345  1.3609 -0.3649  1.5305
 5710SOL     OW28762   4.487   1.017   8.719 -0.6556 -0.1857  0.5169
 5710SOL    HW128763   4.409   1.042   8.670  0.2390  1.0217 -0.3006
 5710SOL    HW228764   4.533   0.960   8.657 -0.6589 -0.9562  1.2140
 5711SOL     OW28765   0.382   0.341   9.030 -0.0443 -0.4430 -0.4183
 5711SOL    HW128766   0.434   0.308   8.957 -0.2520 -0.1150 -0.7112
 5711SOL    HW228767   0.328   0.401   8.979 -0.3491  0.3154  0.8008
 5712SOL     OW28768   0.100   4.682   4.923 -0.6295 -0.2580  0.0938
 5712SOL    HW128769   0.187   4.707   4.891 -0.1641 -1.8964  0.0721
 5712SOL    HW228770   0.043   4.700   4.848  1.4421 -2.0908 -1.9443
 5713SOL     OW28771   4.101   0.398   4.553  0.6458  0.0297  0.2192
 5713SOL    HW128772   4.138   0.337   4.489  0.3541  0.3088 -0.2127
 5713SOL    HW228773   4.031   0.440   4.503  0.4386 -1.9689 -1.1389
 5714SOL     OW28774   1.236   0.011   2.308 -0.3311 -0.3852 -0.1990
 5714SOL    HW128775   1.189   0.051   2.235 -2.7978  2.6485  3.0446
 5714SOL    HW228776   1.190   4.664   2.300 -1.5995  0.0772  2.2047
 5715SOL     OW28777   4.660   0.833   6.506  0.0617 -0.5976 -0.3755
 5715SOL    HW128778   4.657   0.925   6.479 -0.2040 -0.0335  1.5329
 5715SOL    HW228779   4.571   0.799   6.511 -0.3660  0.6973  1.1598
 5716SOL     OW28780   2.393   1.525  14.463 -0.2018 -0.5161 -0.2319
 5716SOL    HW128781   2.377   1.522  14.369 -2.2690 -0.3113  0.1272
 5716SOL    HW228782   2.488   1.536  14.471 -0.3754  1.1516 -0.5187
 5717SOL     OW28783   2.101   1.789   1.260 -0.5313  0.3038  0.6740
 5717SOL    HW128784   2.037   1.853   1.227  0.2328  0.8405  0.2204
 5717SOL    HW228785   2.053   1.761   1.338  1.7119 -1.2928  1.4605
 5718SOL     OW28786   1.893   0.318  14.275  1.0260 -0.6919  0.2197
 5718SOL    HW128787   1.819   0.377  14.262  0.7046 -1.5512 -1.7970
 5718SOL    HW228788   1.953   0.389  14.299 -1.9773  1.9769 -0.0477
 5719SOL     OW28789   0.039   0.423   6.768  0.2127  0.2228 -0.4222
 5719SOL    HW128790   0.006   0.507   6.798  0.6312  0.5187 -0.7831
 5719SOL    HW228791   0.015   0.427   6.676 -0.6066 -0.0053 -0.2170
 5720SOL     OW28792   0.239   0.855   6.607 -0.1583  0.6639  0.0264
 5720SOL    HW128793   0.191   0.804   6.542  0.9476 -0.8692  0.4356
 5720SOL    HW228794   0.240   0.940   6.562 -0.6625 -0.1114 -1.4259
 5721SOL     OW28795   1.817   2.527   1.572 -0.3178  0.2077  0.3700
 5721SOL    HW128796   1.862   2.603   1.609 -0.6090  0.6004 -0.0753
 5721SOL    HW228797   1.729   2.529   1.611 -0.7825 -0.1303 -0.6426
 5722SOL     OW28798   4.661   3.372   2.335  0.3617 -0.1603 -0.1223
 5722SOL    HW128799   4.677   3.304   2.401  0.8488 -0.5050 -0.5952
 5722SOL    HW228800   4.649   3.456   2.379 -0.8480  0.6621 -1.9967
 5723SOL     OW28801   1.303   3.436   4.283  0.6717  0.4464 -0.3253
 5723SOL    HW128802   1.309   3.520   4.329  0.6722  0.0606  0.3821
 5723SOL    HW228803   1.343   3.365   4.334  1.6863 -0.4216 -2.3430
 5724SOL     OW28804   2.695   4.670  16.431  0.2767  0.2915 -0.2696
 5724SOL    HW128805   2.678   4.667  16.525  1.9746  1.8804  0.0824
 5724SOL    HW228806   2.783   4.707  16.425  1.1915 -1.8991 -0.4480
 5725SOL     OW28807   2.664   0.786  11.821  0.4485 -0.4118  0.6268
 5725SOL    HW128808   2.583   0.836  11.829  0.2761 -0.6925  0.6423
 5725SOL    HW228809   2.723   0.858  11.803  0.8705 -1.2752 -1.4788
 5726SOL     OW28810   2.278   2.290   7.958  0.0823 -0.0929 -0.5934
 5726SOL    HW128811   2.358   2.279   7.907  0.5691 -0.0837  0.1714
 5726SOL    HW228812   2.308   2.323   8.042  1.4593 -1.4870 -0.5533
 5727SOL     OW28813   2.943   0.532   9.899  0.4629 -0.1943 -0.2094
 5727SOL    HW128814   2.892   0.485   9.965  0.5814 -0.9842 -0.6764
 5727SOL    HW228815   3.025   0.482   9.909  0.4177 -0.0977  0.6666
 5728SOL     OW28816   0.187   0.260   7.504  0.2410 -0.3196 -0.0042
 5728SOL    HW128817   0.179   0.252   7.409 -1.0109  2.6374 -0.1349
 5728SOL    HW228818   0.237   0.340   7.521 -1.7062  1.5858 -3.4107
 5729SOL     OW28819   3.278   1.141   0.685 -0.2398 -0.3213 -0.6224
 5729SOL    HW128820   3.348   1.075   0.688 -0.2381 -0.2020  1.7781
 5729SOL    HW228821   3.194   1.102   0.663 -0.7691 -0.4411  1.5895
 5730SOL     OW28822   2.338   1.547   9.376 -0.2908 -0.3993 -0.0502
 5730SOL    HW128823   2.265   1.502   9.420 -0.6638 -0.3808 -0.6586
 5730SOL    HW228824   2.289   1.618   9.335 -0.1153  1.3659  2.7295
 5731SOL     OW28825   1.719   4.059   4.173  0.5207 -0.0221 -0.1580
 5731SOL    HW128826   1.688   4.114   4.100  2.0322 -1.4415 -1.8642
 5731SOL    HW228827   1.644   4.076   4.230  0.6147 -3.2304  0.9102
 5732SOL     OW28828   2.772   0.744   5.101 -0.2590 -0.2024 -0.0538
 5732SOL    HW128829   2.713   0.673   5.125 -1.1670 -0.2842 -2.4477
 5732SOL    HW228830   2.740   0.817   5.152  0.9511 -0.8808  1.6699
 5733SOL     OW28831   4.658   0.289   2.504 -0.6630  0.2239 -0.0840
 5733SOL    HW128832   4.696   0.374   2.482  1.8826 -0.7646  0.5210
 5733SOL    HW228833   4.689   0.238   2.429 -1.7174 -1.0310  0.3259
 5734SOL     OW28834   2.533   2.610   6.732 -0.1534  0.1465 -0.2744
 5734SOL    HW128835   2.551   2.572   6.818  1.2244  1.2273 -0.0922
 5734SOL    HW228836   2.453   2.562   6.709 -0.6005  0.9361 -0.3663
 5735SOL     OW28837   3.605   2.409  15.956  0.3598  0.5129  0.0696
 5735SOL    HW128838   3.684   2.355  15.966  1.7751  2.0382 -2.7454
 5735SOL    HW228839   3.536   2.343  15.955 -1.0827  2.0340 -0.2927
 5736SOL     OW28840   2.248   0.714   4.039 -0.1869  0.5467  0.2649
 5736SOL    HW128841   2.313   0.643   4.031 -2.9523 -1.6464 -2.5495
 5736SOL    HW228842   2.241   0.743   3.948  0.5091  0.6181  0.2303
 5737SOL     OW28843   4.406   0.779   6.895 -0.3354  0.2877 -0.0841
 5737SOL    HW128844   4.405   0.686   6.871  1.3346 -0.0834  1.2710
 5737SOL    HW228845   4.408   0.817   6.807 -2.0695 -0.2003 -0.3362
 5738SOL     OW28846   3.520   2.280   5.436 -0.1814 -0.7788 -0.5093
 5738SOL    HW128847   3.516   2.374   5.456 -0.5621 -0.7747 -0.5952
 5738SOL    HW228848   3.604   2.271   5.392  0.0615  0.4831 -0.2955
 5739SOL     OW28849   3.515   0.492  12.282 -0.3029 -0.5054 -0.6230
 5739SOL    HW128850   3.601   0.496  12.239  0.2986 -1.7794  0.4662
 5739SOL    HW228851   3.538   0.440  12.359 -1.6500 -2.8402 -1.7779
 5740SOL     OW28852   4.366   3.296   3.587  0.2612 -0.1514  0.3126
 5740SOL    HW128853   4.314   3.216   3.587  0.3075 -0.1803  0.9060
 5740SOL    HW228854   4.358   3.311   3.681 -1.5233  0.1574  0.1116
 5741SOL     OW28855   4.333   4.695   9.013 -0.0828 -0.2077  0.0255
 5741SOL    HW128856   4.337   0.036   9.068  1.3898  0.6663 -1.3287
 5741SOL    HW228857   4.323   4.628   9.080 -1.3897  0.8375  0.8753
 5742SOL     OW28858   0.250   1.286   7.952  0.5590  0.3489 -0.3016
 5742SOL    HW128859   0.230   1.222   7.884 -0.9026  0.2944  0.1670
 5742SOL    HW228860   0.328   1.243   7.987 -0.9620 -0.8212  1.7134
 5743SOL     OW28861   1.123   0.165   6.631 -0.1420  0.1875  0.2752
 5743SOL    HW128862   1.082   0.234   6.579 -0.6668 -0.6031 -0.3576
 5743SOL    HW228863   1.164   0.113   6.562  0.0538 -0.8541  1.1600
 5744SOL     OW28864   4.424   1.807   9.539  0.3024  0.3442  0.1679
 5744SOL    HW128865   4.433   1.747   9.464  1.6973  0.8511 -0.0628
 5744SOL    HW228866   4.484   1.762   9.598 -0.8211 -0.4709  0.7040
 5745SOL     OW28867   1.728   2.945   4.614 -0.5422 -0.0390  0.3537
 5745SOL    HW128868   1.641   2.916   4.586  1.5143 -3.1745 -2.8269
 5745SOL    HW228869   1.723   3.033   4.578 -0.3743 -0.2583 -0.2104
 5746SOL     OW28870   3.501   1.870   4.274  0.2728  0.4176  0.0882
 5746SOL    HW128871   3.503   1.964   4.287 -2.2997  0.4477  0.2596
 5746SOL    HW228872   3.539   1.841   4.356 -1.1283 -1.0001  0.2481
 5747SOL     OW28873   3.780   3.475   2.105 -0.1185  0.3997 -0.0832
 5747SOL    HW128874   3.715   3.438   2.166 -2.0285  2.4862 -0.8309
 5747SOL    HW228875   3.718   3.538   2.067 -0.5467 -0.1744 -0.3491
 5748SOL     OW28876   0.768   3.716   6.460 -0.4033  0.0693  0.3866
 5748SOL    HW128877   0.736   3.632   6.492  1.6780  0.4627  3.4934
 5748SOL    HW228878   0.857   3.690   6.434  0.3069  0.2969  2.6335
 5749SOL     OW28879   1.187   0.987   9.143 -0.1015 -0.4670  0.1042
 5749SOL    HW128880   1.207   0.958   9.054 -1.7574  0.9961 -0.7493
 5749SOL    HW228881   1.190   1.082   9.132 -1.4181 -0.8625 -3.5619
 5750SOL     OW28882   0.412   1.851   9.820  0.0886 -0.0766 -0.7054
 5750SOL    HW128883   0.396   1.810   9.735 -0.1596  1.6581 -1.4911
 5750SOL    HW228884   0.487   1.796   9.842 -0.6512  0.5826  3.3293
 5751SOL     OW28885   0.698   1.770   3.245 -0.4133  0.4124  0.0378
 5751SOL    HW128886   0.752   1.709   3.295  0.6832 -1.1486 -3.0379
 5751SOL    HW228887   0.642   1.804   3.315 -0.2481  0.3072  0.2215
 5752SOL     OW28888   0.030   4.263   3.884 -1.1352  0.3558 -0.7220
 5752SOL    HW128889   0.125   4.256   3.895 -1.1135  0.8180 -0.6161
 5752SOL    HW228890   0.011   4.187   3.940  0.9443  0.2268 -0.1953
 5753SOL     OW28891   0.124   0.185   1.698  0.6307  0.4286 -0.2584
 5753SOL    HW128892   0.155   0.194   1.607 -0.8934  1.0731 -0.7160
 5753SOL    HW228893   0.112   0.276   1.725  1.4921  0.5110 -0.1492
 5754SOL     OW28894   0.853   3.083   7.015  0.0582 -0.3016  0.0526
 5754SOL    HW128895   0.894   3.126   6.940 -0.0898 -0.6430 -0.2212
 5754SOL    HW228896   0.847   2.997   6.973  0.1095 -0.6332  0.7260
 5755SOL     OW28897   2.762   3.314   6.094  0.1261 -0.5400 -0.5750
 5755SOL    HW128898   2.846   3.274   6.073  1.5429  1.7547  0.7643
 5755SOL    HW228899   2.795   3.377   6.158 -1.5900 -0.2494  0.0212
 5756SOL     OW28900   4.303   2.481  16.253 -0.2397  0.9050  0.4322
 5756SOL    HW128901   4.305   2.414  16.184 -1.2565 -0.1483  1.4229
 5756SOL    HW228902   4.285   2.556  16.196  2.8803  1.4984  0.2452
 5757SOL     OW28903   3.841   4.159  12.464  0.0964  0.4077 -0.5501
 5757SOL    HW128904   3.832   4.096  12.393  0.8996 -1.8850  1.4004
 5757SOL    HW228905   3.766   4.217  12.450  0.0676  0.6226  0.5227
 5758SOL     OW28906   2.088   3.947   1.691 -0.2886  0.1229  0.2805
 5758SOL    HW128907   2.151   3.935   1.762  0.6721  0.3071 -0.5381
 5758SOL    HW228908   2.062   3.856   1.676  0.1102 -0.1698  1.3612
 5759SOL     OW28909   0.921   2.859  11.234 -0.3231  0.4265 -0.1818
 5759SOL    HW128910   1.005   2.816  11.250 -1.0411 -1.9362 -2.7541
 5759SOL    HW228911   0.856   2.806  11.280 -1.7084  0.8117 -1.6998
 5760SOL     OW28912   4.089   1.277   3.765 -0.0806 -0.9712  0.5672
 5760SOL    HW128913   4.043   1.199   3.736  0.7395 -0.3967 -2.2998
 5760SOL    HW228914   4.156   1.231   3.815 -0.2866 -1.1151  0.7089
 5761SOL     OW28915   0.579   2.099   2.383  0.4144 -0.3334  0.5122
 5761SOL    HW128916   0.655   2.046   2.361  0.8125  0.4274  0.0695
 5761SOL    HW228917   0.595   2.174   2.326 -0.4234 -0.3428  0.2619
 5762SOL     OW28918   0.643   1.791   2.473 -0.2650 -0.9853  0.0758
 5762SOL    HW128919   0.701   1.714   2.473 -0.5187 -1.1649  2.4614
 5762SOL    HW228920   0.569   1.751   2.427 -1.1713 -1.3642  1.8550
 5763SOL     OW28921   0.722   0.824   2.965 -0.0870  0.2789 -0.5906
 5763SOL    HW128922   0.785   0.871   2.910  2.4331 -3.8666 -1.2484
 5763SOL    HW228923   0.709   0.881   3.040 -0.0915  2.4215 -2.2213
 5764SOL     OW28924   0.791   3.789   2.080 -0.5265 -0.5031  0.9957
 5764SOL    HW128925   0.708   3.817   2.042 -0.0112  1.3475  1.2287
 5764SOL    HW228926   0.804   3.703   2.039  0.2878 -0.8901  2.0447
 5765SOL     OW28927   3.605   0.849   3.154  0.0634 -0.2252  0.3093
 5765SOL    HW128928   3.563   0.867   3.238 -1.1451  1.8134 -0.7093
 5765SOL    HW228929   3.698   0.865   3.172  0.5900 -0.1709 -2.5001
 5766SOL     OW28930   3.930   2.406   4.936  0.3300  0.1229  0.1113
 5766SOL    HW128931   3.853   2.432   4.986  0.7485 -0.1929  0.9276
 5766SOL    HW228932   3.989   2.481   4.943  1.5115 -0.5229 -3.0954
 5767SOL     OW28933   4.287   2.456   4.142 -0.8331  0.1487 -0.0959
 5767SOL    HW128934   4.254   2.411   4.064 -1.0574 -0.9125  0.6145
 5767SOL    HW228935   4.336   2.531   4.107  0.7172 -0.6385  0.3884
 5768SOL     OW28936   0.361   1.687   6.563 -0.1580  0.1887 -0.2368
 5768SOL    HW128937   0.451   1.656   6.570 -0.4336 -0.1342  1.9388
 5768SOL    HW228938   0.376   1.738   6.642 -0.6070 -0.8195  0.4953
 5769SOL     OW28939   1.724   3.229   8.904  0.5659 -0.1541  0.6085
 5769SOL    HW128940   1.689   3.309   8.865  2.0756  0.0738 -0.2631
 5769SOL    HW228941   1.700   3.244   8.996 -0.5082 -1.8137  0.5990
 5770SOL     OW28942   3.286   1.953   9.760  0.3720  0.1256  0.1648
 5770SOL    HW128943   3.206   1.964   9.812 -0.7121 -1.1059 -1.2377
 5770SOL    HW228944   3.307   2.041   9.729  0.2400 -0.3605 -1.2963
 5771SOL     OW28945   1.617   3.640  15.081 -1.3372 -0.2340  0.4666
 5771SOL    HW128946   1.597   3.547  15.074 -1.0642  0.0175 -3.6648
 5771SOL    HW228947   1.711   3.636  15.065 -1.7587 -2.4411 -1.4899
 5772SOL     OW28948   2.198   3.558   9.486 -0.0246  0.3827 -0.1165
 5772SOL    HW128949   2.274   3.510   9.521 -2.3868 -1.1974  2.8199
 5772SOL    HW228950   2.239   3.642   9.464  2.1579 -0.6657 -0.0761
 5773SOL     OW28951   1.521   2.719   0.118 -0.4152  0.0840 -0.2128
 5773SOL    HW128952   1.595   2.778   0.131  0.2376 -1.1873  1.8754
 5773SOL    HW228953   1.561   2.679   0.040  1.4458  1.1524  0.1860
 5774SOL     OW28954   0.744   1.981  16.532  0.1726  0.0323 -0.4253
 5774SOL    HW128955   0.661   2.021  16.506 -0.1318 -0.3187 -0.0017
 5774SOL    HW228956   0.722   1.942  16.616  1.3855  0.6607  0.1915
 5775SOL     OW28957   2.249   0.471   6.351 -0.1716  0.0148 -0.0917
 5775SOL    HW128958   2.261   0.394   6.406  2.1277 -0.2517 -0.9403
 5775SOL    HW228959   2.179   0.438   6.294 -1.3476  0.0106  1.3597
 5776SOL     OW28960   3.402   1.260   7.379  0.4318  0.0760 -0.0922
 5776SOL    HW128961   3.333   1.318   7.411 -0.3719  0.1256 -1.9122
 5776SOL    HW228962   3.372   1.182   7.425  2.3513 -0.3230  0.4852
 5777SOL     OW28963   1.179   1.248  17.137 -0.3740 -0.0137  0.3391
 5777SOL    HW128964   1.151   1.334  17.105  0.2770  0.3293  0.6967
 5777SOL    HW228965   1.099   1.208  17.170 -0.8818 -0.2532 -1.1604
 5778SOL     OW28966   2.272   0.028   6.743  0.7284 -0.2959 -0.2345
 5778SOL    HW128967   2.228   4.680   6.752 -0.7137  0.2639 -2.0342
 5778SOL    HW228968   2.364   0.002   6.739  0.1925 -2.2730  0.4355
 5779SOL     OW28969   3.498   4.187   8.396  0.5396 -0.2690 -0.0368
 5779SOL    HW128970   3.467   4.164   8.309  0.6558  0.1007 -0.1761
 5779SOL    HW228971   3.508   4.282   8.394 -1.9304  0.0004  0.6011
 5780SOL     OW28972   3.036   2.271   3.847  0.3954  0.0529 -0.2911
 5780SOL    HW128973   2.950   2.301   3.874 -0.4029 -2.5598  0.0970
 5780SOL    HW228974   3.091   2.340   3.884  0.3925  0.9281 -1.9135
 5781SOL     OW28975   2.600   4.641   7.341 -0.6691  0.1398 -1.0872
 5781SOL    HW128976   2.574   4.706   7.406 -1.0192 -1.2672  0.1635
 5781SOL    HW228977   2.578   4.561   7.387 -0.3231  0.4234 -0.4268
 5782SOL     OW28978   4.712   1.523   5.539  0.1280 -0.3663 -0.0316
 5782SOL    HW128979   0.049   1.553   5.592 -0.9889  0.0952  1.2573
 5782SOL    HW228980   0.007   1.438   5.508 -0.9087 -2.2981  4.2087
 5783SOL     OW28981   3.356   1.278   4.586 -0.0009  0.1801 -0.3925
 5783SOL    HW128982   3.451   1.287   4.574 -0.2952  1.8040 -1.5890
 5783SOL    HW228983   3.315   1.328   4.516  0.8116  0.1140 -0.9238
 5784SOL     OW28984   0.687   0.108   2.956 -0.6277  0.9985  0.3894
 5784SOL    HW128985   0.668   0.089   3.048 -0.9054 -3.5801 -0.5881
 5784SOL    HW228986   0.604   0.119   2.910 -0.9724  1.3910  1.0952
 5785SOL     OW28987   3.468   0.410   6.259  0.2591  0.3502 -0.1381
 5785SOL    HW128988   3.407   0.336   6.248 -0.1531  0.5957  0.4867
 5785SOL    HW228989   3.518   0.414   6.178 -1.7835  0.9185 -1.3863
 5786SOL     OW28990   0.185   0.726   4.512 -0.3519  0.1741  0.0323
 5786SOL    HW128991   0.147   0.712   4.599 -0.4900 -0.0932 -0.0715
 5786SOL    HW228992   0.114   0.703   4.452 -0.4486  0.5193  0.0158
 5787SOL     OW28993   1.551   3.655  16.472  0.0504  0.3409 -0.4950
 5787SOL    HW128994   1.498   3.687  16.400 -0.4433 -2.3359 -1.3212
 5787SOL    HW228995   1.569   3.569  16.434  0.2185 -0.4417  1.3581
 5788SOL     OW28996   2.535   3.621  11.038  0.3404  0.0284  0.4331
 5788SOL    HW128997   2.521   3.613  11.132  4.0246  0.8753  1.0433
 5788SOL    HW228998   2.442   3.631  11.018 -0.1470 -2.0125  1.6775
 5789SOL     OW28999   2.903   2.545  12.114 -0.3382 -0.1654  0.7690
 5789SOL    HW129000   2.921   2.638  12.096  0.7330 -1.4398 -4.6880
 5789SOL    HW229001   2.873   2.512  12.029 -2.0402 -0.9034  1.6609
 5790SOL     OW29002   0.673   4.647   8.506 -0.3999 -0.7525 -0.7830
 5790SOL    HW129003   0.676   0.001   8.476  0.0194 -0.6127 -0.3210
 5790SOL    HW229004   0.655   4.618   8.417 -0.0463  2.3118 -1.8419
 5791SOL     OW29005   0.001   0.375   3.078  0.1551 -0.0718 -0.1152
 5791SOL    HW129006   4.682   0.297   3.082  0.0455  0.0702  1.1182
 5791SOL    HW229007   0.049   0.350   2.999 -0.7043  0.4365 -0.7995
 5792SOL     OW29008   2.753   1.137   6.029 -0.0617  0.1315 -0.3471
 5792SOL    HW129009   2.800   1.217   6.005 -0.3857  0.0304 -1.2959
 5792SOL    HW229010   2.812   1.064   6.007  1.8053  1.7277 -0.6271
 5793SOL     OW29011   2.438   3.010  17.716  0.3113 -0.0099 -0.0528
 5793SOL    HW129012   2.507   2.968   0.022 -0.8181 -0.2161  1.2886
 5793SOL    HW229013   2.367   2.950  17.738  0.2012  0.3802  0.6422
 5794SOL     OW29014   2.238   0.007   6.051  0.2882 -0.0928  0.1524
 5794SOL    HW129015   2.331   4.728   6.039  0.2616 -0.5969  0.6125
 5794SOL    HW229016   2.214   4.652   6.046 -0.8325  0.3486 -2.6036
 5795SOL     OW29017   1.695   4.226  11.971 -0.0939 -0.6890  0.0150
 5795SOL    HW129018   1.787   4.242  11.990 -0.1491  0.3672 -0.6532
 5795SOL    HW229019   1.698   4.298  11.909  2.0223  0.5904  1.6114
 5796SOL     OW29020   2.614   1.782   4.699 -0.3125 -0.1730  0.4522
 5796SOL    HW129021   2.565   1.700   4.690  1.4081 -1.1070 -0.3054
 5796SOL    HW229022   2.534   1.828   4.726  1.6678  2.6556  1.5163
 5797SOL     OW29023   4.244   2.880  13.574 -0.2852 -0.2272  0.3644
 5797SOL    HW129024   4.243   2.844  13.485  1.4365  0.2615  0.1424
 5797SOL    HW229025   4.151   2.879  13.595 -0.4723  1.3620 -0.3526
 5798SOL     OW29026   3.424   1.425   9.107  0.1249 -0.0360  0.2637
 5798SOL    HW129027   3.350   1.369   9.129  0.0249  0.8883  2.3114
 5798SOL    HW229028   3.490   1.406   9.174  0.5889 -0.9151 -0.4304
 5799SOL     OW29029   0.452   3.105   5.422 -0.7580  0.0027  0.1797
 5799SOL    HW129030   0.477   3.185   5.469  1.7729  1.0105 -2.9007
 5799SOL    HW229031   0.421   3.045   5.490 -2.3594 -0.4040 -0.9133
 5800SOL     OW29032   3.818   3.520   3.056 -0.1631 -0.3754  0.0143
 5800SOL    HW129033   3.773   3.586   3.003  1.7429  1.4341  0.6555
 5800SOL    HW229034   3.812   3.441   3.001 -0.4940  0.7537 -1.5843
 5801SOL     OW29035   3.616   1.544   2.738 -0.0594 -0.2442 -0.5106
 5801SOL    HW129036   3.583   1.552   2.648 -0.7835  1.0691 -0.1220
 5801SOL    HW229037   3.546   1.486   2.768  0.3807 -0.5077  0.0023
 5802SOL     OW29038   3.852   0.898  16.288  0.0551 -0.2115  0.4771
 5802SOL    HW129039   3.944   0.876  16.274 -0.5573 -1.5750 -1.4263
 5802SOL    HW229040   3.803   0.818  16.265  0.7725 -0.5521  0.1462
 5803SOL     OW29041   3.550   3.478   2.847  0.0040 -0.3810  0.5015
 5803SOL    HW129042   3.592   3.563   2.863 -3.4526  1.2118  1.1555
 5803SOL    HW229043   3.465   3.477   2.891  0.9487  1.1705  2.3558
 5804SOL     OW29044   4.217   0.691   5.890 -0.8749  0.1199  0.5965
 5804SOL    HW129045   4.153   0.721   5.825  0.4521 -0.6320 -1.0475
 5804SOL    HW229046   4.211   0.771   5.942  1.0915  0.7577 -0.1531
 5805SOL     OW29047   0.998   3.812   3.709  0.1409  0.3654 -0.5682
 5805SOL    HW129048   0.985   3.781   3.798  2.4770 -1.4762 -0.8814
 5805SOL    HW229049   0.923   3.871   3.711  0.5074  0.8881 -1.8864
 5806SOL     OW29050   3.603   2.809   6.058  0.9423  0.4940 -0.0684
 5806SOL    HW129051   3.521   2.844   6.092  0.9693  0.7286 -0.2455
 5806SOL    HW229052   3.585   2.852   5.974  0.8114  0.2877 -0.1470
 5807SOL     OW29053   3.780   0.005  16.847  0.3291  0.4414 -0.4815
 5807SOL    HW129054   3.781   4.672  16.781  0.8771  1.4419 -1.5240
 5807SOL    HW229055   3.808   4.698  16.927 -0.9073 -2.2890 -1.5370
 5808SOL     OW29056   0.847   2.661   5.130 -0.2232 -0.7680 -0.0358
 5808SOL    HW129057   0.890   2.579   5.105  1.3851 -0.1095  0.6191
 5808SOL    HW229058   0.792   2.674   5.052  2.5596  0.2417 -1.8331
 5809SOL     OW29059   1.062   3.738   4.669 -0.2535 -0.0620 -0.1651
 5809SOL    HW129060   1.140   3.775   4.626  0.1956 -0.9162 -0.0876
 5809SOL    HW229061   1.066   3.643   4.663 -0.2387 -0.0978  0.3811
 5810SOL     OW29062   1.747   2.380   5.843 -0.2480  0.0895 -0.3637
 5810SOL    HW129063   1.689   2.307   5.825  0.2393  0.0237 -1.6816
 5810SOL    HW229064   1.686   2.451   5.863 -0.5223 -0.6413  1.3779
 5811SOL     OW29065   2.118   1.917  14.780 -0.5634  0.0763 -0.3778
 5811SOL    HW129066   2.178   1.848  14.751 -0.6418 -0.5712  1.0254
 5811SOL    HW229067   2.168   1.996  14.762  0.2857 -0.5559 -0.7902
 5812SOL     OW29068   4.135   2.707   0.884 -0.2686  0.1893  0.4173
 5812SOL    HW129069   4.228   2.699   0.906  0.3876 -0.4503 -2.6597
 5812SOL    HW229070   4.137   2.688   0.790 -0.6591  1.9488  0.0525
 5813SOL     OW29071   2.655   4.007   4.392  0.1178  0.1620  0.3264
 5813SOL    HW129072   2.705   3.932   4.425  0.0481  0.1602  0.4264
 5813SOL    HW229073   2.633   3.977   4.303  0.4302  1.7994 -0.2914
 5814SOL     OW29074   3.150   0.865   0.941 -0.0566 -0.4828 -0.1628
 5814SOL    HW129075   3.171   0.959   0.948  1.0807 -0.7736  0.3587
 5814SOL    HW229076   3.143   0.851   1.035 -0.3594 -2.0369 -0.4194
 5815SOL     OW29077   3.717   2.600   5.797 -0.2782 -0.0518 -0.2244
 5815SOL    HW129078   3.671   2.533   5.847  1.5298 -1.6027 -0.6459
 5815SOL    HW229079   3.805   2.567   5.813 -0.2686  1.5356  2.9514
 5816SOL     OW29080   1.163   1.164  16.348  0.3717  0.5878 -0.3461
 5816SOL    HW129081   1.158   1.073  16.319  2.6966 -0.4784  2.6452
 5816SOL    HW229082   1.180   1.221  16.273 -3.0081  1.4012 -0.5002
 5817SOL     OW29083   1.271   1.797   6.373  0.5933  0.5680 -0.4378
 5817SOL    HW129084   1.340   1.739   6.341 -0.3291 -1.1360  0.6593
 5817SOL    HW229085   1.248   1.771   6.463 -0.8114 -0.1104 -0.9891
 5818SOL     OW29086   4.048   0.552  12.086 -1.0515 -0.2255 -0.1845
 5818SOL    HW129087   4.059   0.514  11.999  3.0399 -0.8035  0.5770
 5818SOL    HW229088   4.052   0.641  12.052  2.3014 -0.2187  0.2480
 5819SOL     OW29089   4.200   2.299   1.706 -0.0016  0.1822  0.2127
 5819SOL    HW129090   4.172   2.207   1.703 -0.8382  0.4152  0.8865
 5819SOL    HW229091   4.114   2.330   1.734 -0.4746 -0.4334 -0.5642
 5820SOL     OW29092   2.035   1.548   8.221 -0.0393  0.1291  0.1534
 5820SOL    HW129093   2.012   1.462   8.256 -1.2452  0.6152  0.5722
 5820SOL    HW229094   2.122   1.559   8.258  0.5686 -0.2270 -1.1746
 5821SOL     OW29095   0.873   1.364   3.231 -0.0050 -0.3063  0.1388
 5821SOL    HW129096   0.850   1.443   3.281  1.3549  0.3538 -0.3045
 5821SOL    HW229097   0.951   1.346   3.283 -0.2623  0.1605  0.6979
 5822SOL     OW29098   3.008   4.223   7.209  0.1827 -1.0048  0.3733
 5822SOL    HW129099   2.961   4.140   7.196 -0.3203 -0.6284 -0.1951
 5822SOL    HW229100   2.945   4.289   7.179  1.0165 -0.6092 -0.4753
 5823SOL     OW29101   0.808   2.964  17.457  0.2299  0.2475 -0.5186
 5823SOL    HW129102   0.892   2.992  17.418 -0.1824  1.3019 -0.6675
 5823SOL    HW229103   0.795   2.895  17.392 -1.6333  0.7749 -0.7013
 5824SOL     OW29104   0.435   1.499   5.641  0.0370  0.7695 -0.1145
 5824SOL    HW129105   0.499   1.509   5.712  1.4164 -1.5907 -1.0417
 5824SOL    HW229106   0.480   1.430   5.593 -0.9014 -1.2993  2.0024
 5825SOL     OW29107   4.511   2.351   4.315 -0.5612  0.5718  0.1122
 5825SOL    HW129108   4.573   2.413   4.275  1.2146  0.3122  2.4801
 5825SOL    HW229109   4.442   2.370   4.251 -2.8558 -1.9718  1.8558
 5826SOL     OW29110   3.988   0.722  11.606  0.6648 -0.1169 -0.0689
 5826SOL    HW129111   4.006   0.640  11.559 -0.5634 -0.0863 -0.5848
 5826SOL    HW229112   4.064   0.774  11.579 -0.1965  0.1390 -2.0036
 5827SOL     OW29113   1.761   0.085   3.726  0.0609 -0.0821 -0.4885
 5827SOL    HW129114   1.763   0.002   3.772 -1.9032 -0.4084 -0.9803
 5827SOL    HW229115   1.684   0.126   3.766  0.0697  0.3002 -0.8515
 5828SOL     OW29116   3.168   1.277  11.659 -0.2799  0.7691 -0.0900
 5828SOL    HW129117   3.228   1.224  11.710 -0.6073  0.0832 -0.4231
 5828SOL    HW229118   3.109   1.303  11.729  1.3778  0.6736  1.3386
 5829SOL     OW29119   3.736   4.571   9.255 -0.1093 -0.2187  0.0956
 5829SOL    HW129120   3.769   4.486   9.226 -1.0488 -0.8131  0.7740
 5829SOL    HW229121   3.748   4.573   9.350  0.3772  1.6972  0.0029
 5830SOL     OW29122   2.636   2.155   1.807 -0.3009 -0.1372 -0.0750
 5830SOL    HW129123   2.543   2.150   1.784  0.0486 -0.9332 -1.3119
 5830SOL    HW229124   2.675   2.171   1.721 -0.1750 -1.4747 -0.2682
 5831SOL     OW29125   3.172   1.231   6.007 -0.2758  0.2622  0.0838
 5831SOL    HW129126   3.159   1.249   5.914  1.2761  0.7282 -0.0466
 5831SOL    HW229127   3.133   1.312   6.040 -0.7628 -0.8355  2.1902
 5832SOL     OW29128   1.744   1.298   9.228  0.1096 -0.4725  0.2721
 5832SOL    HW129129   1.779   1.332   9.146  1.6617 -1.5155  0.5114
 5832SOL    HW229130   1.745   1.371   9.290 -2.1990 -0.9326  0.8746
 5833SOL     OW29131   2.468   2.174  11.827  0.3558  0.0571  0.1312
 5833SOL    HW129132   2.384   2.130  11.845 -0.1788  0.5632 -1.1131
 5833SOL    HW229133   2.480   2.232  11.902  0.2581  1.6238 -1.0710
 5834SOL     OW29134   4.137   4.172  12.206  0.2906  0.2462 -0.2140
 5834SOL    HW129135   4.172   4.099  12.256 -1.3946  0.2358  0.9239
 5834SOL    HW229136   4.110   4.228  12.278  0.5773  0.0980  0.0085
 5835SOL     OW29137   2.508   0.960   3.402  0.4992 -0.2359 -0.8455
 5835SOL    HW129138   2.496   0.913   3.320 -2.2359  1.7695 -1.5838
 5835SOL    HW229139   2.531   1.049   3.377 -0.5536  0.0074 -0.9240
 5836SOL     OW29140   4.071   1.536   5.506 -0.2967  0.4135  0.2678
 5836SOL    HW129141   4.073   1.527   5.601  0.2039  0.1689  0.2381
 5836SOL    HW229142   4.066   1.630   5.491  0.6404  0.7465  2.1221
 5837SOL     OW29143   1.165   0.548   7.034  0.1062 -0.0614 -0.0387
 5837SOL    HW129144   1.176   0.464   6.990 -2.6284 -0.9539  0.9486
 5837SOL    HW229145   1.255   0.576   7.053  0.2740 -0.3427 -0.4148
 5838SOL     OW29146   4.364   2.620   3.505  0.2120  0.3853  0.1472
 5838SOL    HW129147   4.336   2.555   3.440 -3.0442  3.0836 -1.1649
 5838SOL    HW229148   4.375   2.702   3.458 -0.4999  0.6332  0.4109
 5839SOL     OW29149   4.387   1.950   3.417 -0.2233 -0.4459 -0.1523
 5839SOL    HW129150   4.384   2.035   3.374  2.5933 -0.5649 -0.6061
 5839SOL    HW229151   4.305   1.919   3.379 -0.5338 -1.1110  1.0496
 5840SOL     OW29152   1.081   2.109   7.746  0.2478  0.0163 -0.3634
 5840SOL    HW129153   1.172   2.099   7.775 -0.7154  0.8668  2.9411
 5840SOL    HW229154   1.098   2.169   7.674 -0.0345 -0.1313 -0.5518
 5841SOL     OW29155   2.492   4.299   8.855 -0.0238  0.2812 -0.7873
 5841SOL    HW129156   2.504   4.345   8.937  1.8602  1.1516 -1.5473
 5841SOL    HW229157   2.552   4.346   8.796  0.8218 -1.5131 -1.3797
 5842SOL     OW29158   1.027   2.489  15.372 -0.1755  0.1408  0.2085
 5842SOL    HW129159   0.952   2.439  15.339 -0.4623 -2.7280  5.2180
 5842SOL    HW229160   1.049   2.540  15.294 -1.6503 -1.0268 -0.9717
 5843SOL     OW29161   1.882   1.837   7.641 -0.1090 -0.0575  0.1928
 5843SOL    HW129162   1.869   1.923   7.602  0.0563 -0.2817 -0.3516
 5843SOL    HW229163   1.816   1.846   7.710  2.0465 -2.3464  2.5517
 5844SOL     OW29164   1.476   1.592   9.186 -0.2395  0.2394  0.1778
 5844SOL    HW129165   1.498   1.512   9.235 -1.8639  0.1371  0.7448
 5844SOL    HW229166   1.389   1.620   9.214 -1.2676 -1.9395 -0.8834
 5845SOL     OW29167   1.780   3.255   2.720 -0.3074 -0.0392 -0.2845
 5845SOL    HW129168   1.791   3.224   2.630 -0.4265 -2.3508  0.4962
 5845SOL    HW229169   1.708   3.200   2.751  0.0210 -0.8541 -0.9500
 5846SOL     OW29170   2.959   1.613  13.634 -0.0571 -0.1128 -0.3535
 5846SOL    HW129171   2.994   1.701  13.627  0.4302 -0.2439  0.4732
 5846SOL    HW229172   3.020   1.552  13.592 -1.3797 -0.8429 -1.2340
 5847SOL     OW29173   0.298   4.704   5.144 -0.2901 -0.4388  0.4836
 5847SOL    HW129174   0.276   4.652   5.222 -1.0974  0.5462  0.9058
 5847SOL    HW229175   0.254   4.656   5.073 -0.6668  0.5192  0.0799
 5848SOL     OW29176   3.572   0.787   5.160 -0.1183  0.6317  0.1154
 5848SOL    HW129177   3.526   0.800   5.076  0.7318 -3.0999 -0.9158
 5848SOL    HW229178   3.542   0.864   5.208 -0.0977  1.8851 -1.8987
 5849SOL     OW29179   1.419   1.014  11.234 -0.2025 -0.1718 -0.1043
 5849SOL    HW129180   1.377   0.929  11.222 -1.1726  0.3306 -0.2441
 5849SOL    HW229181   1.429   1.036  11.142  1.0326  1.0011  0.3121
 5850SOL     OW29182   1.627   2.382   6.825  0.3318 -0.1447  0.4271
 5850SOL    HW129183   1.694   2.441   6.858 -0.1141 -0.0732  1.1965
 5850SOL    HW229184   1.574   2.451   6.786 -2.4337 -0.8889  2.7835
 5851SOL     OW29185   3.585   0.831  16.473  0.7360  0.2681 -0.2582
 5851SOL    HW129186   3.534   0.764  16.428 -1.5078  0.5684  1.8013
 5851SOL    HW229187   3.542   0.831  16.559 -0.1477 -0.9758 -0.6975
 5852SOL     OW29188   3.860   0.908   5.059 -0.1640  0.1421 -0.1843
 5852SOL    HW129189   3.873   1.002   5.071  0.1519  0.0948 -0.1727
 5852SOL    HW229190   3.825   0.882   5.144  1.9473 -2.7968 -0.2384
 5853SOL     OW29191   2.884   3.404   3.040  0.2719 -0.2148 -0.2974
 5853SOL    HW129192   2.792   3.396   3.067  0.5135  0.4159  0.7228
 5853SOL    HW229193   2.915   3.321   3.075 -0.2598  0.0234  0.7370
 5854SOL     OW29194   2.866   3.187   9.891  0.3716  0.7789 -0.3069
 5854SOL    HW129195   2.845   3.258   9.953  0.4892  1.5056 -1.0973
 5854SOL    HW229196   2.790   3.128   9.892  0.1832  1.0453  1.6052
 5855SOL     OW29197   3.458   4.509   5.575  0.2636  0.1174  0.4626
 5855SOL    HW129198   3.524   4.524   5.643  0.6338  2.3288 -0.4085
 5855SOL    HW229199   3.525   4.491   5.510 -1.8436 -1.9707 -1.1171
 5856SOL     OW29200   3.757   0.943   3.537  0.5024  0.0892 -0.3571
 5856SOL    HW129201   3.721   0.892   3.609  0.2154  1.6353  0.6016
 5856SOL    HW229202   3.830   0.989   3.579 -1.6441  1.6939  1.6380
 5857SOL     OW29203   1.235   4.449   9.266  0.2787 -0.4045 -0.3026
 5857SOL    HW129204   1.228   4.447   9.170  1.5082  1.0856 -0.4273
 5857SOL    HW229205   1.178   4.379   9.297  1.3739 -0.1231  2.3589
 5858SOL     OW29206   2.608   3.098   5.911 -0.3039 -0.0553 -0.2314
 5858SOL    HW129207   2.565   3.144   5.838  1.5431 -0.2377 -1.4226
 5858SOL    HW229208   2.595   3.162   5.981 -1.7163  0.2745 -0.7881
 5859SOL     OW29209   3.788   4.128   8.378 -0.0434  0.1951  0.2340
 5859SOL    HW129210   3.697   4.154   8.391 -0.0021  0.4938 -0.0556
 5859SOL    HW229211   3.777   4.082   8.295  1.6746 -0.7945  0.5672
 5860SOL     OW29212   3.970   0.039   4.532 -0.0537 -0.5046 -0.3388
 5860SOL    HW129213   3.913   0.107   4.494 -0.2260 -0.2757  0.3236
 5860SOL    HW229214   4.053   0.086   4.525 -1.0921  1.0839 -2.0625
 5861SOL     OW29215   4.641   2.411   6.008 -0.1276  0.5816  0.3414
 5861SOL    HW129216   4.562   2.357   6.015  0.4257 -0.5688 -1.9938
 5861SOL    HW229217   4.649   2.435   6.100  0.8862 -1.0114  0.6833
 5862SOL     OW29218   0.087   0.550   1.537 -0.2401 -0.2438  0.1221
 5862SOL    HW129219   0.144   0.476   1.557  1.4959  1.5555  1.8674
 5862SOL    HW229220   0.159   0.612   1.554 -0.9835  0.9839 -1.2419
 5863SOL     OW29221   4.601   2.557   8.281 -0.1109  0.2584 -0.0004
 5863SOL    HW129222   4.544   2.485   8.257 -1.5384  0.6111  2.2645
 5863SOL    HW229223   4.681   2.544   8.231 -1.3765  1.4735 -2.3476
 5864SOL     OW29224   1.591   1.682   1.677  0.4078 -0.2890  0.0007
 5864SOL    HW129225   1.672   1.654   1.635  1.6749  1.4542  1.2888
 5864SOL    HW229226   1.617   1.761   1.724 -1.7801  0.2652  0.2913
 5865SOL     OW29227   2.894   0.479   7.784  0.0285  0.4377 -0.1195
 5865SOL    HW129228   2.892   0.505   7.876 -0.5836 -0.0815  0.0100
 5865SOL    HW229229   2.841   0.400   7.792 -0.0389  0.5708  0.7627
 5866SOL     OW29230   3.775   1.961   8.370 -0.2169  0.0547 -0.2733
 5866SOL    HW129231   3.702   1.901   8.360  0.1754 -0.5688  0.6253
 5866SOL    HW229232   3.798   1.932   8.458  1.3909 -0.2649 -0.7936
 5867SOL     OW29233   4.249   3.530  10.646  0.2113 -0.1417  0.2109
 5867SOL    HW129234   4.166   3.563  10.611  1.1936 -2.7427 -4.6085
 5867SOL    HW229235   4.305   3.603  10.618  0.0246 -0.2976 -0.5818
 5868SOL     OW29236   4.726   0.858   8.789 -0.0577 -0.2961  0.1269
 5868SOL    HW129237   0.079   0.890   8.784 -0.6951  1.4317 -0.6612
 5868SOL    HW229238   4.696   0.880   8.700  1.5163  0.7857 -0.1334
 5869SOL     OW29239   3.537   1.328   5.816  0.2150  0.5646 -0.1811
 5869SOL    HW129240   3.543   1.365   5.905 -2.7972  0.5582  0.0056
 5869SOL    HW229241   3.618   1.277   5.810 -0.1080  0.2203 -1.5582
 5870SOL     OW29242   1.926   1.680   9.073  0.3376 -0.0238  0.2474
 5870SOL    HW129243   1.834   1.708   9.077 -0.0889 -1.4636  0.6503
 5870SOL    HW229244   1.913   1.587   9.052  0.6016 -0.0524  0.2127
 5871SOL     OW29245   4.072   3.256   5.535  0.2675  0.1118 -0.3596
 5871SOL    HW129246   4.025   3.263   5.452 -1.1893  0.9013  0.5323
 5871SOL    HW229247   4.163   3.263   5.507  0.9326 -0.1386  1.7849
 5872SOL     OW29248   4.649   3.839   4.586  1.0073  0.3865  0.2002
 5872SOL    HW129249   4.666   3.749   4.557  0.5132  0.4515 -0.2859
 5872SOL    HW229250   4.725   3.884   4.548 -0.9891  0.2824 -3.8925
 5873SOL     OW29251   2.861   3.794   0.363  0.0145 -0.2334  0.3746
 5873SOL    HW129252   2.917   3.769   0.290  1.4149 -1.7653  1.9806
 5873SOL    HW229253   2.796   3.724   0.371  2.1462 -2.7128 -4.1534
 5874SOL     OW29254   3.897   1.325   1.967  0.3513  0.1432  0.0070
 5874SOL    HW129255   3.812   1.343   1.925  1.8377  1.4988 -2.4121
 5874SOL    HW229256   3.953   1.379   1.911  0.3743  1.0581  0.9038
 5875SOL     OW29257   2.254   2.390   4.842 -0.2141  0.1944  0.0359
 5875SOL    HW129258   2.298   2.307   4.860 -0.1819 -0.0706 -1.2728
 5875SOL    HW229259   2.273   2.400   4.749  1.3949 -0.1186  0.3277
 5876SOL     OW29260   0.623   1.567   7.183  0.1475 -0.4566  0.3299
 5876SOL    HW129261   0.656   1.531   7.101 -0.5428  1.8908 -0.9949
 5876SOL    HW229262   0.602   1.485   7.226 -1.4312 -0.8692 -1.2129
 5877SOL     OW29263   0.119   0.037   3.050 -0.4505  0.1444 -0.0883
 5877SOL    HW129264   0.159   0.113   3.091 -0.5460 -0.1792  0.6044
 5877SOL    HW229265   0.025   0.047   3.060 -0.6939 -0.5382 -1.6566
 5878SOL     OW29266   0.683   4.518  11.991  0.1212 -0.2172  0.1403
 5878SOL    HW129267   0.704   4.589  11.929 -2.1874  1.4727  1.2664
 5878SOL    HW229268   0.718   4.444  11.942  1.6300 -0.4112  1.5370
 5879SOL     OW29269   0.517   3.979   4.315  0.4819 -0.8916 -0.3049
 5879SOL    HW129270   0.502   4.062   4.362 -0.8224 -0.7726 -0.9316
 5879SOL    HW229271   0.609   4.001   4.296  0.7758 -0.5717  1.4281
 5880SOL     OW29272   2.041   3.707   5.294  0.7348 -0.3975 -0.2502
 5880SOL    HW129273   1.995   3.788   5.316 -1.6454 -1.8882  0.2021
 5880SOL    HW229274   2.024   3.647   5.367 -1.2815  1.4289  0.7987
 5881SOL     OW29275   4.149   3.233   8.311  0.5503 -0.3847  0.1164
 5881SOL    HW129276   4.131   3.163   8.248 -1.0803 -1.4415  1.7503
 5881SOL    HW229277   4.089   3.296   8.273 -0.2581 -1.4339 -0.3389
 5882SOL     OW29278   0.937   2.916   5.201  0.1974  0.7447 -0.6821
 5882SOL    HW129279   0.851   2.956   5.211  0.1523  0.5811 -0.4213
 5882SOL    HW229280   0.912   2.828   5.170  0.0172  1.0290 -1.3496
 5883SOL     OW29281   0.269   3.784  14.710 -0.1438  0.2707 -0.6523
 5883SOL    HW129282   0.334   3.714  14.712  0.1348  0.4675 -2.5224
 5883SOL    HW229283   0.329   3.852  14.679 -0.6164  2.5758  3.5047
 5884SOL     OW29284   2.043   3.605   2.520  0.2009 -0.0154  0.4201
 5884SOL    HW129285   2.037   3.516   2.486  0.2886 -0.3884  1.3803
 5884SOL    HW229286   1.996   3.600   2.603 -0.5028  0.0080  0.0329
 5885SOL     OW29287   4.651   4.686   3.384  0.1593 -0.3464 -0.8754
 5885SOL    HW129288   4.638   4.736   3.465  2.0576 -1.5208  0.1336
 5885SOL    HW229289   4.628   4.595   3.405 -0.1021 -0.0736  0.0642
 5886SOL     OW29290   2.631   0.766   8.524  0.2531  0.3635 -0.1455
 5886SOL    HW129291   2.700   0.808   8.574  0.4368 -0.9146  0.6698
 5886SOL    HW229292   2.658   0.674   8.524  4.3650  1.5799  0.5074
 5887SOL     OW29293   3.606   1.545   6.376  0.2064 -0.6131 -0.0882
 5887SOL    HW129294   3.607   1.491   6.455  1.5410  2.5603  2.0417
 5887SOL    HW229295   3.533   1.507   6.327 -0.7973  0.7055  0.3971
 5888SOL     OW29296   0.670   4.031  13.932  0.2137  0.7158  0.4902
 5888SOL    HW129297   0.724   4.093  13.981  1.7376  0.0393 -0.2897
 5888SOL    HW229298   0.722   4.020  13.852 -2.9775 -0.2216 -1.4603
 5889SOL     OW29299   2.356   3.863   1.536 -0.3945  0.3283  0.1863
 5889SOL    HW129300   2.343   3.847   1.629  1.1763  0.4458  0.4167
 5889SOL    HW229301   2.269   3.852   1.498 -0.7339  0.8823  0.8118
 5890SOL     OW29302   4.044   4.642   7.985  0.1003  0.2694  0.0310
 5890SOL    HW129303   3.964   4.589   7.986  0.6507 -0.6372 -2.5811
 5890SOL    HW229304   4.030   4.693   7.905 -0.0066  1.4676  0.8150
 5891SOL     OW29305   4.624   0.305   9.575  0.3830 -0.2480  0.1577
 5891SOL    HW129306   4.695   0.267   9.626  1.5794  2.8915  0.8489
 5891SOL    HW229307   4.679   0.361   9.520  0.5561 -0.1223  0.4564
 5892SOL     OW29308   4.448   4.481  14.990  0.6056 -0.1049  0.4889
 5892SOL    HW129309   4.536   4.461  15.022  0.8652  3.8353  2.2027
 5892SOL    HW229310   4.471   4.548  14.925 -0.8591 -0.0893 -0.0006
 5893SOL     OW29311   1.912   4.504   9.209  0.0394  0.0708 -0.4679
 5893SOL    HW129312   2.006   4.504   9.189  0.6165  0.3356  2.2146
 5893SOL    HW229313   1.912   4.485   9.303 -3.2248 -1.7835 -0.8511
 5894SOL     OW29314   4.537   2.195  14.392 -0.6822  0.4243 -0.2042
 5894SOL    HW129315   4.581   2.191  14.477  0.7618 -2.9338 -1.1166
 5894SOL    HW229316   4.593   2.244  14.331  0.6752  1.0531  1.5540
 5895SOL     OW29317   0.404   2.416   2.765  0.0593  0.0252 -0.2386
 5895SOL    HW129318   0.364   2.371   2.840 -0.4527  0.4660 -0.2501
 5895SOL    HW229319   0.471   2.360   2.727  0.0627 -0.3271  0.2774
 5896SOL     OW29320   3.936   2.384   5.572 -0.3509  0.2460  0.0784
 5896SOL    HW129321   3.969   2.339   5.650 -0.3416  1.0252  0.5188
 5896SOL    HW229322   3.906   2.302   5.533  0.2220  0.4022 -0.6946
 5897SOL     OW29323   0.499   2.516   8.047  0.0217  0.1410 -0.0545
 5897SOL    HW129324   0.435   2.584   8.070 -1.6380 -0.3899 -3.0765
 5897SOL    HW229325   0.445   2.438   8.058 -1.5784  1.3754  0.8020
 5898SOL     OW29326   4.647   1.424   4.833  0.1029  1.0932  0.4149
 5898SOL    HW129327   4.737   1.440   4.805 -0.9522 -2.1939 -4.8506
 5898SOL    HW229328   4.628   1.502   4.886  0.3639  2.6387 -1.7651
 5899SOL     OW29329   2.360   2.934   5.790  0.4564 -0.2569  0.4641
 5899SOL    HW129330   2.303   2.921   5.865  0.1333  0.6353  0.3716
 5899SOL    HW229331   2.393   2.844   5.785 -1.1489 -0.8154  0.0833
 5900SOL     OW29332   0.322   2.571  11.252  0.1259 -0.6613 -1.1861
 5900SOL    HW129333   0.286   2.625  11.182  0.7600  2.6085  1.0087
 5900SOL    HW229334   0.250   2.513  11.279 -0.7663  1.9403  1.8993
 5901SOL     OW29335   3.789   0.514   3.966 -0.1470  0.4074  0.1561
 5901SOL    HW129336   3.865   0.512   3.909  0.5566  3.7658  0.9650
 5901SOL    HW229337   3.732   0.448   3.927  0.7087 -0.7249  0.8071
 5902SOL     OW29338   3.113   0.883  12.457 -0.1280  0.2987  0.0628
 5902SOL    HW129339   3.191   0.828  12.462 -0.2583  0.0922 -0.1718
 5902SOL    HW229340   3.119   0.934  12.537 -0.9233  1.6649 -0.7338
 5903SOL     OW29341   0.671   1.873   3.543  0.2571  0.7110 -0.0827
 5903SOL    HW129342   0.594   1.847   3.594  1.3600  0.1759  1.3311
 5903SOL    HW229343   0.736   1.832   3.600  1.0793  1.3142 -0.5976
 5904SOL     OW29344   0.219   4.164   0.043 -0.2506 -0.9394 -0.4658
 5904SOL    HW129345   0.173   4.104  17.730  1.3327 -0.0297 -2.6714
 5904SOL    HW229346   0.221   4.107   0.120  1.1527 -0.7962 -0.3911
 5905SOL     OW29347   0.627   4.166  14.504 -0.0895  0.6092  0.0200
 5905SOL    HW129348   0.651   4.074  14.503  0.8616  0.8535 -0.4239
 5905SOL    HW229349   0.532   4.167  14.496 -0.1061 -2.7523 -0.1235
 5906SOL     OW29350   0.161   1.968  11.170 -0.1238  0.1260 -0.7361
 5906SOL    HW129351   0.096   1.918  11.219  0.0310 -1.5111 -2.2239
 5906SOL    HW229352   0.145   1.940  11.080  1.0240 -0.4451 -0.7650
 5907SOL     OW29353   0.649   2.424  12.568 -0.5814  0.6278 -0.0640
 5907SOL    HW129354   0.632   2.419  12.474  0.1247 -0.9591 -0.0932
 5907SOL    HW229355   0.561   2.418  12.606 -1.4873  1.2991 -2.0099
 5908SOL     OW29356   2.536   1.129   8.833 -0.1228  0.4512  0.1400
 5908SOL    HW129357   2.478   1.168   8.898 -0.0216  0.7354  0.0582
 5908SOL    HW229358   2.501   1.040   8.836  0.4711  0.2479  1.2980
 5909SOL     OW29359   3.235   3.775  16.160  0.1298 -0.3272 -0.4648
 5909SOL    HW129360   3.213   3.763  16.068 -0.5558 -1.5899 -0.1344
 5909SOL    HW229361   3.246   3.869  16.172  0.9839 -0.4713 -0.1497
 5910SOL     OW29362   0.419   3.941   6.976  0.0208  0.1818  0.2166
 5910SOL    HW129363   0.496   3.884   6.969 -1.3986 -1.8200  0.9549
 5910SOL    HW229364   0.363   3.891   7.035  0.5839 -1.5347 -0.7141
 5911SOL     OW29365   3.046   3.103  13.139  0.0854  0.9090 -0.0305
 5911SOL    HW129366   3.049   3.180  13.082  0.0878  0.6220 -0.4271
 5911SOL    HW229367   3.118   3.118  13.200 -0.0366 -3.4375  1.1763
 5912SOL     OW29368   3.805   4.356  16.470  0.4082 -0.3253 -0.1588
 5912SOL    HW129369   3.817   4.416  16.396  0.5261  2.1569  1.8757
 5912SOL    HW229370   3.755   4.288  16.424 -0.4457 -0.4034  0.8885
 5913SOL     OW29371   0.296   1.073   4.775 -0.5820 -0.6969  0.4323
 5913SOL    HW129372   0.375   1.026   4.801 -1.9163 -2.5747  1.0365
 5913SOL    HW229373   0.331   1.161   4.761 -0.9726 -0.9201 -1.8668
 5914SOL     OW29374   2.682   4.087   8.960  0.0657 -0.6348  0.3358
 5914SOL    HW129375   2.600   4.123   8.993  0.3450 -1.0419  1.4963
 5914SOL    HW229376   2.738   4.153   9.001 -0.2610 -0.7191  0.9138
 5915SOL     OW29377   1.335   0.949   6.359 -0.1446  0.0319  0.3972
 5915SOL    HW129378   1.403   0.975   6.421  1.0519  3.8267 -2.4765
 5915SOL    HW229379   1.392   0.915   6.290  0.5302 -0.3144  1.1201
 5916SOL     OW29380   0.196   1.010   8.099  0.4438 -0.0391 -0.4212
 5916SOL    HW129381   0.242   0.952   8.159  1.0464 -0.6404 -1.4706
 5916SOL    HW229382   0.226   1.100   8.112  0.6553 -0.0141 -1.0679
 5917SOL     OW29383   0.596   3.404   2.495  0.1280  0.0018  0.0560
 5917SOL    HW129384   0.533   3.464   2.456 -1.6740 -0.4376  2.2623
 5917SOL    HW229385   0.613   3.444   2.580 -1.9503 -0.4219  0.6735
 5918SOL     OW29386   3.995   0.714   6.765 -0.0941  0.5022  1.1219
 5918SOL    HW129387   4.014   0.676   6.850  0.4335 -2.1242 -0.1597
 5918SOL    HW229388   4.015   0.635   6.713 -0.6029  1.9458 -1.2704
 5919SOL     OW29389   2.585   3.246   0.341  0.0743  0.4792 -0.0884
 5919SOL    HW129390   2.678   3.259   0.361 -0.7290  3.7810  1.5800
 5919SOL    HW229391   2.570   3.315   0.276 -1.0413 -0.1701 -0.5122
 5920SOL     OW29392   2.969   4.554   3.064  0.0760  0.7831  0.4274
 5920SOL    HW129393   2.905   4.575   3.132 -0.5092 -2.6773  0.9250
 5920SOL    HW229394   3.048   4.602   3.086  1.1182 -0.5063 -0.5269
 5921SOL     OW29395   1.000   1.531   6.403 -0.0693 -0.0173  0.2313
 5921SOL    HW129396   0.931   1.539   6.336 -0.0050 -1.5828 -0.0202
 5921SOL    HW229397   1.082   1.524   6.354 -1.0073 -0.3851 -1.3008
 5922SOL     OW29398   0.400   2.194   1.085  0.6269 -0.0509  0.1601
 5922SOL    HW129399   0.377   2.102   1.101  0.2422  0.1026  0.4899
 5922SOL    HW229400   0.388   2.226   1.174 -1.2781 -1.2120  0.3175
 5923SOL     OW29401   4.664   4.235  17.579  0.7509  0.8166 -0.3284
 5923SOL    HW129402   4.708   4.150  17.582 -0.4873  0.1505 -1.3368
 5923SOL    HW229403   4.737   4.292  17.553 -0.5793  2.7034  0.0867
 5924SOL     OW29404   3.539   1.790   3.670 -0.0903 -0.2287 -0.3407
 5924SOL    HW129405   3.586   1.730   3.611 -1.7679 -1.3406 -0.5494
 5924SOL    HW229406   3.463   1.819   3.621  0.6713 -0.5935 -1.7501
 5925SOL     OW29407   2.300   3.060   5.348  0.3190  0.5294  0.1445
 5925SOL    HW129408   2.348   3.058   5.265 -1.8689  0.7179 -1.1212
 5925SOL    HW229409   2.234   2.993   5.329  0.3215 -0.7674  4.6227
 5926SOL     OW29410   0.018   1.299   3.440  0.3802  0.4299 -0.3080
 5926SOL    HW129411   0.024   1.238   3.367 -0.6351 -2.2058  1.8160
 5926SOL    HW229412   4.715   1.379   3.407  0.0536 -0.9218 -3.1403
 5927SOL     OW29413   1.829   2.287   4.571 -0.6281  0.3635  0.1110
 5927SOL    HW129414   1.909   2.292   4.519 -0.8944 -2.6196 -0.5622
 5927SOL    HW229415   1.811   2.196   4.548  0.8935 -0.1270  0.9208
 5928SOL     OW29416   0.233   4.489   5.827 -0.2059 -0.9854  0.4087
 5928SOL    HW129417   0.322   4.522   5.840 -0.9022  0.4565  1.6095
 5928SOL    HW229418   0.174   4.553   5.867  2.2236  0.5965  1.4556
 5929SOL     OW29419   2.923   2.579  13.883  0.0383  0.6391 -0.5905
 5929SOL    HW129420   2.956   2.506  13.830 -1.2037 -0.4351  0.1013
 5929SOL    HW229421   2.831   2.556  13.890  1.2799 -3.6601  2.0770
 5930SOL     OW29422   2.226   4.241   6.489 -0.2596 -0.1481 -0.0233
 5930SOL    HW129423   2.241   4.153   6.524 -0.6199 -0.8023 -1.5319
 5930SOL    HW229424   2.316   4.267   6.470 -0.2944 -0.1302 -0.1572
 5931SOL     OW29425   2.546   1.027   6.483  0.2472 -0.0399  0.2595
 5931SOL    HW129426   2.458   0.996   6.465  0.5933 -0.5687 -0.5271
 5931SOL    HW229427   2.531   1.122   6.482  2.5357  0.3228 -0.5143
 5932SOL     OW29428   2.184   1.252   7.901  0.0008  0.0362  0.2800
 5932SOL    HW129429   2.149   1.284   7.984 -1.8949  0.8981 -0.8465
 5932SOL    HW229430   2.277   1.246   7.925 -0.0723 -0.2640  0.4858
 5933SOL     OW29431   4.715   0.579  13.842  0.5965 -0.3097 -0.4429
 5933SOL    HW129432   0.054   0.596  13.898 -1.2310  1.3144  1.5610
 5933SOL    HW229433   4.667   0.517  13.898 -0.4590  1.5629  0.7459
 5934SOL     OW29434   0.943   0.168   1.781  0.1676  0.1191  0.5566
 5934SOL    HW129435   0.919   0.155   1.873  0.5725  0.3510  0.6942
 5934SOL    HW229436   1.016   0.226   1.802  0.4032  0.0592 -0.1100
 5935SOL     OW29437   2.952   2.527   2.075  0.1014 -0.1961  0.1993
 5935SOL    HW129438   3.044   2.536   2.099  0.2368 -0.2889 -0.2814
 5935SOL    HW229439   2.961   2.476   1.994 -0.9073  0.1214 -0.1150
 5936SOL     OW29440   3.900   3.645   8.595 -0.0512  0.0900  0.5740
 5936SOL    HW129441   3.864   3.717   8.648 -0.7053 -0.6189  1.0946
 5936SOL    HW229442   3.941   3.601   8.669 -2.3824 -0.6441  1.4283
 5937SOL     OW29443   1.749   0.044  13.197 -0.0690 -0.0366  0.3016
 5937SOL    HW129444   1.742   0.031  13.292 -0.1852 -0.5032  0.2279
 5937SOL    HW229445   1.667   4.734  13.180 -2.2297  3.7334  0.3220
 5938SOL     OW29446   2.565   0.104   5.023  0.5492 -0.2136 -0.7529
 5938SOL    HW129447   2.565   0.055   4.941  0.2007  0.8564 -1.3965
 5938SOL    HW229448   2.583   0.187   4.978 -0.7753  0.1503 -0.5932
 5939SOL     OW29449   3.821   2.809  10.331  0.1787 -0.6899  0.3778
 5939SOL    HW129450   3.909   2.829  10.362  0.3556  0.6575 -0.9741
 5939SOL    HW229451   3.841   2.733  10.275 -0.4834 -0.2272 -0.4938
 5940SOL     OW29452   1.484   1.829   7.071  0.1993 -0.6241 -0.1510
 5940SOL    HW129453   1.420   1.791   7.132 -0.0128  0.0993  0.0715
 5940SOL    HW229454   1.561   1.821   7.126 -0.4060  0.0966  0.7991
 5941SOL     OW29455   1.425   2.450   1.225 -0.1137 -0.0983  0.0172
 5941SOL    HW129456   1.406   2.522   1.285 -1.5327  2.2109 -3.1961
 5941SOL    HW229457   1.373   2.476   1.148 -0.8824 -0.5823  0.3731
 5942SOL     OW29458   3.151   3.358   3.532  0.7000 -0.0810 -0.9286
 5942SOL    HW129459   3.083   3.362   3.599  1.2601 -0.9439 -0.2997
 5942SOL    HW229460   3.125   3.285   3.476  2.1753 -0.2853 -1.3419
 5943SOL     OW29461   1.998   4.113   7.579  0.1397 -0.1923 -0.0135
 5943SOL    HW129462   2.053   4.178   7.535 -1.4480 -0.4111 -2.3135
 5943SOL    HW229463   1.924   4.121   7.519  1.0289  1.7708 -0.8276
 5944SOL     OW29464   0.847   2.290   4.015  0.1781  0.1131 -0.3588
 5944SOL    HW129465   0.754   2.283   4.039  0.3811  0.5017  0.5391
 5944SOL    HW229466   0.889   2.327   4.092  0.3635 -2.0069  0.5584
 5945SOL     OW29467   3.265   2.922   4.017  0.1115 -0.6689 -0.0820
 5945SOL    HW129468   3.346   2.972   4.028  1.2311 -2.1685 -1.5057
 5945SOL    HW229469   3.300   2.833   4.012  2.3895  0.3198 -1.4100
 5946SOL     OW29470   2.927   3.135   3.136  0.3604  0.3877 -0.0292
 5946SOL    HW129471   2.991   3.079   3.093 -2.3852 -1.8991 -1.1259
 5946SOL    HW229472   2.841   3.103   3.108  0.6235  0.2262 -0.6556
 5947SOL     OW29473   3.032   2.535   3.007 -0.0563 -0.0143 -0.4070
 5947SOL    HW129474   3.077   2.586   2.940 -1.4972 -2.1966 -3.0250
 5947SOL    HW229475   2.990   2.464   2.959  0.2673 -1.2971  1.2055
 5948SOL     OW29476   3.022   3.647   8.091 -0.2709 -0.6756  0.6376
 5948SOL    HW129477   3.116   3.637   8.076  0.4292  1.4102  3.5438
 5948SOL    HW229478   3.017   3.735   8.131  2.9347  0.3430 -1.1981
 5949SOL     OW29479   2.931   3.281   7.548 -0.2565 -0.4209  0.2690
 5949SOL    HW129480   2.940   3.257   7.640  1.9575  1.5771  0.5970
 5949SOL    HW229481   2.843   3.317   7.553 -1.4341 -3.0573 -1.6490
 5950SOL     OW29482   4.589   0.689   5.413  0.4553  0.3492 -0.1241
 5950SOL    HW129483   4.649   0.763   5.403  0.7462  0.2303  0.7621
 5950SOL    HW229484   4.530   0.704   5.339 -0.6714  0.2112  0.7441
 5951SOL     OW29485   1.426   2.931   4.520  0.2597  0.3184  0.0298
 5951SOL    HW129486   1.352   2.959   4.575 -0.9148  1.2146 -2.0020
 5951SOL    HW229487   1.417   2.996   4.450  1.8000  0.6682  0.1444
 5952SOL     OW29488   2.459   4.383   0.107 -0.2844  0.0927 -0.4198
 5952SOL    HW129489   2.514   4.305   0.116 -0.7140 -0.1967 -0.3022
 5952SOL    HW229490   2.403   4.358   0.180 -1.2092 -0.1737 -1.2153
 5953SOL     OW29491   3.397   0.946   7.446  0.3398 -0.1584 -0.1045
 5953SOL    HW129492   3.461   0.921   7.380  0.3720  1.2927 -0.6128
 5953SOL    HW229493   3.443   0.922   7.527  1.9402 -0.4621 -1.1108
 5954SOL     OW29494   4.256   2.510  10.583  0.4664 -0.0666  0.3342
 5954SOL    HW129495   4.192   2.562  10.631  0.4640 -1.4167  1.7665
 5954SOL    HW229496   4.332   2.507  10.641 -0.0596  0.2312  1.0383
 5955SOL     OW29497   2.409   3.280   4.685 -0.0048  0.2919  0.3085
 5955SOL    HW129498   2.380   3.198   4.644 -0.6939  0.6138  0.1518
 5955SOL    HW229499   2.334   3.308   4.739 -0.7962 -0.5874 -0.3238
 5956SOL     OW29500   2.537   3.016   2.493  0.2917  0.1590 -0.0706
 5956SOL    HW129501   2.548   2.921   2.490 -0.3579  0.1133 -0.8390
 5956SOL    HW229502   2.601   3.042   2.428  0.5311 -1.0329 -0.3208
 5957SOL     OW29503   2.872   1.736   4.759 -0.5742  0.6363  0.0830
 5957SOL    HW129504   2.920   1.718   4.678  0.4076  1.3386  0.5062
 5957SOL    HW229505   2.787   1.770   4.731 -3.0481 -2.9178  3.3610
 5958SOL     OW29506   1.804   0.123   4.972  0.1425 -0.5223 -0.3638
 5958SOL    HW129507   1.824   0.049   5.030 -0.0826  0.3237  0.7776
 5958SOL    HW229508   1.891   0.164   4.967 -0.5498  0.9032 -0.7285
 5959SOL     OW29509   2.979   2.520  14.932  0.2285 -0.0130 -0.1543
 5959SOL    HW129510   2.991   2.607  14.970  0.6280  0.0849 -0.5158
 5959SOL    HW229511   2.938   2.548  14.850 -0.5325 -0.2397  0.1410
 5960SOL     OW29512   0.191   1.574   4.149  0.3967  0.6476  0.2424
 5960SOL    HW129513   0.172   1.663   4.179  1.5212  0.4106  1.6595
 5960SOL    HW229514   0.136   1.570   4.071  0.1556  4.1916  0.2378
 5961SOL     OW29515   3.443   1.390   4.252  0.3443 -0.1257 -0.2508
 5961SOL    HW129516   3.377   1.453   4.221  0.7733 -0.3310 -1.5660
 5961SOL    HW229517   3.371   1.331   4.277  1.5350 -2.0295 -1.3547
 5962SOL     OW29518   4.581   3.544  14.671  0.5022  0.2060 -0.1033
 5962SOL    HW129519   4.533   3.598  14.608 -0.7550 -1.3023 -0.4245
 5962SOL    HW229520   4.646   3.503  14.614  2.2287  1.9459  0.5872
 5963SOL     OW29521   0.416   3.222   5.965  0.1527 -0.4122 -0.4603
 5963SOL    HW129522   0.456   3.223   6.051 -1.0704 -2.0408  0.1321
 5963SOL    HW229523   0.324   3.227   5.991  0.3062 -0.2967  0.0486
 5964SOL     OW29524   4.676   1.319   1.603 -0.4875  0.2202  0.0193
 5964SOL    HW129525   4.715   1.232   1.600  2.3320  1.4398  1.2057
 5964SOL    HW229526   4.719   1.352   1.682 -0.6496 -0.5949  0.4555
 5965SOL     OW29527   4.123   1.524   5.790 -0.2341 -0.0333 -0.6597
 5965SOL    HW129528   4.085   1.447   5.832  0.3890 -0.5082 -0.9624
 5965SOL    HW229529   4.197   1.548   5.846  0.3531  2.2288 -2.4096
 5966SOL     OW29530   4.337   3.153  12.709  0.3087  0.2061  0.4553
 5966SOL    HW129531   4.397   3.082  12.686 -1.3516 -1.1830  0.4149
 5966SOL    HW229532   4.276   3.105  12.765  0.1623 -0.3414 -0.1740
 5967SOL     OW29533   4.365   0.864   6.646 -0.0468  1.0789  0.2021
 5967SOL    HW129534   4.331   0.951   6.628 -1.4682  0.1313 -1.6813
 5967SOL    HW229535   4.307   0.813   6.591 -0.7561  1.0118  1.0085
 5968SOL     OW29536   4.568   0.373  14.732 -0.2798 -0.4950 -0.1606
 5968SOL    HW129537   4.542   0.286  14.761 -1.0582  0.7147  2.7452
 5968SOL    HW229538   4.490   0.421  14.758  1.1387  0.6523  2.0107
 5969SOL     OW29539   1.588   1.487   0.916  0.1387 -0.0911  0.7812
 5969SOL    HW129540   1.635   1.471   0.997 -0.4346 -1.5525  0.8299
 5969SOL    HW229541   1.639   1.427   0.861  1.9631  1.3940  0.8523
 5970SOL     OW29542   2.911   3.414   4.116 -0.9657  0.2630 -0.1426
 5970SOL    HW129543   2.923   3.495   4.066  0.6925  0.9482  1.3727
 5970SOL    HW229544   2.996   3.408   4.160 -1.1714  0.6644  0.3107
 5971SOL     OW29545   3.398   2.705  16.315 -0.8103  0.5713 -0.1703
 5971SOL    HW129546   3.463   2.669  16.255 -1.2422 -1.3385  0.5244
 5971SOL    HW229547   3.411   2.665  16.401  1.3395 -0.1861 -0.8433
 5972SOL     OW29548   4.047   0.861  14.806  0.0350  0.2190 -0.7050
 5972SOL    HW129549   4.014   0.918  14.876  1.1712  0.5378 -0.4347
 5972SOL    HW229550   4.095   0.924  14.752  0.2054  0.4827 -0.2460
 5973SOL     OW29551   2.099   2.601  12.123 -0.2112 -0.2776  0.2682
 5973SOL    HW129552   2.113   2.559  12.038 -0.7861  0.7257 -0.3233
 5973SOL    HW229553   2.125   2.524  12.174  0.5059 -0.1805  0.0584
 5974SOL     OW29554   1.251   1.261   5.416 -0.1420  0.4761 -0.4619
 5974SOL    HW129555   1.174   1.282   5.468  0.2659  1.0340 -0.0814
 5974SOL    HW229556   1.323   1.239   5.476  1.0966  1.2079 -1.6571
 5975SOL     OW29557   3.800   3.438  15.652 -0.1090  0.9031 -0.2552
 5975SOL    HW129558   3.818   3.355  15.697 -0.4160  1.5198  1.0126
 5975SOL    HW229559   3.847   3.500  15.709 -0.6665  1.5502 -0.4952
 5976SOL     OW29560   3.638   2.242   3.328  0.9757  0.8505  0.1846
 5976SOL    HW129561   3.728   2.220   3.354  0.0518 -2.6819  0.3853
 5976SOL    HW229562   3.649   2.270   3.238 -0.8192  0.3229 -0.2019
 5977SOL     OW29563   4.044   3.142  16.017  0.5027 -0.0768  0.0274
 5977SOL    HW129564   4.129   3.121  16.058  0.7167 -0.0979 -0.4309
 5977SOL    HW229565   4.063   3.236  16.015 -1.8781  0.4092  0.2706
 5978SOL     OW29566   2.973   1.710  12.953 -0.2622 -0.6456  0.4465
 5978SOL    HW129567   3.000   1.784  13.008 -1.2539 -0.4143  0.6231
 5978SOL    HW229568   3.029   1.722  12.877 -0.5078 -0.3627  0.3119
 5979SOL     OW29569   4.434   1.159   9.928  0.5543  0.0157  0.5069
 5979SOL    HW129570   4.442   1.156  10.023 -1.1996  2.8521  0.7533
 5979SOL    HW229571   4.448   1.070   9.895 -0.2115 -0.4498  1.4313
 5980SOL     OW29572   2.670   1.975   9.795 -0.0628 -0.6505 -0.0204
 5980SOL    HW129573   2.724   1.962   9.717  0.5347 -1.6674  0.5641
 5980SOL    HW229574   2.658   2.070   9.796  2.5121 -0.3521  2.9552
 5981SOL     OW29575   4.553   4.435  11.079 -0.1827 -0.0035  0.2733
 5981SOL    HW129576   4.490   4.507  11.076  0.0133  0.1298 -0.8674
 5981SOL    HW229577   4.630   4.469  11.034 -0.0523  1.0838  1.3169
 5982SOL     OW29578   1.873   3.032   0.314 -0.1344  0.4671 -0.0885
 5982SOL    HW129579   1.879   2.999   0.403  1.8766  2.8003  0.6420
 5982SOL    HW229580   1.959   3.004   0.283 -0.3565 -1.0484  0.6362
 5983SOL     OW29581   0.290   2.900   0.526  0.4611 -0.1032  0.1740
 5983SOL    HW129582   0.277   2.992   0.506 -0.1195 -0.1511  0.3195
 5983SOL    HW229583   0.246   2.856   0.453  0.6260 -1.6647  0.9974
 5984SOL     OW29584   3.081   4.313   5.443 -0.2559 -0.2274 -0.0135
 5984SOL    HW129585   3.047   4.224   5.455 -1.5211  0.0516 -1.5769
 5984SOL    HW229586   3.128   4.317   5.527 -1.7810 -1.4237  0.9080
 5985SOL     OW29587   2.164   0.472   6.734  0.1045 -0.3920  0.2979
 5985SOL    HW129588   2.164   0.410   6.661 -1.3531 -0.8285  0.6552
 5985SOL    HW229589   2.211   0.415   6.795 -0.5305 -1.2089  0.0409
 5986SOL     OW29590   4.654   4.085  10.419 -0.2151  0.1333 -0.3060
 5986SOL    HW129591   4.596   4.090  10.495 -0.3147  0.6241 -0.4202
 5986SOL    HW229592   4.716   4.156  10.433 -1.5286  1.2811 -0.3919
 5987SOL     OW29593   2.014   0.064  12.194  0.2770  0.4218  0.2855
 5987SOL    HW129594   2.048   0.143  12.237 -1.2070  0.3077  1.6908
 5987SOL    HW229595   1.975   0.102  12.116 -0.0776  1.6835  1.0735
 5988SOL     OW29596   4.326   0.436   5.991 -0.2585  0.1474  0.1506
 5988SOL    HW129597   4.268   0.500   5.951 -0.4086 -0.6246 -0.8772
 5988SOL    HW229598   4.395   0.499   6.012  0.6346 -0.7253 -0.1710
 5989SOL     OW29599   4.514   3.174   6.314  0.4170 -0.2894  0.5330
 5989SOL    HW129600   4.485   3.089   6.280 -0.7676  0.3086  0.0607
 5989SOL    HW229601   4.487   3.164   6.406 -0.5412  2.3077  0.5245
 5990SOL     OW29602   3.925   0.714   4.174  0.3427  0.2286  0.0504
 5990SOL    HW129603   4.018   0.689   4.177 -0.3354 -1.8560  3.7794
 5990SOL    HW229604   3.934   0.791   4.230  0.0559 -0.7246  1.4139
 5991SOL     OW29605   0.300   3.015   0.888  0.0125 -0.7978 -0.3260
 5991SOL    HW129606   0.296   2.931   0.843 -0.2968 -0.7353 -0.4122
 5991SOL    HW229607   0.276   2.990   0.977 -0.6243  0.8700 -0.0270
 5992SOL     OW29608   1.487   1.706   3.307 -0.2263  0.5193 -0.0841
 5992SOL    HW129609   1.434   1.735   3.233  3.1849  0.6054 -2.5006
 5992SOL    HW229610   1.448   1.618   3.310 -2.1558  1.4417  1.6270
 5993SOL     OW29611   2.368   2.183  16.118 -0.1540 -0.5028  0.2641
 5993SOL    HW129612   2.281   2.218  16.099  0.0430  0.2031  0.6364
 5993SOL    HW229613   2.342   2.095  16.143 -0.2606 -0.8014 -0.9406
 5994SOL     OW29614   2.115   0.243   7.503  0.1283  0.6253  0.7784
 5994SOL    HW129615   2.149   0.215   7.588  0.0467  1.6006  1.1236
 5994SOL    HW229616   2.187   0.212   7.448 -0.5126  0.6360 -0.0706
 5995SOL     OW29617   3.260   2.570   4.899 -0.1381 -0.1690 -1.0368
 5995SOL    HW129618   3.260   2.544   4.991 -2.6301 -1.9559 -1.5375
 5995SOL    HW229619   3.248   2.665   4.903 -0.3046 -0.2263 -0.1822
 5996SOL     OW29620   4.227   1.427   3.156 -1.0118  0.0510  0.1378
 5996SOL    HW129621   4.270   1.512   3.151 -0.1774 -0.4442 -1.2309
 5996SOL    HW229622   4.139   1.458   3.177 -1.6427 -1.0481 -0.8454
 5997SOL     OW29623   1.580   3.215   8.412 -0.0291  0.2348  0.8439
 5997SOL    HW129624   1.563   3.129   8.448 -3.3335 -0.1244 -1.6084
 5997SOL    HW229625   1.490   3.248   8.407 -0.0187 -0.1574 -2.1930
 5998SOL     OW29626   0.924   3.785   1.078  0.2389  0.1014  0.3709
 5998SOL    HW129627   0.907   3.692   1.095 -1.4862 -0.1336 -2.6672
 5998SOL    HW229628   0.989   3.806   1.145  1.6004 -0.0993 -0.9108
 5999SOL     OW29629   0.107   2.076   4.555  0.2968  0.8568 -0.0059
 5999SOL    HW129630   0.148   2.129   4.487  2.5297  0.8773  1.3797
 5999SOL    HW229631   0.037   2.131   4.592  0.1588 -0.4491  1.6753
 6000SOL     OW29632   1.196   3.854   6.346 -0.0642 -0.3443 -0.3574
 6000SOL    HW129633   1.251   3.866   6.269 -1.3556 -0.4771 -1.2951
 6000SOL    HW229634   1.150   3.938   6.351  0.6428  0.0813 -1.0184
 6001SOL     OW29635   1.146   3.301  10.782  0.0241  0.1701 -0.0275
 6001SOL    HW129636   1.204   3.373  10.805 -1.2755  1.4570 -0.8136
 6001SOL    HW229637   1.122   3.288  10.873  0.2971 -0.7668 -0.0851
 6002SOL     OW29638   1.580   3.291   7.671  0.1760 -0.4059  0.0432
 6002SOL    HW129639   1.494   3.251   7.664  0.3482 -0.5957 -0.9147
 6002SOL    HW229640   1.590   3.280   7.766  0.0240 -0.8672  0.0062
 6003SOL     OW29641   0.634   0.139   9.290  0.3127  0.0076  0.5095
 6003SOL    HW129642   0.694   0.113   9.220  0.5972  1.4200  0.2220
 6003SOL    HW229643   0.672   0.086   9.360  2.4851 -0.9537 -1.3787
 6004SOL     OW29644   4.710   3.553   4.881  0.0529  0.0320 -0.9414
 6004SOL    HW129645   0.041   3.486   4.881 -0.7910 -0.8344 -1.0102
 6004SOL    HW229646   0.022   3.634   4.890  1.2105 -0.9998  2.0340
 6005SOL     OW29647   1.227   3.051   7.422 -0.0575 -0.4955 -0.3169
 6005SOL    HW129648   1.132   3.063   7.432  0.4176  1.5389  1.5244
 6005SOL    HW229649   1.234   2.977   7.483  1.9158  0.7759  0.9873
 6006SOL     OW29650   3.196   4.578   8.249  0.3677 -0.3754 -0.0969
 6006SOL    HW129651   3.142   4.651   8.278  0.9429  0.4087 -1.0099
 6006SOL    HW229652   3.259   4.624   8.193 -1.5417  0.5782 -1.4341
 6007SOL     OW29653   3.940   4.256   7.596  0.1502 -0.6995  0.2545
 6007SOL    HW129654   4.023   4.211   7.610 -0.3968 -1.7175  0.2283
 6007SOL    HW229655   3.971   4.344   7.576 -0.9587 -0.6966 -1.4185
 6008SOL     OW29656   3.784   1.911   6.546 -0.3869 -0.0396 -0.2086
 6008SOL    HW129657   3.846   1.944   6.611 -1.6510  0.4807  0.7208
 6008SOL    HW229658   3.714   1.881   6.604  0.1881  0.4719  0.7433
 6009SOL     OW29659   4.382   3.232  17.151 -0.4226  0.0048  0.0292
 6009SOL    HW129660   4.345   3.320  17.144  0.6356  0.3901 -0.8252
 6009SOL    HW229661   4.375   3.205  17.242  0.2692  0.4240  0.2074
 6010SOL     OW29662   1.267   2.319  17.651 -0.2826 -0.3365  0.8712
 6010SOL    HW129663   1.294   2.408  17.627 -1.0561 -0.5227 -0.7171
 6010SOL    HW229664   1.211   2.287  17.580  0.4522  1.7327 -0.6199
 6011SOL     OW29665   3.512   4.238   6.431  0.1808  0.4244 -0.1654
 6011SOL    HW129666   3.570   4.252   6.356  0.3135  0.7200 -0.0044
 6011SOL    HW229667   3.572   4.188   6.487  0.3109  0.7723  0.0058
 6012SOL     OW29668   3.185   0.004  14.727 -0.1560  0.4022  0.0838
 6012SOL    HW129669   3.110   0.060  14.708  0.7568  1.1320 -1.3122
 6012SOL    HW229670   3.215   4.730  14.636 -0.5183 -0.2560  0.0391
 6013SOL     OW29671   2.298   3.160  13.450 -0.5281 -0.6396  0.5291
 6013SOL    HW129672   2.209   3.134  13.473 -0.2358 -1.3157  0.8936
 6013SOL    HW229673   2.353   3.144  13.527  3.0201 -0.4951 -1.9923
 6014SOL     OW29674   0.089   2.381   2.361 -0.6466  0.6881  0.4414
 6014SOL    HW129675   0.006   2.336   2.378  0.1933 -0.9322  0.2450
 6014SOL    HW229676   0.059   2.472   2.362  0.4434  1.0535 -0.2222
 6015SOL     OW29677   3.205   3.460   2.296 -0.9088  0.1970  0.1867
 6015SOL    HW129678   3.123   3.473   2.344  0.0409  0.8438  1.6173
 6015SOL    HW229679   3.226   3.374   2.333  1.0105  0.8421  0.5968
 6016SOL     OW29680   3.344   3.721  15.343  0.0182 -0.1635 -0.1912
 6016SOL    HW129681   3.255   3.710  15.309 -0.7054 -0.2995  1.7781
 6016SOL    HW229682   3.388   3.762  15.268 -0.3631  0.7004  0.0528
 6017SOL     OW29683   3.402   0.846   6.311 -0.0082 -0.2291 -0.4816
 6017SOL    HW129684   3.369   0.829   6.223  0.6993 -0.8024 -0.6342
 6017SOL    HW229685   3.348   0.919   6.341  0.5541 -0.6780  1.6586
 6018SOL     OW29686   4.574   2.857   4.403 -0.5375  0.3762 -0.2094
 6018SOL    HW129687   4.548   2.826   4.490 -1.9204  1.2697 -0.3125
 6018SOL    HW229688   4.650   2.803   4.378  0.1368  0.3494  1.8943
 6019SOL     OW29689   1.854   3.269   5.915  0.5344 -0.2139 -0.2855
 6019SOL    HW129690   1.912   3.194   5.925  3.1349  1.9188  0.4276
 6019SOL    HW229691   1.784   3.232   5.861  0.0816 -1.1411  0.9334
 6020SOL     OW29692   4.442   0.076   2.880 -0.5594 -0.1277  0.7870
 6020SOL    HW129693   4.386   0.005   2.848  0.5460 -2.1813  3.4417
 6020SOL    HW229694   4.505   0.078   2.808 -2.8510  0.2928 -1.2426
 6021SOL     OW29695   1.606   0.284  12.668 -0.1204 -0.5214  0.3276
 6021SOL    HW129696   1.662   0.345  12.716 -0.0832 -1.3381  1.3306
 6021SOL    HW229697   1.673   0.260  12.604 -0.7093  2.2088 -1.2996
 6022SOL     OW29698   0.999   2.136   3.419  0.2852  0.0399 -0.0842
 6022SOL    HW129699   0.982   2.105   3.330  0.5792 -1.1711  0.2845
 6022SOL    HW229700   0.911   2.172   3.432 -0.4153 -1.4306 -0.7902
 6023SOL     OW29701   4.606   4.329   3.678  0.1643 -0.3687 -0.0145
 6023SOL    HW129702   4.542   4.259   3.693  0.5983 -0.8770 -0.5127
 6023SOL    HW229703   4.645   4.308   3.763 -0.4919 -0.4168  0.2726
 6024SOL     OW29704   3.285   3.309   2.520  0.2502 -0.1225  0.3804
 6024SOL    HW129705   3.373   3.341   2.542  1.0076 -1.0884 -1.2559
 6024SOL    HW229706   3.320   3.225   2.491 -2.0061 -0.7659 -0.4862
 6025SOL     OW29707   1.206   4.314  17.103  0.0951  0.0335  0.1342
 6025SOL    HW129708   1.147   4.240  17.114 -1.8855  1.6531  0.4624
 6025SOL    HW229709   1.283   4.268  17.069 -0.6770 -1.7883  0.8927
 6026SOL     OW29710   1.501   0.556   4.312  0.0303 -0.1864  0.3502
 6026SOL    HW129711   1.414   0.566   4.351  0.1152  1.0828  0.2157
 6026SOL    HW229712   1.529   0.645   4.294  0.4693 -0.4039 -0.0549
 6027SOL     OW29713   1.070   2.313   6.200  0.1153  0.5435  0.6890
 6027SOL    HW129714   1.100   2.261   6.275  0.3929 -0.2865 -0.0033
 6027SOL    HW229715   0.986   2.270   6.185  0.1647  0.1747  1.4698
 6028SOL     OW29716   4.629   3.938  14.421  0.0336 -0.6322  0.1424
 6028SOL    HW129717   4.654   4.029  14.407 -1.2455 -0.3832 -0.5501
 6028SOL    HW229718   4.595   3.903  14.338 -0.9631  1.3336 -0.2590
 6029SOL     OW29719   3.983   0.930   8.084  0.0725  0.1168 -0.8279
 6029SOL    HW129720   4.037   0.974   8.150  0.0479 -1.1846  0.0671
 6029SOL    HW229721   3.913   0.994   8.095 -0.2972 -0.6541  1.1703
 6030SOL     OW29722   1.661   4.098   3.249 -0.2222  0.2985 -0.5276
 6030SOL    HW129723   1.675   4.034   3.319 -1.1765  0.4833 -0.1575
 6030SOL    HW229724   1.565   4.103   3.240 -0.2799 -0.6537 -0.4544
 6031SOL     OW29725   3.797   0.169  16.536 -0.2711 -0.3920  0.2948
 6031SOL    HW129726   3.778   0.211  16.620 -0.8206 -1.6267  0.8007
 6031SOL    HW229727   3.880   0.122  16.543 -0.0160  0.2102  1.3862
 6032SOL     OW29728   1.742   3.871  11.002  0.5598  0.2063 -0.3475
 6032SOL    HW129729   1.808   3.931  11.037  1.8310  0.1734 -2.7264
 6032SOL    HW229730   1.797   3.835  10.933 -0.7440  1.2946 -1.9340
 6033SOL     OW29731   1.671   4.627   7.682 -0.2173  0.5043  0.2733
 6033SOL    HW129732   1.686   4.705   7.735  0.9060  1.1698 -1.0103
 6033SOL    HW229733   1.620   4.572   7.740  2.4604 -0.9960  1.2022
 6034SOL     OW29734   1.313   2.887   5.358 -0.0537 -0.4878 -0.0866
 6034SOL    HW129735   1.358   2.970   5.340  1.6472 -1.0129  1.8611
 6034SOL    HW229736   1.373   2.836   5.411 -0.7892 -2.1782 -0.8712
 6035SOL     OW29737   3.854   3.659   5.965  0.1903  0.4909 -0.0092
 6035SOL    HW129738   3.782   3.611   6.004  0.5819  0.4918  0.7175
 6035SOL    HW229739   3.900   3.587   5.922  0.5639  0.2852  0.7428
 6036SOL     OW29740   3.222   3.743   0.611 -0.0424 -0.3013 -0.4950
 6036SOL    HW129741   3.272   3.707   0.538  0.4996 -0.4927 -0.0299
 6036SOL    HW229742   3.230   3.669   0.671  1.1983  0.9539  0.8636
 6037SOL     OW29743   2.382   2.036   4.127 -0.0892 -0.3215  0.0382
 6037SOL    HW129744   2.390   2.079   4.212  1.9955  0.8475 -0.7623
 6037SOL    HW229745   2.379   1.945   4.158 -0.5334 -0.1887  0.3957
 6038SOL     OW29746   3.089   3.425   9.266 -0.2125  0.2680  0.1876
 6038SOL    HW129747   3.147   3.417   9.190 -0.1869  0.1039  0.2242
 6038SOL    HW229748   3.086   3.518   9.288  1.6110 -0.1451  2.1264
 6039SOL     OW29749   3.718   3.700   9.361 -0.3214  0.4903  0.3777
 6039SOL    HW129750   3.692   3.690   9.270 -0.1962 -1.9398  0.6084
 6039SOL    HW229751   3.779   3.773   9.363 -0.5084  0.6404  0.6664
 6040SOL     OW29752   1.299   1.955   8.091  0.3943 -0.1536 -0.0370
 6040SOL    HW129753   1.337   1.886   8.146  1.3159  1.1617  0.9956
 6040SOL    HW229754   1.306   2.029   8.153  1.8429  0.1787 -0.5942
 6041SOL     OW29755   2.545   1.742   7.643 -0.0737  0.3210  0.2870
 6041SOL    HW129756   2.564   1.691   7.564  3.6490 -0.8331  1.9463
 6041SOL    HW229757   2.554   1.672   7.707  0.4773  0.6022  0.5169
 6042SOL     OW29758   1.823   2.163   6.032  0.3207 -0.0011 -0.5241
 6042SOL    HW129759   1.844   2.138   5.942  0.3218  2.0764 -1.1054
 6042SOL    HW229760   1.884   2.236   6.045  1.3214 -0.4443 -2.6139
 6043SOL     OW29761   2.538   3.467   0.175 -0.4381 -0.4645 -0.3277
 6043SOL    HW129762   2.450   3.497   0.151 -0.1344 -0.4886 -1.4935
 6043SOL    HW229763   2.558   3.417   0.096  1.1627 -1.0156  0.4508
 6044SOL     OW29764   2.231   4.388   5.948  0.4729 -0.1284 -0.5320
 6044SOL    HW129765   2.304   4.423   5.999  0.8007 -0.4234 -0.7956
 6044SOL    HW229766   2.238   4.293   5.952  0.5858 -0.0260  1.6401
 6045SOL     OW29767   1.170   0.901  16.251 -0.0662  0.2390 -0.6212
 6045SOL    HW129768   1.110   0.841  16.207 -1.2518  1.3174 -0.4789
 6045SOL    HW229769   1.224   0.843  16.306 -0.6169  0.1859 -0.1339
 6046SOL     OW29770   2.359   1.391   2.700 -0.2705 -0.4897 -0.0419
 6046SOL    HW129771   2.337   1.314   2.751 -2.9285  0.9024  0.9102
 6046SOL    HW229772   2.366   1.463   2.764 -0.4401 -1.6524  1.2807
 6047SOL     OW29773   2.485   0.829   2.610  0.6774  0.1801  0.5369
 6047SOL    HW129774   2.548   0.814   2.540 -0.0503 -0.9170  0.1236
 6047SOL    HW229775   2.422   0.757   2.604  0.7240  0.2280 -0.5483
 6048SOL     OW29776   4.118   2.263   9.413 -0.3546  0.0689  0.2764
 6048SOL    HW129777   4.175   2.226   9.345 -0.7583  0.7557 -0.4325
 6048SOL    HW229778   4.118   2.197   9.482 -0.5853 -0.1563  0.0600
 6049SOL     OW29779   3.163   4.166  10.203  0.0667  0.9048  0.7862
 6049SOL    HW129780   3.212   4.085  10.190 -2.7937 -0.6209 -0.7884
 6049SOL    HW229781   3.103   4.134  10.270  1.3263 -2.2799  0.4074
 6050SOL     OW29782   4.114   3.128  13.137  0.5289 -0.1485 -0.6150
 6050SOL    HW129783   4.130   3.220  13.158 -0.5021 -0.2257  0.5051
 6050SOL    HW229784   4.160   3.126  13.053 -0.6246  0.2269 -1.2707
 6051SOL     OW29785   0.771   2.132  17.594  0.4083  0.5436  0.2061
 6051SOL    HW129786   0.758   2.090  17.509 -2.3546 -0.7041  1.2487
 6051SOL    HW229787   0.770   2.056  17.652  0.5076 -0.1166 -0.6605
 6052SOL     OW29788   1.461   3.572   6.445 -0.5199  0.0487 -0.2224
 6052SOL    HW129789   1.480   3.512   6.373  3.7983  2.0646 -0.7759
 6052SOL    HW229790   1.548   3.578   6.484 -0.0578 -1.0329 -1.0880
 6053SOL     OW29791   0.872   0.997   3.534  0.1357  0.0357 -0.2340
 6053SOL    HW129792   0.786   0.970   3.500  0.1104  2.3503 -1.9847
 6053SOL    HW229793   0.864   1.088   3.561  0.1610  0.0259 -0.1934
 6054SOL     OW29794   0.914   4.659   7.106 -0.0636 -0.5661  0.1535
 6054SOL    HW129795   0.888   4.593   7.041 -0.6086  0.1358 -0.3361
 6054SOL    HW229796   0.929   4.736   7.052  1.4458  0.0756  1.4981
 6055SOL     OW29797   4.126   1.703   9.022  0.1441 -0.0622 -0.1965
 6055SOL    HW129798   4.045   1.656   9.001  1.2031 -0.8743 -2.5129
 6055SOL    HW229799   4.180   1.628   9.049 -0.7219 -0.6275 -0.0138
 6056SOL     OW29800   0.270   1.497   2.384 -0.2023 -0.3227  0.3133
 6056SOL    HW129801   0.272   1.446   2.302  1.6825 -1.2152  0.9193
 6056SOL    HW229802   0.247   1.434   2.452  0.8136 -2.4664 -1.3245
 6057SOL     OW29803   2.696   3.873   1.340 -0.4385  0.0632  0.0635
 6057SOL    HW129804   2.662   3.909   1.422 -0.1586 -0.5237  0.4308
 6057SOL    HW229805   2.771   3.932   1.331 -1.8874  1.6595 -1.7357
 6058SOL     OW29806   1.985   2.017   0.082 -0.1020 -0.0507 -0.4491
 6058SOL    HW129807   1.989   1.994  17.736 -1.4198  1.6499 -0.9318
 6058SOL    HW229808   1.890   2.012   0.083 -0.0702 -0.4179  0.8583
 6059SOL     OW29809   2.276   2.123  14.692  0.3699 -0.0027 -0.6455
 6059SOL    HW129810   2.365   2.156  14.706 -0.1278  1.2365 -0.3608
 6059SOL    HW229811   2.233   2.201  14.657  2.7123  1.3977 -0.4594
 6060SOL     OW29812   3.361   3.483  17.363  0.2612  0.2005  0.1359
 6060SOL    HW129813   3.356   3.551  17.296  0.0768 -0.2665 -0.3271
 6060SOL    HW229814   3.387   3.544  17.432  0.2499  1.0102 -0.5694
 6061SOL     OW29815   2.551   3.232   5.667 -0.5462 -0.0079 -0.0189
 6061SOL    HW129816   2.588   3.292   5.602 -0.4294 -0.8457 -0.7237
 6061SOL    HW229817   2.537   3.163   5.603 -0.2901 -2.4994  2.6244
 6062SOL     OW29818   4.379   3.742   9.966 -0.3374  0.1042 -0.2104
 6062SOL    HW129819   4.404   3.813  10.025  0.8965 -1.1279  0.7393
 6062SOL    HW229820   4.442   3.675   9.991  0.0528  0.5466 -0.0146
 6063SOL     OW29821   1.025   3.052   2.149  0.4932 -0.2547 -0.7255
 6063SOL    HW129822   0.994   3.069   2.238  0.4320 -2.1226 -0.3813
 6063SOL    HW229823   0.984   3.122   2.099 -1.0611  1.2055  2.5438
 6064SOL     OW29824   0.190   0.989   4.546  0.0269 -0.5526 -1.0437
 6064SOL    HW129825   0.184   0.896   4.522  2.1188 -1.0238  0.2766
 6064SOL    HW229826   0.226   0.985   4.634  0.7335 -1.1218 -1.3633
 6065SOL     OW29827   2.160   4.307   8.430 -0.0996  0.2333  0.0256
 6065SOL    HW129828   2.130   4.229   8.384  1.7959  0.2246 -1.2076
 6065SOL    HW229829   2.170   4.361   8.351 -0.9338  1.0361  0.4689
 6066SOL     OW29830   1.791   1.269   2.459  0.4645  0.1970  0.1654
 6066SOL    HW129831   1.826   1.255   2.371 -0.2180  1.1194 -0.2440
 6066SOL    HW229832   1.835   1.352   2.478 -3.3479  1.9714  1.1805
 6067SOL     OW29833   1.607   2.754  14.995 -0.3153  0.1066  0.3473
 6067SOL    HW129834   1.567   2.758  14.908  0.7845 -0.5954 -0.1849
 6067SOL    HW229835   1.697   2.762  14.965 -0.4036 -0.6750 -0.1547
 6068SOL     OW29836   2.200   2.957   9.147  0.6098  0.4406 -0.5499
 6068SOL    HW129837   2.191   2.996   9.059 -1.8948 -0.9217 -0.8777
 6068SOL    HW229838   2.231   3.036   9.191  0.6360 -0.7539  1.5571
 6069SOL     OW29839   1.962   1.720   0.919 -1.1465 -0.0257  0.2622
 6069SOL    HW129840   1.960   1.807   0.879 -0.3038 -0.7041 -1.2611
 6069SOL    HW229841   1.891   1.683   0.867  0.5177 -1.3820 -1.0440
 6070SOL     OW29842   0.995   1.265   2.256 -0.3464  0.2179  0.2436
 6070SOL    HW129843   0.956   1.182   2.284  2.3415 -1.1144  0.0432
 6070SOL    HW229844   1.028   1.246   2.169  1.5089  1.2156  0.7253
 6071SOL     OW29845   3.362   4.336   3.716 -0.2444  0.5281  0.0625
 6071SOL    HW129846   3.399   4.411   3.669 -1.7898  0.1154 -1.8084
 6071SOL    HW229847   3.272   4.331   3.684  1.3904  0.3909 -4.4698
 6072SOL     OW29848   4.419   3.692   2.944  0.5974  0.2987 -0.7544
 6072SOL    HW129849   4.428   3.765   2.882 -1.2475  0.4033 -0.8949
 6072SOL    HW229850   4.502   3.645   2.938  0.0483 -0.7851  0.1299
 6073SOL     OW29851   2.942   1.335  13.271  0.3838  0.0553 -0.4427
 6073SOL    HW129852   2.940   1.372  13.183  1.5062  2.0214  0.3478
 6073SOL    HW229853   2.865   1.373  13.314 -0.1953  1.2042 -2.4685
 6074SOL     OW29854   4.355   4.107  16.295 -0.5419 -0.5613 -0.0522
 6074SOL    HW129855   4.382   4.168  16.363 -1.0807  1.8307 -1.9672
 6074SOL    HW229856   4.386   4.148  16.215 -1.1410  1.1855  0.6285
 6075SOL     OW29857   1.085   0.796  11.145  0.2733 -0.0714  0.1672
 6075SOL    HW129858   1.155   0.787  11.208 -0.0424 -0.1652  0.5044
 6075SOL    HW229859   1.141   0.824  11.072 -1.3019 -0.7003 -1.2888
 6076SOL     OW29860   4.303   4.048   8.448 -0.2854 -0.1326 -0.6332
 6076SOL    HW129861   4.389   4.077   8.417  0.3730 -0.8874  0.4807
 6076SOL    HW229862   4.291   4.118   8.511 -0.3616  0.1043 -0.9133
 6077SOL     OW29863   3.991   3.313  14.245  0.4501 -0.3254 -0.1914
 6077SOL    HW129864   3.929   3.294  14.315 -1.2766 -1.5680 -2.0710
 6077SOL    HW229865   4.029   3.400  14.257 -0.4168  0.0569 -0.2666
 6078SOL     OW29866   1.098   2.462   4.785 -0.1338  0.1948 -0.5704
 6078SOL    HW129867   1.134   2.544   4.750 -1.0932  0.2212 -1.4921
 6078SOL    HW229868   1.169   2.426   4.838  0.1162  1.2082 -0.2163
 6079SOL     OW29869   2.188   2.958  12.612 -0.5140  0.0764 -0.0419
 6079SOL    HW129870   2.133   2.881  12.621 -0.3230 -0.2262 -1.6316
 6079SOL    HW229871   2.271   2.918  12.638 -0.4027 -0.0310 -0.5667
 6080SOL     OW29872   4.156   0.127   8.152 -0.2954 -0.0938 -0.4413
 6080SOL    HW129873   4.099   0.054   8.130 -1.9569  1.2413 -0.5773
 6080SOL    HW229874   4.240   0.086   8.174  0.5620  1.4257 -0.8045
 6081SOL     OW29875   0.800   4.202  15.157 -0.0798 -0.0054  0.2321
 6081SOL    HW129876   0.850   4.189  15.238  0.1639 -0.3766  0.0260
 6081SOL    HW229877   0.864   4.256  15.110  1.8030 -1.9550  0.5101
 6082SOL     OW29878   4.119   4.648   8.396  0.1476 -0.3388 -0.6273
 6082SOL    HW129879   4.056   4.576   8.394 -1.3152  0.9774 -1.0947
 6082SOL    HW229880   4.134   4.673   8.487 -0.6968 -3.1434  0.2848
 6083SOL     OW29881   0.053   0.101   2.016 -0.0319  0.3850  0.6808
 6083SOL    HW129882   0.069   0.161   1.942 -0.1726  0.9268  1.0932
 6083SOL    HW229883   0.125   0.039   2.018  0.1268  0.4934 -1.5560
 6084SOL     OW29884   1.124   0.728   5.493 -0.3873 -0.9047 -0.3900
 6084SOL    HW129885   1.128   0.667   5.420 -0.8112  1.5184 -2.4589
 6084SOL    HW229886   1.153   0.813   5.459  0.6253 -1.8178 -1.7760
 6085SOL     OW29887   1.150   2.009  14.657  0.1189  0.3578  0.0222
 6085SOL    HW129888   1.101   1.932  14.684 -0.0743  1.4345  2.7589
 6085SOL    HW229889   1.078   2.069  14.675 -1.6754 -1.7515 -0.2034
 6086SOL     OW29890   0.758   4.704  11.805 -0.1169  0.4460 -0.5867
 6086SOL    HW129891   0.852   4.685  11.813 -0.5629 -0.7225  1.8876
 6086SOL    HW229892   0.761   0.047  11.752 -0.1639  1.6584  1.2239
 6087SOL     OW29893   4.711   4.210  12.479  0.0833 -0.4575  0.3921
 6087SOL    HW129894   4.700   4.248  12.567 -2.3111  0.8004 -0.4466
 6087SOL    HW229895   0.067   4.229  12.462 -0.2104  2.1215  1.5700
 6088SOL     OW29896   0.476   4.562   3.338 -0.3916 -0.1594  0.3842
 6088SOL    HW129897   0.393   4.570   3.291 -0.7360 -1.7237  0.7282
 6088SOL    HW229898   0.471   4.495   3.406 -0.2208 -0.7875 -0.2349
 6089SOL     OW29899   1.308   2.014   3.148  0.3978 -0.1497  0.4785
 6089SOL    HW129900   1.364   2.057   3.083  1.4938 -1.5762  0.4552
 6089SOL    HW229901   1.325   1.923   3.122  0.4223 -0.0413  0.1023
 6090SOL     OW29902   2.510   3.638  11.346  0.2467 -0.3820 -0.4366
 6090SOL    HW129903   2.510   3.577  11.419  0.2814  0.6225  0.4076
 6090SOL    HW229904   2.415   3.638  11.332  0.4364 -0.9350 -1.7154
 6091SOL     OW29905   0.195   1.627   0.702 -0.2214  0.1832 -0.1213
 6091SOL    HW129906   0.189   1.721   0.716  0.0914  0.1724  0.0904
 6091SOL    HW229907   0.142   1.625   0.622  0.3201  0.6300 -0.4931
 6092SOL     OW29908   3.927   3.881   2.194  0.0192 -0.0555  0.1755
 6092SOL    HW129909   3.882   3.807   2.236  0.6134 -0.4985  0.0281
 6092SOL    HW229910   3.920   3.946   2.264  1.2932  0.1138  0.1416
 6093SOL     OW29911   4.708   1.357   6.274  0.0200  0.2728  0.3246
 6093SOL    HW129912   0.062   1.385   6.277  0.2469 -0.5612  1.5476
 6093SOL    HW229913   4.690   1.352   6.368  0.7485  1.7717  0.5267
 6094SOL     OW29914   0.732   0.974   4.319  0.6058  0.1506 -0.9948
 6094SOL    HW129915   0.813   0.954   4.272  0.7551 -0.3303 -0.5259
 6094SOL    HW229916   0.671   0.909   4.284 -0.3211 -0.1018  1.0949
 6095SOL     OW29917   3.021   3.650   6.189  0.1495  0.1523 -0.0192
 6095SOL    HW129918   2.965   3.728   6.194 -1.0724 -0.7408  0.2953
 6095SOL    HW229919   2.967   3.578   6.224  0.1496  0.1779  0.0333
 6096SOL     OW29920   3.344   3.262   8.285  0.3688  0.2802 -0.1321
 6096SOL    HW129921   3.346   3.186   8.227  0.5656 -0.2557  0.5762
 6096SOL    HW229922   3.317   3.219   8.366 -0.2790 -0.9060 -0.9707
 6097SOL     OW29923   2.071   4.704  11.873  0.5949 -0.9150  0.3194
 6097SOL    HW129924   2.110   4.680  11.789 -0.3240 -0.7205 -0.1582
 6097SOL    HW229925   2.018   0.043  11.852  1.8917  0.5374  2.2418
 6098SOL     OW29926   1.242   1.091  14.188  0.1786  0.3489  0.3333
 6098SOL    HW129927   1.192   1.059  14.263 -0.9744 -2.4587 -1.6023
 6098SOL    HW229928   1.239   1.186  14.192 -2.3931  0.3433 -1.2179
 6099SOL     OW29929   1.631   2.116   1.640 -0.2486  0.1791  0.6339
 6099SOL    HW129930   1.694   2.094   1.572 -0.8615 -0.9156  0.4114
 6099SOL    HW229931   1.554   2.069   1.608  0.1335 -1.3886  1.9899
 6100SOL     OW29932   0.186   1.613   1.901  0.4689  0.4780  0.6193
 6100SOL    HW129933   0.134   1.557   1.842  0.1889  0.5036  0.8432
 6100SOL    HW229934   0.128   1.621   1.977 -0.6502 -0.3622 -0.1311
 6101SOL     OW29935   0.004   0.475  14.293  0.4631 -0.6992  0.1211
 6101SOL    HW129936   4.703   0.417  14.359 -0.5278  0.6024  0.7052
 6101SOL    HW229937   4.664   0.532  14.287  0.9587  0.0057  0.4199
 6102SOL     OW29938   3.387   0.461  13.807  0.6070  0.0010  0.3889
 6102SOL    HW129939   3.449   0.420  13.868  0.3491 -0.4027  0.3804
 6102SOL    HW229940   3.439   0.537  13.781  2.6139 -1.7101 -0.6097
 6103SOL     OW29941   2.458   1.938   1.612 -0.2964  0.2313 -0.3392
 6103SOL    HW129942   2.547   1.934   1.577  0.9525 -1.3879  2.9924
 6103SOL    HW229943   2.409   1.918   1.534 -2.6316 -0.4721  1.3232
 6104SOL     OW29944   1.491   4.642   5.346 -0.5635 -0.1998  0.3455
 6104SOL    HW129945   1.454   4.629   5.258  2.5607 -0.3154 -0.9587
 6104SOL    HW229946   1.491   0.001   5.357 -0.5562 -0.2458  0.7330
 6105SOL     OW29947   0.264   2.809   3.842  0.0667 -0.0136  0.1422
 6105SOL    HW129948   0.229   2.836   3.757 -0.8334 -0.1269  0.4791
 6105SOL    HW229949   0.284   2.895   3.880  0.4331 -0.2923  0.5773
 6106SOL     OW29950   1.773   4.231   5.917  0.2286  0.2109  0.8011
 6106SOL    HW129951   1.749   4.180   5.839 -0.4635  1.0828  0.4438
 6106SOL    HW229952   1.865   4.212   5.932  0.8239 -0.6065 -3.6784
 6107SOL     OW29953   4.259   2.100   4.990  0.6855  0.1045  0.1580
 6107SOL    HW129954   4.234   2.048   4.915  0.8390  1.2200 -0.6665
 6107SOL    HW229955   4.272   2.190   4.959  2.9483  0.1454  1.2278
 6108SOL     OW29956   4.530   4.142  17.342  0.0378  0.7299  0.0813
 6108SOL    HW129957   4.445   4.160  17.382 -0.2238 -0.6505  0.1276
 6108SOL    HW229958   4.590   4.165  17.413  0.4648 -1.9230  0.5578
 6109SOL     OW29959   2.822   3.736   8.697  0.5728 -0.6235 -0.3392
 6109SOL    HW129960   2.886   3.764   8.763 -2.0800  1.3230  1.3690
 6109SOL    HW229961   2.741   3.743   8.747  0.5385 -2.4567 -0.1193
 6110SOL     OW29962   1.658   1.678  10.961  0.0235  0.1335 -0.0497
 6110SOL    HW129963   1.643   1.762  10.919  0.3500  0.7655  1.1075
 6110SOL    HW229964   1.577   1.630  10.944  0.5633 -0.4393 -0.9665
 6111SOL     OW29965   1.644   4.404   7.457 -0.0162  0.4737 -0.5434
 6111SOL    HW129966   1.739   4.400   7.445 -0.1332  0.4423 -1.4872
 6111SOL    HW229967   1.648   4.444   7.544 -1.7177  0.3952 -0.4276
 6112SOL     OW29968   3.058   3.999   7.794  0.2117  0.1821 -0.5586
 6112SOL    HW129969   3.045   4.042   7.878 -0.2984 -1.5258  0.2318
 6112SOL    HW229970   3.076   4.081   7.748 -0.9912  0.4845 -0.4873
 6113SOL     OW29971   0.455   1.213  16.683 -0.2026 -0.5505 -0.3235
 6113SOL    HW129972   0.440   1.278  16.614 -0.7410 -0.5698 -0.2228
 6113SOL    HW229973   0.537   1.241  16.723 -1.2440  1.7308  0.2242
 6114SOL     OW29974   0.997   1.607   5.749 -0.0869 -0.1366 -0.2084
 6114SOL    HW129975   1.070   1.555   5.782 -1.6296 -1.2546  1.4474
 6114SOL    HW229976   1.039   1.692   5.735  0.5069 -0.1516  1.4935
 6115SOL     OW29977   1.209   4.130   4.696  0.0697  0.0865 -0.6055
 6115SOL    HW129978   1.177   4.218   4.719  0.3892  0.9767 -3.4983
 6115SOL    HW229979   1.193   4.083   4.777 -1.6972  0.4962 -0.7098
 6116SOL     OW29980   4.294   0.418  12.115 -0.0062 -0.3729 -0.1100
 6116SOL    HW129981   4.219   0.473  12.137  1.0986 -0.0271  2.8309
 6116SOL    HW229982   4.345   0.439  12.194 -0.6442  0.7048  0.0123
 6117SOL     OW29983   2.179   0.237   0.100  0.2982  0.3334 -0.3310
 6117SOL    HW129984   2.232   0.164   0.069 -0.1857 -0.2627  0.2460
 6117SOL    HW229985   2.091   0.200   0.103  0.4820 -0.1108 -0.4233
 6118SOL     OW29986   4.071   1.205   2.118 -0.1332 -0.3738  0.0270
 6118SOL    HW129987   3.997   1.249   2.077  0.7796  0.5370 -0.6364
 6118SOL    HW229988   4.042   1.202   2.209 -2.1730 -3.4500 -0.7291
 6119SOL     OW29989   4.623   2.934   8.859  0.4207 -0.0489 -0.1106
 6119SOL    HW129990   4.542   2.901   8.819 -0.0508 -0.1462  0.9214
 6119SOL    HW229991   4.586   2.970   8.940  1.5270 -4.3015  2.3143
 6120SOL     OW29992   1.565   3.433  12.645 -0.5820 -0.2886 -0.2158
 6120SOL    HW129993   1.553   3.527  12.628  3.9711  0.2323 -0.6420
 6120SOL    HW229994   1.660   3.419  12.647 -0.5509  0.2649  2.1334
 6121SOL     OW29995   1.537   1.174   3.534  0.4965  0.2471  0.3300
 6121SOL    HW129996   1.587   1.146   3.457 -1.3078 -2.2564  0.0835
 6121SOL    HW229997   1.451   1.144   3.506  0.4419  3.0868 -2.5770
 6122SOL     OW29998   2.032   4.316   6.947  0.2934 -0.5110  0.3205
 6122SOL    HW129999   2.042   4.375   7.021 -2.2064  1.3999 -0.8663
 6122SOL    HW230000   2.119   4.274   6.943  0.5311 -0.1145  1.4110
 6123SOL     OW30001   4.145   1.674   6.067  0.4739 -0.2417  0.2116
 6123SOL    HW130002   4.196   1.605   6.110 -1.4919 -0.7263  1.7665
 6123SOL    HW230003   4.210   1.719   6.012  0.2038  1.0265  0.9340
 6124SOL     OW30004   2.777   3.318  13.213  0.4137  0.4458  0.1535
 6124SOL    HW130005   2.831   3.311  13.292  1.5687  0.2615 -0.6605
 6124SOL    HW230006   2.840   3.279  13.153  0.7937 -0.4652  1.1301
 6125SOL     OW30007   1.784   4.385   6.367  0.0748 -0.1444 -0.6702
 6125SOL    HW130008   1.778   4.305   6.419  2.5088  1.0190  1.3562
 6125SOL    HW230009   1.876   4.370   6.344  0.6292  0.3542  1.2597
 6126SOL     OW30010   2.459   2.936   3.231  0.2614 -0.0695 -0.3174
 6126SOL    HW130011   2.367   2.913   3.226 -0.4692  3.2689 -2.1129
 6126SOL    HW230012   2.496   2.848   3.232 -0.3949 -0.3403  0.1545
 6127SOL     OW30013   1.176   1.138   6.201  0.0568 -0.6528 -0.1044
 6127SOL    HW130014   1.244   1.161   6.138 -1.2403  0.7305 -0.9935
 6127SOL    HW230015   1.220   1.069   6.251 -0.8353 -0.5981  0.7474
 6128SOL     OW30016   2.526   4.545  12.472  0.0403 -0.0347 -0.2427
 6128SOL    HW130017   2.478   4.550  12.555 -0.8620  3.2411 -0.9851
 6128SOL    HW230018   2.597   4.601  12.503 -1.5436  0.4176  2.6252
 6129SOL     OW30019   0.690   3.254   4.409 -0.2525  0.3472  0.4290
 6129SOL    HW130020   0.616   3.204   4.442 -1.0035  1.2698  0.1495
 6129SOL    HW230021   0.746   3.221   4.480 -0.9949 -3.7051 -0.9100
 6130SOL     OW30022   4.615   0.713   1.950 -0.1391  0.2563 -0.1253
 6130SOL    HW130023   4.648   0.764   1.876 -0.9665  3.4372  1.6806
 6130SOL    HW230024   4.558   0.667   1.889 -0.5710  0.2152  0.3082
 6131SOL     OW30025   3.193   0.312   5.800  0.1557  0.4152  0.2634
 6131SOL    HW130026   3.278   0.329   5.841  0.5262 -1.9735  0.4480
 6131SOL    HW230027   3.202   0.375   5.729  0.7530  1.4024  1.2107
 6132SOL     OW30028   4.389   1.113   2.407 -0.0549  0.5187 -0.2671
 6132SOL    HW130029   4.307   1.074   2.438 -1.1988  1.8172 -1.6747
 6132SOL    HW230030   4.376   1.208   2.408 -0.7378  0.4226  0.6357
 6133SOL     OW30031   2.061   1.851   5.406 -0.4082 -0.0882  0.0021
 6133SOL    HW130032   2.101   1.924   5.358  0.6819  0.3335  1.5686
 6133SOL    HW230033   1.973   1.849   5.368 -0.2182  0.2568 -0.4690
 6134SOL     OW30034   0.392   2.770   4.672  0.2402 -0.5663  0.1713
 6134SOL    HW130035   0.402   2.864   4.690  0.2088 -0.5173 -0.0718
 6134SOL    HW230036   0.333   2.743   4.743 -0.8341 -1.6075 -1.1147
 6135SOL     OW30037   3.463   2.184  15.908 -0.1518 -0.6037  0.0047
 6135SOL    HW130038   3.440   2.158  15.818  0.6975  0.3690 -0.4947
 6135SOL    HW230039   3.540   2.133  15.930  0.1445  0.3526  1.1709
 6136SOL     OW30040   1.430   1.060   4.610 -0.5459  0.3920 -0.3013
 6136SOL    HW130041   1.370   1.128   4.639  0.4186  0.3177  1.9412
 6136SOL    HW230042   1.506   1.092   4.659 -0.1796 -0.9533  0.0300
 6137SOL     OW30043   2.703   2.570  12.322 -0.2344 -0.5459 -0.3780
 6137SOL    HW130044   2.713   2.476  12.339 -0.1621 -0.8504 -2.1033
 6137SOL    HW230045   2.772   2.579  12.256  0.1676  0.9008  0.2245
 6138SOL     OW30046   4.134   1.008  16.564  0.6025 -0.2451 -0.3164
 6138SOL    HW130047   4.229   1.016  16.569  0.7336 -2.1996  0.0666
 6138SOL    HW230048   4.115   1.087  16.615  0.3752 -1.2909  1.1952
 6139SOL     OW30049   0.025   1.732   5.249  0.5156 -0.4897  0.2227
 6139SOL    HW130050   4.704   1.701   5.318  0.3650 -0.3134  0.1740
 6139SOL    HW230051   4.727   1.701   5.165  0.8485  0.7101 -0.3487
 6140SOL     OW30052   4.687   0.381   8.304  0.1176  0.0441 -0.0103
 6140SOL    HW130053   4.594   0.389   8.321 -0.2297 -2.9000 -0.6087
 6140SOL    HW230054   4.689   0.447   8.234  2.0431 -0.2373 -0.2407
 6141SOL     OW30055   2.428   2.798   8.471  0.2129  0.0131 -0.4871
 6141SOL    HW130056   2.452   2.835   8.555 -0.7639  2.0666 -1.1190
 6141SOL    HW230057   2.447   2.704   8.474  1.9238  0.4022  0.5218
 6142SOL     OW30058   0.435   1.024   5.335 -0.3728 -0.0372 -0.3781
 6142SOL    HW130059   0.479   0.975   5.404  0.2910  0.6291 -0.3318
 6142SOL    HW230060   0.478   0.998   5.254  1.5805 -1.5022  1.1583
 6143SOL     OW30061   2.346   0.308   2.428 -0.2723 -0.8955  0.4438
 6143SOL    HW130062   2.338   0.403   2.415 -4.5653 -1.1036  1.5040
 6143SOL    HW230063   2.380   0.293   2.516  0.6615 -1.6552 -0.0580
 6144SOL     OW30064   3.910   1.125  14.262  0.1193 -0.4638 -0.1515
 6144SOL    HW130065   3.820   1.131  14.229 -0.0934 -1.9506  0.1985
 6144SOL    HW230066   3.945   1.070  14.192  2.6141 -0.8473  1.4090
 6145SOL     OW30067   0.286   0.150   9.236  0.4364  0.4836  0.4850
 6145SOL    HW130068   0.325   0.224   9.189  0.4652  1.4390  2.0129
 6145SOL    HW230069   0.365   0.103   9.262  0.6771  1.2380  1.1128
 6146SOL     OW30070   3.920   1.381  11.269 -0.3371  0.6399  0.3945
 6146SOL    HW130071   3.827   1.398  11.254 -0.1127  2.4973  1.2006
 6146SOL    HW230072   3.954   1.465  11.239 -0.0923  0.0293 -1.0085
 6147SOL     OW30073   2.629   3.176   8.437 -0.0653 -0.0115 -0.0806
 6147SOL    HW130074   2.629   3.155   8.530 -0.4356 -1.7898 -0.4846
 6147SOL    HW230075   2.723   3.179   8.417 -0.2460 -1.0231 -1.0706
 6148SOL     OW30076   0.603   2.721  17.296  0.3559 -0.0285  0.2036
 6148SOL    HW130077   0.575   2.703  17.206  0.4709 -0.8477  0.3257
 6148SOL    HW230078   0.688   2.762  17.284 -0.2584  0.2758 -3.3188
 6149SOL     OW30079   2.767   1.291   9.187  0.1855 -0.1501 -0.1398
 6149SOL    HW130080   2.721   1.375   9.184 -1.2196 -0.9300 -0.5444
 6149SOL    HW230081   2.835   1.303   9.253 -1.3641 -0.1650  1.4729
 6150SOL     OW30082   3.063   2.770   5.617  0.3848  0.3848  0.8285
 6150SOL    HW130083   3.074   2.823   5.538  1.3245 -0.9639  0.0469
 6150SOL    HW230084   2.976   2.801   5.640 -0.0913 -0.1748 -0.1905
 6151SOL     OW30085   2.971   4.419   4.726  0.9533 -0.1020  0.0242
 6151SOL    HW130086   3.043   4.482   4.720 -0.2592  1.2189 -0.5346
 6151SOL    HW230087   3.015   4.360   4.788  0.1778  0.9141  1.5646
 6152SOL     OW30088   1.755   3.989   0.665 -0.8318 -0.0669 -0.0624
 6152SOL    HW130089   1.778   4.038   0.744  1.7182  2.0279 -2.1143
 6152SOL    HW230090   1.800   3.906   0.680  0.3547  0.5224 -0.3755
 6153SOL     OW30091   0.411   0.571  14.169  0.1464  0.3569  0.2670
 6153SOL    HW130092   0.416   0.596  14.077  0.2387  1.8760  0.6869
 6153SOL    HW230093   0.494   0.607  14.200 -0.8652  3.4016 -0.5699
 6154SOL     OW30094   0.680   4.567  13.266  0.5612 -0.1154 -0.1912
 6154SOL    HW130095   0.702   4.536  13.178 -1.5597 -2.1969  0.0159
 6154SOL    HW230096   0.684   4.663  13.268  1.1487 -0.0414 -3.9630
 6155SOL     OW30097   2.185   1.220   2.435 -0.2415  0.6920  0.7726
 6155SOL    HW130098   2.212   1.141   2.481 -1.6291  0.0013  0.4021
 6155SOL    HW230099   2.267   1.241   2.390  1.7308 -0.6423  3.7864
 6156SOL     OW30100   0.791   1.042   6.011 -0.0819 -0.4993  0.3920
 6156SOL    HW130101   0.855   0.989   5.964  0.6184  2.6208 -2.1700
 6156SOL    HW230102   0.772   1.113   5.949  1.0532  0.0647  0.7049
 6157SOL     OW30103   4.729   4.118   5.157  0.1469  0.1767 -0.8384
 6157SOL    HW130104   4.686   4.199   5.184 -1.0156 -0.0226 -2.0730
 6157SOL    HW230105   4.693   4.106   5.068 -0.3670 -2.0996 -0.3294
 6158SOL     OW30106   0.317   2.836  12.275 -0.1770 -0.7647  0.1649
 6158SOL    HW130107   0.314   2.757  12.330 -0.2313 -1.0966 -0.3141
 6158SOL    HW230108   0.406   2.862  12.297 -0.2355 -0.7671  0.4082
 6159SOL     OW30109   3.726   2.186   4.531 -0.2251  0.0993  0.3200
 6159SOL    HW130110   3.768   2.100   4.544  0.9626  0.7048  0.5257
 6159SOL    HW230111   3.668   2.164   4.458 -1.4666  1.8079  0.8008
 6160SOL     OW30112   4.673   2.735   0.537  0.0553  0.3842  0.5366
 6160SOL    HW130113   4.693   2.724   0.630  0.4251  2.6698  0.7244
 6160SOL    HW230114   4.616   2.659   0.525  0.2028  0.5502 -1.2199
 6161SOL     OW30115   3.664   1.875   4.502 -0.5572 -0.1105  0.5339
 6161SOL    HW130116   3.607   1.937   4.548  0.4548  0.6251  0.8106
 6161SOL    HW230117   3.745   1.877   4.552 -1.0240 -0.4338  1.3095
 6162SOL     OW30118   1.062   3.627   1.424  0.2809 -0.0514  0.7539
 6162SOL    HW130119   1.056   3.563   1.494 -2.1632 -0.6501 -0.0088
 6162SOL    HW230120   1.008   3.586   1.356  0.2535  0.2359  0.6017
 6163SOL     OW30121   0.562   1.284   8.348  0.4319 -0.1536 -0.2810
 6163SOL    HW130122   0.655   1.298   8.327  0.3371 -0.9240 -1.1960
 6163SOL    HW230123   0.554   1.317   8.437 -0.7743 -0.0266 -0.4415
 6164SOL     OW30124   1.920   2.044  14.460 -0.8493  0.1339  0.5728
 6164SOL    HW130125   1.864   1.984  14.510  0.1756 -0.7569  0.6315
 6164SOL    HW230126   2.005   2.005  14.478 -0.1679  1.0440 -0.6839
 6165SOL     OW30127   2.517   3.827  15.632  0.0644 -0.0007 -0.2961
 6165SOL    HW130128   2.570   3.843  15.554 -1.4960  0.3515 -1.2709
 6165SOL    HW230129   2.569   3.753  15.664 -1.3356 -0.8682 -0.0404
 6166SOL     OW30130   2.185   1.430   7.684  0.0541  0.5472 -0.2034
 6166SOL    HW130131   2.168   1.379   7.763 -1.0641  0.0176 -0.7836
 6166SOL    HW230132   2.270   1.389   7.668 -0.6927  0.0154 -2.8349
 6167SOL     OW30133   2.556   3.939  13.776 -0.3628  0.1997 -0.0738
 6167SOL    HW130134   2.464   3.918  13.793 -0.0514  0.4245  1.9421
 6167SOL    HW230135   2.600   3.863  13.815  0.1906  0.3546 -0.3881
 6168SOL     OW30136   1.428   2.747  10.749  0.2139  0.1259 -0.0772
 6168SOL    HW130137   1.355   2.801  10.720  0.5425  0.7079  0.1969
 6168SOL    HW230138   1.384   2.691  10.814  0.8890  0.2513  0.4856
 6169SOL     OW30139   2.862   3.256   0.329  0.7672  0.1525  0.6643
 6169SOL    HW130140   2.856   3.161   0.318 -0.2798  0.2490  0.4119
 6169SOL    HW230141   2.873   3.286   0.239 -0.6446 -0.0716  0.4059
 6170SOL     OW30142   2.183   3.732   2.840 -0.2956  0.4007 -0.7453
 6170SOL    HW130143   2.239   3.679   2.897  0.6376  0.5479 -1.5108
 6170SOL    HW230144   2.240   3.767   2.772  1.9651  0.2407  1.0661
 6171SOL     OW30145   1.280   0.094  17.307 -0.3709  0.0507 -0.4783
 6171SOL    HW130146   1.259   0.027  17.373 -0.5281  2.5990  2.0324
 6171SOL    HW230147   1.259   0.175  17.352 -0.2609 -0.7148  0.9561
 6172SOL     OW30148   4.525   1.048   1.999  0.0905  0.0116  0.0398
 6172SOL    HW130149   4.501   1.023   1.910 -1.2367 -0.1370  0.4414
 6172SOL    HW230150   4.533   1.144   1.997  2.7396 -0.2426 -1.0420
 6173SOL     OW30151   0.073   0.671   5.081  0.0539 -0.1336  0.0678
 6173SOL    HW130152   0.160   0.660   5.042 -1.1587  0.5817 -2.8894
 6173SOL    HW230153   0.063   0.766   5.086 -0.0848 -0.2529  1.7529
 6174SOL     OW30154   3.874   1.865   3.230 -0.2193  0.2311  0.4221
 6174SOL    HW130155   3.806   1.860   3.298  1.3114 -2.0781  1.7959
 6174SOL    HW230156   3.837   1.942   3.186 -1.9297 -1.0968 -0.4646
 6175SOL     OW30157   0.628   3.029   7.718  0.9940 -0.2130 -0.6873
 6175SOL    HW130158   0.556   2.973   7.746  0.6122  1.0900  0.8856
 6175SOL    HW230159   0.691   2.965   7.684  1.7192  0.7895 -1.2394
 6176SOL     OW30160   1.870   3.016  15.506 -0.3284 -0.1945 -0.7687
 6176SOL    HW130161   1.965   3.012  15.508 -0.3593  0.6864  2.6117
 6176SOL    HW230162   1.873   3.092  15.447 -1.5553  0.1104 -0.4513
 6177SOL     OW30163   0.387   2.602  17.377 -0.1823  0.3033  0.0036
 6177SOL    HW130164   0.473   2.644  17.383 -0.1001  0.3195 -1.2937
 6177SOL    HW230165   0.327   2.666  17.340  0.0123 -0.6975 -2.0406
 6178SOL     OW30166   3.416   3.304   3.494  0.7210 -0.4329  0.4162
 6178SOL    HW130167   3.323   3.326   3.484  0.9376  0.5616  0.5776
 6178SOL    HW230168   3.453   3.388   3.523  0.7548 -0.5406  0.6839
 6179SOL     OW30169   2.187   3.719   4.849 -0.5854  0.5741 -0.4721
 6179SOL    HW130170   2.281   3.736   4.854 -0.6044  0.4050  0.3750
 6179SOL    HW230171   2.155   3.803   4.817 -0.3831  1.2120  1.0402
 6180SOL     OW30172   0.329   0.515   1.104 -0.0242 -0.3130  0.4680
 6180SOL    HW130173   0.307   0.491   1.014 -2.6374  1.0537  0.7484
 6180SOL    HW230174   0.248   0.565   1.115  1.6145  2.6041 -0.7402
 6181SOL     OW30175   1.479   4.253   8.132  0.3363  0.0223 -0.1492
 6181SOL    HW130176   1.404   4.262   8.074 -0.7922  1.3440  1.5323
 6181SOL    HW230177   1.543   4.214   8.072  0.1076  0.2182 -0.5165
 6182SOL     OW30178   3.346   2.857   6.164  0.5467 -0.0126 -0.6542
 6182SOL    HW130179   3.298   2.865   6.247  1.9030 -0.8078  0.1949
 6182SOL    HW230180   3.291   2.917   6.113  1.0795  1.5870  0.6577
 6183SOL     OW30181   1.177   2.772   3.089 -0.2150 -0.3967 -0.1091
 6183SOL    HW130182   1.179   2.860   3.128  0.8643 -0.2131 -0.5820
 6183SOL    HW230183   1.252   2.775   3.030 -0.3595  0.8395 -0.2403
 6184SOL     OW30184   3.847   3.936   9.153 -0.3179  0.2190  0.1204
 6184SOL    HW130185   3.800   3.960   9.233  0.8928  2.3775  0.1634
 6184SOL    HW230186   3.932   3.976   9.170  1.3427 -2.3482 -2.0518
 6185SOL     OW30187   4.030   0.793   6.215 -0.4878  0.6009 -0.0684
 6185SOL    HW130188   3.984   0.743   6.148  1.9294 -2.3541  0.4617
 6185SOL    HW230189   4.096   0.831   6.157 -0.8956 -2.4472 -2.5086
 6186SOL     OW30190   4.512   0.238   6.044 -0.9436 -0.0037  0.3310
 6186SOL    HW130191   4.449   0.300   6.007 -0.2808  1.2725  1.3393
 6186SOL    HW230192   4.452   0.169   6.073 -0.3577 -0.3727  0.6535
 6187SOL     OW30193   2.534   0.762   7.629  0.3615 -0.3264  0.0963
 6187SOL    HW130194   2.528   0.677   7.586  0.9851  0.4778 -1.5659
 6187SOL    HW230195   2.445   0.796   7.622  0.2989 -0.1702  1.5904
 6188SOL     OW30196   4.042   1.203   3.450  0.2660 -0.2327 -0.0576
 6188SOL    HW130197   4.137   1.216   3.445  0.3956 -0.5628  1.4752
 6188SOL    HW230198   4.018   1.294   3.466 -2.8651 -1.4035  1.9495
 6189SOL     OW30199   1.782   3.464  10.115 -0.2320 -0.2395 -0.1175
 6189SOL    HW130200   1.827   3.466  10.031 -3.2343 -0.3095 -1.7203
 6189SOL    HW230201   1.740   3.549  10.111 -4.1763 -2.0793  1.9846
 6190SOL     OW30202   3.652   4.648   1.769  0.6858 -0.3190 -0.4221
 6190SOL    HW130203   3.589   4.578   1.781  1.0518 -0.4847  0.5460
 6190SOL    HW230204   3.737   4.605   1.771  0.1826 -1.1582  3.0513
 6191SOL     OW30205   1.521   4.187   1.624  0.1079 -0.2492  0.2720
 6191SOL    HW130206   1.520   4.110   1.568  1.1813 -0.2579  0.2671
 6191SOL    HW230207   1.577   4.151   1.693  1.4616  0.9607 -0.2105
 6192SOL     OW30208   0.033   3.283   3.380 -0.4370  0.4120  0.3070
 6192SOL    HW130209   4.717   3.333   3.318 -1.8002  1.3284  2.1636
 6192SOL    HW230210   4.705   3.224   3.419 -1.4802  2.4547  1.6916
 6193SOL     OW30211   4.366   0.528  10.932 -0.3906  0.6588 -0.4729
 6193SOL    HW130212   4.370   0.433  10.932 -0.1224  0.6848  2.4375
 6193SOL    HW230213   4.280   0.540  10.973 -1.9983 -0.7777 -3.4100
 6194SOL     OW30214   2.200   2.222   9.042  0.2454 -0.1864 -0.2019
 6194SOL    HW130215   2.280   2.174   9.064  1.5207  0.4940 -3.4037
 6194SOL    HW230216   2.237   2.310   9.035  0.2955 -0.2080 -0.2033
 6195SOL     OW30217   3.480   3.726  14.488 -0.0069 -0.4853  0.2637
 6195SOL    HW130218   3.474   3.659  14.556  1.6205 -0.2952  0.6092
 6195SOL    HW230219   3.402   3.778  14.506  0.5519  0.6823 -0.7011
 6196SOL     OW30220   4.455   3.133   5.069 -0.3465  0.0413 -0.3849
 6196SOL    HW130221   4.482   3.047   5.102  0.5212 -0.5411 -2.5900
 6196SOL    HW230222   4.376   3.154   5.119 -3.2152 -2.4247 -3.9261
 6197SOL     OW30223   2.178   0.477  10.501  0.2675 -0.5067  0.2171
 6197SOL    HW130224   2.199   0.552  10.555 -2.5119 -0.0864  0.7362
 6197SOL    HW230225   2.237   0.486  10.426 -0.3250 -0.5324 -0.2586
 6198SOL     OW30226   3.174   1.460   4.487  0.4856  0.4182  0.4933
 6198SOL    HW130227   3.133   1.538   4.451  3.2252  0.6491 -2.1235
 6198SOL    HW230228   3.134   1.450   4.573  0.7530  0.1462  0.5863
 6199SOL     OW30229   1.843   4.220   4.759 -0.2261  0.0222  0.1583
 6199SOL    HW130230   1.865   4.311   4.738 -1.1489 -0.0334 -1.0691
 6199SOL    HW230231   1.902   4.172   4.701  0.7628 -1.0002  2.0150
 6200SOL     OW30232   0.600   1.165  11.277  0.5557  0.1242  0.0455
 6200SOL    HW130233   0.533   1.188  11.212  1.1214  0.3365 -0.4532
 6200SOL    HW230234   0.618   1.249  11.319 -0.9502  0.2999  0.3606
 6201SOL     OW30235   2.076   4.167   9.011 -0.3342  0.2315  0.1520
 6201SOL    HW130236   2.049   4.091   9.063 -2.6587  0.3622 -0.8516
 6201SOL    HW230237   2.002   4.163   8.951 -1.3810 -1.4830  1.5537
 6202SOL     OW30238   4.312   0.304   6.764  0.7667 -0.5717  0.5153
 6202SOL    HW130239   4.223   0.336   6.748  0.7503 -1.5403 -1.2684
 6202SOL    HW230240   4.359   0.346   6.692 -1.4164 -0.4885 -0.8806
 6203SOL     OW30241   1.933   0.623  12.085  0.0052  0.1147 -0.2433
 6203SOL    HW130242   2.017   0.584  12.110 -0.2021 -0.4613 -0.4662
 6203SOL    HW230243   1.966   0.711  12.107 -0.3944  0.3378 -0.5417
 6204SOL     OW30244   0.174   3.261   2.985  0.2517  0.0881 -0.0296
 6204SOL    HW130245   0.158   3.167   2.997  1.3952  0.0390  1.0635
 6204SOL    HW230246   0.085   3.293   2.968 -0.3251 -1.2797  0.3841
 6205SOL     OW30247   0.608   4.348  14.722 -0.6271  0.0788 -0.1924
 6205SOL    HW130248   0.625   4.292  14.647  0.8335 -1.1094  1.0330
 6205SOL    HW230249   0.638   4.293  14.795  1.1295 -0.2206 -1.1424
 6206SOL     OW30250   3.911   3.321   7.896 -0.3401  0.3483  0.1608
 6206SOL    HW130251   3.969   3.392   7.924  0.6798 -0.1711 -0.6121
 6206SOL    HW230252   3.826   3.364   7.902 -0.6824 -0.1703 -0.9589
 6207SOL     OW30253   1.565   1.981   7.604 -0.1020  0.3838  0.1261
 6207SOL    HW130254   1.600   1.949   7.687  1.3383  0.0749 -0.5842
 6207SOL    HW230255   1.643   2.029   7.573  0.4383 -1.0732 -0.7702
 6208SOL     OW30256   4.422   4.661  11.123  0.3130 -0.0784 -0.2355
 6208SOL    HW130257   4.330   4.648  11.148  0.3556  0.3952  0.1588
 6208SOL    HW230258   4.462   4.667  11.209  0.9728 -0.2548 -0.5295
 6209SOL     OW30259   3.298   3.741   3.347  0.0247  0.4715 -0.0032
 6209SOL    HW130260   3.286   3.699   3.433  1.1715 -1.1723 -0.6431
 6209SOL    HW230261   3.250   3.677   3.295  0.2193 -0.1822  0.6094
 6210SOL     OW30262   4.676   2.249   0.276  0.0436 -1.0446  0.2490
 6210SOL    HW130263   4.718   2.188   0.215  1.7313 -0.1438  0.5093
 6210SOL    HW230264   4.644   2.190   0.344 -1.8767 -1.5185 -1.0781
 6211SOL     OW30265   3.319   4.386   5.897  0.6140 -0.2715 -0.3229
 6211SOL    HW130266   3.287   4.414   5.983 -0.7342 -0.6259 -0.7061
 6211SOL    HW230267   3.389   4.324   5.918 -0.7988 -1.2614  1.4213
 6212SOL     OW30268   0.009   3.542   3.546 -0.0053  0.2189 -0.8982
 6212SOL    HW130269   4.722   3.503   3.462  1.2909  2.3098 -2.2181
 6212SOL    HW230270   4.699   3.625   3.552  1.8992  1.2727 -0.6263
 6213SOL     OW30271   4.390   2.691   0.953  0.4612  0.3837 -0.3868
 6213SOL    HW130272   4.441   2.764   0.987  0.5235 -0.8020  2.0177
 6213SOL    HW230273   4.432   2.611   0.983  1.0347  0.1210 -1.8783
 6214SOL     OW30274   0.275   0.379  11.793 -0.1518  0.1056 -0.3646
 6214SOL    HW130275   0.230   0.417  11.868  0.5316 -1.7652  0.9936
 6214SOL    HW230276   0.361   0.352  11.825  0.1500  0.0586 -1.2304
 6215SOL     OW30277   0.005   4.554  14.418  0.3988 -0.3840 -0.1204
 6215SOL    HW130278   4.684   4.572  14.344 -0.5798 -0.2470  0.6889
 6215SOL    HW230279   0.029   4.644  14.440  1.3159 -1.1152  1.8991
 6216SOL     OW30280   1.575   1.291   1.461  0.1546 -0.1556 -0.5341
 6216SOL    HW130281   1.584   1.264   1.370 -0.5064 -3.7569  0.4694
 6216SOL    HW230282   1.638   1.236   1.507  0.3361  0.4129 -0.1038
 6217SOL     OW30283   4.558   0.810  15.714 -0.0457 -0.2146 -0.2183
 6217SOL    HW130284   4.534   0.724  15.748  1.8852 -0.3235  0.8433
 6217SOL    HW230285   4.498   0.860  15.770  0.7208  3.2700 -2.4775
 6218SOL     OW30286   1.092   2.152  10.953  0.4724 -0.2044 -0.3447
 6218SOL    HW130287   1.091   2.248  10.946  1.3979 -0.2718 -1.3958
 6218SOL    HW230288   1.171   2.142  11.007  2.0267 -2.4747 -3.0395
 6219SOL     OW30289   2.009   3.081   6.004 -0.0202 -0.5080 -0.0274
 6219SOL    HW130290   1.989   3.132   6.082  1.5372 -1.3162  0.8973
 6219SOL    HW230291   2.081   3.022   6.027 -0.6508 -2.2550 -2.4621
 6220SOL     OW30292   4.349   0.730   9.140  0.1535  0.0003 -0.1005
 6220SOL    HW130293   4.348   0.635   9.147 -1.9279 -0.0003 -0.5172
 6220SOL    HW230294   4.432   0.750   9.098  1.6817 -0.4439  2.7003
 6221SOL     OW30295   3.770   1.883  16.181 -0.1820  0.6270  0.1060
 6221SOL    HW130296   3.700   1.927  16.229 -2.3730 -1.0667 -1.5080
 6221SOL    HW230297   3.765   1.915  16.091  1.4378 -0.8841 -0.5431
 6222SOL     OW30298   2.161   4.153   2.613  0.1591  0.3773  0.0686
 6222SOL    HW130299   2.123   4.101   2.542 -0.1619  0.4928  0.1519
 6222SOL    HW230300   2.228   4.196   2.560 -1.3699  2.0776 -0.4822
 6223SOL     OW30301   4.735   3.277   9.970 -0.1602 -0.1646  0.2366
 6223SOL    HW130302   4.677   3.326   9.912  0.8749  0.4666 -0.2616
 6223SOL    HW230303   4.673   3.255  10.040 -1.0153 -0.8561 -0.7399
 6224SOL     OW30304   0.577   2.656   3.867  0.3147 -0.4102  0.0922
 6224SOL    HW130305   0.563   2.564   3.845  0.0599  0.2072 -2.3665
 6224SOL    HW230306   0.660   2.685   3.828  0.2204 -0.3233 -0.0465
 6225SOL     OW30307   3.765   1.246   2.972  0.1305 -0.0602 -0.3432
 6225SOL    HW130308   3.683   1.230   2.925 -0.0097 -1.8098  0.4854
 6225SOL    HW230309   3.809   1.164   2.950 -2.3110 -1.5832  0.4547
 6226SOL     OW30310   1.589   4.675   4.402 -0.2332 -0.4237  0.0741
 6226SOL    HW130311   1.576   4.629   4.485  0.5137  2.0503  1.5635
 6226SOL    HW230312   1.574   0.027   4.434  0.6205 -0.1552 -0.2745
 6227SOL     OW30313   0.066   2.078   2.271  0.2280 -0.2342 -0.5801
 6227SOL    HW130314   0.008   2.010   2.235  0.4037 -0.5242 -0.3199
 6227SOL    HW230315   0.139   2.029   2.311  1.1741  0.4913 -1.4155
 6228SOL     OW30316   0.453   1.890   8.014  0.5994  0.0016 -0.0833
 6228SOL    HW130317   0.383   1.956   8.016  0.4326 -0.1672 -0.4399
 6228SOL    HW230318   0.480   1.897   8.106 -1.7092 -1.1064  0.6877
 6229SOL     OW30319   3.560   0.134   7.544  0.0867 -0.0249  0.0599
 6229SOL    HW130320   3.644   0.097   7.570  0.2502 -1.0579 -1.9373
 6229SOL    HW230321   3.544   0.187   7.622  2.0503 -1.4932  1.4544
 6230SOL     OW30322   4.041   3.324   4.991  0.1656 -0.4128  0.2786
 6230SOL    HW130323   4.087   3.311   4.908  0.6419  1.6594  0.2343
 6230SOL    HW230324   4.042   3.233   5.021 -0.6728 -0.3529  0.5010
 6231SOL     OW30325   3.928   2.292   3.358  0.0545 -0.6153  0.0947
 6231SOL    HW130326   3.965   2.379   3.344  0.5159 -0.7706  0.3291
 6231SOL    HW230327   3.996   2.246   3.308 -0.0709  0.8483 -1.4317
 6232SOL     OW30328   4.655   1.812   8.762  0.3573 -0.0851 -0.3911
 6232SOL    HW130329   4.679   1.793   8.852 -1.9520 -0.9368  0.0541
 6232SOL    HW230330   4.571   1.857   8.766 -0.1556 -1.1620  0.6984
 6233SOL     OW30331   1.256   3.712   5.911 -0.2057 -0.4182 -0.1659
 6233SOL    HW130332   1.285   3.677   5.826 -2.2641 -2.3363 -0.0869
 6233SOL    HW230333   1.163   3.688   5.911  0.2683 -2.2229 -0.4575
 6234SOL     OW30334   0.850   3.878   4.658  0.0538  0.3142 -0.5188
 6234SOL    HW130335   0.801   3.798   4.640 -0.0708  0.3726 -0.4392
 6234SOL    HW230336   0.936   3.838   4.647  0.6054  1.4048 -0.2474
 6235SOL     OW30337   0.796   3.656   2.319 -0.5047  0.4288 -0.3947
 6235SOL    HW130338   0.751   3.576   2.292  0.7988  0.0694 -1.4996
 6235SOL    HW230339   0.769   3.716   2.249 -1.9278 -0.6957 -0.8049
 6236SOL     OW30340   0.202   3.915   2.565  0.0814 -0.0824  0.4109
 6236SOL    HW130341   0.112   3.924   2.594 -0.1181 -1.8897  0.3350
 6236SOL    HW230342   0.203   3.958   2.480 -0.5889  1.2424  1.0669
 6237SOL     OW30343   4.099   1.527  15.354 -0.3417  0.2288  0.0420
 6237SOL    HW130344   4.021   1.541  15.300  0.7878 -0.8089 -1.8439
 6237SOL    HW230345   4.098   1.432  15.365 -0.7194  0.0937 -1.1519
 6238SOL     OW30346   1.717   3.029  17.268 -0.3474 -0.4024 -0.1842
 6238SOL    HW130347   1.719   2.945  17.314  1.4839 -1.3576 -2.0347
 6238SOL    HW230348   1.801   3.018  17.224 -1.0119  0.3804 -1.6257
 6239SOL     OW30349   3.884   1.483   2.869 -0.3001 -0.4184  0.3500
 6239SOL    HW130350   3.825   1.509   2.798  1.2710 -1.6708 -1.4288
 6239SOL    HW230351   3.835   1.413   2.913 -1.5081  1.2326  1.6404
 6240SOL     OW30352   1.749   3.824   4.716  0.4721 -0.2884  0.4808
 6240SOL    HW130353   1.776   3.741   4.676 -0.2818  0.0746 -0.7926
 6240SOL    HW230354   1.807   3.836   4.791  1.1078 -0.9974  0.0934
 6241SOL     OW30355   0.036   1.194   4.617  0.0194  0.1250 -0.4966
 6241SOL    HW130356   4.715   1.221   4.546 -3.1554 -2.4906  1.0564
 6241SOL    HW230357   0.102   1.134   4.582  2.8839  1.5664  2.4404
 6242SOL     OW30358   2.379   0.217   2.711 -0.5219  0.4700 -0.2654
 6242SOL    HW130359   2.350   0.132   2.744 -0.7755  1.0857  1.1051
 6242SOL    HW230360   2.347   0.265   2.788  0.5333  2.1124 -0.8516
 6243SOL     OW30361   1.051   3.552  13.317  0.4589  0.5402 -0.2578
 6243SOL    HW130362   0.980   3.490  13.334  2.5194 -1.1284  2.4421
 6243SOL    HW230363   1.112   3.491  13.275  1.4608  1.4222 -0.0776
 6244SOL     OW30364   1.726   1.827  15.460 -0.2459 -0.0072  0.1025
 6244SOL    HW130365   1.691   1.846  15.373  0.3634  2.2887  0.3698
 6244SOL    HW230366   1.668   1.757  15.491  1.1231 -0.7411  1.0372
 6245SOL     OW30367   3.141   0.814   4.610 -0.4194 -0.2550 -0.2464
 6245SOL    HW130368   3.224   0.826   4.564 -0.1362 -2.4026 -0.2758
 6245SOL    HW230369   3.141   0.903   4.645  0.5443 -1.3122  2.4390
 6246SOL     OW30370   2.425   1.597   1.044 -0.3952  0.3105  0.5103
 6246SOL    HW130371   2.466   1.642   1.118 -2.7497  3.5030 -0.1369
 6246SOL    HW230372   2.356   1.654   1.013 -0.8905 -0.5086  0.0989
 6247SOL     OW30373   2.601   1.843   3.483 -0.5623 -0.4382  0.5022
 6247SOL    HW130374   2.681   1.889   3.506  0.2342 -0.8598 -1.3890
 6247SOL    HW230375   2.579   1.898   3.408  2.3822  2.8275  2.0366
 6248SOL     OW30376   4.638   0.596   8.158  0.2546 -0.1751  0.0065
 6248SOL    HW130377   4.556   0.644   8.168 -0.4500 -0.9573 -2.0488
 6248SOL    HW230378   4.701   0.664   8.181  0.6064 -0.3513 -0.4296
 6249SOL     OW30379   1.508   2.430   6.147 -0.1333 -0.0180  0.4892
 6249SOL    HW130380   1.548   2.344   6.161 -0.2529 -0.3065 -0.8894
 6249SOL    HW230381   1.582   2.486   6.170  0.2328 -0.1614 -0.3150
 6250SOL     OW30382   4.211   4.229   6.834  0.1875 -0.5383 -0.4712
 6250SOL    HW130383   4.232   4.322   6.839  0.0180 -0.5732  0.9138
 6250SOL    HW230384   4.205   4.206   6.927 -0.0763 -3.8036 -1.2714
 6251SOL     OW30385   1.272   0.157  14.793 -0.0785 -0.4686  0.5778
 6251SOL    HW130386   1.280   0.098  14.718 -1.5235  0.6646 -0.4670
 6251SOL    HW230387   1.222   0.231  14.757 -2.3451 -1.7999  1.0221
 6252SOL     OW30388   3.105   2.022  17.548 -0.1252 -0.1108  0.1520
 6252SOL    HW130389   3.040   2.021  17.617 -0.1640  1.8231  0.1362
 6252SOL    HW230390   3.131   2.114  17.544  2.5632 -0.8462  0.5295
 6253SOL     OW30391   0.169   4.673   3.527  0.1117 -0.2277 -0.0844
 6253SOL    HW130392   0.149   4.702   3.616  0.4734 -1.2951  0.3414
 6253SOL    HW230393   0.104   4.717   3.473 -0.4063 -0.3959  0.4016
 6254SOL     OW30394   1.768   0.462  13.028 -0.1534  0.2136  0.0687
 6254SOL    HW130395   1.712   0.387  13.047  0.4035  0.0490  1.0122
 6254SOL    HW230396   1.762   0.473  12.933 -1.5737 -1.4146 -0.0407
 6255SOL     OW30397   3.958   1.024   3.755  0.0886 -0.2241  0.2800
 6255SOL    HW130398   3.939   0.936   3.788 -0.3396 -0.0200  0.5739
 6255SOL    HW230399   4.040   1.005   3.709 -0.1217 -0.9221  0.1887
 6256SOL     OW30400   4.169   0.179  12.200  0.5868 -0.0029 -0.0510
 6256SOL    HW130401   4.222   0.248  12.160 -2.0416  0.7882 -2.1877
 6256SOL    HW230402   4.078   0.210  12.199  0.4367 -0.4483 -0.9860
 6257SOL     OW30403   0.627   1.671   6.553 -0.3361  0.4632 -0.2527
 6257SOL    HW130404   0.717   1.653   6.577 -0.5839 -1.4211 -0.7203
 6257SOL    HW230405   0.638   1.685   6.458  2.5307 -0.1185  0.0128
 6258SOL     OW30406   1.934   1.437  15.524 -0.7625  0.7694 -0.5679
 6258SOL    HW130407   1.870   1.491  15.570 -2.4482 -0.3885 -1.5812
 6258SOL    HW230408   1.968   1.493  15.454 -0.5411  0.2238 -0.8913
 6259SOL     OW30409   1.152   1.690   1.555 -0.9454 -0.4014 -0.3253
 6259SOL    HW130410   1.176   1.699   1.647 -2.0280 -1.3896  0.0528
 6259SOL    HW230411   1.113   1.603   1.561  1.0945 -1.5130 -3.1112
 6260SOL     OW30412   1.498   2.139   2.991  0.2959 -0.0418 -0.0344
 6260SOL    HW130413   1.573   2.144   2.931 -1.3312  0.6622 -1.9842
 6260SOL    HW230414   1.447   2.217   2.970 -0.7510 -0.4944  0.8692
 6261SOL     OW30415   0.733   1.257   7.982 -0.0629 -0.2503  0.4525
 6261SOL    HW130416   0.722   1.209   7.900 -1.3055  1.2779 -0.2629
 6261SOL    HW230417   0.751   1.194   8.052  1.7283 -0.4495 -0.1860
 6262SOL     OW30418   1.124   3.633   2.282  0.2393  0.3537  0.0125
 6262SOL    HW130419   1.192   3.647   2.215 -0.0061  1.3888 -0.0132
 6262SOL    HW230420   1.069   3.707   2.257  2.5882  1.7897 -0.9256
 6263SOL     OW30421   0.184   1.481   3.566 -0.4690  0.0475 -0.5408
 6263SOL    HW130422   0.123   1.419   3.525 -0.1573  0.2242 -1.2865
 6263SOL    HW230423   0.147   1.565   3.536 -0.2317  1.5929  3.5877
 6264SOL     OW30424   2.490   3.797  14.117  0.5363  0.1430  0.1481
 6264SOL    HW130425   2.427   3.736  14.078 -0.6429  0.7392  1.1322
 6264SOL    HW230426   2.576   3.780  14.079  0.3696  1.9548 -1.0505
 6265SOL     OW30427   2.731   0.051   7.894 -0.3894 -0.0922  0.0371
 6265SOL    HW130428   2.692   0.135   7.870  0.1947 -0.0077 -0.6174
 6265SOL    HW230429   2.825   0.057   7.877 -0.8665  0.0095 -2.5682
 6266SOL     OW30430   3.383   2.085   3.340  0.3416  0.3691 -0.2988
 6266SOL    HW130431   3.312   2.146   3.360  1.0470  1.7671 -1.9693
 6266SOL    HW230432   3.452   2.142   3.306 -0.2509  0.1751 -1.8377
 6267SOL     OW30433   3.264   0.868   2.749 -0.0653 -0.4770 -0.5888
 6267SOL    HW130434   3.291   0.874   2.841 -2.5575  2.4219 -0.0281
 6267SOL    HW230435   3.334   0.921   2.712 -0.7305 -0.0021 -1.1826
 6268SOL     OW30436   4.708   3.086   1.980  1.1519 -0.0125 -0.2446
 6268SOL    HW130437   4.644   3.156   1.965 -1.2517 -2.4647 -1.4104
 6268SOL    HW230438   0.016   3.136   2.049  1.5295 -0.3297 -0.2591
 6269SOL     OW30439   0.171   3.219   6.061  0.2840 -0.4127 -0.0240
 6269SOL    HW130440   0.174   3.148   6.126 -2.9826 -0.0873  0.5029
 6269SOL    HW230441   0.092   3.195   6.012  1.0168 -0.9188 -0.9520
 6270SOL     OW30442   0.062   2.523   8.665  0.1201  0.2862 -0.0964
 6270SOL    HW130443   0.091   2.466   8.735 -0.4406 -1.0498 -0.9457
 6270SOL    HW230444   4.706   2.503   8.648  0.3893 -1.3216  0.3247
 6271SOL     OW30445   1.070   1.717   5.136  0.3746  0.1381 -0.3258
 6271SOL    HW130446   1.125   1.701   5.059 -0.3389 -0.0848 -0.7960
 6271SOL    HW230447   0.984   1.738   5.099 -0.4801 -1.1629  0.9081
 6272SOL     OW30448   1.068   2.046  13.139 -0.0200  0.0452  0.2990
 6272SOL    HW130449   1.018   2.109  13.086  0.2097  1.2115  1.4869
 6272SOL    HW230450   1.081   1.978  13.072 -1.2628  1.1802 -1.1072
 6273SOL     OW30451   3.559   3.872   3.254 -0.0721 -0.0403  0.3471
 6273SOL    HW130452   3.509   3.811   3.309 -0.8215  0.8566  0.6595
 6273SOL    HW230453   3.617   3.900   3.325 -1.0293  0.9509  0.7450
 6274SOL     OW30454   2.470   2.455   5.651  0.1859 -0.1495 -0.4281
 6274SOL    HW130455   2.417   2.413   5.583 -0.1639  0.1847 -0.3578
 6274SOL    HW230456   2.501   2.528   5.598  0.0070  0.4134  0.2501
 6275SOL     OW30457   0.575   1.644   3.855 -0.9476  0.5789  0.0583
 6275SOL    HW130458   0.646   1.693   3.814  0.9786 -1.1968  1.2188
 6275SOL    HW230459   0.585   1.669   3.947  1.1031  3.0543 -0.8320
 6276SOL     OW30460   3.094   1.419  13.503 -0.2416 -0.0236 -0.1118
 6276SOL    HW130461   3.166   1.429  13.441  0.5649 -1.8890  0.5094
 6276SOL    HW230462   3.030   1.374  13.448  0.5200 -0.1292 -0.9120
 6277SOL     OW30463   4.381   2.196   3.314  0.3282  0.6711  0.3560
 6277SOL    HW130464   4.447   2.248   3.361 -0.4417 -0.9704  3.2268
 6277SOL    HW230465   4.420   2.195   3.226 -1.1741  0.1224 -0.3064
 6278SOL     OW30466   2.381   3.194  11.618 -0.2073 -0.0458  0.5292
 6278SOL    HW130467   2.322   3.263  11.648 -0.8747 -0.1508 -0.5394
 6278SOL    HW230468   2.466   3.237  11.618 -0.3478  0.2347  1.1522
 6279SOL     OW30469   1.313   2.654  17.439  0.5969  0.4107  0.2385
 6279SOL    HW130470   1.297   2.649  17.533 -1.1430 -0.8816 -0.1429
 6279SOL    HW230471   1.355   2.740  17.444 -0.8683  1.1313  0.2455
 6280SOL     OW30472   3.380   3.055   2.402 -0.5560  0.1851 -0.0702
 6280SOL    HW130473   3.457   3.069   2.346  0.9442 -0.5835  1.7886
 6280SOL    HW230474   3.399   2.976   2.452 -2.3416  0.0311  0.3668
 6281SOL     OW30475   3.351   0.493   8.580  0.1951  0.5169 -0.0035
 6281SOL    HW130476   3.379   0.493   8.672 -1.7346  2.5407  0.5708
 6281SOL    HW230477   3.292   0.420   8.561 -0.3587  1.0618 -0.3382
 6282SOL     OW30478   1.177   1.873  12.695  0.3967 -0.0275  0.3197
 6282SOL    HW130479   1.116   1.815  12.649 -0.1637  0.7865  0.0336
 6282SOL    HW230480   1.256   1.818  12.695 -0.4082 -1.1929  0.1156
 6283SOL     OW30481   2.536   2.537   0.327 -0.4607 -0.2028  0.4513
 6283SOL    HW130482   2.444   2.556   0.341 -0.8659 -0.7308 -1.4330
 6283SOL    HW230483   2.567   2.618   0.368 -0.7042 -0.1387  0.5080
 6284SOL     OW30484   1.436   0.044   8.209 -0.0017 -0.0374 -0.0100
 6284SOL    HW130485   1.417   0.049   8.302  2.0255 -0.7730  0.4329
 6284SOL    HW230486   1.529   0.024   8.213  0.2344  0.6404 -1.7312
 6285SOL     OW30487   1.783   2.464   2.228 -0.0836 -0.1432 -0.2650
 6285SOL    HW130488   1.868   2.423   2.213 -0.1333 -0.3856  0.1242
 6285SOL    HW230489   1.727   2.389   2.209  0.6125 -0.3375 -1.5435
 6286SOL     OW30490   1.143   3.282   0.292 -0.5843 -0.0532 -0.0320
 6286SOL    HW130491   1.223   3.299   0.242  0.7648  0.2727  2.2290
 6286SOL    HW230492   1.170   3.292   0.383 -1.7099  1.2688  0.1426
 6287SOL     OW30493   0.164   2.408   7.593 -0.0062  0.0704 -0.0045
 6287SOL    HW130494   0.256   2.394   7.614  0.8377  1.1995 -2.9682
 6287SOL    HW230495   0.147   2.322   7.555 -0.2278  1.0163 -2.0608
 6288SOL     OW30496   2.916   2.782   1.825 -0.1742  0.0104  0.2155
 6288SOL    HW130497   2.944   2.693   1.846  0.4052  0.4538  1.3511
 6288SOL    HW230498   2.823   2.773   1.848  0.0335 -2.0677  0.2841
 6289SOL     OW30499   4.085   2.378  12.615  0.2983 -0.1801  0.2296
 6289SOL    HW130500   4.129   2.426  12.545  0.1590 -0.4688 -0.0567
 6289SOL    HW230501   4.155   2.318  12.644  0.3939 -1.0063 -1.7141
 6290SOL     OW30502   2.149   1.898   7.754 -0.0588  0.1323 -0.0382
 6290SOL    HW130503   2.067   1.859   7.723  0.1384 -0.0237 -0.3655
 6290SOL    HW230504   2.157   1.845   7.833  0.0072 -2.1385 -1.5447
 6291SOL     OW30505   4.155   2.963   4.127 -0.2062  0.0252  0.2826
 6291SOL    HW130506   4.141   3.041   4.073 -0.6546 -0.7818 -0.7724
 6291SOL    HW230507   4.244   2.960   4.162 -0.0573  1.7692  0.0621
 6292SOL     OW30508   0.421   0.888   7.417 -0.1448  0.0667  0.2246
 6292SOL    HW130509   0.348   0.844   7.374 -0.8306 -1.5161  3.0630
 6292SOL    HW230510   0.434   0.957   7.351  0.5227 -0.2567  0.0227
 6293SOL     OW30511   1.312   0.043   4.675  0.2828  0.1698 -0.0740
 6293SOL    HW130512   1.392   0.063   4.628  0.4895  1.7587  0.9756
 6293SOL    HW230513   1.326   0.097   4.752  0.5328  0.2470 -0.1747
 6294SOL     OW30514   0.468   3.465   1.473 -0.0059  0.0039 -0.0725
 6294SOL    HW130515   0.385   3.509   1.490 -0.5643 -1.0167 -0.1339
 6294SOL    HW230516   0.451   3.399   1.406 -2.6506 -0.9302  1.5301
 6295SOL     OW30517   2.179   0.091   5.642  0.3800  0.1414  0.3815
 6295SOL    HW130518   2.224   0.090   5.558  1.2164  0.3835  0.8254
 6295SOL    HW230519   2.189   0.001   5.674  0.9515 -0.4249 -1.4279
 6296SOL     OW30520   0.298   1.832  17.242 -0.2437 -0.3299 -0.6150
 6296SOL    HW130521   0.208   1.832  17.211 -0.1365 -0.3515 -0.9249
 6296SOL    HW230522   0.299   1.925  17.263  1.8830 -0.4381 -0.1609
 6297SOL     OW30523   1.615   0.533   8.403  0.2287 -0.4772 -0.2172
 6297SOL    HW130524   1.664   0.534   8.485 -0.1520 -0.8287  0.0161
 6297SOL    HW230525   1.593   0.440   8.394 -1.1035 -0.3550  1.8984
 6298SOL     OW30526   1.918   0.902   1.125 -0.6465  0.2279 -0.4184
 6298SOL    HW130527   1.946   0.878   1.037  2.4815  0.7537  0.4376
 6298SOL    HW230528   1.882   0.817   1.152  0.2259  0.1635  0.5143
 6299SOL     OW30529   1.933   0.044  16.267  0.2002 -0.2568 -0.0804
 6299SOL    HW130530   2.011   0.071  16.218 -1.4250  0.2248 -2.4536
 6299SOL    HW230531   1.870   0.070  16.200  1.3091 -2.5337 -2.0033
 6300SOL     OW30532   2.342   4.542   9.437  0.2322 -0.3707  0.9137
 6300SOL    HW130533   2.417   4.580   9.482 -1.5234  1.3212  2.4431
 6300SOL    HW230534   2.356   4.448   9.447 -4.2369 -1.1363  0.3077
 6301SOL     OW30535   0.707   4.213  17.583  0.2111  0.5571 -0.2265
 6301SOL    HW130536   0.656   4.159  17.522  1.1698  0.5979 -1.0797
 6301SOL    HW230537   0.790   4.173  17.555 -0.3223  0.3886 -1.5870
 6302SOL     OW30538   3.093   1.835   8.977  0.1797 -0.0518 -0.2715
 6302SOL    HW130539   3.113   1.925   8.949  0.1390 -0.0496 -0.2944
 6302SOL    HW230540   3.174   1.787   8.996  0.6418  0.5163 -0.7760
 6303SOL     OW30541   4.072   3.148  17.558  0.0226 -0.4628  0.3193
 6303SOL    HW130542   4.087   3.070  17.504  0.4853 -0.6025  0.6417
 6303SOL    HW230543   4.092   3.218  17.496 -0.6318 -2.9373 -2.6736
 6304SOL     OW30544   2.214   2.414   3.847  0.4044  0.1580 -0.4458
 6304SOL    HW130545   2.126   2.425   3.882  1.4730  0.8602  2.0139
 6304SOL    HW230546   2.244   2.335   3.890 -0.1501  0.8043  1.1251
 6305SOL     OW30547   3.460   3.604   8.315  0.1738 -0.0850  0.3931
 6305SOL    HW130548   3.399   3.624   8.244  0.2869 -0.5364  0.1719
 6305SOL    HW230549   3.424   3.674   8.371 -0.6949 -0.2129 -0.0060
 6306SOL     OW30550   2.876   3.369   7.837 -0.0615 -0.5383  0.1017
 6306SOL    HW130551   2.874   3.387   7.931  0.0299 -0.7504  0.1440
 6306SOL    HW230552   2.946   3.428   7.809  1.0293 -1.1452  1.5548
 6307SOL     OW30553   3.346   4.369  11.615 -0.1530 -0.7296  0.3227
 6307SOL    HW130554   3.297   4.414  11.546 -1.0739 -1.5148  0.4677
 6307SOL    HW230555   3.315   4.279  11.613  1.0126 -1.1155 -0.2626
 6308SOL     OW30556   4.117   3.557   8.031 -0.5534 -0.2552 -0.5002
 6308SOL    HW130557   4.125   3.645   7.996  1.3453 -0.2112 -0.0008
 6308SOL    HW230558   4.176   3.520   7.965 -1.7917 -0.5499 -1.4211
 6309SOL     OW30559   2.354   2.948   5.051 -0.6939  0.0691  0.0495
 6309SOL    HW130560   2.286   3.013   5.064 -0.0914  0.4153  1.5127
 6309SOL    HW230561   2.366   2.963   4.957  1.1901  2.6869  0.7088
 6310SOL     OW30562   2.683   1.703   5.284 -0.7088 -0.2284  0.3578
 6310SOL    HW130563   2.769   1.731   5.252 -1.6689  2.0873 -0.2305
 6310SOL    HW230564   2.677   1.735   5.374 -3.4457 -1.5300  0.6462
 6311SOL     OW30565   0.571   3.888   9.675 -0.7907  0.7695 -0.3540
 6311SOL    HW130566   0.616   3.832   9.738 -1.8321 -1.2192 -1.3478
 6311SOL    HW230567   0.486   3.861   9.712 -0.6119  0.0934 -0.4298
 6312SOL     OW30568   1.026   1.716   4.625  0.0293  0.0618 -0.3865
 6312SOL    HW130569   1.045   1.790   4.683  2.3333 -0.3433 -0.6241
 6312SOL    HW230570   1.034   1.762   4.541  0.3072 -0.5431 -0.6907
 6313SOL     OW30571   2.218   4.522   5.017  0.6487 -0.0768 -0.0251
 6313SOL    HW130572   2.163   4.487   5.087 -1.3848  0.2052 -1.5090
 6313SOL    HW230573   2.193   4.460   4.949  1.3678  2.4474 -2.5924
 6314SOL     OW30574   0.280   3.886   1.428 -0.1495  0.3468  0.4358
 6314SOL    HW130575   0.375   3.902   1.427  0.1788 -1.5565 -0.3138
 6314SOL    HW230576   0.252   3.971   1.394 -0.0655  0.3315  0.3261
 6315SOL     OW30577   0.819   0.354   3.977 -0.6481 -0.4479  0.2998
 6315SOL    HW130578   0.827   0.259   3.970  0.9260 -0.4960  2.8954
 6315SOL    HW230579   0.735   0.379   4.016 -0.1334  1.5772  0.1291
 6316SOL     OW30580   4.238   4.283  14.903  0.6049  0.0560 -0.0474
 6316SOL    HW130581   4.315   4.338  14.920  1.2354 -0.6754 -0.5324
 6316SOL    HW230582   4.189   4.279  14.985  0.8189  0.5194  0.1077
 6317SOL     OW30583   1.302   1.184  14.998  0.0129  0.7285 -0.0485
 6317SOL    HW130584   1.218   1.218  14.965  0.0110  1.3713  0.6272
 6317SOL    HW230585   1.367   1.195  14.928 -1.3751  1.0852 -1.2973
 6318SOL     OW30586   1.461   3.760   8.353 -0.4490 -0.6448  0.1233
 6318SOL    HW130587   1.429   3.850   8.344  1.4273 -0.1284 -1.3998
 6318SOL    HW230588   1.548   3.788   8.380 -1.2031  1.3954  0.4732
 6319SOL     OW30589   0.906   2.246   2.297 -0.4422 -0.0940  0.5859
 6319SOL    HW130590   0.888   2.163   2.341  1.4555 -0.1583  1.2603
 6319SOL    HW230591   0.841   2.245   2.227  1.6403 -1.2952 -1.3531
 6320SOL     OW30592   3.597   2.365  13.476  0.0411  0.0279 -0.3138
 6320SOL    HW130593   3.599   2.452  13.437 -0.8032 -0.2957 -1.0859
 6320SOL    HW230594   3.574   2.380  13.568 -0.7597 -0.0970 -0.4886
 6321SOL     OW30595   2.855   2.444   6.240  0.3647 -0.2132 -0.1532
 6321SOL    HW130596   2.818   2.528   6.212 -0.7435  0.3879  3.1002
 6321SOL    HW230597   2.826   2.389   6.168  0.6807 -2.4999  1.4778
 6322SOL     OW30598   1.582   3.957   7.800 -0.3190  0.0026 -0.1438
 6322SOL    HW130599   1.613   4.038   7.760  0.6738  0.7420  2.1129
 6322SOL    HW230600   1.644   3.893   7.765 -0.8719 -0.6178 -0.0000
 6323SOL     OW30601   2.954   2.814   3.833  0.1167  0.0724 -0.5946
 6323SOL    HW130602   2.958   2.776   3.921  0.1964  0.5158 -0.4095
 6323SOL    HW230603   2.953   2.907   3.855  1.1877 -0.0936  0.1683
 6324SOL     OW30604   0.823   4.675  12.997  0.0121  0.0182  0.4197
 6324SOL    HW130605   0.836   0.025  13.037 -3.3246 -1.2514  4.3001
 6324SOL    HW230606   0.909   4.634  12.994 -0.9273 -1.9540  0.7225
 6325SOL     OW30607   4.650   1.896   2.501 -0.2788 -0.5628 -0.0637
 6325SOL    HW130608   4.560   1.888   2.532 -0.2063  1.0299  0.5953
 6325SOL    HW230609   4.691   1.812   2.521  2.1018  0.5676 -0.1675
 6326SOL     OW30610   1.058   0.019   1.458  0.2695  0.6227  0.1226
 6326SOL    HW130611   1.076   0.113   1.452  0.9167  0.3313 -2.3920
 6326SOL    HW230612   1.132   4.728   1.511 -0.7318  1.7624  2.1312
 6327SOL     OW30613   1.694   1.442   5.870  0.6042  0.6348 -0.1589
 6327SOL    HW130614   1.695   1.455   5.776 -0.6666  1.6907 -0.0302
 6327SOL    HW230615   1.764   1.500   5.900  0.3003  0.4065  0.9939
 6328SOL     OW30616   1.868   2.123  15.654  0.3120 -0.0718  1.3562
 6328SOL    HW130617   1.923   2.055  15.693 -1.8380 -2.8222 -0.3802
 6328SOL    HW230618   1.779   2.101  15.681 -0.5760  0.0790 -1.3866
 6329SOL     OW30619   1.859   3.623   4.574  0.7925  1.0685 -0.1240
 6329SOL    HW130620   1.871   3.529   4.559 -2.2852  0.3644  1.8081
 6329SOL    HW230621   1.941   3.654   4.536  0.9095  1.4191  0.4055
 6330SOL     OW30622   0.798   1.006   8.098  0.0922 -0.1056  0.3765
 6330SOL    HW130623   0.893   1.007   8.083 -0.2064  1.3976 -1.3842
 6330SOL    HW230624   0.768   0.945   8.030  0.2655 -0.3593  0.5245
 6331SOL     OW30625   1.110   4.502   4.552 -0.3361 -0.1580  0.3501
 6331SOL    HW130626   1.086   4.409   4.544  1.7265 -0.8218  1.8190
 6331SOL    HW230627   1.203   4.498   4.529 -0.8172 -0.3033 -1.5179
 6332SOL     OW30628   1.865   3.827   4.953  1.0955 -0.4074 -0.0708
 6332SOL    HW130629   1.933   3.886   4.988 -0.4960  1.0283  0.5976
 6332SOL    HW230630   1.802   3.828   5.024  1.0014  0.0314 -0.1584
 6333SOL     OW30631   0.714   4.238  11.097  0.2048  0.4981 -0.0363
 6333SOL    HW130632   0.659   4.314  11.078 -1.0505 -0.6628 -1.0250
 6333SOL    HW230633   0.703   4.203  11.009  1.5080  0.5656 -0.2230
 6334SOL     OW30634   1.505   2.577   0.726 -0.0394 -0.2488  0.1225
 6334SOL    HW130635   1.542   2.666   0.729  1.2258 -0.7775  0.3688
 6334SOL    HW230636   1.499   2.552   0.634 -3.4430  0.1961  0.2294
 6335SOL     OW30637   1.511   0.922   9.142 -0.0826 -0.4813  0.1609
 6335SOL    HW130638   1.565   0.901   9.218  0.3193 -1.4341 -0.3856
 6335SOL    HW230639   1.446   0.854   9.125  0.6825 -1.1583 -0.0494
 6336SOL     OW30640   2.605   3.900   4.146 -0.0749 -0.2404  0.4555
 6336SOL    HW130641   2.660   3.930   4.074 -0.1555  1.0728  0.9441
 6336SOL    HW230642   2.615   3.808   4.122 -0.3657  0.1162 -1.0496
 6337SOL     OW30643   3.586   4.042   2.144 -0.2022  0.7411  0.0267
 6337SOL    HW130644   3.662   4.089   2.178 -1.4386  1.0421  2.4026
 6337SOL    HW230645   3.560   4.085   2.063 -1.9174 -2.5828 -1.1972
 6338SOL     OW30646   4.610   1.638   3.020 -0.0799 -0.0229 -0.0957
 6338SOL    HW130647   4.641   1.599   2.938 -0.7487 -3.2617  1.1737
 6338SOL    HW230648   4.531   1.681   2.989 -1.2963 -3.0989 -1.3112
 6339SOL     OW30649   4.416   4.663   9.808 -0.5082  0.2971 -0.3532
 6339SOL    HW130650   4.395   4.702   9.893  0.4546  1.2992 -0.5770
 6339SOL    HW230651   4.494   4.614   9.835  0.4436  1.6050 -0.7407
 6340SOL     OW30652   4.699   3.827   5.487 -0.8677  0.3349  0.1352
 6340SOL    HW130653   4.642   3.800   5.559 -0.7503  0.1510  0.1626
 6340SOL    HW230654   0.038   3.770   5.504 -1.3189  0.6780  3.3112
 6341SOL     OW30655   4.343   4.513   6.075 -0.3957 -0.3657  0.1684
 6341SOL    HW130656   4.438   4.504   6.066 -0.7998 -0.5945 -3.8979
 6341SOL    HW230657   4.315   4.422   6.083 -1.0184 -0.1361  0.6814
 6342SOL     OW30658   0.842   1.461   8.895 -0.0705  0.0611  0.3465
 6342SOL    HW130659   0.790   1.514   8.956 -1.0005 -1.4300  0.8731
 6342SOL    HW230660   0.924   1.509   8.884  0.0662  0.2030  1.9821
 6343SOL     OW30661   1.039   1.623   7.620 -0.4369  0.2847  0.8488
 6343SOL    HW130662   1.005   1.713   7.620  0.9858  0.8250  0.4019
 6343SOL    HW230663   0.992   1.597   7.541  0.2447  2.2569 -0.2089
 6344SOL     OW30664   1.415   3.618  17.510  0.1183 -0.1953 -0.7011
 6344SOL    HW130665   1.423   3.535  17.557  1.9972 -1.1650 -2.7261
 6344SOL    HW230666   1.421   3.682  17.581 -0.3879 -0.0368 -0.7984
 6345SOL     OW30667   3.811   1.089   1.117  0.6211  0.1166 -0.1330
 6345SOL    HW130668   3.835   1.160   1.177  0.8742 -0.6020  0.6092
 6345SOL    HW230669   3.819   1.006   1.164  0.3415  0.5512  0.6712
 6346SOL     OW30670   2.503   2.861  16.052  0.0924 -0.5226 -0.1220
 6346SOL    HW130671   2.550   2.822  16.126  0.5302  1.5814  0.7170
 6346SOL    HW230672   2.569   2.910  16.003 -0.3251  3.5426  3.4381
 6347SOL     OW30673   4.380   4.470   3.274 -0.2300 -0.1892  0.3646
 6347SOL    HW130674   4.422   4.542   3.228 -0.2440 -0.9999 -0.9367
 6347SOL    HW230675   4.457   4.425   3.307  0.2822 -0.3875 -1.1036
 6348SOL     OW30676   1.606   3.685   1.118 -0.4852  0.1338  0.8027
 6348SOL    HW130677   1.548   3.701   1.043  1.4572 -1.5574 -1.0381
 6348SOL    HW230678   1.678   3.742   1.089 -0.6278  0.9669  2.0991
 6349SOL     OW30679   4.443   2.760   2.165 -0.3537 -0.0564 -0.1137
 6349SOL    HW130680   4.429   2.696   2.236  1.4717 -0.2551  0.0712
 6349SOL    HW230681   4.524   2.804   2.191 -1.5694  2.2681 -0.3534
 6350SOL     OW30682   3.383   0.704  11.671  0.5517 -0.5836 -0.0003
 6350SOL    HW130683   3.339   0.665  11.596  0.3159 -0.5053  0.0962
 6350SOL    HW230684   3.331   0.679  11.748  0.9950 -2.5311 -0.3306
 6351SOL     OW30685   3.348   1.187   6.205  0.6006  0.5829 -0.2908
 6351SOL    HW130686   3.295   1.139   6.268 -0.0743 -0.2171 -1.4744
 6351SOL    HW230687   3.280   1.207   6.141  0.7447  0.3517 -0.5162
 6352SOL     OW30688   1.274   0.744   9.914 -0.1046 -0.6657 -0.0624
 6352SOL    HW130689   1.239   0.741  10.003  0.9336 -0.7142  0.3447
 6352SOL    HW230690   1.204   0.688   9.881  0.5637 -2.4202  1.4706
 6353SOL     OW30691   4.353   4.560   7.547  0.1250  0.0980 -0.0197
 6353SOL    HW130692   4.346   4.530   7.456  2.4431  1.4960 -0.6593
 6353SOL    HW230693   4.293   4.634   7.544 -1.6794 -1.3162  0.7755
 6354SOL     OW30694   1.519   4.176   7.551 -0.5085 -0.8869  0.2631
 6354SOL    HW130695   1.570   4.176   7.631  0.7528  0.7530 -0.5557
 6354SOL    HW230696   1.514   4.269   7.528 -1.4303 -0.2601  2.9956
 6355SOL     OW30697   3.608   4.580   7.068 -0.5679 -0.3031 -0.0622
 6355SOL    HW130698   3.547   4.506   7.077 -0.3360 -0.3929  0.8805
 6355SOL    HW230699   3.582   4.629   7.146 -1.1243 -0.2076 -0.3169
 6356SOL     OW30700   0.338   2.362  17.284 -0.5659 -0.6346  0.6089
 6356SOL    HW130701   0.252   2.370  17.324 -0.5572  1.4591  0.2177
 6356SOL    HW230702   0.370   2.452  17.284  1.0778 -1.2332  2.1938
 6357SOL     OW30703   3.830   4.072   1.614  0.2658 -0.2189  0.2159
 6357SOL    HW130704   3.781   3.990   1.623  0.6645 -0.2968  1.6396
 6357SOL    HW230705   3.773   4.119   1.675  1.1540  1.8557 -0.5594
 6358SOL     OW30706   2.780   2.042   5.283 -0.5449 -0.2311 -0.2082
 6358SOL    HW130707   2.861   2.001   5.313  0.3775  0.4414 -1.7857
 6358SOL    HW230708   2.766   2.113   5.346 -0.9075 -0.2197 -0.3001
 6359SOL     OW30709   1.909   2.121   2.963  0.2948  0.8482 -0.5856
 6359SOL    HW130710   1.933   2.194   3.020 -0.8154  2.4795 -2.1776
 6359SOL    HW230711   1.840   2.073   3.008  2.0138 -1.6179 -0.5943
 6360SOL     OW30712   2.899   3.371   6.654 -0.0203 -0.0944 -0.9061
 6360SOL    HW130713   2.847   3.354   6.733 -1.2089  0.7216 -1.5109
 6360SOL    HW230714   2.834   3.423   6.607  1.3244  3.5085  1.1636
 6361SOL     OW30715   2.415   1.055   5.219 -0.5707  0.4376 -0.2720
 6361SOL    HW130716   2.413   1.150   5.209  2.8144  0.3406 -1.9286
 6361SOL    HW230717   2.405   1.025   5.128  1.5654  0.0386 -0.3770
 6362SOL     OW30718   1.652   0.073   9.933  0.3617 -0.1343  0.5996
 6362SOL    HW130719   1.567   0.115   9.917  0.4782  0.1339  0.6838
 6362SOL    HW230720   1.620   4.720   9.942 -1.2027  0.2230 -1.2871
 6363SOL     OW30721   1.700   4.082   1.802 -0.6588 -0.0086 -0.2937
 6363SOL    HW130722   1.767   4.145   1.829 -0.8760  1.0092 -2.1415
 6363SOL    HW230723   1.658   4.083   1.887 -2.3620 -1.3326 -1.1311
 6364SOL     OW30724   1.704   1.501   9.913 -0.4322 -0.3108  0.0668
 6364SOL    HW130725   1.744   1.431   9.965  0.4286 -0.7513 -1.1711
 6364SOL    HW230726   1.617   1.469   9.888 -0.2066  0.7670 -2.1167
 6365SOL     OW30727   4.703   3.289   5.713  0.6315  0.1778 -0.3562
 6365SOL    HW130728   0.007   3.228   5.651 -1.2127 -1.4503  0.0186
 6365SOL    HW230729   4.716   3.237   5.792 -0.4201  1.2934  0.5338
 6366SOL     OW30730   3.937   2.597   5.394 -0.5575 -0.3318  0.0185
 6366SOL    HW130731   4.000   2.649   5.444 -3.1050  1.0223  1.8186
 6366SOL    HW230732   3.916   2.519   5.447  0.7918 -1.6656 -1.4179
 6367SOL     OW30733   1.233   3.456  11.540 -0.3315 -0.2165 -0.3918
 6367SOL    HW130734   1.327   3.477  11.534 -0.4413  0.6828  1.0825
 6367SOL    HW230735   1.199   3.500  11.618  0.2165 -0.6676  0.1042
 6368SOL     OW30736   0.466   3.799   4.513 -0.1652  0.1888  0.4676
 6368SOL    HW130737   0.463   3.869   4.447 -0.8243 -1.2154 -1.0113
 6368SOL    HW230738   0.424   3.845   4.586  1.0548  3.1347 -0.6719
 6369SOL     OW30739   3.619   1.035   8.916  0.0776  0.4592 -0.0351
 6369SOL    HW130740   3.536   0.988   8.925  0.1025  1.0535  3.3074
 6369SOL    HW230741   3.644   1.073   9.001  1.1536 -1.1331  0.3685
 6370SOL     OW30742   0.111   0.613   4.768 -0.3728 -0.2925 -0.2568
 6370SOL    HW130743   0.191   0.659   4.796  0.9863 -2.2636 -0.8988
 6370SOL    HW230744   0.095   0.558   4.845 -4.1156 -0.2845 -1.0298
 6371SOL     OW30745   2.306   4.434   2.256 -0.2271 -0.3439 -0.3481
 6371SOL    HW130746   2.271   4.522   2.245  0.8644 -0.0437 -1.3125
 6371SOL    HW230747   2.250   4.401   2.186 -1.9011  1.7450 -0.0081
 6372SOL     OW30748   3.672   4.559  12.984  0.2582  0.0085  0.3020
 6372SOL    HW130749   3.741   4.530  13.044  2.5122  0.3788 -2.0649
 6372SOL    HW230750   3.664   4.494  12.914 -0.4152 -0.9879  1.3276
 6373SOL     OW30751   1.062   1.472   2.425  0.1484  0.7434  0.4408
 6373SOL    HW130752   1.022   1.411   2.364  1.0381  1.9662 -1.3727
 6373SOL    HW230753   1.128   1.499   2.361 -0.3790 -0.3173 -0.5307
 6374SOL     OW30754   2.258   1.554   1.974 -0.1545 -0.7085 -0.2983
 6374SOL    HW130755   2.244   1.460   1.971 -1.7742 -0.3931 -2.4447
 6374SOL    HW230756   2.193   1.591   2.034 -0.2366  1.3256 -1.6072
 6375SOL     OW30757   0.006   2.875  16.663  0.4444 -0.0370 -0.3758
 6375SOL    HW130758   4.674   2.881  16.597  0.7327 -0.0980 -0.6813
 6375SOL    HW230759   0.064   2.949  16.645  0.4907  0.0493  0.1251
 6376SOL     OW30760   3.784   1.856   8.614 -0.1895 -1.4388 -0.0334
 6376SOL    HW130761   3.715   1.870   8.679  0.9527 -0.5479  0.9930
 6376SOL    HW230762   3.864   1.843   8.665 -0.2609 -0.2341  0.4029
 6377SOL     OW30763   4.119   0.328   9.939  0.2926 -0.1059  0.3234
 6377SOL    HW130764   4.076   0.246   9.964 -0.6467 -0.1680 -1.5044
 6377SOL    HW230765   4.102   0.383  10.015 -0.0206 -0.1873  0.3122
 6378SOL     OW30766   4.584   3.538   2.023 -0.1362 -0.0741 -0.0376
 6378SOL    HW130767   4.537   3.529   2.106  0.7128  1.5484  0.6277
 6378SOL    HW230768   4.579   3.447   1.995  2.9452  0.0980 -1.1533
 6379SOL     OW30769   2.729   2.817   7.911 -0.1128  0.1518 -0.1307
 6379SOL    HW130770   2.738   2.906   7.946 -1.5034  0.9523 -1.8592
 6379SOL    HW230771   2.645   2.827   7.867  0.7531  0.4456 -1.7008
 6380SOL     OW30772   1.665   1.864   4.316 -0.1590  0.2602  0.2354
 6380SOL    HW130773   1.739   1.822   4.273 -0.8728 -0.1448 -0.5922
 6380SOL    HW230774   1.594   1.837   4.257  0.0092  0.5084 -0.0829
 6381SOL     OW30775   0.469   0.122   8.127 -0.2654 -0.2335 -0.1872
 6381SOL    HW130776   0.538   0.059   8.106 -0.7537 -0.9167  0.2651
 6381SOL    HW230777   0.392   0.091   8.079  0.9785 -4.1719  0.3020
 6382SOL     OW30778   3.240   3.099   9.425 -0.2110 -1.0355 -0.2848
 6382SOL    HW130779   3.294   3.161   9.377 -1.5961  0.0506 -0.4664
 6382SOL    HW230780   3.308   3.079   9.489 -1.6966 -0.7493  1.3819
 6383SOL     OW30781   0.435   0.421   5.037 -0.1463  0.4258  0.1972
 6383SOL    HW130782   0.386   0.342   5.016  1.0570 -0.5152  0.8958
 6383SOL    HW230783   0.464   0.410   5.128 -0.9356 -1.0599  0.2661
 6384SOL     OW30784   2.741   2.153   3.060 -0.1808 -0.1085 -0.1882
 6384SOL    HW130785   2.658   2.181   3.099  0.2018  0.3740  0.2878
 6384SOL    HW230786   2.745   2.062   3.088  1.1065  0.0747  0.2129
 6385SOL     OW30787   0.707   0.998   6.392 -0.1381 -0.1646 -0.2405
 6385SOL    HW130788   0.692   1.075   6.446 -0.4415 -0.5985  0.2888
 6385SOL    HW230789   0.785   1.029   6.345  0.0971  3.0145  2.2023
 6386SOL     OW30790   3.232   0.571   1.772 -0.3896  0.5349 -0.4030
 6386SOL    HW130791   3.140   0.594   1.783 -1.5986 -3.9530 -0.8304
 6386SOL    HW230792   3.242   0.560   1.678 -3.9267  0.7003 -0.8079
 6387SOL     OW30793   0.865   2.869   4.649  0.4957  0.9844 -0.2115
 6387SOL    HW130794   0.878   2.775   4.664  1.4109  0.8128 -2.0656
 6387SOL    HW230795   0.854   2.894   4.741  0.3143  1.0836 -0.2610
 6388SOL     OW30796   1.618   1.980  13.757  0.0768  0.2161  0.1077
 6388SOL    HW130797   1.675   2.024  13.821  1.0120  1.9143 -1.9103
 6388SOL    HW230798   1.662   1.998  13.674 -2.5804  1.5803 -0.9990
 6389SOL     OW30799   0.817   1.720   8.167  0.3303  0.5835  0.9874
 6389SOL    HW130800   0.881   1.733   8.097 -0.8410 -0.4454 -0.2708
 6389SOL    HW230801   0.860   1.777   8.231 -2.2849  1.5998  1.8523
 6390SOL     OW30802   4.365   3.182  17.413 -0.4711 -0.4176  0.6101
 6390SOL    HW130803   4.449   3.150  17.446  0.6274  1.1893 -0.6398
 6390SOL    HW230804   4.316   3.113  17.457 -0.2271 -1.2163 -0.3763
 6391SOL     OW30805   1.525   4.565  12.999  0.4124  0.3104  0.5198
 6391SOL    HW130806   1.506   4.589  13.090  0.5727 -2.5654  1.3027
 6391SOL    HW230807   1.543   4.654  12.967 -0.9905  0.4422  0.0951
 6392SOL     OW30808   0.934   3.582   5.884  0.0876 -0.0358 -0.2792
 6392SOL    HW130809   0.874   3.577   5.959 -1.5939 -0.1677 -1.6275
 6392SOL    HW230810   0.908   3.663   5.841  0.1076  0.8374  1.3548
 6393SOL     OW30811   3.439   1.284   7.082 -0.5533  0.2579  0.2831
 6393SOL    HW130812   3.513   1.341   7.060 -1.0685  0.7222 -0.2638
 6393SOL    HW230813   3.449   1.292   7.176  0.0539 -2.1689  0.4307
 6394SOL     OW30814   0.196   2.117   0.154 -0.7347  0.1789  0.1335
 6394SOL    HW130815   0.189   2.081   0.066 -2.8766  0.3243  0.2429
 6394SOL    HW230816   0.216   2.210   0.143 -0.1082  0.2117  1.5725
 6395SOL     OW30817   4.418   1.346   6.380  0.6080  0.5216  0.1140
 6395SOL    HW130818   4.345   1.326   6.440 -0.9999  0.8907 -1.7314
 6395SOL    HW230819   4.484   1.383   6.438  0.8463  0.1681  0.0683
 6396SOL     OW30820   1.789   0.257   5.624 -0.2191 -0.1694  0.2354
 6396SOL    HW130821   1.746   0.179   5.589  1.3407 -0.3937 -1.1714
 6396SOL    HW230822   1.883   0.246   5.611  0.0511  1.2598  0.9520
 6397SOL     OW30823   2.899   1.979  13.414 -0.3664  0.2064  0.3624
 6397SOL    HW130824   2.992   1.994  13.400 -0.5975  0.4277 -0.8782
 6397SOL    HW230825   2.907   1.948  13.504  2.0503  1.1148  0.4628
 6398SOL     OW30826   1.840   1.395   7.272  0.5648  0.6339 -0.3192
 6398SOL    HW130827   1.923   1.411   7.318  0.3953  1.3392 -0.2504
 6398SOL    HW230828   1.806   1.484   7.282  0.1286  0.2874  1.3731
 6399SOL     OW30829   3.484   3.106   7.242  0.0400 -0.2553 -0.6024
 6399SOL    HW130830   3.500   3.155   7.161 -2.0906  0.2169 -0.7358
 6399SOL    HW230831   3.549   3.035   7.236  2.5624  2.4435 -4.9699
 6400SOL     OW30832   1.961   1.554   1.114 -0.7975  0.6325  0.2426
 6400SOL    HW130833   1.963   1.617   1.042  3.8641  0.8347  0.5248
 6400SOL    HW230834   1.985   1.613   1.186 -0.5525  1.6400 -0.6659
 6401SOL     OW30835   2.654   1.830   4.371  0.7772  0.3739  0.0516
 6401SOL    HW130836   2.712   1.811   4.445 -0.8704 -2.1343  0.6876
 6401SOL    HW230837   2.667   1.750   4.319  0.0078 -0.0358  0.5031
 6402SOL     OW30838   4.283   3.907   3.688 -0.0768  0.3410 -0.0874
 6402SOL    HW130839   4.201   3.858   3.690  0.4818 -0.5666  0.6426
 6402SOL    HW230840   4.330   3.854   3.623  1.2147 -0.0826  1.1868
 6403SOL     OW30841   1.810   2.440   7.910  0.1809 -0.1911 -0.3356
 6403SOL    HW130842   1.825   2.444   8.004  1.8489 -0.3477 -0.5951
 6403SOL    HW230843   1.868   2.364   7.903 -0.0512 -0.2495 -1.5463
 6404SOL     OW30844   1.486   0.483   2.868 -0.0355  0.0201  0.0116
 6404SOL    HW130845   1.400   0.467   2.906  0.2967 -0.1487  0.6795
 6404SOL    HW230846   1.465   0.472   2.775 -0.1108 -2.1478  0.2803
 6405SOL     OW30847   0.271   0.674   5.347  0.4760 -0.3758 -0.1852
 6405SOL    HW130848   0.363   0.695   5.328 -0.3779  1.7849 -1.9662
 6405SOL    HW230849   0.227   0.674   5.262  0.1835 -0.3405 -0.0346
 6406SOL     OW30850   2.801   1.582   4.001  0.0773  0.2588 -0.6249
 6406SOL    HW130851   2.797   1.649   3.932  1.6978  1.1322  0.1410
 6406SOL    HW230852   2.812   1.499   3.953 -2.2669 -0.3181 -0.1583
 6407SOL     OW30853   3.298   2.374   6.995 -0.0050  0.4585 -0.5434
 6407SOL    HW130854   3.258   2.426   6.925  0.0871  0.7604 -0.3710
 6407SOL    HW230855   3.390   2.394   6.978  0.0664  1.4808  1.0411
 6408SOL     OW30856   2.632   1.313   9.532 -0.3539 -0.4238  0.1817
 6408SOL    HW130857   2.710   1.295   9.585 -1.3401 -1.3846  1.3192
 6408SOL    HW230858   2.622   1.223   9.501 -0.1805 -0.7748  1.1292
 6409SOL     OW30859   3.256   0.210   2.519  0.0917 -0.2119  0.2502
 6409SOL    HW130860   3.237   0.300   2.494 -1.2617 -0.3388  0.7937
 6409SOL    HW230861   3.233   0.155   2.444  1.8860  0.4968 -0.8117
 6410SOL     OW30862   3.933   3.901  16.276  0.0317 -0.7584 -0.2214
 6410SOL    HW130863   4.028   3.899  16.271  0.1520 -0.7914  2.1032
 6410SOL    HW230864   3.919   3.807  16.284 -1.3867 -0.7073 -1.9515
 6411SOL     OW30865   1.139   4.347   7.704  0.3287  0.0320  0.3847
 6411SOL    HW130866   1.132   4.410   7.632 -0.6913  0.8705  1.2156
 6411SOL    HW230867   1.114   4.264   7.664 -0.3693  0.1480  0.5805
 6412SOL     OW30868   1.452   1.886  10.344  0.2253 -0.1088  0.7034
 6412SOL    HW130869   1.423   1.921  10.259  0.8994 -1.0309  0.0934
 6412SOL    HW230870   1.546   1.907  10.341 -0.0486  0.9705 -0.6919
 6413SOL     OW30871   3.172   3.386   9.764  0.1181 -0.0825  0.3768
 6413SOL    HW130872   3.247   3.443   9.748 -0.5402  0.9191  0.8921
 6413SOL    HW230873   3.162   3.354   9.674 -0.6704 -1.6760  1.0338
 6414SOL     OW30874   0.653   0.458   5.470 -0.1298 -0.2636 -0.5080
 6414SOL    HW130875   0.739   0.420   5.453 -0.4777 -0.0307 -2.7324
 6414SOL    HW230876   0.677   0.522   5.538 -1.8846 -1.6520  1.4386
 6415SOL     OW30877   2.548   3.275   3.975 -0.0140  0.3069  0.1677
 6415SOL    HW130878   2.475   3.334   3.954 -0.0296  0.3537  0.3543
 6415SOL    HW230879   2.592   3.262   3.891 -0.1733 -2.5854  0.5325
 6416SOL     OW30880   3.391   3.842   3.029  0.4591 -0.3705 -0.4439
 6416SOL    HW130881   3.299   3.816   3.031  0.5169 -0.8363 -3.8550
 6416SOL    HW230882   3.406   3.860   3.122 -1.5188 -0.4321 -0.1221
 6417SOL     OW30883   3.975   2.427   1.541 -0.0150  0.0816 -0.3734
 6417SOL    HW130884   4.018   2.351   1.501  1.5883 -0.0171  1.4877
 6417SOL    HW230885   3.943   2.386   1.622 -0.0467 -0.4525 -0.6574
 6418SOL     OW30886   1.395   3.981   6.962  0.3746  0.4779 -0.4406
 6418SOL    HW130887   1.335   4.019   6.897 -0.7758 -0.1083  0.2889
 6418SOL    HW230888   1.467   4.044   6.965  1.6412 -1.1122  2.3984
 6419SOL     OW30889   1.927   2.936   5.712  0.1926 -0.2127  0.0813
 6419SOL    HW130890   1.876   2.876   5.766  0.8048 -1.7303 -1.0405
 6419SOL    HW230891   2.009   2.942   5.762  0.4850  0.6873 -0.5122
 6420SOL     OW30892   4.225   4.345  11.986 -0.2050  1.0762  0.4241
 6420SOL    HW130893   4.145   4.299  11.960  1.9300 -1.0957 -2.1847
 6420SOL    HW230894   4.238   4.324  12.078  0.2273  0.3792  0.2007
 6421SOL     OW30895   0.158   1.977  17.659  0.0269  0.3823 -0.2223
 6421SOL    HW130896   0.241   1.971  17.612 -0.1162  1.0769 -0.5616
 6421SOL    HW230897   0.097   1.990  17.587 -1.1362  1.0000  0.8641
 6422SOL     OW30898   2.556   2.663   1.373  0.2178 -0.0502  0.2823
 6422SOL    HW130899   2.633   2.672   1.429 -0.2661 -0.8003  1.0801
 6422SOL    HW230900   2.587   2.612   1.298 -0.7048 -0.6690  0.3298
 6423SOL     OW30901   2.395   0.657   2.970 -1.1718 -0.1614 -0.2318
 6423SOL    HW130902   2.367   0.660   2.878  2.1561 -1.4872 -1.2887
 6423SOL    HW230903   2.481   0.619   2.954 -2.3408 -2.9689  0.2176
 6424SOL     OW30904   3.912   0.276  12.154 -0.2895 -0.2111  0.3200
 6424SOL    HW130905   3.878   0.239  12.072  2.2314 -0.8981 -0.4015
 6424SOL    HW230906   3.919   0.371  12.139  3.7056 -0.4631  0.6475
 6425SOL     OW30907   0.792   2.934   3.993  0.1520 -0.2028  0.1652
 6425SOL    HW130908   0.863   2.879   4.023  0.9999 -0.2239 -1.8488
 6425SOL    HW230909   0.820   2.952   3.903 -1.8247 -2.0013 -0.8043
 6426SOL     OW30910   1.120   2.904   6.404  0.2999  0.4614  0.9282
 6426SOL    HW130911   1.064   2.981   6.397 -1.3918 -0.7435  1.0296
 6426SOL    HW230912   1.054   2.836   6.392  2.6004 -2.0157  2.1665
 6427SOL     OW30913   3.799   0.862   6.668  0.3372  0.4972  0.3439
 6427SOL    HW130914   3.726   0.803   6.650  0.6564 -0.2623  1.5236
 6427SOL    HW230915   3.857   0.816   6.729  3.0208  1.6885 -1.2947
 6428SOL     OW30916   4.668   3.930   2.579  0.3937  0.3073 -0.3057
 6428SOL    HW130917   4.608   3.932   2.504  0.5586 -0.3540 -0.4580
 6428SOL    HW230918   4.618   3.998   2.623 -0.7420 -1.8602  1.6951
 6429SOL     OW30919   3.489   4.683   3.943 -0.1312 -0.3783 -0.3278
 6429SOL    HW130920   3.427   4.722   3.882 -1.3474 -1.1822  0.3847
 6429SOL    HW230921   3.562   4.665   3.883  0.7962  0.6240  0.4879
 6430SOL     OW30922   2.587   0.028   3.287  0.9216 -0.2055  0.2240
 6430SOL    HW130923   2.570   0.091   3.217 -0.1992 -1.6928 -0.8387
 6430SOL    HW230924   2.547   0.074   3.362 -1.7429  1.3157 -2.0947
 6431SOL     OW30925   1.317   2.549   0.979 -0.2712 -0.2063  0.6946
 6431SOL    HW130926   1.226   2.565   1.006 -1.1464 -1.3508 -1.4816
 6431SOL    HW230927   1.308   2.492   0.902  3.0457  1.3726 -0.8451
 6432SOL     OW30928   3.571   4.230   4.306 -0.0825 -0.1920  0.3729
 6432SOL    HW130929   3.515   4.198   4.377 -1.4068  2.8425  0.7250
 6432SOL    HW230930   3.591   4.143   4.271 -1.1301 -0.1526 -0.3103
 6433SOL     OW30931   0.871   3.157   7.263  0.5574  0.3307  0.1983
 6433SOL    HW130932   0.865   3.109   7.181  0.5121  0.0235  0.3782
 6433SOL    HW230933   0.900   3.236   7.216 -0.4233 -0.5091 -1.7887
 6434SOL     OW30934   2.144   3.962   4.137 -0.0849 -0.6085  0.0396
 6434SOL    HW130935   2.205   3.972   4.063 -2.1537  2.1462 -1.2814
 6434SOL    HW230936   2.212   3.926   4.194 -0.2887 -0.9139  0.0871
 6435SOL     OW30937   3.604   3.900   5.318  0.5491  0.2396  0.4390
 6435SOL    HW130938   3.572   3.854   5.240 -1.7088 -0.0840  1.5727
 6435SOL    HW230939   3.548   3.978   5.316  3.2686  2.2710  1.5137
 6436SOL     OW30940   4.715   0.851   1.513 -0.0926 -0.0595  0.1381
 6436SOL    HW130941   4.664   0.843   1.594 -0.3159 -2.3693 -0.2327
 6436SOL    HW230942   0.016   0.763   1.507 -2.5278 -1.0871 -0.3871
 6437SOL     OW30943   4.013   0.273   6.764  0.1252 -0.3665  0.3081
 6437SOL    HW130944   3.933   0.277   6.817  0.7037  1.3435  1.0378
 6437SOL    HW230945   4.027   0.178   6.761  0.7612 -0.3254  2.0853
 6438SOL     OW30946   0.775   0.181   5.774 -0.8563 -0.0837  0.3223
 6438SOL    HW130947   0.729   0.152   5.695 -0.6587  0.5470 -0.0261
 6438SOL    HW230948   0.837   0.112   5.795  0.3191  0.8714 -0.0117
 6439SOL     OW30949   2.257   1.982   4.593 -0.1034 -0.0448 -0.1355
 6439SOL    HW130950   2.210   1.988   4.677  0.6951  0.4938  0.2770
 6439SOL    HW230951   2.331   2.037   4.619  1.0698 -2.4263  1.6281
 6440SOL     OW30952   4.300   4.338   4.006 -0.5165 -0.5232 -0.5186
 6440SOL    HW130953   4.348   4.258   4.028  0.5847  0.5988  1.1785
 6440SOL    HW230954   4.241   4.340   4.081 -0.6071 -0.6701 -0.5850
 6441SOL     OW30955   3.810   0.748   5.278  0.1896  0.1265 -0.3444
 6441SOL    HW130956   3.722   0.741   5.241  0.0579 -0.6451  0.1089
 6441SOL    HW230957   3.818   0.654   5.291  3.8247  0.5278  0.4754
 6442SOL     OW30958   2.835   4.479   8.401 -0.1112 -0.2067  0.0532
 6442SOL    HW130959   2.825   4.566   8.440 -0.3380 -0.5748  0.8168
 6442SOL    HW230960   2.873   4.432   8.476  0.5714 -0.0242 -0.1788
 6443SOL     OW30961   0.604   3.324   5.537 -0.0589  0.2054  0.1323
 6443SOL    HW130962   0.646   3.399   5.494  1.0840 -0.9953 -0.8734
 6443SOL    HW230963   0.563   3.360   5.616 -0.2890  0.9397 -0.3257
 6444SOL     OW30964   2.729   1.804   8.658 -0.0010  0.0377  0.1229
 6444SOL    HW130965   2.702   1.712   8.654  2.0515 -0.5283 -0.3274
 6444SOL    HW230966   2.821   1.794   8.680 -0.2175  0.9284  1.4661
 6445SOL     OW30967   0.441   1.685   2.289 -0.0486 -0.1337 -0.6034
 6445SOL    HW130968   0.377   1.616   2.304  0.5586 -0.4536  0.5251
 6445SOL    HW230969   0.395   1.770   2.294 -0.6278 -0.3693 -2.0068
 6446SOL     OW30970   1.936   1.440  17.209  0.1883  0.0812  0.3187
 6446SOL    HW130971   1.860   1.468  17.158  1.0725 -0.9616 -1.5347
 6446SOL    HW230972   1.916   1.481  17.294 -2.0242 -2.1900  0.8960
 6447SOL     OW30973   3.824   3.640   4.032 -0.6103 -0.0228 -0.1007
 6447SOL    HW130974   3.898   3.680   4.078 -0.0683  1.4961 -2.3346
 6447SOL    HW230975   3.808   3.706   3.965 -2.7851 -0.9626 -0.5022
 6448SOL     OW30976   1.973   2.610  17.437 -0.0975  0.0645  0.1475
 6448SOL    HW130977   2.008   2.699  17.438 -1.0852  0.4656 -0.1866
 6448SOL    HW230978   2.044   2.559  17.475  0.7102 -0.0136 -1.4969
 6449SOL     OW30979   1.124   2.558   4.055  0.0981  0.4086 -0.0252
 6449SOL    HW130980   1.030   2.542   4.050 -0.1035  1.8253 -0.5731
 6449SOL    HW230981   1.171   2.474   4.055  0.6057  0.6834  2.8228
 6450SOL     OW30982   2.672   0.076  10.390  0.2996  0.1694  0.1668
 6450SOL    HW130983   2.743   0.048  10.449  0.0448 -0.0819  0.3557
 6450SOL    HW230984   2.630   4.733  10.359 -1.8705  0.6523  1.8002
 6451SOL     OW30985   3.401   0.380   5.147 -0.1292  0.3742 -0.2235
 6451SOL    HW130986   3.350   0.327   5.208 -0.5000  1.8135  0.7148
 6451SOL    HW230987   3.326   0.419   5.102 -1.4391 -1.6778  0.1912
 6452SOL     OW30988   3.391   1.915   5.492 -0.3819  0.5052  0.6558
 6452SOL    HW130989   3.455   1.846   5.473 -1.2296  0.6710 -2.7641
 6452SOL    HW230990   3.438   1.946   5.570 -1.5817 -1.1755  2.0605
 6453SOL     OW30991   3.411   4.021   5.839 -0.0029  0.0125 -0.3218
 6453SOL    HW130992   3.340   4.039   5.778 -0.0042  2.3714  0.3751
 6453SOL    HW230993   3.489   4.010   5.784 -0.5530  0.8227 -1.2462
 6454SOL     OW30994   2.094   0.628   8.434  0.1107 -0.5610 -0.6606
 6454SOL    HW130995   2.162   0.585   8.486  0.2474 -1.2973 -1.4366
 6454SOL    HW230996   2.028   0.558   8.432  0.5122 -0.9539 -0.1073
 6455SOL     OW30997   1.496   0.586   1.980 -0.0587 -0.3717 -0.0561
 6455SOL    HW130998   1.458   0.514   1.930 -0.0562  0.6856 -1.5651
 6455SOL    HW230999   1.421   0.645   1.976  0.3069  0.0474 -0.7296
 6456SOL     OW31000   4.041   1.897   3.918 -0.4736 -0.0865 -0.4217
 6456SOL    HW131001   3.962   1.856   3.951  1.9368 -2.2051  2.7390
 6456SOL    HW231002   3.993   1.951   3.856  2.3025  1.2365 -1.4506
 6457SOL     OW31003   3.093   0.735   2.044 -0.1511 -0.4859  0.4062
 6457SOL    HW131004   3.044   0.691   2.114  0.7126  0.6460  1.7422
 6457SOL    HW231005   3.046   0.714   1.964 -2.1773  1.8628  0.9774
 6458SOL     OW31006   1.308   3.961   5.675  0.5975 -0.3173  0.2749
 6458SOL    HW131007   1.272   3.904   5.742  1.3972 -1.8267 -0.5774
 6458SOL    HW231008   1.402   3.943   5.686  1.0363  0.3865 -2.2091
 6459SOL     OW31009   4.567   2.382   1.486 -0.3928  0.6176  0.4507
 6459SOL    HW131010   4.554   2.450   1.552  0.2231  1.0263  0.1534
 6459SOL    HW231011   4.662   2.391   1.481 -0.4775  0.9566 -0.6584
 6460SOL     OW31012   1.276   0.154   8.822 -0.4000 -0.0955 -0.7514
 6460SOL    HW131013   1.281   0.099   8.900  0.5203  1.9099  0.6312
 6460SOL    HW231014   1.282   0.090   8.751  1.1316 -1.7441  0.8714
 6461SOL     OW31015   2.200   4.269  12.327  0.1420 -0.4316  0.6511
 6461SOL    HW131016   2.216   4.266  12.233 -1.3332 -0.1916  0.3909
 6461SOL    HW231017   2.245   4.354  12.335 -0.1226 -0.4089  1.8905
 6462SOL     OW31018   1.880   3.537  10.940  1.0033  0.3189 -0.6319
 6462SOL    HW131019   1.798   3.488  10.942  0.7758  0.7257  0.1929
 6462SOL    HW231020   1.853   3.602  10.875 -1.0860  1.3739  1.2725
 6463SOL     OW31021   2.837   0.937  16.463 -0.2505  0.5038 -0.0643
 6463SOL    HW131022   2.820   1.013  16.407 -0.4499  2.1412  2.2218
 6463SOL    HW231023   2.769   0.949  16.529  0.1502 -2.0200  0.7877
 6464SOL     OW31024   2.466   0.271   8.963 -0.4500  0.3533 -0.1707
 6464SOL    HW131025   2.471   0.194   9.019  1.4720 -1.1435 -2.3798
 6464SOL    HW231026   2.438   0.335   9.028  0.7964 -0.4761  1.1864
 6465SOL     OW31027   3.742   2.838  16.754  0.3511 -0.1381  0.3307
 6465SOL    HW131028   3.751   2.744  16.774  0.3142 -0.1778  0.1615
 6465SOL    HW231029   3.805   2.839  16.681  0.7612  1.4288  0.7052
 6466SOL     OW31030   1.064   4.393   0.841  0.5306 -0.2859 -0.0187
 6466SOL    HW131031   1.072   4.414   0.748 -1.7069  3.4253  0.6665
 6466SOL    HW231032   0.969   4.385   0.851  0.2630 -0.4618 -2.8097
 6467SOL     OW31033   0.510   4.043   9.459 -0.1045  1.0830 -0.0759
 6467SOL    HW131034   0.506   4.012   9.549  0.1942 -0.1107 -0.4727
 6467SOL    HW231035   0.605   4.044   9.445 -0.0950 -2.1820 -0.1923
 6468SOL     OW31036   2.114   0.733  15.949  0.0677 -0.0084 -0.2418
 6468SOL    HW131037   2.182   0.724  15.883 -0.9165  2.0887 -1.5389
 6468SOL    HW231038   2.155   0.728  16.036  0.8457 -0.2090 -0.6229
 6469SOL     OW31039   2.940   1.940   7.891 -1.0307 -0.7111  0.0805
 6469SOL    HW131040   2.887   1.909   7.965  1.2980 -1.9582  1.2159
 6469SOL    HW231041   2.927   1.879   7.819  0.8081  1.5952 -2.1787
 6470SOL     OW31042   3.948   2.022   5.066 -0.0542 -0.1999  0.3292
 6470SOL    HW131043   3.871   2.033   5.122  1.2465  1.9550  1.6962
 6470SOL    HW231044   4.025   2.009   5.121 -0.7083 -3.7737  0.3878
 6471SOL     OW31045   0.384   0.143   6.516 -0.7212  0.5543  0.6270
 6471SOL    HW131046   0.338   0.161   6.434  0.5380 -0.6434 -0.3405
 6471SOL    HW231047   0.415   0.230   6.543  0.6176  0.2147  0.2070
 6472SOL     OW31048   2.873   3.483   5.238  0.2482 -0.7088  0.7494
 6472SOL    HW131049   2.877   3.388   5.232  3.6641 -0.5378  0.2520
 6472SOL    HW231050   2.820   3.499   5.159 -2.4663 -2.4438  2.2208
 6473SOL     OW31051   4.278   1.735   3.126  0.3305  0.0745 -0.7671
 6473SOL    HW131052   4.253   1.761   3.215 -0.1149  1.5535 -1.3181
 6473SOL    HW231053   4.192   1.703   3.100  1.2191 -1.7452 -1.4811
 6474SOL     OW31054   3.702   2.700  16.469  0.4023  0.0203 -0.4367
 6474SOL    HW131055   3.724   2.625  16.413  1.3550 -0.2676  0.3163
 6474SOL    HW231056   3.626   2.675  16.520 -0.0392  0.6279 -0.7976
 6475SOL     OW31057   2.508   0.794  15.290 -0.4534 -0.1820 -0.5004
 6475SOL    HW131058   2.519   0.699  15.297 -0.6026 -0.0812  1.0020
 6475SOL    HW231059   2.576   0.822  15.229  0.3954 -2.2726 -0.5039
 6476SOL     OW31060   2.681   4.644   5.164 -0.3646  0.1776  0.6039
 6476SOL    HW131061   2.736   4.690   5.228  0.7717  0.5364 -0.6208
 6476SOL    HW231062   2.635   4.715   5.120 -0.4478 -1.0160 -1.2411
 6477SOL     OW31063   4.297   0.991   1.777 -0.1879 -0.7033  0.0987
 6477SOL    HW131064   4.239   0.974   1.852 -0.2218  1.1675  0.5132
 6477SOL    HW231065   4.276   1.085   1.772 -1.5625 -1.1234 -1.7198
 6478SOL     OW31066   0.548   4.500   1.826  0.2985 -0.4342  0.1462
 6478SOL    HW131067   0.545   4.442   1.902  1.6159  1.2297  1.4632
 6478SOL    HW231068   0.479   4.561   1.851  1.2439 -0.0576  1.8022
 6479SOL     OW31069   0.842   2.622   2.074  0.1330  0.1383 -0.0846
 6479SOL    HW131070   0.851   2.527   2.060 -0.9507  0.0330 -0.0965
 6479SOL    HW231071   0.814   2.649   1.987 -0.9151 -1.6693 -0.3273
 6480SOL     OW31072   2.690   3.465   2.525 -0.3289  0.2365 -0.5737
 6480SOL    HW131073   2.636   3.498   2.453 -2.3259 -0.1342  0.7719
 6480SOL    HW231074   2.766   3.518   2.501  0.1784 -0.6380 -0.9060
 6481SOL     OW31075   2.557   0.163   6.891  0.3566  0.3624  0.0834
 6481SOL    HW131076   2.547   0.105   6.966 -0.6312 -0.0330 -0.3500
 6481SOL    HW231077   2.647   0.192   6.910  0.5260 -0.9988  1.3141
 6482SOL     OW31078   4.734   2.673   5.621  0.3818 -0.0651 -0.0679
 6482SOL    HW131079   0.026   2.586   5.595  0.0109  0.2045 -1.3625
 6482SOL    HW231080   0.038   2.717   5.546  2.2852  1.8234  2.0367
 6483SOL     OW31081   1.353   1.272   2.351  0.3001  0.6660  0.3041
 6483SOL    HW131082   1.301   1.224   2.416 -0.8579  1.1273 -0.2702
 6483SOL    HW231083   1.407   1.315   2.416 -1.5546  1.0117  1.6071
 6484SOL     OW31084   2.525   4.626   6.672 -0.6825 -0.2806  0.0561
 6484SOL    HW131085   2.616   4.635   6.700 -1.2060  0.9969  1.3485
 6484SOL    HW231086   2.539   4.615   6.578  2.7192  0.6004  0.4820
 6485SOL     OW31087   0.715   1.938   6.121 -0.5648 -0.1996 -0.0512
 6485SOL    HW131088   0.808   1.942   6.099 -0.0909 -1.3585  1.7407
 6485SOL    HW231089   0.678   1.915   6.036  0.3309  0.4842 -0.6302
 6486SOL     OW31090   4.270   3.214   1.909  0.1056 -0.7264 -0.5476
 6486SOL    HW131091   4.233   3.290   1.955  0.1041 -0.8635 -0.3246
 6486SOL    HW231092   4.310   3.165   1.981  1.3703  0.3447 -0.5253
 6487SOL     OW31093   3.040   1.019   5.044 -0.2197  0.2645 -0.4169
 6487SOL    HW131094   3.131   1.004   5.021 -0.8360  0.7561 -3.1399
 6487SOL    HW231095   2.988   0.978   4.975  0.0336 -1.7510  0.5675
 6488SOL     OW31096   2.515   4.088  11.048 -0.6116  0.8017  0.6375
 6488SOL    HW131097   2.463   4.020  11.006 -0.0415 -0.3666  1.8586
 6488SOL    HW231098   2.531   4.057  11.137  0.4104 -1.0850 -0.2142
 6489SOL     OW31099   4.341   4.043   7.894  0.3931 -0.3927  0.3192
 6489SOL    HW131100   4.408   4.069   7.957 -1.6243  1.6704  1.6267
 6489SOL    HW231101   4.350   4.115   7.831 -1.1984 -2.1582 -1.9181
 6490SOL     OW31102   2.455   4.193   3.864 -0.0420 -0.8360  0.2045
 6490SOL    HW131103   2.527   4.248   3.896 -0.3079  0.5335 -1.5674
 6490SOL    HW231104   2.390   4.264   3.860  0.7810 -0.1170 -0.4709
 6491SOL     OW31105   1.206   2.727  15.443 -0.3862 -0.2292  0.4939
 6491SOL    HW131106   1.250   2.650  15.479 -0.8815  0.6337  2.9540
 6491SOL    HW231107   1.218   2.710  15.350 -2.4286  0.5330  0.0939
 6492SOL     OW31108   1.169   2.927  17.150 -0.3377 -0.0763  0.0786
 6492SOL    HW131109   1.135   2.838  17.151 -0.4739 -0.0111  0.9747
 6492SOL    HW231110   1.159   2.949  17.057 -1.6966  0.6348  0.4006
 6493SOL     OW31111   0.227   4.713  15.271 -0.0953 -0.4006 -0.1653
 6493SOL    HW131112   0.225   0.024  15.354 -1.7030 -0.0096 -0.4220
 6493SOL    HW231113   0.280   4.639  15.299  0.7796 -0.3199 -1.5691
 6494SOL     OW31114   0.230   2.862  15.110  0.1760 -0.3551  0.1463
 6494SOL    HW131115   0.219   2.813  15.191  0.6448  0.1203  0.4978
 6494SOL    HW231116   0.141   2.871  15.077 -0.0775 -1.0470  0.6408
 6495SOL     OW31117   4.170   3.044   7.271  0.1132 -0.6839 -0.1586
 6495SOL    HW131118   4.250   2.992   7.280  0.2040 -0.3483  0.9647
 6495SOL    HW231119   4.195   3.109   7.205  0.0726 -1.5799 -1.0627
 6496SOL     OW31120   4.082   4.706  10.068 -0.5009  0.0608 -0.1062
 6496SOL    HW131121   4.052   0.012  10.148  0.1652  0.0759  0.1376
 6496SOL    HW231122   4.149   0.034  10.046 -1.7235  1.2097 -0.3884
 6497SOL     OW31123   0.307   2.256  10.931  0.2137 -0.4200  0.1822
 6497SOL    HW131124   0.344   2.218  10.852  2.5462  0.4376  0.8575
 6497SOL    HW231125   0.347   2.212  11.006  0.8958  0.5306  0.3743
 6498SOL     OW31126   2.126   4.036   6.236 -0.1277  0.1520  0.1422
 6498SOL    HW131127   2.034   4.009   6.238 -0.5652  1.5906 -0.3371
 6498SOL    HW231128   2.164   3.991   6.312  0.5643 -1.3935 -1.1210
 6499SOL     OW31129   0.612   0.395  11.285  0.2557 -0.0607 -0.1228
 6499SOL    HW131130   0.651   0.328  11.229  0.3239  1.4884 -1.9551
 6499SOL    HW231131   0.649   0.406  11.373  0.4870  0.7356 -0.3162
 6500SOL     OW31132   2.357   4.492  12.259  0.2511  0.2887 -0.6773
 6500SOL    HW131133   2.403   4.462  12.181 -0.9834 -0.3319 -1.1679
 6500SOL    HW231134   2.428   4.487  12.323 -1.5152 -0.4439  1.2644
 6501SOL     OW31135   1.777   1.071   1.590  0.1666 -0.9697  0.4522
 6501SOL    HW131136   1.818   0.991   1.623  0.8425  0.0573  2.0867
 6501SOL    HW231137   1.731   1.104   1.667  1.8189 -1.4027  1.6060
 6502SOL     OW31138   3.108   1.543   8.874  0.4042  0.2034 -0.2359
 6502SOL    HW131139   3.182   1.496   8.833  0.2151 -0.1898 -0.1253
 6502SOL    HW231140   3.157   1.613   8.917 -1.8752  1.2896  0.5702
 6503SOL     OW31141   3.668   3.842   9.589 -0.2583  0.2957  0.5099
 6503SOL    HW131142   3.692   3.785   9.662  3.3781  0.0315 -0.9034
 6503SOL    HW231143   3.676   3.787   9.512  0.7318 -0.8386  1.4290
 6504SOL     OW31144   2.864   0.686   7.615 -0.4345 -0.4996  0.5447
 6504SOL    HW131145   2.824   0.644   7.538 -0.2536  0.1073  0.1197
 6504SOL    HW231146   2.873   0.602   7.661  2.9318 -0.6443 -0.3957
 6505SOL     OW31147   1.034   2.841  13.892  0.8774 -0.2480  0.0189
 6505SOL    HW131148   1.009   2.785  13.818  0.1683 -0.1276  0.1666
 6505SOL    HW231149   1.000   2.926  13.864 -0.6494  0.5584  4.3497
 6506SOL     OW31150   0.962   1.908  13.603  0.2155 -0.3199  0.4831
 6506SOL    HW131151   0.931   1.997  13.591 -0.0458 -0.9530 -3.6159
 6506SOL    HW231152   1.001   1.901  13.690  0.9998 -1.4377  0.0454
 6507SOL     OW31153   2.915   2.020   0.016 -0.5143 -0.2502  0.2292
 6507SOL    HW131154   2.838   2.077   0.021  0.3267  0.8584  0.4893
 6507SOL    HW231155   2.891   1.930   0.036 -1.0223 -0.2221 -0.2353
 6508SOL     OW31156   2.875   2.212   2.671  0.1317 -0.4527 -0.0079
 6508SOL    HW131157   2.952   2.250   2.629 -0.2155 -0.7561 -0.9194
 6508SOL    HW231158   2.887   2.119   2.655  0.2448 -0.7303  1.7159
 6509SOL     OW31159   1.952   3.098  17.160 -0.3914  0.3059 -0.4081
 6509SOL    HW131160   2.020   3.054  17.109  0.2418 -2.9193  3.2328
 6509SOL    HW231161   1.993   3.106  17.246 -0.6565  2.7449 -0.4951
 6510SOL     OW31162   1.673   1.280   8.286  0.3959 -0.3633 -0.1636
 6510SOL    HW131163   1.610   1.263   8.355  0.9507 -1.4844  0.0562
 6510SOL    HW231164   1.756   1.269   8.333 -0.2921  1.2856  1.4412
 6511SOL     OW31165   1.511   1.742  15.634 -0.1038  0.0557 -0.1711
 6511SOL    HW131166   1.448   1.671  15.621 -0.5673  0.5083 -0.3719
 6511SOL    HW231167   1.466   1.806  15.579  0.1096 -0.1300 -0.5584
 6512SOL     OW31168   2.829   2.880   5.710  0.2156  0.5748  0.1470
 6512SOL    HW131169   2.780   2.870   5.792 -1.3278 -2.0240 -1.0835
 6512SOL    HW231170   2.829   2.975   5.701  0.8230  0.8287  2.6383
 6513SOL     OW31171   3.598   4.503  12.295 -0.3579  0.1850 -0.1951
 6513SOL    HW131172   3.648   4.551  12.361  1.2663 -1.2961 -0.3189
 6513SOL    HW231173   3.637   4.547  12.220 -3.1941  1.7041 -0.7568
 6514SOL     OW31174   1.066   2.170   0.060 -0.1260 -0.1057  0.1070
 6514SOL    HW131175   1.033   2.255   0.091  2.3142 -0.4556  3.7425
 6514SOL    HW231176   1.146   2.194   0.013 -0.6755 -0.7159 -1.1236
 6515SOL     OW31177   2.839   3.347   0.067  0.3354 -0.1223  0.3701
 6515SOL    HW131178   2.832   3.443   0.060 -1.1443 -0.1713  1.3523
 6515SOL    HW231179   2.757   3.330   0.022  1.0995 -0.0330 -1.0638
 6516SOL     OW31180   3.717   3.874   7.108 -0.2582 -0.3554  0.1360
 6516SOL    HW131181   3.722   3.953   7.162  3.0832 -0.0525 -0.6348
 6516SOL    HW231182   3.795   3.828   7.138 -0.3532  0.1025  1.1006
 6517SOL     OW31183   4.212   1.005   7.732 -0.0417  0.6843  0.5611
 6517SOL    HW131184   4.198   0.993   7.638 -1.6509  2.6069  0.5540
 6517SOL    HW231185   4.287   1.063   7.721  1.0871 -1.1568 -1.3996
 6518SOL     OW31186   2.668   1.900  14.812 -0.4910 -0.2280  0.0414
 6518SOL    HW131187   2.600   1.958  14.847  0.0137  1.0112 -1.0414
 6518SOL    HW231188   2.688   1.850  14.891 -0.0110  0.2335  0.2113
 6519SOL     OW31189   4.475   3.859   9.139 -0.5626  0.5960  0.8280
 6519SOL    HW131190   4.464   3.870   9.044 -1.9345 -0.0449  0.9037
 6519SOL    HW231191   4.516   3.945   9.147  1.7174 -0.5048  0.9668
 6520SOL     OW31192   1.402   2.137   3.886  0.8305 -0.7390  0.6627
 6520SOL    HW131193   1.370   2.056   3.847 -0.5709  0.6608 -1.0623
 6520SOL    HW231194   1.429   2.108   3.973  0.8079 -0.8887  0.6188
 6521SOL     OW31195   2.186   2.041  15.808  0.3833 -0.1806 -0.5365
 6521SOL    HW131196   2.256   1.976  15.812  1.0047  0.5936  1.4124
 6521SOL    HW231197   2.237   2.123  15.810  0.0822 -0.0067  0.1075
 6522SOL     OW31198   2.721   3.571  17.174 -0.7077 -0.2384 -0.0628
 6522SOL    HW131199   2.712   3.518  17.094 -1.8434  0.1967 -0.2353
 6522SOL    HW231200   2.645   3.533  17.219 -0.3843 -0.6361  0.1503
 6523SOL     OW31201   4.715   2.678   9.841  0.5545  0.3227 -0.0557
 6523SOL    HW131202   0.045   2.744   9.858 -0.1434  0.4335  2.2198
 6523SOL    HW231203   0.013   2.640   9.760  0.1329  0.2151 -0.1899
 6524SOL     OW31204   3.069   3.646   5.140  0.0526 -0.3247 -0.2317
 6524SOL    HW131205   2.998   3.710   5.126  0.3123 -0.3695 -1.7129
 6524SOL    HW231206   3.023   3.591   5.203  0.7196  0.2716  0.7893
 6525SOL     OW31207   4.493   0.060   8.789 -0.0369  0.0881  0.1878
 6525SOL    HW131208   4.538   0.126   8.843  0.4011  0.7106 -0.9457
 6525SOL    HW231209   4.435   0.027   8.858 -1.3719  1.7558 -0.1317
 6526SOL     OW31210   2.131   3.311   9.403 -0.8511  0.4287 -0.0937
 6526SOL    HW131211   2.042   3.312   9.369 -0.9205 -4.0846  0.0445
 6526SOL    HW231212   2.138   3.403   9.431  0.7356  0.4050 -0.4307
 6527SOL     OW31213   1.789   3.734   8.021 -0.4824  0.2052  0.1361
 6527SOL    HW131214   1.876   3.698   8.041  0.0910  0.5958 -1.6708
 6527SOL    HW231215   1.811   3.827   8.015 -0.0821  0.3998  4.2967
 6528SOL     OW31216   0.491   3.104   9.405  0.3028 -0.3122 -0.3836
 6528SOL    HW131217   0.512   3.112   9.312 -2.0349  2.9277 -0.6236
 6528SOL    HW231218   0.492   3.009   9.417 -1.1900  0.1134  3.0112
 6529SOL     OW31219   1.118   3.061   0.560 -0.2966  0.1813 -0.0923
 6529SOL    HW131220   1.196   3.008   0.580 -1.2181 -1.0952  0.0692
 6529SOL    HW231221   1.156   3.110   0.486  4.3001 -0.1525  2.0260
 6530SOL     OW31222   4.603   4.399   7.299 -0.2710  0.2648 -0.1987
 6530SOL    HW131223   4.619   4.430   7.210 -0.9155  0.5046 -0.2278
 6530SOL    HW231224   4.559   4.474   7.338  1.3571  0.2112  1.7981
 6531SOL     OW31225   1.662   0.380  12.276 -0.3205  0.0800  0.0286
 6531SOL    HW131226   1.571   0.352  12.280  0.2727 -1.6767  0.9625
 6531SOL    HW231227   1.704   0.294  12.276 -1.6200 -0.5463 -0.9353
 6532SOL     OW31228   0.026   4.534   2.590  1.2509 -0.2196 -0.6148
 6532SOL    HW131229   0.118   4.534   2.617  1.5404  1.5198 -1.6326
 6532SOL    HW231230   0.005   4.450   2.631 -1.7356 -0.0109 -1.7424
 6533SOL     OW31231   2.670   2.616  12.597  0.2947  0.1538  0.7843
 6533SOL    HW131232   2.610   2.542  12.611 -0.7472  0.7050 -0.8238
 6533SOL    HW231233   2.680   2.611  12.502  1.4635  0.4443  0.8918
 6534SOL     OW31234   3.099   3.991   3.361 -0.4495 -0.4107  0.5766
 6534SOL    HW131235   3.148   4.016   3.283  0.5927 -1.7669  0.8033
 6534SOL    HW231236   3.115   3.897   3.365  0.7274 -0.2176  0.5064
 6535SOL     OW31237   1.681   1.151   8.015 -0.7115 -0.7112  0.1184
 6535SOL    HW131238   1.594   1.110   8.012 -0.6860 -0.7628  0.0687
 6535SOL    HW231239   1.670   1.192   8.101 -0.2657 -1.0463  0.3348
 6536SOL     OW31240   1.895   2.059   8.606  0.4009 -0.4281 -0.5319
 6536SOL    HW131241   1.813   2.069   8.653 -0.0130  0.4386 -1.4373
 6536SOL    HW231242   1.901   1.969   8.574  1.5853  0.0306 -1.6340
 6537SOL     OW31243   3.247   3.870  10.284  0.2849  0.2101  0.5172
 6537SOL    HW131244   3.260   3.884  10.378  1.9689  1.7897  0.0399
 6537SOL    HW231245   3.291   3.786  10.274 -1.7043 -0.8977  1.0093
 6538SOL     OW31246   1.034   0.937   0.996 -0.4391 -0.4626 -0.3517
 6538SOL    HW131247   1.094   0.992   0.945 -0.1538 -0.1876  0.2806
 6538SOL    HW231248   1.039   0.865   0.933 -0.3240 -2.0357  1.4705
 6539SOL     OW31249   3.964   4.014   3.577  0.5313 -0.8773 -0.7306
 6539SOL    HW131250   4.012   3.935   3.604 -0.3422 -1.7263 -1.6715
 6539SOL    HW231251   4.033   4.079   3.592  0.1227 -0.9623  1.4498
 6540SOL     OW31252   3.998   4.243  11.877 -0.1363  0.6417 -0.1772
 6540SOL    HW131253   3.926   4.196  11.836 -0.1330 -0.6124  1.2639
 6540SOL    HW231254   3.949   4.299  11.937 -0.5419 -0.4700  0.5301
 6541SOL     OW31255   0.168   2.060   3.799  0.0980  0.1413  0.1654
 6541SOL    HW131256   0.186   2.122   3.871 -0.3905  2.9106 -2.0967
 6541SOL    HW231257   0.219   1.982   3.820 -0.4352  0.1496  1.5491
 6542SOL     OW31258   2.014   1.043  15.737  0.0116 -0.2945  0.0129
 6542SOL    HW131259   2.104   1.043  15.769  1.1785  1.4900 -3.2570
 6542SOL    HW231260   2.029   1.064  15.645  0.0050 -0.7379 -0.0886
 6543SOL     OW31261   1.567   4.191   6.982 -0.0022 -0.1357  0.1047
 6543SOL    HW131262   1.602   4.206   7.070  1.0453  2.0697 -0.6976
 6543SOL    HW231263   1.559   4.278   6.945  3.8012 -0.4744 -1.5096
 6544SOL     OW31264   0.757   4.030   4.190  0.1682 -0.1637 -0.1700
 6544SOL    HW131265   0.777   4.121   4.213  0.1178  0.3991 -2.2861
 6544SOL    HW231266   0.806   3.974   4.249 -1.0265 -1.8510 -0.7816
 6545SOL     OW31267   2.516   2.976   0.240 -0.3913  0.3794 -0.0438
 6545SOL    HW131268   2.573   3.028   0.297 -0.1379 -0.4475  0.4646
 6545SOL    HW231269   2.464   3.048   0.206 -0.7099  1.1347  2.0030
 6546SOL     OW31270   1.876   2.443   1.304 -0.1223 -0.2057 -0.3437
 6546SOL    HW131271   1.823   2.478   1.375  0.2943  1.8626 -1.0482
 6546SOL    HW231272   1.962   2.478   1.328  0.1829  0.0126 -1.7341
 6547SOL     OW31273   2.004   4.659   2.783  0.7371 -0.1426  0.4098
 6547SOL    HW131274   2.052   4.582   2.814 -0.7647 -0.7291  1.2548
 6547SOL    HW231275   2.078   4.720   2.786 -0.0221  0.7406  1.1725
 6548SOL     OW31276   1.512   3.384  11.565 -0.4061 -0.0599 -0.5515
 6548SOL    HW131277   1.565   3.358  11.490  0.4838  2.8994 -0.9649
 6548SOL    HW231278   1.494   3.301  11.609  2.8169  0.0458  0.9959
 6549SOL     OW31279   3.137   1.743   4.358 -0.3802 -0.6916  0.3007
 6549SOL    HW131280   3.172   1.799   4.289 -1.3928  1.2455  1.3547
 6549SOL    HW231281   3.215   1.747   4.414 -0.7669  1.3546  0.7098
 6550SOL     OW31282   2.437   0.383   9.325  0.2195  0.9122  0.3995
 6550SOL    HW131283   2.358   0.332   9.309  0.7761 -0.5429  2.3189
 6550SOL    HW231284   2.508   0.321   9.307 -1.7485 -1.5734  1.2628
 6551SOL     OW31285   1.583   3.862   7.346 -0.6689 -0.1314  0.2182
 6551SOL    HW131286   1.576   3.859   7.442  0.7936  1.0355  0.3648
 6551SOL    HW231287   1.616   3.778   7.314  2.3653  0.6857  1.1424
 6552SOL     OW31288   2.596   0.663  11.581 -0.0732  0.0677  0.2958
 6552SOL    HW131289   2.640   0.739  11.543 -1.6185  0.8626  0.0914
 6552SOL    HW231290   2.612   0.677  11.674 -0.4195  0.7265  0.2594
 6553SOL     OW31291   1.433   1.425  14.672 -0.4222  0.3083  0.2792
 6553SOL    HW131292   1.479   1.498  14.629 -1.7300 -0.4061 -2.3324
 6553SOL    HW231293   1.438   1.356  14.605  3.0130 -1.3245  2.2474
 6554SOL     OW31294   1.013   1.454   8.237  0.0277 -0.3502 -0.6899
 6554SOL    HW131295   1.034   1.547   8.228  0.5427 -0.4279 -0.2979
 6554SOL    HW231296   1.023   1.414   8.150 -0.7559  0.2586 -1.0595
 6555SOL     OW31297   4.281   2.006   4.179  0.4252 -0.2928  0.7779
 6555SOL    HW131298   4.331   2.076   4.136  0.3168 -0.3522  0.5525
 6555SOL    HW231299   4.245   2.056   4.253 -2.9918 -0.4787 -0.7574
 6556SOL     OW31300   1.238   4.637   8.713 -0.2999 -0.1912  0.1483
 6556SOL    HW131301   1.280   4.610   8.631 -0.9476  0.5130 -0.4246
 6556SOL    HW231302   1.151   4.596   8.712 -0.0768 -0.6670  0.7011
 6557SOL     OW31303   0.090   3.748   8.562  0.2602  0.3949 -0.4539
 6557SOL    HW131304   0.106   3.675   8.622  0.2585 -1.5977 -2.8711
 6557SOL    HW231305   0.129   3.714   8.481  0.3554 -0.0526 -0.2224
 6558SOL     OW31306   1.341   2.198   4.517 -0.6579 -0.0772 -0.2168
 6558SOL    HW131307   1.396   2.131   4.558 -1.9536 -1.2351 -0.3704
 6558SOL    HW231308   1.391   2.280   4.518  0.3015 -0.6690  0.1474
 6559SOL     OW31309   4.320   3.628   5.553  0.1897  0.1039  1.1730
 6559SOL    HW131310   4.268   3.647   5.631 -0.5235 -0.3536  0.8084
 6559SOL    HW231311   4.401   3.599   5.593 -0.2268 -1.3785  0.9313
 6560SOL     OW31312   3.006   2.777   3.404 -0.3885  0.1095 -0.6219
 6560SOL    HW131313   3.060   2.856   3.394 -0.0341 -0.1717 -0.9213
 6560SOL    HW231314   2.917   2.810   3.415 -0.2004  0.0853  0.9964
 6561SOL     OW31315   4.568   1.027  16.580  0.0815 -0.0765  0.6871
 6561SOL    HW131316   4.532   1.003  16.665 -2.1070 -1.9556 -0.7594
 6561SOL    HW231317   4.556   0.942  16.536  1.4537 -0.6369  1.3789
 6562SOL     OW31318   0.184   4.256   3.149 -0.0144  0.2092 -0.0004
 6562SOL    HW131319   0.274   4.227   3.166 -0.1755 -1.0005 -1.2232
 6562SOL    HW231320   0.184   4.345   3.184 -2.5654  0.4608 -0.7007
 6563SOL     OW31321   2.038   3.070   7.411  0.7778 -0.2564  0.0712
 6563SOL    HW131322   2.069   3.088   7.322 -2.6694 -3.4528 -1.8076
 6563SOL    HW231323   1.966   3.008   7.401  0.5287  0.3236 -1.7753
 6564SOL     OW31324   1.437   2.052   3.516 -0.5227  0.2172 -0.0439
 6564SOL    HW131325   1.365   2.114   3.522  0.4173  1.3695 -0.6995
 6564SOL    HW231326   1.502   2.091   3.575 -0.3545  1.3786 -1.0056
 6565SOL     OW31327   4.196   3.307  17.741 -0.1125 -0.2450 -0.1516
 6565SOL    HW131328   4.115   3.339   0.035 -0.3853  1.9455 -2.4714
 6565SOL    HW231329   4.154   3.252  17.675 -1.4138 -0.0488  0.5004
 6566SOL     OW31330   2.285   2.132   5.670 -0.1493  0.2180  0.0920
 6566SOL    HW131331   2.327   2.211   5.637 -0.6611  0.3707 -0.1936
 6566SOL    HW231332   2.201   2.139   5.624 -0.1771 -3.3986 -0.4030
 6567SOL     OW31333   2.963   4.229   6.186  0.1867  0.1344  0.3276
 6567SOL    HW131334   3.036   4.245   6.126 -0.9808  0.2091 -1.0630
 6567SOL    HW231335   2.902   4.288   6.143  2.2213  0.8448 -1.5901
 6568SOL     OW31336   3.903   4.428   5.876  0.2701 -0.3434  0.1429
 6568SOL    HW131337   3.986   4.408   5.833  0.2698 -2.0531  0.9345
 6568SOL    HW231338   3.926   4.391   5.961 -0.9639  0.5838  0.8818
 6569SOL     OW31339   0.766   1.678   4.245 -0.3902  0.5564 -0.4993
 6569SOL    HW131340   0.822   1.756   4.250 -1.1759  1.3153 -3.3732
 6569SOL    HW231341   0.737   1.678   4.336 -2.1463  1.1247 -1.0551
 6570SOL     OW31342   0.363   3.173   7.938  0.0769 -0.4679  0.0560
 6570SOL    HW131343   0.455   3.176   7.965  0.4689  1.0901 -1.5042
 6570SOL    HW231344   0.316   3.240   7.987 -0.4942 -0.9015  0.1092
 6571SOL     OW31345   0.568   3.844   5.327  0.0905  0.3956  0.3818
 6571SOL    HW131346   0.611   3.910   5.381  0.5194  0.2244  0.2453
 6571SOL    HW231347   0.483   3.842   5.371 -0.1457  1.7969 -0.0168
 6572SOL     OW31348   0.730   2.057   5.121  0.0824 -0.0163 -0.0433
 6572SOL    HW131349   0.750   2.130   5.180 -0.1981 -0.6273  0.8112
 6572SOL    HW231350   0.784   2.081   5.045 -1.2389 -0.3377 -1.0723
 6573SOL     OW31351   3.891   2.570  17.152 -0.0894 -0.0676  0.2341
 6573SOL    HW131352   3.970   2.583  17.204 -1.6052 -1.3647  2.8506
 6573SOL    HW231353   3.846   2.510  17.212  0.0451 -0.5267 -0.1231
 6574SOL     OW31354   2.124   4.185   9.460  0.6976 -0.6296  0.2724
 6574SOL    HW131355   2.204   4.238   9.452 -0.4385  0.7827 -1.7039
 6574SOL    HW231356   2.126   4.161   9.553  1.6100 -1.0467  0.1397
 6575SOL     OW31357   2.990   0.610   4.210 -0.0961 -0.0251 -0.6257
 6575SOL    HW131358   3.065   0.659   4.175  0.0185 -0.6318 -1.2236
 6575SOL    HW231359   2.914   0.660   4.181  2.2693  4.4673  0.9530
 6576SOL     OW31360   2.818   1.430  11.100 -0.3286 -0.4236  0.1881
 6576SOL    HW131361   2.763   1.508  11.088  0.4762 -0.0353 -0.9178
 6576SOL    HW231362   2.853   1.435  11.011 -0.0515  4.2108  0.5254
 6577SOL     OW31363   0.678   1.754   4.514 -0.1392 -0.3384 -0.8830
 6577SOL    HW131364   0.759   1.763   4.565 -0.7412  0.4735 -0.0700
 6577SOL    HW231365   0.654   1.846   4.522 -1.7426 -0.7427 -1.1186
 6578SOL     OW31366   3.673   1.600   2.286  0.2322  0.2541 -0.0642
 6578SOL    HW131367   3.765   1.626   2.282  0.3862 -0.3476 -0.4819
 6578SOL    HW231368   3.633   1.668   2.341  1.8975  0.0383  1.4089
 6579SOL     OW31369   3.021   2.776  15.007  0.5504  0.1759  0.3010
 6579SOL    HW131370   2.989   2.857  15.046  1.0387  0.2597  0.5230
 6579SOL    HW231371   3.114   2.797  15.001  0.2675  1.3063 -0.1259
 6580SOL     OW31372   2.865   2.569   4.978 -0.1226 -0.1619 -0.0110
 6580SOL    HW131373   2.911   2.574   4.894 -0.1649  2.3076  0.1198
 6580SOL    HW231374   2.828   2.481   4.989  0.2239 -0.3091 -0.0143
 6581SOL     OW31375   2.117   1.962  17.571  0.6279  0.8461  0.8634
 6581SOL    HW131376   2.151   1.993  17.487  0.3878  0.5649  0.6614
 6581SOL    HW231377   2.133   1.868  17.558 -0.0165  0.8295  0.2449
 6582SOL     OW31378   1.133   4.100   1.762 -0.3235  0.2593 -0.2212
 6582SOL    HW131379   1.185   4.173   1.729  1.8218 -1.1951 -0.0318
 6582SOL    HW231380   1.047   4.115   1.722 -0.7983 -0.0208  0.6904
 6583SOL     OW31381   4.400   3.377   8.123  0.0009  0.5724  0.0562
 6583SOL    HW131382   4.433   3.288   8.109  0.9263  1.1307 -1.3345
 6583SOL    HW231383   4.320   3.364   8.174 -0.6781  1.8412 -0.6644
 6584SOL     OW31384   3.168   0.303   8.849  0.0058 -0.5602  0.4919
 6584SOL    HW131385   3.240   0.242   8.869  0.9947 -0.7778 -3.7372
 6584SOL    HW231386   3.214   0.387   8.847  0.4354 -0.7646  1.6614
 6585SOL     OW31387   3.408   2.231  14.787 -0.3701  0.0496 -0.5217
 6585SOL    HW131388   3.444   2.318  14.773  2.3251 -0.9623  0.0535
 6585SOL    HW231389   3.453   2.181  14.719 -3.3510  2.6127 -4.3813
 6586SOL     OW31390   3.767   1.505   9.793 -0.3142 -0.8146  0.6005
 6586SOL    HW131391   3.770   1.526   9.887 -0.6636  2.2064 -0.0681
 6586SOL    HW231392   3.818   1.578   9.760  0.9757 -1.3470  1.4142
 6587SOL     OW31393   0.133   1.787  13.637  0.2867  0.0115 -0.2540
 6587SOL    HW131394   0.179   1.737  13.705  0.4519  0.5286  0.0123
 6587SOL    HW231395   0.200   1.844  13.600  0.1758  1.1525  1.3020
 6588SOL     OW31396   3.064   4.144  11.378 -0.1085  0.2927  0.0863
 6588SOL    HW131397   3.018   4.109  11.302  0.6697 -0.3785 -0.0860
 6588SOL    HW231398   2.985   4.162  11.428  0.4071 -1.0775  1.4246
 6589SOL     OW31399   0.095   0.713   8.296 -0.6699 -0.5530  0.4951
 6589SOL    HW131400   0.082   0.688   8.388  0.2590 -1.2202  0.4499
 6589SOL    HW231401   0.191   0.708   8.294 -0.6430  0.1057 -0.0276
 6590SOL     OW31402   2.370   3.649   3.721 -0.2772 -0.0332 -0.0824
 6590SOL    HW131403   2.388   3.634   3.629 -0.8875 -1.5548  0.0466
 6590SOL    HW231404   2.452   3.629   3.765 -1.0361 -1.4638  0.6904
 6591SOL     OW31405   2.096   4.571   9.590  0.3525 -0.4443 -0.2015
 6591SOL    HW131406   2.170   4.580   9.529  1.6335 -0.1393  1.3962
 6591SOL    HW231407   2.141   4.505   9.643 -0.9669 -0.3945  0.9726
 6592SOL     OW31408   0.102   2.093  13.805  0.0913  0.0645  0.2208
 6592SOL    HW131409   0.084   2.185  13.825  1.2872  0.6219 -1.2746
 6592SOL    HW231410   0.149   2.058  13.881  0.5959  0.9298  0.3190
 6593SOL     OW31411   0.609   0.133   0.146  0.0215 -0.0776 -0.3748
 6593SOL    HW131412   0.522   0.113   0.111  0.8123  0.1997 -2.4556
 6593SOL    HW231413   0.670   0.074   0.101 -0.1603 -0.5458 -0.0164
 6594SOL     OW31414   3.796   0.339   3.549  0.2398 -0.3042  0.2415
 6594SOL    HW131415   3.890   0.322   3.543  0.2684  0.0102 -0.2464
 6594SOL    HW231416   3.772   0.318   3.458  0.1344  0.0033  0.2002
 6595SOL     OW31417   2.015   1.502   5.511 -0.2249  1.0786 -0.7166
 6595SOL    HW131418   2.054   1.432   5.460  0.3485  0.9279 -0.0633
 6595SOL    HW231419   2.058   1.489   5.595  0.9174  2.0051 -1.1666
 6596SOL     OW31420   0.882   0.418  14.547  0.0845  0.4173 -0.1150
 6596SOL    HW131421   0.881   0.513  14.535  0.3984  0.4315 -0.0216
 6596SOL    HW231422   0.838   0.398  14.465 -0.3660 -0.1607  0.2686
 6597SOL     OW31423   2.925   1.875  15.220  0.2838  0.3168  0.1367
 6597SOL    HW131424   3.013   1.874  15.183  1.3562  1.8771  2.6681
 6597SOL    HW231425   2.930   1.951  15.279  4.0212 -0.1123  0.3626
 6598SOL     OW31426   1.075   4.430   7.148 -0.1800  0.5141  0.1039
 6598SOL    HW131427   1.027   4.379   7.213  2.2065 -0.4319  1.1520
 6598SOL    HW231428   1.033   4.516   7.157 -1.1565  0.0725 -0.3010
 6599SOL     OW31429   2.855   3.491   3.348 -0.5196  0.4389 -0.2207
 6599SOL    HW131430   2.844   3.414   3.404  2.4305 -1.5225 -2.3618
 6599SOL    HW231431   2.790   3.479   3.279 -0.1001  2.0215 -0.8833
 6600SOL     OW31432   3.088   2.865  14.722  0.4216 -0.7835  0.3510
 6600SOL    HW131433   3.170   2.823  14.694 -2.2375 -4.6213 -1.6668
 6600SOL    HW231434   3.036   2.785  14.734 -0.5283 -0.4676 -1.6599
 6601SOL     OW31435   4.096   3.035   6.400 -0.4162 -0.0225 -0.1547
 6601SOL    HW131436   4.077   2.944   6.420 -2.4005  0.5452  0.5344
 6601SOL    HW231437   4.191   3.028   6.390 -0.1671  0.6343  1.8379
 6602SOL     OW31438   2.406   0.352   2.029 -0.0029  0.3338  0.5666
 6602SOL    HW131439   2.424   0.424   2.090  0.1277 -0.0519  0.9849
 6602SOL    HW231440   2.405   0.280   2.092 -2.6796 -0.4115 -0.3594
 6603SOL     OW31441   1.500   2.256   7.395 -0.5768 -0.6540 -0.4326
 6603SOL    HW131442   1.555   2.193   7.348  1.7491  2.7453 -2.2862
 6603SOL    HW231443   1.490   2.218   7.482 -1.0058  2.8186  1.0152
 6604SOL     OW31444   4.534   0.863   2.197 -0.3196 -0.1028  0.4600
 6604SOL    HW131445   4.476   0.790   2.175  0.4182 -0.6445  0.3104
 6604SOL    HW231446   4.514   0.931   2.132 -2.3695  0.8391  2.0463
 6605SOL     OW31447   0.508   4.010  17.537 -0.6277 -0.0223  0.3196
 6605SOL    HW131448   0.516   3.919  17.566  1.6461  0.3763  0.9546
 6605SOL    HW231449   0.430   4.014  17.483  1.8174  0.0717 -3.1879
 6606SOL     OW31450   0.194   3.260  16.948 -0.3621 -0.7910 -0.2363
 6606SOL    HW131451   0.239   3.223  16.872 -0.1566  0.1944 -0.6002
 6606SOL    HW231452   0.138   3.327  16.909 -0.7434  0.4243  2.3622
 6607SOL     OW31453   2.582   1.002  15.448 -0.3298  0.3145  0.2845
 6607SOL    HW131454   2.602   0.952  15.527 -1.8277 -0.4664  0.1876
 6607SOL    HW231455   2.561   0.929  15.390 -0.3503 -0.6768  1.5358
 6608SOL     OW31456   2.185   2.321  14.515  0.1244 -0.6552  0.0700
 6608SOL    HW131457   2.245   2.395  14.522  1.1096 -1.3710 -0.7685
 6608SOL    HW231458   2.099   2.363  14.514  1.4652  2.0772 -0.0051
 6609SOL     OW31459   3.031   1.431  17.657 -0.4954  0.2626 -0.5993
 6609SOL    HW131460   3.040   1.405  17.565  0.9810  1.6160 -0.8546
 6609SOL    HW231461   3.093   1.503  17.668 -0.4473  0.1555 -0.1831
 6610SOL     OW31462   4.535   0.040   9.310  0.0658  0.6574  0.3127
 6610SOL    HW131463   4.524   0.063   9.402 -1.2369  2.6104 -0.3106
 6610SOL    HW231464   4.454   4.728   9.292 -0.2865  0.6264  2.0303
 6611SOL     OW31465   2.398   1.854   4.852  0.2154 -0.1513 -0.1391
 6611SOL    HW131466   2.420   1.861   4.945 -0.6407 -0.5773  0.0994
 6611SOL    HW231467   2.305   1.830   4.850 -0.0129  0.5797  1.8990
 6612SOL     OW31468   4.570   1.112   3.531 -0.2722 -0.0337 -0.0921
 6612SOL    HW131469   4.637   1.178   3.513 -0.6936  0.6029  0.7040
 6612SOL    HW231470   4.580   1.064   3.449  0.7322  0.5516 -0.3159
 6613SOL     OW31471   4.173   3.241  10.538 -0.4125  0.1870 -0.7595
 6613SOL    HW131472   4.220   3.314  10.578  1.8841 -1.2158 -0.8947
 6613SOL    HW231473   4.227   3.165  10.562  1.5951  2.2379  1.1732
 6614SOL     OW31474   0.456   3.854   7.422 -0.3186 -0.5963 -0.5551
 6614SOL    HW131475   0.386   3.903   7.380  1.4625  2.8265  0.4959
 6614SOL    HW231476   0.430   3.858   7.514  1.7069 -0.5705  0.0319
 6615SOL     OW31477   2.302   2.306   2.639 -0.1959  0.7041 -0.3278
 6615SOL    HW131478   2.360   2.374   2.674  0.3735 -0.5659  1.1846
 6615SOL    HW231479   2.269   2.348   2.560 -0.6110  0.5734 -0.2217
 6616SOL     OW31480   3.078   1.484   5.821 -0.0065 -0.0052  0.9212
 6616SOL    HW131481   3.046   1.570   5.794 -1.6863 -1.1001 -0.5519
 6616SOL    HW231482   3.172   1.502   5.831 -0.6492  1.5493  4.2728
 6617SOL     OW31483   4.483   2.665   7.806 -0.0235  0.1471 -1.0084
 6617SOL    HW131484   4.522   2.594   7.755  1.6459  0.5302 -0.2676
 6617SOL    HW231485   4.548   2.687   7.872  0.0848  0.9242 -1.3638
 6618SOL     OW31486   4.034   3.835   6.640  0.0685  0.1096  0.0129
 6618SOL    HW131487   3.983   3.916   6.632 -1.1615 -0.8159 -1.4757
 6618SOL    HW231488   4.116   3.850   6.686  0.3256 -0.2352 -0.3280
 6619SOL     OW31489   3.724   0.212  11.949 -0.0661 -0.1002  0.0020
 6619SOL    HW131490   3.661   0.142  11.934  1.1211 -1.6174  2.0922
 6619SOL    HW231491   3.672   0.264  12.010  0.0927  1.3760 -1.1326
 6620SOL     OW31492   4.354   0.761   9.550  0.0962 -0.2453 -0.1239
 6620SOL    HW131493   4.413   0.695   9.515  1.1533  0.6575 -0.0396
 6620SOL    HW231494   4.326   0.721   9.632  1.8689 -2.7600 -0.7452
 6621SOL     OW31495   4.069   1.013   6.645  0.0013 -0.4905 -0.1215
 6621SOL    HW131496   4.080   0.927   6.687 -0.7351 -0.7419 -0.4660
 6621SOL    HW231497   3.997   1.007   6.584  0.6885  1.6501 -1.1438
 6622SOL     OW31498   1.799   1.572   1.541 -0.2697 -0.1207  0.3938
 6622SOL    HW131499   1.832   1.497   1.491  0.3322  1.4699 -1.5910
 6622SOL    HW231500   1.859   1.643   1.521 -2.7463  1.9697  0.3626
 6623SOL     OW31501   4.254   4.190   9.348  0.8755  0.5183 -0.5481
 6623SOL    HW131502   4.208   4.246   9.410 -0.7615 -0.2873 -1.0152
 6623SOL    HW231503   4.345   4.212   9.366  0.7980  0.4639 -0.0964
 6624SOL     OW31504   0.732   4.116   2.074  0.2572  0.0109  0.3078
 6624SOL    HW131505   0.720   4.086   2.164  2.1901  0.4296  0.6963
 6624SOL    HW231506   0.663   4.072   2.024 -1.1153  2.1328  0.3028
 6625SOL     OW31507   3.782   3.424   1.728  0.4338  0.1018  0.2526
 6625SOL    HW131508   3.875   3.446   1.740  0.5103  0.3236 -0.7277
 6625SOL    HW231509   3.740   3.494   1.778 -1.8444  1.2060 -3.2011
 6626SOL     OW31510   0.858   0.604   4.080 -0.2176 -0.1837 -0.2310
 6626SOL    HW131511   0.839   0.517   4.044  0.6587  0.7192 -2.8682
 6626SOL    HW231512   0.780   0.647   4.045 -0.7631  1.0241  2.4003
 6627SOL     OW31513   4.156   3.537  16.890 -0.5565 -0.2076  0.4689
 6627SOL    HW131514   4.115   3.452  16.904 -2.3079  0.9242  2.2796
 6627SOL    HW231515   4.078   3.592  16.890 -1.7473 -1.9233  1.9307
 6628SOL     OW31516   4.642   1.644   0.959  0.1253 -0.3037  0.4303
 6628SOL    HW131517   4.564   1.697   0.972  1.2124  1.5021 -0.4369
 6628SOL    HW231518   4.663   1.608   1.045 -1.5003  2.2714  1.8950
 6629SOL     OW31519   3.022   4.359   3.402 -0.2256 -0.3198 -0.3007
 6629SOL    HW131520   3.026   4.337   3.309 -1.3797 -2.2550  0.1110
 6629SOL    HW231521   2.928   4.344   3.414  0.0304 -0.6086  1.2904
 6630SOL     OW31522   2.184   2.054  17.343 -0.0342 -0.0638 -0.5675
 6630SOL    HW131523   2.131   2.126  17.309  3.2959  0.9564 -3.5729
 6630SOL    HW231524   2.273   2.068  17.312 -0.2596  0.4940 -0.9641
 6631SOL     OW31525   0.700   0.971   3.862  0.2514  0.5544  0.8658
 6631SOL    HW131526   0.691   1.005   3.951  0.1311 -0.0962  1.1058
 6631SOL    HW231527   0.668   1.049   3.817  1.2232  0.5371  0.1467
 6632SOL     OW31528   0.285   4.669   2.040  0.4040  0.8189  0.0117
 6632SOL    HW131529   0.300   0.006   2.099 -0.2192  0.6686  0.3445
 6632SOL    HW231530   0.350   4.688   1.971 -0.6834  0.5103 -1.1008
 6633SOL     OW31531   0.950   2.904   0.377 -0.0860 -0.8020  0.2374
 6633SOL    HW131532   0.901   2.979   0.343  2.4176  0.5879 -0.2796
 6633SOL    HW231533   0.988   2.946   0.454 -0.7174 -1.7622  1.0740
 6634SOL     OW31534   4.390   1.751   2.175 -0.0353  0.4827  0.0870
 6634SOL    HW131535   4.341   1.726   2.096 -0.3592 -2.1426  1.1506
 6634SOL    HW231536   4.316   1.786   2.225  2.0119  0.6626  2.9399
 6635SOL     OW31537   4.286   3.174   2.365  0.0111  0.7146  0.1804
 6635SOL    HW131538   4.193   3.179   2.385 -0.5323 -2.0317 -1.5911
 6635SOL    HW231539   4.304   3.105   2.429 -1.3019 -1.0791 -1.3787
 6636SOL     OW31540   4.379   1.649   5.093 -0.0731  0.4415 -0.2753
 6636SOL    HW131541   4.460   1.660   5.044  1.3199  0.2048  1.9614
 6636SOL    HW231542   4.401   1.711   5.162  0.2240  0.8845 -0.7695
 6637SOL     OW31543   0.406   1.507  15.775 -0.5195 -0.1100  0.2008
 6637SOL    HW131544   0.424   1.583  15.720  2.3626 -2.2625 -1.7870
 6637SOL    HW231545   0.348   1.460  15.716  1.4824 -1.2737 -0.8162
 6638SOL     OW31546   4.627   2.029   5.723 -0.3366  0.6605  0.4755
 6638SOL    HW131547   4.585   2.009   5.806  0.2279 -1.7152  0.1746
 6638SOL    HW231548   4.649   2.120   5.740 -0.1905  1.3101 -3.0512
 6639SOL     OW31549   3.276   2.598   7.608  0.4635  0.3225  0.3344
 6639SOL    HW131550   3.245   2.526   7.663  2.1080 -0.3006  0.4424
 6639SOL    HW231551   3.317   2.555   7.533 -1.9419 -1.4733  0.0309
 6640SOL     OW31552   4.611   1.507  11.233  0.2880  0.0522 -0.1303
 6640SOL    HW131553   4.554   1.469  11.166  0.6370 -2.7409  1.1880
 6640SOL    HW231554   4.663   1.432  11.260  0.1179 -0.0520 -0.0937
 6641SOL     OW31555   4.254   3.113   4.512 -0.0213 -0.2386  0.5164
 6641SOL    HW131556   4.212   3.114   4.598 -1.4197 -3.6058 -0.1262
 6641SOL    HW231557   4.219   3.200   4.492  0.2007 -0.5663 -1.3053
 6642SOL     OW31558   3.731   4.461   4.858 -0.1899  0.4818 -0.8070
 6642SOL    HW131559   3.746   4.515   4.780 -0.5762  2.7055  0.6316
 6642SOL    HW231560   3.651   4.500   4.894 -0.0632  0.9100 -0.9793
 6643SOL     OW31561   1.068   1.166  10.052  0.1032  0.0641  0.0469
 6643SOL    HW131562   1.038   1.078  10.032 -0.4035  0.2933 -0.2132
 6643SOL    HW231563   1.095   1.145  10.141 -0.3280  0.1966  0.2117
 6644SOL     OW31564   2.754   1.744  10.206 -0.1393 -0.1819  0.8377
 6644SOL    HW131565   2.685   1.725  10.269  0.7096 -4.1538  0.5854
 6644SOL    HW231566   2.701   1.786  10.138 -1.7625 -1.3028  1.3904
 6645SOL     OW31567   3.737   1.857   7.451 -0.1780  0.6134  0.1393
 6645SOL    HW131568   3.820   1.871   7.497  0.2642  0.0917 -0.4953
 6645SOL    HW231569   3.730   1.937   7.399  2.2760 -0.9850 -2.6275
 6646SOL     OW31570   0.638   0.632  14.268 -0.2348  0.0376  0.0131
 6646SOL    HW131571   0.715   0.670  14.225 -0.0224  0.4791  0.7866
 6646SOL    HW231572   0.663   0.541  14.284 -1.3276  0.0002  1.4892
 6647SOL     OW31573   2.519   2.533  15.436 -0.2854  0.9017  0.2391
 6647SOL    HW131574   2.433   2.507  15.470  0.2220  2.0379  2.3963
 6647SOL    HW231575   2.505   2.519  15.342  0.5288 -0.3479  0.3091
 6648SOL     OW31576   0.210   3.173   7.382 -0.5191  0.4822  0.5163
 6648SOL    HW131577   0.142   3.204   7.442 -1.7459 -1.3623  0.0703
 6648SOL    HW231578   0.176   3.090   7.348  0.0882 -0.4742  2.2474
 6649SOL     OW31579   4.627   3.199   4.356  0.3487  0.2598  0.0315
 6649SOL    HW131580   4.589   3.159   4.278  1.0716 -0.7117  0.1704
 6649SOL    HW231581   4.632   3.293   4.340  2.0593 -0.0254 -1.1670
 6650SOL     OW31582   2.453   3.509  11.851 -0.2004  0.0376  0.0958
 6650SOL    HW131583   2.522   3.454  11.888  1.3544  0.5466 -2.0430
 6650SOL    HW231584   2.379   3.473  11.901 -0.5163  1.7511  0.8724
 6651SOL     OW31585   2.371   1.171  15.501  0.6285 -0.0502 -0.1622
 6651SOL    HW131586   2.390   1.256  15.462  4.5741 -1.8628 -2.1202
 6651SOL    HW231587   2.455   1.128  15.487  0.4767 -0.7171  0.9245
 6652SOL     OW31588   0.078   2.886   6.044  0.4392 -0.1127  0.4980
 6652SOL    HW131589   0.050   2.959   5.988 -2.8164 -1.6608  0.1025
 6652SOL    HW231590   0.070   2.807   5.991  0.1017 -0.3030  0.8259
 6653SOL     OW31591   2.262   3.262  13.765 -0.3700 -0.3393  0.3918
 6653SOL    HW131592   2.275   3.255  13.859  0.8973 -1.1697  0.1629
 6653SOL    HW231593   2.337   3.212  13.733 -1.0822  0.0633 -1.9604
 6654SOL     OW31594   0.728   3.729   3.516  0.0626 -0.5507  0.5752
 6654SOL    HW131595   0.663   3.660   3.524 -0.4820 -0.3469 -2.2023
 6654SOL    HW231596   0.750   3.741   3.608  0.6983 -0.8880  0.4661
 6655SOL     OW31597   3.164   2.431   9.434  0.1647 -0.0922 -0.4419
 6655SOL    HW131598   3.205   2.516   9.416 -0.1675 -0.0694 -1.1066
 6655SOL    HW231599   3.079   2.452   9.474  0.4253  0.9238 -0.4281
 6656SOL     OW31600   0.788   0.677   8.611 -0.4207 -0.0896  0.1340
 6656SOL    HW131601   0.825   0.619   8.544  1.6477  1.0251  0.3334
 6656SOL    HW231602   0.714   0.621   8.634 -0.6378 -1.4366 -3.6969
 6657SOL     OW31603   1.373   3.529  14.523  0.9169 -0.4771  0.5290
 6657SOL    HW131604   1.338   3.618  14.514  0.0902 -1.0027 -1.4745
 6657SOL    HW231605   1.443   3.541  14.459 -0.7081 -0.3081 -1.2178
 6658SOL     OW31606   1.207   0.073   4.314 -0.3523 -0.5100 -0.5306
 6658SOL    HW131607   1.158   0.141   4.358  0.3091 -1.3280  1.4553
 6658SOL    HW231608   1.257   0.138   4.264 -1.0876 -0.3631 -1.0850
 6659SOL     OW31609   1.615   2.580   3.162  0.0655 -0.4442  0.0204
 6659SOL    HW131610   1.536   2.566   3.216  0.4655  0.3842  0.8322
 6659SOL    HW231611   1.595   2.544   3.076  2.0323  0.7363 -0.9172
 6660SOL     OW31612   1.402   0.613   4.939  0.3661 -0.1878  0.1692
 6660SOL    HW131613   1.452   0.685   4.902  1.0657  0.7421  2.9255
 6660SOL    HW231614   1.442   0.605   5.026  0.5692 -1.0107  0.0009
 6661SOL     OW31615   4.274   4.607  13.475 -0.2853 -0.0122 -0.2488
 6661SOL    HW131616   4.361   4.612  13.436 -0.2755  1.0827 -0.0773
 6661SOL    HW231617   4.227   4.565  13.403 -2.6382  0.9712  0.6869
 6662SOL     OW31618   0.643   3.843  13.442  0.5262  0.0657 -0.9682
 6662SOL    HW131619   0.605   3.914  13.494  1.2739 -0.8353  0.8184
 6662SOL    HW231620   0.567   3.791  13.415  0.7632  0.4250 -2.3414
 6663SOL     OW31621   1.865   0.784   9.257  0.0242  0.5702  0.1100
 6663SOL    HW131622   1.787   0.760   9.206  1.2532  0.0173 -1.4822
 6663SOL    HW231623   1.895   0.860   9.207  2.2948  0.5147  1.3816
 6664SOL     OW31624   1.910   1.156   3.004 -0.0506  0.7337 -0.0851
 6664SOL    HW131625   1.902   1.152   2.909  0.7330 -0.4095 -0.1051
 6664SOL    HW231626   1.935   1.245   3.026  2.3974  0.2339 -0.7905
 6665SOL     OW31627   4.505   1.925   4.944 -0.1309  0.1737 -0.5152
 6665SOL    HW131628   4.490   1.914   4.851  0.2565  3.3062 -0.9625
 6665SOL    HW231629   4.427   1.973   4.973 -0.1341  0.6413 -1.3063
 6666SOL     OW31630   2.124   2.312  15.225 -0.1386  0.8750  0.3758
 6666SOL    HW131631   2.059   2.260  15.178  0.6263 -2.5580  3.1136
 6666SOL    HW231632   2.085   2.400  15.227 -1.1534  0.4558 -1.5270
 6667SOL     OW31633   2.934   3.122   1.549  0.3425 -0.6703  0.0864
 6667SOL    HW131634   2.883   3.203   1.538 -0.3311 -0.7958  2.2582
 6667SOL    HW231635   3.013   3.156   1.508 -0.7516  1.9913  0.1549
 6668SOL     OW31636   3.288   1.599   6.084 -0.1493  0.4246  0.0841
 6668SOL    HW131637   3.218   1.539   6.111  1.3376 -1.5749 -0.5863
 6668SOL    HW231638   3.258   1.683   6.118 -0.7052  0.9001 -1.5838
 6669SOL     OW31639   0.481   4.024   1.740  0.1844 -0.6616 -0.4296
 6669SOL    HW131640   0.504   3.965   1.668  1.1367  0.1922 -0.8302
 6669SOL    HW231641   0.446   4.097   1.689 -0.0362 -1.2339 -1.1093
 6670SOL     OW31642   1.421   1.367   4.270 -0.3487  0.0403  0.2649
 6670SOL    HW131643   1.327   1.372   4.282 -0.6487  1.4675 -2.6559
 6670SOL    HW231644   1.432   1.336   4.180  0.9595  0.7258  0.1979
 6671SOL     OW31645   1.751   2.063  10.674 -0.1027 -0.2057 -0.1916
 6671SOL    HW131646   1.811   2.134  10.696 -0.3484 -0.1764  0.3741
 6671SOL    HW231647   1.802   2.011  10.612  0.8426 -2.2947  2.3441
 6672SOL     OW31648   0.840   2.565   4.730 -0.9044 -0.3980 -0.0172
 6672SOL    HW131649   0.783   2.499   4.691 -3.3336 -0.3363  3.4337
 6672SOL    HW231650   0.926   2.529   4.705 -0.2255  1.9463 -1.1097
 6673SOL     OW31651   3.321   2.543   1.413 -0.4873 -0.2250 -0.1069
 6673SOL    HW131652   3.415   2.541   1.396 -0.3167  1.1775  0.7011
 6673SOL    HW231653   3.301   2.630   1.380 -0.3503  0.8160  2.5419
 6674SOL     OW31654   3.140   2.909   7.165  0.0007 -0.8510 -0.2864
 6674SOL    HW131655   3.213   2.885   7.221 -0.1348 -2.6257 -0.8614
 6674SOL    HW231656   3.108   2.992   7.201  4.2745  0.7652 -0.2014
 6675SOL     OW31657   4.068   3.922  12.050  0.7934 -0.0969 -0.0128
 6675SOL    HW131658   3.973   3.924  12.036  0.6891  1.8817  1.0349
 6675SOL    HW231659   4.090   4.003  12.097  0.5467  0.0925 -0.2252
 6676SOL     OW31660   2.383   3.216   6.632 -0.3149  0.0085 -0.1326
 6676SOL    HW131661   2.479   3.211   6.627 -0.2734  0.7571 -0.2024
 6676SOL    HW231662   2.356   3.126   6.620 -1.9220  0.3637  0.8531
 6677SOL     OW31663   1.125   0.902  10.378 -0.1029  0.0270 -0.2472
 6677SOL    HW131664   1.201   0.868  10.330 -0.4815  0.1189 -0.9119
 6677SOL    HW231665   1.112   0.987  10.336  1.3538  0.4640  0.2064
 6678SOL     OW31666   0.427   3.347  12.615  0.2283  0.2433  0.9214
 6678SOL    HW131667   0.457   3.419  12.669  0.5840  1.2533 -0.6174
 6678SOL    HW231668   0.499   3.286  12.633  0.5709  0.3805  0.0212
 6679SOL     OW31669   1.112   1.562  13.739  0.4945 -0.7124  0.1586
 6679SOL    HW131670   1.026   1.550  13.699  1.6055 -0.8798 -2.2061
 6679SOL    HW231671   1.171   1.577  13.664 -1.4293  2.3161 -0.7362
 6680SOL     OW31672   1.613   0.118   7.052 -0.1841  0.1791  0.5676
 6680SOL    HW131673   1.647   0.204   7.079 -0.2459  0.8681 -1.5687
 6680SOL    HW231674   1.522   0.147   7.040 -0.2981 -0.5486 -0.2939
 6681SOL     OW31675   0.541   3.475   1.914 -0.1329  0.0970 -0.2879
 6681SOL    HW131676   0.534   3.398   1.857 -0.0937  0.6846 -1.0954
 6681SOL    HW231677   0.465   3.530   1.894 -0.3801 -0.0575  0.2435
 6682SOL     OW31678   1.908   2.157   7.946  0.0965 -0.2380  0.2635
 6682SOL    HW131679   1.830   2.103   7.957 -0.5173  0.0319 -2.9022
 6682SOL    HW231680   1.906   2.196   8.034  0.3915  0.6755 -0.1358
 6683SOL     OW31681   4.557   3.464  10.827  0.5801  0.4147 -0.3411
 6683SOL    HW131682   4.613   3.476  10.751  0.2076  1.0379 -0.5220
 6683SOL    HW231683   4.576   3.540  10.882  0.3061 -1.0674  1.8043
 6684SOL     OW31684   3.027   1.932  16.182  0.0438  0.3689 -0.4387
 6684SOL    HW131685   2.945   1.982  16.194 -1.0436 -1.3434 -0.7691
 6684SOL    HW231686   3.023   1.850  16.231  1.8844  0.1921 -0.5911
 6685SOL     OW31687   3.199   3.847   5.535 -0.6549 -0.2099  0.8370
 6685SOL    HW131688   3.249   3.928   5.546 -1.2064  0.0768  1.2382
 6685SOL    HW231689   3.229   3.828   5.446 -0.0121 -0.2889  1.0757
 6686SOL     OW31690   0.621   2.288   0.929  0.1886 -0.1043 -0.3757
 6686SOL    HW131691   0.603   2.221   0.863 -0.0524  1.3194 -1.7465
 6686SOL    HW231692   0.542   2.276   0.983  0.5797 -0.9658  0.0042
 6687SOL     OW31693   1.868   2.754  17.113  0.2446 -0.3794 -0.1215
 6687SOL    HW131694   1.849   2.743  17.206 -1.5727  0.7035 -0.3827
 6687SOL    HW231695   1.786   2.722  17.076  0.5258 -0.1173 -0.9732
 6688SOL     OW31696   0.266   0.994   2.102 -0.0798 -0.0932 -0.2339
 6688SOL    HW131697   0.229   1.054   2.168 -1.5064  0.1609 -1.2620
 6688SOL    HW231698   0.209   0.917   2.104 -0.3092  0.0130 -3.2952
 6689SOL     OW31699   4.000   2.359   7.489  0.0189  0.4748 -0.1310
 6689SOL    HW131700   3.985   2.436   7.544 -1.1333 -1.2749  2.0114
 6689SOL    HW231701   3.952   2.293   7.539  1.7834  1.5824  3.0002
 6690SOL     OW31702   2.264   2.325   0.283 -0.1890 -0.0109 -0.1979
 6690SOL    HW131703   2.324   2.252   0.270 -0.5845 -0.5018  0.7341
 6690SOL    HW231704   2.182   2.282   0.256  0.1649 -0.6374 -0.2760
 6691SOL     OW31705   3.661   0.126  14.098  0.4771 -0.7377  0.1758
 6691SOL    HW131706   3.649   0.108  14.192  1.0492 -0.7861  0.2417
 6691SOL    HW231707   3.756   0.133  14.099  0.2166  2.3932  1.4289
 6692SOL     OW31708   0.240   1.047   6.418  0.0148  0.1337 -0.2875
 6692SOL    HW131709   0.254   1.024   6.326 -0.3570 -1.3213  0.0260
 6692SOL    HW231710   0.200   1.134   6.410 -1.2107 -0.4499 -0.5534
 6693SOL     OW31711   1.799   3.750   2.988  0.5700  0.2553  0.7483
 6693SOL    HW131712   1.722   3.697   3.006  0.6310 -0.5077 -1.2085
 6693SOL    HW231713   1.826   3.777   3.075 -0.9757  1.0670  0.9836
 6694SOL     OW31714   1.298   3.398   1.750  0.0928 -0.2884  0.0027
 6694SOL    HW131715   1.333   3.434   1.669  1.0544 -4.9229 -1.6312
 6694SOL    HW231716   1.312   3.477   1.802 -0.5530  0.4294 -0.9078
 6695SOL     OW31717   1.857   4.116   0.898 -0.1655 -0.3876 -0.1684
 6695SOL    HW131718   1.803   4.195   0.885  1.2264  0.5385 -0.3899
 6695SOL    HW231719   1.938   4.154   0.933 -0.2988 -1.5244  1.3578
 6696SOL     OW31720   2.840   4.418   7.120  0.0164  0.1173 -0.6228
 6696SOL    HW131721   2.827   4.500   7.073 -0.0601 -0.0483 -0.8924
 6696SOL    HW231722   2.750   4.384   7.124  0.0775  0.0114 -0.1776
 6697SOL     OW31723   0.284   1.300   0.324  0.3173 -0.2390 -0.0460
 6697SOL    HW131724   0.189   1.284   0.325  0.6939 -2.3994  2.3363
 6697SOL    HW231725   0.291   1.353   0.245  0.2600 -0.5251 -0.2440
 6698SOL     OW31726   2.319   2.108   1.256 -0.2468  0.4086 -0.0789
 6698SOL    HW131727   2.341   2.074   1.169 -0.5177  0.6949 -0.2637
 6698SOL    HW231728   2.410   2.133   1.272  0.6035 -1.8282 -1.4263
 6699SOL     OW31729   3.000   4.471  15.595 -0.1970  0.2759 -0.0342
 6699SOL    HW131730   2.974   4.472  15.502 -2.1214  0.7343  0.5085
 6699SOL    HW231731   2.925   4.512  15.637  0.3079  0.3369  0.8073
 6700SOL     OW31732   0.205   1.270   8.680 -0.5797  0.2187  0.2317
 6700SOL    HW131733   0.171   1.285   8.592 -0.2401  1.3671  0.3042
 6700SOL    HW231734   0.216   1.175   8.687  1.1654  0.2886 -1.5540
 6701SOL     OW31735   4.498   2.178   5.374  0.1736 -0.2410  0.2367
 6701SOL    HW131736   4.474   2.129   5.454 -0.6815 -1.4736 -0.7771
 6701SOL    HW231737   4.563   2.119   5.336  0.4347 -0.5917  1.2110
 6702SOL     OW31738   4.696   0.548   2.395 -0.5499  0.0671  0.2178
 6702SOL    HW131739   0.037   0.588   2.356 -0.4842  1.3317  1.6099
 6702SOL    HW231740   4.642   0.622   2.423  2.5172  2.5310 -0.3017
 6703SOL     OW31741   3.225   0.382   1.990 -0.3525  0.1982  0.3349
 6703SOL    HW131742   3.286   0.308   1.985 -0.1745  0.0422  4.3626
 6703SOL    HW231743   3.239   0.443   1.918  0.9870 -0.4243  0.0618
 6704SOL     OW31744   2.696   2.366  10.168  0.4204  0.0007 -0.1572
 6704SOL    HW131745   2.614   2.325  10.196 -0.4583  0.8560 -1.4101
 6704SOL    HW231746   2.742   2.365  10.251  0.3034 -3.9702 -0.1686
 6705SOL     OW31747   3.342   2.652   9.023  0.1973  0.1489  0.0041
 6705SOL    HW131748   3.310   2.724   8.969 -0.9719 -0.7368 -0.4857
 6705SOL    HW231749   3.415   2.694   9.068  0.5585 -0.8579  0.3655
 6706SOL     OW31750   4.290   2.802  13.013  0.2812 -0.0954  0.4587
 6706SOL    HW131751   4.240   2.720  13.015  1.0154 -0.6464 -3.8684
 6706SOL    HW231752   4.315   2.822  13.103  0.9361  0.4589  0.1563
 6707SOL     OW31753   0.241   4.559  13.343 -0.5766  0.0567  0.4136
 6707SOL    HW131754   0.317   4.571  13.399 -0.5156 -0.2779  0.4036
 6707SOL    HW231755   0.282   4.504  13.276 -2.3777 -1.0343  0.2074
 6708SOL     OW31756   2.868   2.620  17.102  0.7015 -0.1928  0.4108
 6708SOL    HW131757   2.799   2.682  17.078  0.7239  0.2884  1.5966
 6708SOL    HW231758   2.922   2.681  17.152 -0.5813  1.3458 -0.0906
 6709SOL     OW31759   0.684   0.064  11.503  0.2706  0.4452 -0.0065
 6709SOL    HW131760   0.732   0.128  11.451 -0.8661  1.5547  0.3021
 6709SOL    HW231761   0.690   0.110  11.587 -1.8263 -0.0011  0.3945
 6710SOL     OW31762   2.104   0.830   8.246 -0.6662  0.3523 -0.5087
 6710SOL    HW131763   2.109   0.751   8.300  0.8991  0.0579 -1.0650
 6710SOL    HW231764   2.063   0.881   8.315 -0.6156 -0.9909  0.5008
 6711SOL     OW31765   0.868   0.521   8.848 -0.2168 -0.0623 -0.5154
 6711SOL    HW131766   0.859   0.576   8.770 -1.1438  0.8405  0.2262
 6711SOL    HW231767   0.811   0.567   8.910  2.6836  0.2952  1.9309
 6712SOL     OW31768   0.417   0.470   7.161 -0.4393  0.4009  0.1752
 6712SOL    HW131769   0.435   0.376   7.155  1.0967  0.5825  1.8827
 6712SOL    HW231770   0.375   0.486   7.077  2.0535  0.6998 -0.9881
 6713SOL     OW31771   2.753   0.961   1.940 -0.0909 -0.1684 -0.1784
 6713SOL    HW131772   2.781   0.879   1.981  0.3342  0.6007  1.0682
 6713SOL    HW231773   2.658   0.961   1.940 -0.1013 -2.3302 -1.0052
 6714SOL     OW31774   1.875   0.800  15.774  0.2723 -0.0442 -0.0026
 6714SOL    HW131775   1.950   0.859  15.781 -0.3467  0.7530  0.0363
 6714SOL    HW231776   1.808   0.837  15.833  1.6209  1.2502  0.7383
 6715SOL     OW31777   0.441   4.550   5.558 -0.0909 -0.1200 -0.3944
 6715SOL    HW131778   0.491   4.542   5.639 -0.7199  0.9427  0.0940
 6715SOL    HW231779   0.516   4.545   5.499  1.4183 -0.2949  1.5378
 6716SOL     OW31780   0.471   4.035   8.321  0.4916  0.2756 -0.3671
 6716SOL    HW131781   0.425   4.066   8.399  2.7915  0.5420  0.8839
 6716SOL    HW231782   0.488   4.115   8.271  0.9159  0.7190  0.4916
 6717SOL     OW31783   1.948   1.869   3.492  0.0331  0.0828  0.3968
 6717SOL    HW131784   1.971   1.776   3.493  0.5403  0.2195  1.3090
 6717SOL    HW231785   1.943   1.883   3.397  0.6386  2.0979  0.6783
 6718SOL     OW31786   1.716   2.521  13.949  0.4104  0.1235 -0.8433
 6718SOL    HW131787   1.741   2.608  13.981 -1.0388  0.7683 -1.4980
 6718SOL    HW231788   1.680   2.492  14.033  0.7572  0.3819 -0.6027
 6719SOL     OW31789   4.001   2.248  14.281  0.2664  0.1761  0.0902
 6719SOL    HW131790   4.092   2.243  14.309  0.2905  0.9141  0.1437
 6719SOL    HW231791   3.986   2.341  14.300 -2.8524  0.0400 -1.6862
 6720SOL     OW31792   0.966   0.793   8.298 -0.3483  0.7313 -0.2094
 6720SOL    HW131793   0.895   0.812   8.236 -1.8543  0.2147  1.3589
 6720SOL    HW231794   1.038   0.837   8.252  0.2824  0.7277  0.7873
 6721SOL     OW31795   1.850   3.449  12.376 -0.1212  0.2084  0.2023
 6721SOL    HW131796   1.824   3.540  12.391 -0.9875  0.2076 -1.2268
 6721SOL    HW231797   1.835   3.425  12.467 -1.0090  0.1060  0.0303
 6722SOL     OW31798   1.552   2.271   3.308  0.3871  0.0729 -0.0011
 6722SOL    HW131799   1.492   2.346   3.309  0.3943  0.0799 -0.0674
 6722SOL    HW231800   1.506   2.210   3.250  0.6883 -2.0156  1.9633
 6723SOL     OW31801   0.619   2.776   6.219 -0.0717  0.4079 -0.1733
 6723SOL    HW131802   0.595   2.685   6.204 -0.7249  0.6825 -0.8109
 6723SOL    HW231803   0.584   2.811   6.137  0.5137  0.3576 -0.4433
 6724SOL     OW31804   3.461   4.161   0.940  0.3712 -0.3931 -0.0795
 6724SOL    HW131805   3.523   4.209   0.884  0.7684 -0.3434  0.4010
 6724SOL    HW231806   3.469   4.079   0.892  1.1310  0.5667 -1.5809
 6725SOL     OW31807   2.251   2.354   6.006 -0.1146 -0.0902  0.1694
 6725SOL    HW131808   2.201   2.369   5.925  2.6184  0.8371 -1.3544
 6725SOL    HW231809   2.232   2.262   6.021  0.9006 -0.6171 -1.7197
 6726SOL     OW31810   2.810   4.383  17.304 -0.0928  0.4581 -0.0312
 6726SOL    HW131811   2.895   4.421  17.281 -0.9574  1.2157 -1.9622
 6726SOL    HW231812   2.829   4.344  17.389  0.3254 -0.6667 -0.6368
 6727SOL     OW31813   0.384   3.069  15.073  0.0989 -0.2779  0.0955
 6727SOL    HW131814   0.339   2.986  15.091  1.2481 -1.0457 -0.5598
 6727SOL    HW231815   0.398   3.111  15.158 -2.1230  0.0050  0.3345
 6728SOL     OW31816   3.201   1.297  16.174  0.2813 -0.3825  0.0193
 6728SOL    HW131817   3.143   1.256  16.237  3.1363 -2.3295  1.3589
 6728SOL    HW231818   3.242   1.362  16.231  0.3431 -2.5215  2.4123
 6729SOL     OW31819   1.544   1.411   2.647 -0.1723 -0.0375  0.1474
 6729SOL    HW131820   1.557   1.466   2.570  2.1183  0.0832  0.6418
 6729SOL    HW231821   1.607   1.458   2.701 -0.6886  0.6384  0.1578
 6730SOL     OW31822   1.884   2.500  15.869 -0.1446  0.2543 -0.0706
 6730SOL    HW131823   1.804   2.480  15.918  0.8756 -1.4719  0.9295
 6730SOL    HW231824   1.855   2.577  15.822  0.2288 -0.3609 -1.3054
 6731SOL     OW31825   0.321   0.231   3.219 -0.0381  0.0214 -0.0895
 6731SOL    HW131826   0.316   0.261   3.310  0.0372  0.2321 -0.1543
 6731SOL    HW231827   0.405   0.185   3.221 -0.0684  0.0225  1.1707
 6732SOL     OW31828   2.346   4.587   7.599  0.0897  0.5802  0.2809
 6732SOL    HW131829   2.420   4.646   7.612  0.3619  0.1250  0.8265
 6732SOL    HW231830   2.386   4.501   7.615 -0.9393  0.2154  0.9292
 6733SOL     OW31831   0.363   1.763   8.668  0.4669  0.1039 -0.4590
 6733SOL    HW131832   0.348   1.837   8.727 -2.7250 -0.1014 -1.0138
 6733SOL    HW231833   0.430   1.705   8.706 -0.5472  1.1918  2.9817
 6734SOL     OW31834   2.252   1.049   2.990 -0.1240  0.0261  0.0051
 6734SOL    HW131835   2.284   1.137   3.008 -2.5529  0.6375  1.3542
 6734SOL    HW231836   2.317   1.000   2.940  1.0267 -2.7571  4.2138
 6735SOL     OW31837   1.986   2.609  13.811  0.0785  0.3551  0.4759
 6735SOL    HW131838   1.941   2.531  13.843  1.2870 -0.4122  0.3100
 6735SOL    HW231839   2.052   2.610  13.880  0.4042  0.3885  0.1655
 6736SOL     OW31840   2.462   2.893   4.724  0.0899 -0.1399 -0.1752
 6736SOL    HW131841   2.469   2.825   4.656 -0.3985  0.0868 -0.4540
 6736SOL    HW231842   2.544   2.879   4.771 -1.5286 -0.4966  2.5237
 6737SOL     OW31843   2.000   2.982  14.618 -0.2675 -0.4677 -1.0026
 6737SOL    HW131844   2.031   3.051  14.560  2.0434  0.7497  1.7102
 6737SOL    HW231845   1.905   2.988  14.606 -0.1046  1.6116 -1.2013
 6738SOL     OW31846   3.212   1.289   6.523  1.0230 -0.1855 -0.1924
 6738SOL    HW131847   3.163   1.340   6.458  0.1188 -0.7707  0.0207
 6738SOL    HW231848   3.234   1.359   6.584  0.1416  1.6526 -1.9963
 6739SOL     OW31849   2.375   2.220   1.679 -0.0440  0.3199 -0.6072
 6739SOL    HW131850   2.280   2.229   1.691  0.1909  1.6654  0.2405
 6739SOL    HW231851   2.390   2.148   1.617  2.8202  0.7164 -0.3821
 6740SOL     OW31852   4.227   4.136   4.387  0.5469 -0.8565 -0.4501
 6740SOL    HW131853   4.231   4.044   4.362  2.8662 -0.0669 -3.0151
 6740SOL    HW231854   4.151   4.172   4.341 -0.8003 -0.4825  2.0755
 6741SOL     OW31855   0.167   1.154   7.329  0.1545 -0.7530 -0.0524
 6741SOL    HW131856   0.095   1.095   7.307 -0.0383 -1.5999  2.8817
 6741SOL    HW231857   0.238   1.128   7.270 -0.9005 -0.8413 -1.2886
 6742SOL     OW31858   3.072   1.444   6.150  0.0563 -0.0439 -0.0812
 6742SOL    HW131859   2.988   1.402   6.131  1.0289 -1.6502 -0.9023
 6742SOL    HW231860   3.073   1.451   6.245 -0.0028  2.9817 -0.3113
 6743SOL     OW31861   3.646   0.719   5.627 -0.1446  0.6939 -0.2544
 6743SOL    HW131862   3.572   0.672   5.587  1.6916 -0.9723 -1.6999
 6743SOL    HW231863   3.618   0.731   5.717 -1.2932 -0.5145 -0.4447
 6744SOL     OW31864   2.156   2.399  12.297  0.6620  0.8731  0.5546
 6744SOL    HW131865   2.147   2.305  12.314 -0.5252  1.0998  1.2019
 6744SOL    HW231866   2.181   2.437  12.381 -1.0846  1.6212  0.7487
 6745SOL     OW31867   0.957   1.497   1.627 -0.7287  0.2043 -0.0726
 6745SOL    HW131868   0.904   1.569   1.662  0.3022  1.2840 -0.7113
 6745SOL    HW231869   0.925   1.423   1.678  2.5717 -0.3946  1.1523
 6746SOL     OW31870   2.233   1.805   9.554  0.1708 -0.0053 -0.0457
 6746SOL    HW131871   2.204   1.891   9.523  0.0901 -0.5734 -1.5109
 6746SOL    HW231872   2.328   1.813   9.564 -0.2507  2.7856  2.0357
 6747SOL     OW31873   3.612   3.553   8.577 -0.3192 -0.2916 -0.0962
 6747SOL    HW131874   3.665   3.629   8.554 -2.1583  0.7302 -0.9599
 6747SOL    HW231875   3.559   3.530   8.501 -1.9237 -1.6512  1.4176
 6748SOL     OW31876   3.848   3.162  16.498  0.6485  0.1298 -0.1149
 6748SOL    HW131877   3.780   3.095  16.490  2.1587 -1.4066 -0.2788
 6748SOL    HW231878   3.848   3.186  16.591 -0.3307  0.7300 -0.2721
 6749SOL     OW31879   1.783   4.270   8.016  0.0279  0.2533  0.0208
 6749SOL    HW131880   1.718   4.337   7.998  1.1539  1.8789  2.0589
 6749SOL    HW231881   1.843   4.320   8.071 -0.7669 -0.0626  1.2016
 6750SOL     OW31882   4.280   3.423   9.652  0.1649  0.5742 -0.1635
 6750SOL    HW131883   4.292   3.515   9.672  1.5468  0.2359  0.5378
 6750SOL    HW231884   4.319   3.422   9.564  2.2950 -1.5782  0.8133
 6751SOL     OW31885   0.679   0.555   6.554  0.7124 -0.3803 -0.3802
 6751SOL    HW131886   0.685   0.643   6.590  0.2542  0.2230 -1.7933
 6751SOL    HW231887   0.731   0.567   6.474 -1.5253  0.4570 -1.6887
 6752SOL     OW31888   2.893   2.176   5.075  0.1642  0.2090  0.0573
 6752SOL    HW131889   2.955   2.224   5.130  2.1532  0.1285 -2.0891
 6752SOL    HW231890   2.833   2.138   5.139 -1.1238  0.8392 -0.7704
 6753SOL     OW31891   1.457   0.643   5.586  0.1143 -0.7982  0.5002
 6753SOL    HW131892   1.489   0.723   5.544 -1.2746  0.2554  1.4491
 6753SOL    HW231893   1.512   0.634   5.664 -0.6048  2.5003  1.3869
 6754SOL     OW31894   0.115   3.205  15.460  0.6344  0.0072 -0.1648
 6754SOL    HW131895   0.201   3.209  15.418  0.4986 -2.9146 -0.7895
 6754SOL    HW231896   0.062   3.204  15.380 -2.0688  3.1084  1.5941
 6755SOL     OW31897   2.405   4.729   4.605 -0.9017  1.0217 -0.8594
 6755SOL    HW131898   2.461   0.004   4.682 -0.3705  0.0499 -1.0952
 6755SOL    HW231899   2.412   4.635   4.590 -2.1568  0.9356 -0.9172
 6756SOL     OW31900   3.964   1.936   7.067 -0.1904  0.2236 -0.0473
 6756SOL    HW131901   3.985   1.844   7.081 -1.1845  0.1326  0.8226
 6756SOL    HW231902   4.052   1.967   7.043 -0.1553 -1.1490 -1.7108
 6757SOL     OW31903   4.172   4.420   3.793 -0.6837 -0.6754  0.2063
 6757SOL    HW131904   4.077   4.411   3.799 -0.7782  0.6756  0.8100
 6757SOL    HW231905   4.205   4.395   3.880 -0.5676 -1.7760 -0.1592
 6758SOL     OW31906   3.726   0.419   3.268  0.0075  0.3143  0.0892
 6758SOL    HW131907   3.765   0.506   3.279 -2.9352  1.4482  1.4982
 6758SOL    HW231908   3.744   0.395   3.177 -1.9154 -0.2840 -0.1297
 6759SOL     OW31909   3.703   1.114   0.875  0.3878  0.1928  0.2397
 6759SOL    HW131910   3.742   1.107   0.962  1.7871 -0.6335 -0.4596
 6759SOL    HW231911   3.634   1.048   0.874 -0.9278  1.5685  0.4702
 6760SOL     OW31912   4.410   1.215   7.613  0.0802 -0.5505 -0.0889
 6760SOL    HW131913   4.470   1.157   7.566 -0.8077 -1.3295 -0.2554
 6760SOL    HW231914   4.477   1.274   7.647  0.8662 -1.0636 -0.7711
 6761SOL     OW31915   2.608   0.217   5.510 -0.3935 -0.3651  0.8176
 6761SOL    HW131916   2.595   0.136   5.560  0.6343 -1.6312 -0.9594
 6761SOL    HW231917   2.673   0.192   5.445  0.0322 -0.4512  1.2783
 6762SOL     OW31918   3.551   3.437   1.189  0.8670 -0.3710  0.1547
 6762SOL    HW131919   3.476   3.446   1.130 -0.5592 -2.9491  1.5608
 6762SOL    HW231920   3.551   3.344   1.211 -1.8310 -0.2089  0.8728
 6763SOL     OW31921   4.417   0.328   8.590  0.0006  0.2085  0.5262
 6763SOL    HW131922   4.323   0.320   8.603 -0.3565  1.5209 -1.2255
 6763SOL    HW231923   4.448   0.263   8.652 -0.0768 -1.6755 -1.3990
 6764SOL     OW31924   3.408   2.288   8.347  0.1599  0.7550 -0.6928
 6764SOL    HW131925   3.388   2.232   8.273 -1.3372 -1.8881  1.7080
 6764SOL    HW231926   3.499   2.306   8.325  0.4030  2.1937  1.4506
 6765SOL     OW31927   1.294   1.913   9.618 -0.1494  0.0061 -0.4452
 6765SOL    HW131928   1.287   1.822   9.588  0.5853  0.4430 -1.9763
 6765SOL    HW231929   1.388   1.920   9.634  0.3705  0.8027 -3.7758
 6766SOL     OW31930   2.390   2.081   9.391  0.6355 -0.3640  0.0375
 6766SOL    HW131931   2.360   2.151   9.450  0.3628  0.1106 -0.6569
 6766SOL    HW231932   2.414   2.008   9.447 -3.3021 -1.4989  0.2410
 6767SOL     OW31933   2.246   4.387   4.314  0.6407 -0.0531 -0.6584
 6767SOL    HW131934   2.264   4.341   4.232  0.3500 -2.1795  0.4753
 6767SOL    HW231935   2.165   4.345   4.341  1.2531 -1.2498 -0.6896
 6768SOL     OW31936   0.386   3.932   4.739 -0.2819 -0.4796  1.1431
 6768SOL    HW131937   0.454   3.984   4.781  0.6864  0.3407 -1.4393
 6768SOL    HW231938   0.312   3.993   4.742 -0.7240 -0.8810 -1.1245
 6769SOL     OW31939   1.538   1.994   6.315  0.4798 -0.3998  0.3564
 6769SOL    HW131940   1.587   2.048   6.377  1.0149  1.2975 -1.5529
 6769SOL    HW231941   1.600   1.921   6.311  0.8709  0.0026 -0.9061
 6770SOL     OW31942   2.668   2.658   5.581  0.1016  0.0696  0.4015
 6770SOL    HW131943   2.730   2.674   5.509  1.0355  2.1394  1.6502
 6770SOL    HW231944   2.689   2.727   5.645  1.1979 -0.1511  0.2853
 6771SOL     OW31945   0.571   2.010   0.122  0.4268 -0.6108  0.6518
 6771SOL    HW131946   0.658   2.012   0.162 -0.1036 -0.7706  1.8193
 6771SOL    HW231947   0.517   2.008   0.202  1.7743 -1.5195  1.5291
 6772SOL     OW31948   4.647   1.742   5.889 -0.2954  0.4360  0.3796
 6772SOL    HW131949   4.700   1.682   5.941 -2.4952  0.0644  2.2373
 6772SOL    HW231950   4.703   1.819   5.895 -2.0373  1.7814 -0.5869
 6773SOL     OW31951   3.661   0.631  11.584 -0.1502 -0.5385 -0.6654
 6773SOL    HW131952   3.705   0.698  11.532  0.0385  0.0028  0.1768
 6773SOL    HW231953   3.572   0.663  11.571 -0.6443 -1.6608 -0.0717
 6774SOL     OW31954   0.395   1.142  13.698 -0.4446 -0.0375  0.4747
 6774SOL    HW131955   0.418   1.214  13.756  0.8838  0.8283 -1.1001
 6774SOL    HW231956   0.373   1.067  13.753 -1.6805 -1.3418 -1.7890
 6775SOL     OW31957   0.301   4.553   4.724 -0.3753 -0.0900  0.2857
 6775SOL    HW131958   0.248   4.491   4.774  1.8028 -2.1042  0.1533
 6775SOL    HW231959   0.241   4.568   4.652 -1.3543 -0.6791  0.9749
 6776SOL     OW31960   3.152   3.884  13.031  0.3936  0.6598  0.2917
 6776SOL    HW131961   3.139   3.840  13.114  0.4848 -0.2087 -0.1620
 6776SOL    HW231962   3.117   3.973  13.040  0.3334  0.7814 -1.0490
 6777SOL     OW31963   3.856   2.995   2.858 -0.2557 -0.1551  0.4337
 6777SOL    HW131964   3.904   2.939   2.797 -0.7082  1.4899 -1.4261
 6777SOL    HW231965   3.807   2.937   2.916  0.6465  0.3371  1.6867
 6778SOL     OW31966   1.350   3.879   7.228 -0.5770  0.2029 -0.1991
 6778SOL    HW131967   1.434   3.886   7.274 -0.3066  2.0432 -0.9679
 6778SOL    HW231968   1.384   3.940   7.163 -0.4111  0.0967 -0.2130
 6779SOL     OW31969   0.704   4.114   3.930  0.1856  0.1613  0.3920
 6779SOL    HW131970   0.631   4.175   3.922  2.4710  2.5750 -1.9480
 6779SOL    HW231971   0.707   4.097   4.024 -0.4374  0.2681  0.4347
 6780SOL     OW31972   3.991   0.293   8.969  0.1327  0.1856 -0.7932
 6780SOL    HW131973   4.039   0.357   8.916  0.7595 -1.0727 -1.7463
 6780SOL    HW231974   3.983   0.214   8.916  1.0329 -1.2064  1.1183
 6781SOL     OW31975   2.241   1.238   4.326 -0.1877 -0.0763  0.1228
 6781SOL    HW131976   2.219   1.208   4.238  2.1713  2.3658 -1.2835
 6781SOL    HW231977   2.158   1.277   4.356  0.3418  0.8627  0.3639
 6782SOL     OW31978   2.532   0.388   4.337 -0.2287 -0.2931  0.1504
 6782SOL    HW131979   2.604   0.326   4.328  0.9606  1.0248  0.6953
 6782SOL    HW231980   2.578   0.457   4.385 -0.4258  0.3552 -0.5981
 6783SOL     OW31981   2.609   0.742   7.215  0.5358  0.2140  0.4693
 6783SOL    HW131982   2.520   0.777   7.214  0.7766  0.7760 -1.2265
 6783SOL    HW231983   2.663   0.814   7.182 -1.1221  1.3760  0.2885
 6784SOL     OW31984   1.470   1.957   4.617 -0.1995 -0.0665 -0.2307
 6784SOL    HW131985   1.479   1.927   4.707  1.4357  0.1978 -0.3059
 6784SOL    HW231986   1.448   1.879   4.566  0.0272 -0.9260  0.9872
 6785SOL     OW31987   0.483   0.926   7.692 -0.2831 -0.0734 -0.3170
 6785SOL    HW131988   0.404   0.889   7.730 -0.0966 -1.8035 -1.6686
 6785SOL    HW231989   0.459   0.923   7.600  1.3805  0.3489 -0.7633
 6786SOL     OW31990   1.619   1.451   0.317 -0.3119  0.0329 -0.1428
 6786SOL    HW131991   1.632   1.361   0.288  1.9830 -0.2601  1.7530
 6786SOL    HW231992   1.530   1.472   0.289  0.0772  0.9790 -0.6760
 6787SOL     OW31993   1.145   2.621   3.314 -0.1081  0.2161  0.4917
 6787SOL    HW131994   1.060   2.576   3.317  0.2431 -0.6407 -2.0098
 6787SOL    HW231995   1.164   2.638   3.222 -0.4715  1.4562  0.6400
 6788SOL     OW31996   2.887   0.027  10.535  0.4964 -0.2973  0.1546
 6788SOL    HW131997   2.836   0.020  10.615 -0.5936  0.3646 -0.4894
 6788SOL    HW231998   2.940   4.685  10.547  1.1503  0.5133  2.6737
 6789SOL     OW31999   2.184   1.342   1.181 -0.1875  0.3189 -0.2471
 6789SOL    HW132000   2.177   1.248   1.200 -0.3440  0.6261  1.2360
 6789SOL    HW232001   2.117   1.353   1.114  0.4346  0.0252 -0.9149
 6790SOL     OW32002   3.224   1.991   3.126 -0.8428  0.3970 -0.0069
 6790SOL    HW132003   3.160   1.942   3.179  1.3012 -1.2044  1.0846
 6790SOL    HW232004   3.284   2.007   3.199  0.5325  0.3638 -1.1313
 6791SOL     OW32005   0.563   4.158   7.638  0.3598 -0.7202  0.1116
 6791SOL    HW132006   0.626   4.108   7.586 -0.3245  0.0869 -1.4531
 6791SOL    HW232007   0.560   4.241   7.592  3.1541  0.4688  2.0488
 6792SOL     OW32008   4.514   2.562  10.690  0.3382  0.3637  0.2369
 6792SOL    HW132009   4.543   2.544  10.779  0.3601 -0.4883  0.0611
 6792SOL    HW232010   4.551   2.487  10.644 -0.2183  1.1013 -1.4535
 6793SOL     OW32011   3.984   0.449   0.759 -0.1269 -0.2528 -0.7848
 6793SOL    HW132012   3.906   0.437   0.706 -0.6642 -0.5234  0.0565
 6793SOL    HW232013   3.963   0.381   0.823  1.1207  0.7247  0.6711
 6794SOL     OW32014   2.589   1.600   3.649  0.2242  0.1794 -0.0536
 6794SOL    HW132015   2.664   1.655   3.668 -0.4169  0.8590  0.5133
 6794SOL    HW232016   2.581   1.605   3.553  1.3995  0.6722 -0.1162
 6795SOL     OW32017   0.648   3.332   3.084 -0.0771 -0.5054  0.7905
 6795SOL    HW132018   0.553   3.327   3.083 -0.1023 -0.1317  0.9929
 6795SOL    HW232019   0.666   3.285   3.165 -1.0851  0.1909  1.4265
 6796SOL     OW32020   2.023   3.541   2.141 -0.0914  0.0416 -0.6947
 6796SOL    HW132021   2.074   3.488   2.203 -0.9250 -1.8055 -1.5793
 6796SOL    HW232022   1.985   3.468   2.092  1.1374 -0.0229 -1.5673
 6797SOL     OW32023   3.096   1.781   5.787  0.2088 -0.5286  0.3465
 6797SOL    HW132024   3.106   1.774   5.692  2.0700 -0.1871  0.5291
 6797SOL    HW232025   3.176   1.825   5.812  1.1089 -0.5724 -2.3803
 6798SOL     OW32026   0.777   2.222   2.855  0.6416 -0.0705  0.1189
 6798SOL    HW132027   0.726   2.187   2.928  0.0430  1.2127  0.3160
 6798SOL    HW232028   0.718   2.231   2.780 -0.2544  1.6603  1.0193
 6799SOL     OW32029   1.653   0.953   5.639 -0.4379  0.3093  0.0700
 6799SOL    HW132030   1.561   0.970   5.657 -0.2741 -0.7241  1.9138
 6799SOL    HW232031   1.683   1.041   5.660 -0.6700  0.7441 -1.4349
 6800SOL     OW32032   3.633   3.176   9.189  0.7116 -0.3979  0.0078
 6800SOL    HW132033   3.554   3.141   9.149 -0.7222  1.1802  1.4376
 6800SOL    HW232034   3.684   3.209   9.116  1.0765 -1.2441 -0.1096
 6801SOL     OW32035   1.516   0.766   6.254 -0.4691 -0.5093  0.9966
 6801SOL    HW132036   1.596   0.749   6.303  1.7179 -1.2094 -2.7672
 6801SOL    HW232037   1.521   0.693   6.192 -1.0842  0.3351 -0.0666
 6802SOL     OW32038   3.926   2.287  10.438 -0.1471 -0.2728 -0.4743
 6802SOL    HW132039   3.879   2.320  10.361 -0.2223 -0.5482 -0.5479
 6802SOL    HW232040   3.853   2.235  10.474 -1.5949  1.2165 -1.2815
 6803SOL     OW32041   0.614   0.386   4.166  0.5354 -0.1149 -0.1431
 6803SOL    HW132042   0.530   0.340   4.171 -0.1271  0.9615 -1.3010
 6803SOL    HW232043   0.658   0.327   4.228 -0.5215 -1.2907 -0.5030
 6804SOL     OW32044   2.681   3.986  10.302  0.3827 -0.4692  0.2831
 6804SOL    HW132045   2.679   3.933  10.222  0.7357  0.9622 -0.6624
 6804SOL    HW232046   2.600   4.036  10.292  0.3292 -0.6501 -0.1925
 6805SOL     OW32047   0.383   3.538   7.504 -0.1223 -0.0365 -0.1028
 6805SOL    HW132048   0.403   3.569   7.592 -1.6034 -1.6891  0.8216
 6805SOL    HW232049   0.322   3.605   7.473 -0.5374  0.1880  1.1916
 6806SOL     OW32050   1.328   4.235   6.376  0.6204  0.2061 -0.0774
 6806SOL    HW132051   1.243   4.190   6.382  0.7760  0.1792  2.0576
 6806SOL    HW232052   1.304   4.327   6.386 -2.3130 -0.5521  0.0540
 6807SOL     OW32053   1.647   1.473   5.607 -0.5161  0.3020  0.5574
 6807SOL    HW132054   1.698   1.507   5.534 -1.5527 -1.4151 -0.9763
 6807SOL    HW232055   1.564   1.519   5.592 -0.4171  0.3331  0.0802
 6808SOL     OW32056   2.407   4.174   8.503  0.9543 -0.3601  0.1589
 6808SOL    HW132057   2.343   4.243   8.488  0.2794 -0.9753  0.2062
 6808SOL    HW232058   2.382   4.141   8.589  0.0837 -1.4967 -0.5388
 6809SOL     OW32059   3.902   4.531   5.309 -0.1553  0.4379  0.0341
 6809SOL    HW132060   3.890   4.599   5.375  1.4130  1.3134 -0.6044
 6809SOL    HW232061   3.995   4.510   5.311  0.3996  3.0868  0.8866
 6810SOL     OW32062   4.573   3.668   2.672 -0.3944  0.3593  0.4205
 6810SOL    HW132063   4.638   3.672   2.601 -1.1047  1.8837 -0.1488
 6810SOL    HW232064   4.512   3.598   2.648  1.4690 -1.0039 -0.3179
 6811SOL     OW32065   2.558   2.877   8.253  0.3485  0.8875  0.0339
 6811SOL    HW132066   2.513   2.854   8.333  0.8194  1.7756  0.5567
 6811SOL    HW232067   2.651   2.885   8.276 -0.8182  0.3040  4.8227
 6812SOL     OW32068   2.803   1.176   8.704 -0.0224  0.2880 -0.2555
 6812SOL    HW132069   2.845   1.252   8.744  1.4612 -1.4855  1.5476
 6812SOL    HW232070   2.708   1.186   8.713  0.2980  1.8169  1.2725
 6813SOL     OW32071   1.241   2.625   5.900 -0.0473  0.3516  1.1196
 6813SOL    HW132072   1.244   2.612   5.994 -1.4177 -3.0628  0.6937
 6813SOL    HW232073   1.148   2.611   5.883  0.0086  1.6048 -0.2115
 6814SOL     OW32074   3.049   3.779   9.640 -0.4645  0.2834 -0.1232
 6814SOL    HW132075   3.065   3.858   9.692  0.4185 -0.0842  0.1577
 6814SOL    HW232076   3.018   3.723   9.711 -0.2513 -0.5261 -0.6636
 6815SOL     OW32077   3.101   1.318   4.790  0.1011 -0.0961  0.1568
 6815SOL    HW132078   3.142   1.319   4.876  2.2571 -2.3135 -0.8502
 6815SOL    HW232079   3.172   1.294   4.730 -1.1986  0.8694 -1.7907
 6816SOL     OW32080   4.713   4.167   1.797 -0.6409  0.0690  0.5331
 6816SOL    HW132081   0.037   4.148   1.726  1.6311  1.4775  2.1312
 6816SOL    HW232082   4.679   4.079   1.814 -0.4644 -0.3555 -1.2631
 6817SOL     OW32083   0.402   2.573   0.108 -0.2424  0.2014 -0.1433
 6817SOL    HW132084   0.474   2.521   0.141  0.5538  1.0514 -0.5370
 6817SOL    HW232085   0.405   2.652   0.161 -0.3730 -0.7886  1.3179
 6818SOL     OW32086   1.326   3.531   7.062  0.4942  0.2477  0.0388
 6818SOL    HW132087   1.411   3.522   7.021  1.4886  0.3267  2.0932
 6818SOL    HW232088   1.277   3.601   7.017 -0.2217  0.0224  0.4647
 6819SOL     OW32089   2.628   3.281   2.158 -0.3408 -0.4934 -1.0136
 6819SOL    HW132090   2.567   3.211   2.133 -1.0262 -0.6010  0.9545
 6819SOL    HW232091   2.578   3.357   2.127  0.9076  0.1825 -1.3732
 6820SOL     OW32092   0.490   0.379   1.267  0.5903 -0.1861 -0.0322
 6820SOL    HW132093   0.455   0.436   1.199  1.5576  1.5114  0.8771
 6820SOL    HW232094   0.490   0.444   1.338  1.6240  0.3071 -0.4858
 6821SOL     OW32095   1.733   0.580  12.443 -0.4571 -0.1290  0.6040
 6821SOL    HW132096   1.822   0.612  12.427 -0.1423 -2.4762 -2.2415
 6821SOL    HW232097   1.725   0.508  12.380 -1.8126  2.6115 -2.3122
 6822SOL     OW32098   3.665   2.233   6.920 -0.0701  0.0587 -0.0097
 6822SOL    HW132099   3.746   2.218   6.968 -1.6226 -0.7945  2.3351
 6822SOL    HW232100   3.652   2.328   6.916 -1.7653 -0.1363  0.7249
 6823SOL     OW32101   3.287   1.387   0.788 -0.2830  0.4081  0.5408
 6823SOL    HW132102   3.380   1.367   0.778  0.0808  0.6158  3.5678
 6823SOL    HW232103   3.257   1.312   0.736  0.6208  0.7326 -0.4294
 6824SOL     OW32104   1.227   4.207  15.622  0.4209 -0.2103  0.0615
 6824SOL    HW132105   1.154   4.153  15.593 -1.5131  2.3221  0.2630
 6824SOL    HW232106   1.248   4.259  15.545 -1.3812 -2.2199 -1.7525
 6825SOL     OW32107   4.703   2.387   4.577  0.2968  0.2169  0.0150
 6825SOL    HW132108   0.011   2.471   4.574  1.3999 -0.4238 -1.3781
 6825SOL    HW232109   4.734   2.348   4.495  2.0734  0.7698  0.4146
 6826SOL     OW32110   2.680   1.549   8.980  0.2365  0.5835  0.4070
 6826SOL    HW132111   2.671   1.644   8.992  0.4347  0.5981  0.4492
 6826SOL    HW232112   2.626   1.527   9.055 -1.2423 -1.7344 -1.3338
 6827SOL     OW32113   3.221   2.847   8.828 -0.3915  0.5648  0.3851
 6827SOL    HW132114   3.171   2.811   8.755 -1.2300  0.9245  0.7813
 6827SOL    HW232115   3.266   2.921   8.790 -0.1641 -0.0301 -0.5047
 6828SOL     OW32116   2.569   3.255  14.254  0.8454 -0.2172  0.0162
 6828SOL    HW132117   2.478   3.259  14.226  0.5317 -0.9436  0.9511
 6828SOL    HW232118   2.595   3.177  14.206 -0.5300  0.1034 -1.2450
 6829SOL     OW32119   2.116   3.671  12.331  0.3610 -0.3745  0.1182
 6829SOL    HW132120   2.033   3.671  12.379 -0.2477 -0.0516 -0.9329
 6829SOL    HW232121   2.175   3.697  12.402 -0.5069  2.1884 -0.0900
 6830SOL     OW32122   2.990   1.144  15.675  0.5056 -0.3742 -0.4857
 6830SOL    HW132123   2.992   1.126  15.581  1.1758  0.1230 -0.5712
 6830SOL    HW232124   3.063   1.202  15.696 -0.5546  0.2991  1.2960
 6831SOL     OW32125   2.567   2.685  14.450 -0.0741  0.1329  0.2992
 6831SOL    HW132126   2.584   2.777  14.430 -0.1261  0.1716  0.4384
 6831SOL    HW232127   2.543   2.652  14.363 -0.2577 -1.8408  1.0921
 6832SOL     OW32128   3.825   0.773  11.823  0.2305  0.0377 -0.2535
 6832SOL    HW132129   3.886   0.717  11.776  0.9430  0.1718  0.5092
 6832SOL    HW232130   3.881   0.845  11.852  0.8327 -0.4379 -0.2459
 6833SOL     OW32131   2.379   0.457   8.143  0.2790  0.2321 -0.1115
 6833SOL    HW132132   2.469   0.450   8.114  0.0847 -1.4675 -0.2945
 6833SOL    HW232133   2.394   0.487   8.232  0.3696  0.9641 -0.3715
 6834SOL     OW32134   2.839   3.932   3.938  0.1126  0.5131 -0.0166
 6834SOL    HW132135   2.858   3.988   3.863  0.3565 -0.4881 -0.7015
 6834SOL    HW232136   2.855   3.995   4.008 -0.3744 -0.7202  1.2053
 6835SOL     OW32137   3.789   1.117   3.971 -0.4787 -0.1543  0.0170
 6835SOL    HW132138   3.713   1.134   3.915  0.6026  0.0887 -1.3561
 6835SOL    HW232139   3.846   1.079   3.905  0.6104 -0.1432  0.9629
 6836SOL     OW32140   4.724   0.746   7.816  0.4906  0.6213 -0.0635
 6836SOL    HW132141   4.689   0.781   7.898 -1.9917  0.1389 -0.9441
 6836SOL    HW232142   0.028   0.666   7.847  0.6392  0.4502 -0.7041
 6837SOL     OW32143   3.244   4.432   0.354  0.0356 -0.3797 -0.1710
 6837SOL    HW132144   3.290   4.481   0.287 -1.0321  2.3435  1.0637
 6837SOL    HW232145   3.153   4.438   0.323  0.3390 -1.7347 -1.3152
 6838SOL     OW32146   1.217   3.865  11.607 -0.3905  0.0268 -0.2643
 6838SOL    HW132147   1.228   3.855  11.512 -0.0210 -0.2087 -0.1958
 6838SOL    HW232148   1.297   3.824  11.639 -1.9233 -3.0067 -0.2871
 6839SOL     OW32149   3.589   2.426   1.627  0.2208 -0.1391 -0.0742
 6839SOL    HW132150   3.572   2.462   1.540  0.3043 -2.1936 -0.9344
 6839SOL    HW232151   3.642   2.497   1.663 -0.5431  0.2198  0.3354
 6840SOL     OW32152   1.431   3.251  14.614  0.3058 -0.4253  0.0318
 6840SOL    HW132153   1.453   3.342  14.595 -2.6376  0.3314  0.1864
 6840SOL    HW232154   1.336   3.252  14.630  0.6869  0.7290  2.1524
 6841SOL     OW32155   4.689   2.087  15.804 -0.6720 -0.3294 -0.0187
 6841SOL    HW132156   4.718   2.098  15.714  0.9817  2.3323  0.8196
 6841SOL    HW232157   4.659   1.996  15.807  2.9530 -1.5038  0.1259
 6842SOL     OW32158   4.042   1.081   1.384 -0.2793  0.3056  0.0772
 6842SOL    HW132159   4.092   1.082   1.302  1.2806  2.8304  1.0878
 6842SOL    HW232160   4.111   1.100   1.447  0.1366 -2.5648  0.5034
 6843SOL     OW32161   0.944   4.625   5.420 -0.3965 -0.0853  0.2415
 6843SOL    HW132162   0.948   4.721   5.414 -0.9587  0.0782  2.4109
 6843SOL    HW232163   1.034   4.615   5.452  0.4440 -1.7508 -2.6802
 6844SOL     OW32164   3.918   0.971   6.405 -0.1219  0.2594 -0.1631
 6844SOL    HW132165   3.955   0.914   6.337 -1.0421 -1.3542  0.6808
 6844SOL    HW232166   3.839   0.922   6.425  1.0549 -1.0774  1.1621
 6845SOL     OW32167   2.473   2.557  17.554  0.0965  0.2199 -0.1762
 6845SOL    HW132168   2.438   2.501  17.485 -1.0176  1.0263 -0.2605
 6845SOL    HW232169   2.563   2.559  17.522  0.5571  0.1699  1.1083
 6846SOL     OW32170   0.929   2.534   1.186  0.8360  0.4644 -0.0703
 6846SOL    HW132171   1.008   2.577   1.153  1.6927 -2.4769 -1.8508
 6846SOL    HW232172   0.930   2.555   1.279  0.4241 -1.8544  0.4527
 6847SOL     OW32173   0.564   2.586  15.927  0.0987  0.0042  0.2959
 6847SOL    HW132174   0.551   2.643  16.003  0.8752 -2.7072  2.4956
 6847SOL    HW232175   0.634   2.632  15.881 -0.7257  1.0029  0.0308
 6848SOL     OW32176   4.115   2.222   7.032 -0.2911 -0.4006  0.0193
 6848SOL    HW132177   4.179   2.152   7.019  3.5979  2.4526  3.5227
 6848SOL    HW232178   4.172   2.276   7.087  1.4205 -0.6504 -1.5064
 6849SOL     OW32179   3.854   3.383   3.451  0.3912 -0.3425 -0.2225
 6849SOL    HW132180   3.893   3.442   3.387  1.8815  0.0673  1.0823
 6849SOL    HW232181   3.856   3.307   3.392 -1.5029 -0.7334  0.2285
 6850SOL     OW32182   1.706   4.237   7.229 -0.0605 -0.0862  0.2240
 6850SOL    HW132183   1.656   4.286   7.293  2.2105 -0.8247  2.5441
 6850SOL    HW232184   1.790   4.277   7.251 -0.6772  0.5895  1.2917
 6851SOL     OW32185   3.788   4.244   2.605  0.1640  0.2363  0.1010
 6851SOL    HW132186   3.736   4.248   2.685  2.2048  2.4316  1.3156
 6851SOL    HW232187   3.863   4.201   2.646 -0.7603  0.4681  2.0411
 6852SOL     OW32188   4.002   2.489  14.541  0.1404  0.2558 -0.3476
 6852SOL    HW132189   4.069   2.437  14.586 -1.0873 -1.4602 -0.4778
 6852SOL    HW232190   4.048   2.512  14.460 -0.4605  2.5098 -0.0423
 6853SOL     OW32191   4.616   4.509  15.423  0.1507 -0.2914 -0.5586
 6853SOL    HW132192   4.668   4.504  15.342 -0.3042  1.4869 -0.9452
 6853SOL    HW232193   4.626   4.602  15.442 -1.0994 -0.1933 -0.3790
 6854SOL     OW32194   4.030   3.700   7.728  0.0899  0.1795 -0.1735
 6854SOL    HW132195   3.977   3.768   7.687 -3.7957 -1.3914  2.2370
 6854SOL    HW232196   4.046   3.742   7.813  0.1809 -2.0954  0.9399
 6855SOL     OW32197   3.888   3.829   7.514  0.0195 -0.3663 -0.3431
 6855SOL    HW132198   3.927   3.760   7.460  0.2731 -1.0827  0.7426
 6855SOL    HW232199   3.868   3.902   7.456 -0.4769  0.3727  0.7589
 6856SOL     OW32200   3.053   0.685   2.798 -0.5246 -0.2339 -0.2385
 6856SOL    HW132201   3.118   0.755   2.792  0.2502 -1.3133 -4.3780
 6856SOL    HW232202   3.003   0.691   2.717 -1.4217 -3.4195  0.0538
 6857SOL     OW32203   4.224   2.371   2.956  0.2441  0.2734  0.2216
 6857SOL    HW132204   4.253   2.350   2.867 -3.0956  1.0642 -1.0837
 6857SOL    HW232205   4.231   2.466   2.964  2.2180  0.3019 -1.7977
 6858SOL     OW32206   2.598   3.309   5.118 -0.1874 -0.1535  0.6390
 6858SOL    HW132207   2.585   3.228   5.069  0.7198  0.6034 -0.8437
 6858SOL    HW232208   2.517   3.359   5.110 -1.4080 -1.9703  1.6809
 6859SOL     OW32209   2.232   3.094   5.615  0.8367  0.1724  0.3321
 6859SOL    HW132210   2.283   3.028   5.662  0.5927 -0.9466 -0.9483
 6859SOL    HW232211   2.258   3.077   5.524 -0.3387 -1.9433  0.4047
 6860SOL     OW32212   4.516   2.829   0.146 -0.3653 -0.3379  0.2990
 6860SOL    HW132213   4.438   2.875   0.178  0.0458  0.1156  0.6553
 6860SOL    HW232214   4.490   2.743   0.177 -1.9655 -0.0721 -0.2966
 6861SOL     OW32215   3.228   2.547   5.192 -0.4867 -0.3811  0.4975
 6861SOL    HW132216   3.144   2.593   5.187  0.2014  0.7847 -0.4380
 6861SOL    HW232217   3.241   2.563   5.285 -1.5769  0.7917  0.4425
 6862SOL     OW32218   4.228   4.160  13.916 -0.1588 -0.0306  0.6686
 6862SOL    HW132219   4.164   4.096  13.884  0.5661 -1.9698  3.0976
 6862SOL    HW232220   4.168   4.210  13.971 -0.6470  0.1373 -0.0139
 6863SOL     OW32221   3.839   1.865  13.733  0.0942  0.7302  0.1745
 6863SOL    HW132222   3.831   1.810  13.811 -0.8369 -0.6749 -0.9063
 6863SOL    HW232223   3.781   1.819  13.673 -0.5945  1.0635  0.5838
 6864SOL     OW32224   3.659   0.407   2.640 -0.2290 -0.3236  0.0989
 6864SOL    HW132225   3.708   0.425   2.560 -1.2504  3.1540  0.2644
 6864SOL    HW232226   3.640   0.497   2.665  0.8145 -0.0049 -0.2935
 6865SOL     OW32227   3.647   4.555   0.373 -0.6324  0.7167  0.1491
 6865SOL    HW132228   3.693   4.602   0.443 -0.9650 -1.5746  1.9062
 6865SOL    HW232229   3.660   4.622   0.306  2.1683  0.8917  0.8834
 6866SOL     OW32230   0.320   0.672  12.158  0.5617 -0.1321  0.7453
 6866SOL    HW132231   0.244   0.720  12.126  1.1375  0.0190 -0.4204
 6866SOL    HW232232   0.295   0.584  12.131  1.8550 -0.2302 -0.1399
 6867SOL     OW32233   0.784   2.803  10.080  0.4889 -0.4142 -0.1690
 6867SOL    HW132234   0.801   2.756   9.998 -0.7227 -2.6614  0.8615
 6867SOL    HW232235   0.834   2.753  10.144  0.0850  0.7297  1.0476
 6868SOL     OW32236   1.069   0.683   2.533  0.0390  0.3263  0.7355
 6868SOL    HW132237   1.107   0.599   2.558  0.9744  0.3333 -0.6252
 6868SOL    HW232238   1.135   0.723   2.476 -0.2357  1.9060  1.5121
 6869SOL     OW32239   3.230   4.655   5.191 -0.1407 -0.1199  0.2478
 6869SOL    HW132240   3.173   4.590   5.149  0.2683 -0.6662  0.5377
 6869SOL    HW232241   3.252   4.709   5.115 -1.6403 -1.9224 -1.4873
 6870SOL     OW32242   3.044   4.692   6.654  0.1469 -0.2356 -0.9509
 6870SOL    HW132243   3.132   4.703   6.689 -0.0750  1.0632 -0.8256
 6870SOL    HW232244   3.039   4.598   6.634 -2.2921 -0.2079 -0.4517
 6871SOL     OW32245   0.735   0.937  15.689 -0.3072  0.0015 -0.0979
 6871SOL    HW132246   0.685   0.913  15.611 -0.3842  1.3270 -0.4584
 6871SOL    HW232247   0.667   0.984  15.737 -1.4778  0.0713 -1.8098
 6872SOL     OW32248   3.857   2.915   6.027 -0.1399  0.2109  0.0087
 6872SOL    HW132249   3.789   2.974   5.993  0.9696  3.0759  2.7501
 6872SOL    HW232250   3.796   2.847   6.056 -1.0521  0.5020 -1.2092
 6873SOL     OW32251   0.041   2.781   4.775 -0.3260 -0.3075 -0.0014
 6873SOL    HW132252   4.701   2.808   4.825  0.1973  0.1860  0.5423
 6873SOL    HW232253   0.081   2.865   4.750  3.5289 -1.5917  1.7305
 6874SOL     OW32254   4.390   2.005   6.726  0.1513 -0.1943 -0.3216
 6874SOL    HW132255   4.484   2.022   6.720  0.3601 -1.1395  0.2191
 6874SOL    HW232256   4.352   2.090   6.746  0.1869 -0.2066 -0.2009
 6875SOL     OW32257   0.118   1.620  13.388  0.1087  0.4387  0.1118
 6875SOL    HW132258   0.119   1.633  13.483 -1.4466 -2.0628  0.4835
 6875SOL    HW232259   0.121   1.526  13.369 -1.7828  0.0768  1.6314
 6876SOL     OW32260   1.534   2.283  13.942  0.0426  0.4660  0.3870
 6876SOL    HW132261   1.584   2.203  13.956 -0.9500  0.3609  3.3209
 6876SOL    HW232262   1.602   2.349  13.927  1.9449 -1.8419 -1.0954
 6877SOL     OW32263   4.364   4.482   2.518  0.0547  0.1718  0.8257
 6877SOL    HW132264   4.389   4.538   2.444  1.2558 -1.0569  0.3188
 6877SOL    HW232265   4.346   4.400   2.472  0.5891 -0.6034  2.0043
 6878SOL     OW32266   1.912   1.232   9.467 -0.4718 -0.0042  0.5994
 6878SOL    HW132267   1.839   1.236   9.529  0.7252  1.8928  1.8789
 6878SOL    HW232268   1.875   1.249   9.380  3.3199  1.5566 -0.7172
 6879SOL     OW32269   0.368   3.764   7.943 -0.0671 -0.1511  0.0192
 6879SOL    HW132270   0.461   3.769   7.967 -0.2824  3.8060  0.0432
 6879SOL    HW232271   0.336   3.676   7.960 -1.2013  0.1403 -0.6262
 6880SOL     OW32272   3.978   3.888   6.935 -0.0798  0.2682 -0.0431
 6880SOL    HW132273   4.061   3.885   6.887 -0.3487 -2.8659 -0.3222
 6880SOL    HW232274   3.922   3.840   6.874  0.0957  1.7439 -1.3663
 6881SOL     OW32275   1.098   0.056   5.764  0.2495 -0.0330 -0.3989
 6881SOL    HW132276   1.171   0.026   5.819 -1.1193  0.2090  1.5500
 6881SOL    HW232277   1.064   4.707   5.739 -0.6739  0.1410  0.2633
 6882SOL     OW32278   3.200   1.869  14.717  0.2251  0.0326  0.0730
 6882SOL    HW132279   3.296   1.871  14.711  0.3242 -0.5477  1.4443
 6882SOL    HW232280   3.185   1.938  14.782  0.2678 -0.6308  0.7893
 6883SOL     OW32281   2.865   4.596   2.495 -0.5883 -0.0621 -0.1042
 6883SOL    HW132282   2.880   4.508   2.460 -0.4584  0.7829 -2.1638
 6883SOL    HW232283   2.936   4.614   2.557 -0.0758  0.0392 -0.7228
 6884SOL     OW32284   4.566   4.142  10.168  0.1004 -0.5249 -0.1868
 6884SOL    HW132285   4.613   4.118  10.248  0.4907  0.8535  0.0009
 6884SOL    HW232286   4.627   4.153  10.095 -1.1549 -1.8373 -1.4256
 6885SOL     OW32287   3.306   4.469   6.397  0.4672 -0.0207  0.3848
 6885SOL    HW132288   3.225   4.438   6.438 -0.7908  1.0424 -1.3090
 6885SOL    HW232289   3.372   4.471   6.467  0.1301 -0.4848  0.7199
 6886SOL     OW32290   2.501   2.731  16.408 -0.1841 -0.4181 -0.3634
 6886SOL    HW132291   2.562   2.662  16.434  0.2255  0.6391  1.4765
 6886SOL    HW232292   2.528   2.810  16.456 -0.4432  0.1192 -1.0982
 6887SOL     OW32293   1.521   2.962   5.618  0.0182 -0.2716 -0.0099
 6887SOL    HW132294   1.529   2.894   5.551 -0.7959 -0.7400  0.3661
 6887SOL    HW232295   1.458   2.912   5.670 -0.8428  1.4392  0.5985
 6888SOL     OW32296   4.568   0.829   3.023  0.4801 -0.0051  0.4958
 6888SOL    HW132297   4.548   0.736   3.028 -1.0400  0.1713 -1.8665
 6888SOL    HW232298   4.663   0.840   3.029  0.2210  2.3995  0.3953
 6889SOL     OW32299   0.438   3.018   7.326 -0.6394  0.0431 -0.1171
 6889SOL    HW132300   0.421   3.046   7.236  3.6389  1.4710 -0.5197
 6889SOL    HW232301   0.381   3.075   7.377 -0.9432 -0.3035 -0.0731
 6890SOL     OW32302   4.551   0.278   9.926 -0.4182 -0.5189  0.4517
 6890SOL    HW132303   4.574   0.370   9.935  1.0257 -0.9107  0.7561
 6890SOL    HW232304   4.632   0.235   9.952  0.0412 -0.0894 -0.2828
 6891SOL     OW32305   3.167   2.239   4.147  0.1511  0.3389  0.6561
 6891SOL    HW132306   3.144   2.161   4.197 -1.9360  0.0482 -0.7317
 6891SOL    HW232307   3.201   2.191   4.072 -1.1367 -1.1272  1.0062
 6892SOL     OW32308   4.536   1.916  15.190  0.3527  0.2851 -0.1590
 6892SOL    HW132309   4.441   1.929  15.182  0.1981 -0.5232  0.4337
 6892SOL    HW232310   4.549   1.872  15.106 -2.5750  1.7751 -1.4177
 6893SOL     OW32311   4.010   0.280   5.562 -0.1016 -0.0884 -0.1791
 6893SOL    HW132312   3.945   0.349   5.580  1.5967  0.6196  3.1681
 6893SOL    HW232313   4.069   0.303   5.634 -2.0795 -0.2246  1.5181
 6894SOL     OW32314   2.311   0.252   6.904 -0.1313 -0.0069 -0.1782
 6894SOL    HW132315   2.271   0.199   6.835  0.3079 -0.0877 -0.3694
 6894SOL    HW232316   2.401   0.221   6.901 -0.8480 -2.1644  0.5485
 6895SOL     OW32317   1.745   3.278   2.231  0.5780  0.3261  0.2460
 6895SOL    HW132318   1.806   3.291   2.159  2.1383 -1.7138  1.2037
 6895SOL    HW232319   1.676   3.339   2.205  1.0250  0.0743 -1.4896
 6896SOL     OW32320   1.653   2.423  14.197 -0.1137 -0.5124 -0.0985
 6896SOL    HW132321   1.706   2.394  14.271  0.0279 -0.8458 -0.3288
 6896SOL    HW232322   1.563   2.412  14.226 -0.8672  0.0613 -2.2315
 6897SOL     OW32323   2.925   4.471   2.173 -0.4195 -0.0950 -0.0400
 6897SOL    HW132324   2.972   4.553   2.157 -1.6974  0.7815  0.7096
 6897SOL    HW232325   3.000   4.422   2.138 -1.1270  0.0136 -1.7003
 6898SOL     OW32326   2.353   3.447   3.989 -0.2123 -0.0398 -0.8605
 6898SOL    HW132327   2.291   3.504   3.943  0.7337  2.4129  0.8904
 6898SOL    HW232328   2.309   3.440   4.074 -1.0586  1.3754 -1.1959
 6899SOL     OW32329   4.067   3.393   4.155  0.2164 -0.1016 -0.1940
 6899SOL    HW132330   4.045   3.340   4.078 -1.7857  0.7150 -0.1799
 6899SOL    HW232331   3.979   3.390   4.194  0.2539 -2.0439 -0.2473
 6900SOL     OW32332   3.485   4.344   7.998  0.1946 -0.4241 -0.2814
 6900SOL    HW132333   3.527   4.264   7.968  0.9594 -0.0986 -0.0993
 6900SOL    HW232334   3.558   4.406   7.994  0.7144 -0.8406  2.2084
 6901SOL     OW32335   0.221   0.582   1.926 -0.5749 -0.0217 -0.2956
 6901SOL    HW132336   0.191   0.562   2.015 -0.8349 -1.1709 -0.6497
 6901SOL    HW232337   0.149   0.544   1.875 -0.1214  0.7647 -1.5209
 6902SOL     OW32338   0.300   3.001   2.634  0.0241  0.2076 -0.7418
 6902SOL    HW132339   0.384   2.961   2.610  0.9370  1.0908  0.9329
 6902SOL    HW232340   0.321   3.082   2.681  3.2877 -0.4643 -0.9843
 6903SOL     OW32341   2.882   2.347   9.492  0.4828  0.0821 -0.2782
 6903SOL    HW132342   2.808   2.287   9.490  0.3233  0.2479  0.7166
 6903SOL    HW232343   2.951   2.284   9.474 -1.3593 -2.0831  0.2861
 6904SOL     OW32344   2.578   1.285   1.348  0.0652  0.1726 -0.1192
 6904SOL    HW132345   2.567   1.237   1.431  2.5711 -1.4719 -0.7534
 6904SOL    HW232346   2.576   1.373   1.385  0.9914 -0.4897  1.5493
 6905SOL     OW32347   2.948   4.030   2.209  0.2206 -0.0546 -0.3178
 6905SOL    HW132348   2.998   4.067   2.281 -0.0138  0.3814 -0.3743
 6905SOL    HW232349   2.856   4.044   2.233  0.2108  1.3533 -1.1696
 6906SOL     OW32350   0.994   2.602   7.579 -0.3849  0.4875  0.0578
 6906SOL    HW132351   0.902   2.598   7.607 -0.8823 -0.1544 -1.6788
 6906SOL    HW232352   0.983   2.567   7.491  1.4930  0.5543 -0.1986
 6907SOL     OW32353   4.301   3.507  10.912  0.0572  0.2834  0.0066
 6907SOL    HW132354   4.389   3.483  10.882  0.0290 -0.5649  0.5905
 6907SOL    HW232355   4.256   3.507  10.827 -0.8024 -0.8448  0.4635
 6908SOL     OW32356   0.138   2.779   0.344 -0.0988 -0.3178  0.4391
 6908SOL    HW132357   0.068   2.778   0.410  1.1994 -0.9498  1.7967
 6908SOL    HW232358   0.126   2.689   0.313  1.3160 -0.2108 -0.4255
 6909SOL     OW32359   4.189   2.384   6.079 -0.2061 -0.4509 -0.0659
 6909SOL    HW132360   4.172   2.290   6.077  1.5765 -0.8089  1.3168
 6909SOL    HW232361   4.100   2.416   6.092 -0.1109 -0.2101 -0.0170
 6910SOL     OW32362   0.901   0.022   8.874  0.1056 -0.3574 -0.4033
 6910SOL    HW132363   0.948   0.095   8.915 -2.9436  2.1529 -1.3891
 6910SOL    HW232364   0.836   0.007   8.943  0.7531  3.4881  1.0622
 6911SOL     OW32365   2.880   4.729   9.051  0.1950  0.1516 -0.0310
 6911SOL    HW132366   2.861   4.721   9.145  0.3440  3.0676  0.2562
 6911SOL    HW232367   2.974   4.721   9.065  0.4245  1.5009 -0.8521
 6912SOL     OW32368   4.345   0.723  14.715  0.0885  0.1602 -0.2509
 6912SOL    HW132369   4.369   0.656  14.778 -0.4645  0.8908  0.7426
 6912SOL    HW232370   4.256   0.735  14.748  0.6065 -0.7109  1.4083
 6913SOL     OW32371   1.322   0.790   4.417 -0.3103 -0.1952  0.7089
 6913SOL    HW132372   1.312   0.883   4.396 -1.4023 -0.0421  1.9017
 6913SOL    HW232373   1.229   0.771   4.421 -1.0264  2.9376 -1.1513
 6914SOL     OW32374   3.001   3.698   7.020  0.6114 -0.1043 -0.0751
 6914SOL    HW132375   2.981   3.732   7.107  2.3063  1.1575 -0.1767
 6914SOL    HW232376   2.918   3.697   6.973  1.2136 -0.9759 -1.1225
 6915SOL     OW32377   1.686   4.008  15.314  0.1003  0.1382 -0.4241
 6915SOL    HW132378   1.670   4.039  15.225 -0.1715  0.4514 -0.2645
 6915SOL    HW232379   1.623   3.938  15.328 -1.8582  2.1543  0.7173
 6916SOL     OW32380   2.500   2.533   8.428 -0.2868 -0.4187  0.3114
 6916SOL    HW132381   2.416   2.495   8.404 -0.1581  0.7185 -1.9864
 6916SOL    HW232382   2.557   2.503   8.357 -0.8770  0.9210 -0.7238
 6917SOL     OW32383   3.543   2.287   8.680  0.0649 -0.3570 -0.6418
 6917SOL    HW132384   3.603   2.331   8.741 -0.6814  1.3415 -1.1549
 6917SOL    HW232385   3.458   2.306   8.719  0.5449 -1.6086  1.0471
 6918SOL     OW32386   2.477   3.478  14.091  0.2439  0.1549  0.3017
 6918SOL    HW132387   2.510   3.474  14.001 -1.6788 -1.1324 -0.3331
 6918SOL    HW232388   2.535   3.412  14.129  0.5450  1.2109  1.6880
 6919SOL     OW32389   4.079   2.082   7.594 -0.2248  0.2094 -0.1940
 6919SOL    HW132390   4.110   2.171   7.608  1.4569 -0.3496 -0.3726
 6919SOL    HW232391   4.110   2.055   7.507  1.6611  0.6166  0.3648
 6920SOL     OW32392   4.421   0.827   3.384 -0.3614  0.2191 -0.0917
 6920SOL    HW132393   4.438   0.922   3.380  0.6958  0.0552  0.6392
 6920SOL    HW232394   4.338   0.836   3.338 -1.6742  3.3127  2.8974
 6921SOL     OW32395   3.419   3.424   6.358  0.1948  0.3351 -0.1003
 6921SOL    HW132396   3.353   3.483   6.320 -0.6067 -1.0729 -0.9090
 6921SOL    HW232397   3.377   3.340   6.374 -1.0590  1.3884  2.1515
 6922SOL     OW32398   3.003   4.076   3.745  0.2721  0.3123  0.7673
 6922SOL    HW132399   3.041   4.158   3.775 -0.7402  0.9201  0.3902
 6922SOL    HW232400   3.081   4.020   3.735 -0.5189 -0.5647 -0.5977
 6923SOL     OW32401   4.245   3.580   8.910 -0.6600  0.5036  0.4347
 6923SOL    HW132402   4.212   3.639   8.978 -0.9644  0.9092 -0.0633
 6923SOL    HW232403   4.237   3.636   8.832 -1.8402  1.7813  1.4802
 6924SOL     OW32404   4.550   4.259   5.922  0.3749 -0.1650 -0.3088
 6924SOL    HW132405   4.586   4.317   5.989 -1.0453 -2.8369  2.7667
 6924SOL    HW232406   4.533   4.325   5.855 -1.3182 -1.1604 -0.8533
 6925SOL     OW32407   2.631   1.179   8.206 -0.2301  0.3654 -0.2407
 6925SOL    HW132408   2.575   1.191   8.282  2.1990 -0.4618  1.6809
 6925SOL    HW232409   2.647   1.268   8.174 -1.8661  1.4430  1.9551
 6926SOL     OW32410   2.299   3.404   2.184  0.5374 -0.0014 -0.0563
 6926SOL    HW132411   2.284   3.330   2.243  0.1094 -0.2083 -0.4231
 6926SOL    HW232412   2.290   3.354   2.103  0.8258  1.3985 -0.9563
 6927SOL     OW32413   3.733   2.478   2.361 -0.4092  0.4424  0.2367
 6927SOL    HW132414   3.792   2.504   2.291  0.1795 -1.0990  0.1591
 6927SOL    HW232415   3.647   2.493   2.322  0.8916  1.4836 -2.2206
 6928SOL     OW32416   4.715   3.785   2.863 -0.3944 -0.3136 -0.5039
 6928SOL    HW132417   4.661   3.774   2.784  0.2423  1.7153 -1.2325
 6928SOL    HW232418   0.034   3.859   2.838 -0.6800 -0.1296 -0.6083
 6929SOL     OW32419   4.136   1.860   3.340  0.3439  0.1699 -0.3209
 6929SOL    HW132420   4.047   1.859   3.304  0.9550 -1.4425 -1.7616
 6929SOL    HW232421   4.124   1.843   3.434  1.8413 -0.6823 -0.3011
 6930SOL     OW32422   1.343   1.894   0.353 -0.2063  0.6249  0.1714
 6930SOL    HW132423   1.436   1.869   0.351 -0.5122 -0.5408  0.6722
 6930SOL    HW232424   1.319   1.816   0.404  2.1500 -0.4910 -0.3792
 6931SOL     OW32425   1.855   2.069   6.862 -0.5099  0.0808 -0.8699
 6931SOL    HW132426   1.850   1.980   6.828 -0.8737 -0.5809  0.9100
 6931SOL    HW232427   1.764   2.094   6.881 -0.0725 -0.8283  2.4217
 6932SOL     OW32428   0.139   2.430   5.550 -0.3423  0.0246 -0.5451
 6932SOL    HW132429   0.224   2.470   5.534 -0.2852  0.0029 -0.2997
 6932SOL    HW232430   0.127   2.376   5.472  0.4423 -0.2980 -0.4462
 6933SOL     OW32431   0.747   2.784   6.918 -0.0683 -0.3957 -0.3964
 6933SOL    HW132432   0.749   2.699   6.874  0.3130  0.7014 -2.5069
 6933SOL    HW232433   0.767   2.840   6.843 -1.5492 -0.2013 -0.6506
 6934SOL     OW32434   4.375   4.543   8.377 -0.1158 -0.1687  0.4734
 6934SOL    HW132435   4.289   4.580   8.394 -1.2161 -2.1602 -0.7034
 6934SOL    HW232436   4.440   4.607   8.407  0.9547 -0.5580 -0.9902
 6935SOL     OW32437   1.051   0.958   3.058  0.2265  0.0536 -0.1600
 6935SOL    HW132438   1.125   0.993   3.108 -1.7676  0.7335  2.3373
 6935SOL    HW232439   1.008   1.034   3.017  0.8297  0.3587 -0.2171
 6936SOL     OW32440   3.970   2.608  11.329 -0.2633  0.1686 -0.0469
 6936SOL    HW132441   4.001   2.633  11.416  0.0885  1.0828 -0.4329
 6936SOL    HW232442   3.968   2.692  11.285  1.2844 -0.1423 -0.7220
 6937SOL     OW32443   0.112   4.181   7.192  0.9929  0.3870  0.0418
 6937SOL    HW132444   0.101   4.210   7.283  1.0960 -1.5945  0.6874
 6937SOL    HW232445   0.030   4.138   7.168 -0.4492  3.6772 -0.8894
 6938SOL     OW32446   2.022   0.169   2.003 -0.4158 -0.2736 -0.2543
 6938SOL    HW132447   1.953   0.234   2.011  0.0011  0.2533 -0.9312
 6938SOL    HW232448   2.044   0.189   1.912  0.2877  0.7264  0.1339
 6939SOL     OW32449   0.986   3.981   7.410 -0.3404  0.0846 -0.1384
 6939SOL    HW132450   1.032   4.002   7.329  2.2277 -0.7990  1.1013
 6939SOL    HW232451   1.049   3.917   7.443 -2.2443 -0.5001  2.3856
 6940SOL     OW32452   0.274   0.818  12.576  0.3771  0.7213 -0.3734
 6940SOL    HW132453   0.349   0.871  12.602 -1.1006  1.9107  1.5211
 6940SOL    HW232454   0.216   0.847  12.647 -0.5992 -0.6180 -0.6174
 6941SOL     OW32455   0.782   3.317  11.148  0.5204  0.2102 -0.7843
 6941SOL    HW132456   0.856   3.297  11.090  0.5757 -0.3238 -0.5304
 6941SOL    HW232457   0.782   3.242  11.208  2.0043  0.3989 -0.5483
 6942SOL     OW32458   1.569   0.161   4.551  0.0363  0.5503  0.4021
 6942SOL    HW132459   1.621   0.127   4.624  0.3692  1.1315  0.4352
 6942SOL    HW232460   1.557   0.252   4.579  1.2749  1.1164 -0.9059
 6943SOL     OW32461   2.380   4.257   1.464  0.2432  0.2810 -0.4009
 6943SOL    HW132462   2.342   4.203   1.533  1.3126  1.3395  1.0295
 6943SOL    HW232463   2.379   4.337   1.516 -0.9501  0.4479 -0.6890
 6944SOL     OW32464   0.323   2.593  12.417 -0.4405 -0.2242  0.1981
 6944SOL    HW132465   0.336   2.514  12.364 -0.5505  0.1306 -0.3576
 6944SOL    HW232466   0.318   2.555  12.504  0.3252 -3.9088 -1.3428
 6945SOL     OW32467   1.171   1.971   5.238  0.9404 -0.0536 -0.1775
 6945SOL    HW132468   1.120   1.896   5.208  1.6749 -0.5933 -0.0923
 6945SOL    HW232469   1.151   2.047   5.184  1.0286  0.4482  0.5054
 6946SOL     OW32470   3.145   0.323   8.471 -0.5111  0.0849 -0.1849
 6946SOL    HW132471   3.126   0.230   8.487  0.5733 -0.3798 -1.6691
 6946SOL    HW232472   3.076   0.371   8.518 -0.6150  0.6922 -0.9649
 6947SOL     OW32473   2.597   0.555   5.254  0.0296  0.8537  0.0978
 6947SOL    HW132474   2.504   0.545   5.235  0.2549  0.1009 -0.5995
 6947SOL    HW232475   2.594   0.546   5.349  0.2461  0.4760  0.0720
 6948SOL     OW32476   1.570   1.818   6.008  0.3821 -0.2427 -0.0259
 6948SOL    HW132477   1.611   1.844   6.090  1.7950  0.6666 -1.0246
 6948SOL    HW232478   1.629   1.863   5.947  0.9900  0.0450  0.7760
 6949SOL     OW32479   0.533   1.736   2.806 -0.1522  0.2571 -0.6577
 6949SOL    HW132480   0.469   1.668   2.786  1.8163 -0.9858 -2.8607
 6949SOL    HW232481   0.580   1.689   2.875  0.4789  1.0950 -0.5243
 6950SOL     OW32482   1.176   2.507   1.923  0.1201  0.7963 -0.4473
 6950SOL    HW132483   1.150   2.589   1.964  1.4134  0.6609  0.6561
 6950SOL    HW232484   1.102   2.455   1.954  1.9671 -1.5858  0.0331
 6951SOL     OW32485   1.776   3.613   6.478  0.2505  0.3212  0.8574
 6951SOL    HW132486   1.786   3.518   6.473  0.3825  0.2735  1.9566
 6951SOL    HW232487   1.853   3.628   6.533 -1.1370 -0.4099  2.9842
 6952SOL     OW32488   2.792   1.968   8.180  0.0819 -0.0354 -0.0578
 6952SOL    HW132489   2.850   2.044   8.183 -1.5455  1.2417 -1.2002
 6952SOL    HW232490   2.718   2.007   8.225  1.7867  1.9722  0.9847
 6953SOL     OW32491   2.057   2.255   4.428  0.1717 -0.5789 -0.1133
 6953SOL    HW132492   2.065   2.169   4.385 -0.5468  0.0468 -1.5054
 6953SOL    HW232493   2.057   2.314   4.353 -0.5917 -2.6429 -1.7613
 6954SOL     OW32494   2.654   1.257   6.241  0.3503  0.0118  0.6174
 6954SOL    HW132495   2.745   1.247   6.267  0.8493  0.4501 -0.9786
 6954SOL    HW232496   2.655   1.203   6.163  1.2847  0.2776  0.4499
 6955SOL     OW32497   4.134   2.169  10.561  0.8175 -0.2116 -0.2110
 6955SOL    HW132498   4.051   2.202  10.527  0.7438  0.0086  0.1784
 6955SOL    HW232499   4.156   2.240  10.621  0.6665 -1.8291  1.7807
 6956SOL     OW32500   0.431   0.187   6.078  0.1313  0.0154  0.0322
 6956SOL    HW132501   0.498   0.243   6.116 -1.3701  1.4984  0.5081
 6956SOL    HW232502   0.410   0.244   6.004 -0.8676 -0.4098 -0.0138
 6957SOL     OW32503   2.773   0.573   6.459  0.6544 -0.3235  0.3765
 6957SOL    HW132504   2.766   0.550   6.367  1.9752  1.9162 -0.3025
 6957SOL    HW232505   2.682   0.563   6.485  0.7857  1.1967  1.4451
 6958SOL     OW32506   3.745   2.006   3.560 -0.1363 -0.2878 -0.2755
 6958SOL    HW132507   3.661   2.040   3.588  0.5279  0.9634  0.1753
 6958SOL    HW232508   3.715   1.961   3.481 -1.5266  0.7413 -0.3208
 6959SOL     OW32509   3.868   2.507   8.120  0.2175  0.2132  0.1087
 6959SOL    HW132510   3.907   2.468   8.198 -1.8163 -0.8747  0.5894
 6959SOL    HW232511   3.868   2.433   8.060 -2.0669  2.4355 -2.6640
 6960SOL     OW32512   2.245   0.934   2.193 -0.4927  0.0789 -0.0646
 6960SOL    HW132513   2.297   1.014   2.183  0.0479 -0.7829 -3.9082
 6960SOL    HW232514   2.245   0.916   2.287 -0.1138  1.3617  0.1774
 6961SOL     OW32515   0.870   4.557   6.822 -0.2851 -0.4482  0.1235
 6961SOL    HW132516   0.861   4.533   6.730 -1.4200 -0.4962  0.2398
 6961SOL    HW232517   0.821   4.484   6.860 -0.1037 -0.5001  0.2566
 6962SOL     OW32518   3.982   3.295  15.156 -0.0050  0.3760 -0.2370
 6962SOL    HW132519   4.021   3.277  15.241 -1.0044 -0.3890  0.0584
 6962SOL    HW232520   4.032   3.369  15.121 -0.4517  1.5364  1.6143
 6963SOL     OW32521   4.171   2.311   8.189 -0.4782  0.3847 -0.2148
 6963SOL    HW132522   4.080   2.324   8.214 -0.9743 -1.6664 -0.9967
 6963SOL    HW232523   4.165   2.234   8.132  2.4730 -0.6572  0.8581
 6964SOL     OW32524   1.919   1.760   3.917  0.8016 -0.5165  0.8553
 6964SOL    HW132525   1.948   1.691   3.858 -0.4898 -1.1549  0.9555
 6964SOL    HW232526   1.959   1.832   3.868 -1.4215  0.1707  0.0404
 6965SOL     OW32527   0.209   4.245   2.504  0.3347  0.6270  0.9471
 6965SOL    HW132528   0.172   4.201   2.581 -3.0487  2.8609  0.6289
 6965SOL    HW232529   0.210   4.338   2.525 -0.3417  0.8279  0.1068
 6966SOL     OW32530   1.367   1.463   6.080 -0.4423 -0.0701  0.2746
 6966SOL    HW132531   1.384   1.516   6.001  0.5645  2.3986  2.1477
 6966SOL    HW232532   1.452   1.428   6.107 -0.7588 -0.8298  0.2608
 6967SOL     OW32533   3.137   0.198   3.339  0.0445  0.4065  0.1124
 6967SOL    HW132534   3.071   0.173   3.404  1.3693 -0.4755  1.1215
 6967SOL    HW232535   3.091   0.179   3.257 -0.7192 -3.7250  1.4883
 6968SOL     OW32536   0.798   3.156   5.833  0.1269 -0.1204  0.1280
 6968SOL    HW132537   0.766   3.106   5.757  0.6541 -2.4319  1.4331
 6968SOL    HW232538   0.874   3.209   5.809 -0.2561  0.2250 -0.3332
 6969SOL     OW32539   1.130   3.312   6.313 -0.2252 -0.2949 -0.2915
 6969SOL    HW132540   1.147   3.336   6.404 -1.4774  0.0783 -0.1609
 6969SOL    HW232541   1.058   3.252   6.333 -0.5480  0.6716  1.4297
 6970SOL     OW32542   1.375   3.103   3.289  0.1406  0.2780 -0.2449
 6970SOL    HW132543   1.422   3.029   3.250 -0.6467  0.4492 -1.5128
 6970SOL    HW232544   1.291   3.060   3.310  1.5547 -0.5788  3.7229
 6971SOL     OW32545   1.884   4.194  10.314  0.4565 -0.3752  0.0567
 6971SOL    HW132546   1.809   4.173  10.370 -0.1781 -1.1300 -1.0902
 6971SOL    HW232547   1.937   4.229  10.386  0.8002  0.6334 -0.6981
 6972SOL     OW32548   4.368   0.422  17.223 -0.8223 -0.2508  0.1845
 6972SOL    HW132549   4.356   0.342  17.273  3.9271 -0.5207  0.8333
 6972SOL    HW232550   4.276   0.439  17.203 -0.3503  0.4499 -1.3983
 6973SOL     OW32551   0.266   2.519   1.251  0.0194  0.5946  0.1110
 6973SOL    HW132552   0.299   2.436   1.285  1.2105  0.5555 -1.1519
 6973SOL    HW232553   0.341   2.558   1.205 -0.4597 -0.0752 -1.2165
 6974SOL     OW32554   1.186   2.672   2.230  0.4702 -0.3310  0.2056
 6974SOL    HW132555   1.097   2.707   2.232  0.9742  0.9083  0.7011
 6974SOL    HW232556   1.237   2.747   2.198 -1.3193  0.1974 -1.3948
 6975SOL     OW32557   1.195   1.289   7.043 -0.6198 -0.3427  0.3374
 6975SOL    HW132558   1.260   1.302   6.974  0.1381  1.1446  1.3141
 6975SOL    HW232559   1.189   1.194   7.041 -0.5607 -0.3416  0.0731
 6976SOL     OW32560   2.536   0.483   6.792  0.1205 -0.6180  0.7628
 6976SOL    HW132561   2.491   0.489   6.876  0.3570 -1.4166  0.9462
 6976SOL    HW232562   2.610   0.429   6.820  1.5696  0.4343 -1.0286
 6977SOL     OW32563   0.841   3.755  10.188 -0.3708  0.0650 -0.0417
 6977SOL    HW132564   0.805   3.674  10.225  1.3196 -0.6812 -0.0209
 6977SOL    HW232565   0.898   3.712  10.125 -1.1207  1.0911 -1.4170
 6978SOL     OW32566   4.096   0.843   9.012 -0.4958  0.3521  0.0860
 6978SOL    HW132567   4.049   0.780   9.067 -0.3184 -0.1503 -0.3458
 6978SOL    HW232568   4.187   0.813   9.020 -1.1965 -1.6590  0.6621
 6979SOL     OW32569   3.513   2.556   1.093  0.4951 -0.0862  0.0300
 6979SOL    HW132570   3.526   2.475   1.043 -2.7155 -0.5415 -0.1321
 6979SOL    HW232571   3.558   2.527   1.172 -0.6441  0.2648  0.8118
 6980SOL     OW32572   2.145   1.385   8.880  0.3699 -0.0295 -0.4304
 6980SOL    HW132573   2.160   1.480   8.881  2.2154 -0.3172  0.8216
 6980SOL    HW232574   2.099   1.367   8.799  1.6006 -1.2194 -0.8796
 6981SOL     OW32575   1.169   0.484   5.303 -0.1380 -0.4104  0.2701
 6981SOL    HW132576   1.146   0.399   5.341 -0.6913 -0.2950  0.2039
 6981SOL    HW232577   1.261   0.478   5.280 -0.2666 -0.9917 -0.0918
 6982SOL     OW32578   2.434   0.215  11.620 -0.1095 -0.1998 -0.2095
 6982SOL    HW132579   2.406   0.171  11.540  0.4773 -1.4225  0.2652
 6982SOL    HW232580   2.444   0.300  11.577  0.7055 -0.1577  0.0784
 6983SOL     OW32581   2.388   2.865   6.224  0.2633  0.0962 -0.2287
 6983SOL    HW132582   2.445   2.880   6.300  1.8472 -1.4219 -1.0978
 6983SOL    HW232583   2.445   2.810   6.170  2.2176  0.9193  0.9855
 6984SOL     OW32584   0.044   0.555  15.786  0.9121  0.4061  0.2675
 6984SOL    HW132585   0.055   0.644  15.752 -0.8735  0.0353 -1.2191
 6984SOL    HW232586   0.077   0.501  15.715  1.7680  1.0129  0.1971
 6985SOL     OW32587   3.211   4.540   7.482 -0.6408  0.1183  0.2921
 6985SOL    HW132588   3.164   4.552   7.565 -0.4994 -2.0550  0.6805
 6985SOL    HW232589   3.187   4.611   7.424  1.1869 -0.2559 -0.9455
 6986SOL     OW32590   0.977   0.931   9.311 -0.2430  0.1889  0.0045
 6986SOL    HW132591   1.029   0.949   9.234 -0.9239 -0.5735 -0.6318
 6986SOL    HW232592   0.993   1.013   9.358  1.8342 -0.6414  0.7382
 6987SOL     OW32593   3.950   0.634  13.857  0.2258 -0.7972  0.4907
 6987SOL    HW132594   4.015   0.608  13.791  0.1571 -0.9162  0.4716
 6987SOL    HW232595   3.896   0.557  13.843 -0.7302  0.0691 -0.5282
 6988SOL     OW32596   0.894   3.607   8.546 -1.0857 -0.6831 -0.0385
 6988SOL    HW132597   0.923   3.609   8.455 -0.1550  2.0304  0.3417
 6988SOL    HW232598   0.852   3.521   8.555 -0.1816 -0.9180  2.0571
 6989SOL     OW32599   0.945   2.092   2.638 -0.1380 -0.2032  0.1406
 6989SOL    HW132600   0.884   2.135   2.697 -1.1071  1.8966 -2.3846
 6989SOL    HW232601   1.008   2.044   2.693  0.2500 -0.4233 -0.4969
 6990SOL     OW32602   1.879   2.300  13.594 -0.5984 -0.2336 -0.0827
 6990SOL    HW132603   1.791   2.290  13.558 -1.5332  3.0317  1.3300
 6990SOL    HW232604   1.875   2.234  13.664  0.8449  1.6089  1.7681
 6991SOL     OW32605   0.276   3.058  17.391  0.2701 -0.4072 -0.6207
 6991SOL    HW132606   0.195   3.042  17.341  0.9538  0.6322 -2.0511
 6991SOL    HW232607   0.332   3.102  17.328 -0.3630  2.9446  1.1706
 6992SOL     OW32608   1.386   0.325  12.256 -0.2833  0.5500  0.6595
 6992SOL    HW132609   1.328   0.401  12.252 -2.0843 -0.7629  1.8387
 6992SOL    HW232610   1.377   0.278  12.173 -1.0553 -0.8256  1.5250
 6993SOL     OW32611   3.513   2.497  17.418 -0.1768 -0.0242 -0.3011
 6993SOL    HW132612   3.429   2.471  17.381 -0.5305  0.3387  0.2519
 6993SOL    HW232613   3.517   2.593  17.419  2.1308 -0.1193 -0.0853
 6994SOL     OW32614   1.019   0.069   7.702 -0.0173  0.2179  0.1116
 6994SOL    HW132615   1.105   0.029   7.714 -0.2818  0.2302  2.1015
 6994SOL    HW232616   1.038   0.141   7.642  2.5657 -0.6824 -0.1283
 6995SOL     OW32617   4.277   1.757  16.755  1.2966 -0.3496 -0.3292
 6995SOL    HW132618   4.261   1.782  16.664 -1.9805  1.0621  0.6395
 6995SOL    HW232619   4.344   1.691  16.743 -0.7175 -3.0359  3.1355
 6996SOL     OW32620   1.602   1.619   2.471 -0.0231 -0.2203 -0.5514
 6996SOL    HW132621   1.606   1.705   2.514  0.7601  0.1958 -1.4538
 6996SOL    HW232622   1.594   1.651   2.382  1.2159  2.1371  0.1785
 6997SOL     OW32623   3.929   0.517   6.111  0.9152  0.1738 -0.7990
 6997SOL    HW132624   4.004   0.460   6.128 -1.0787 -1.5225  2.3141
 6997SOL    HW232625   3.914   0.548   6.200 -1.7119 -0.8171 -0.9086
 6998SOL     OW32626   1.961   4.185   4.998  0.4836  0.8505  0.3811
 6998SOL    HW132627   1.889   4.201   4.936  0.4608  1.7609  0.6410
 6998SOL    HW232628   2.038   4.212   4.949 -0.3877  0.3835 -1.2509
 6999SOL     OW32629   0.520   0.372   2.102  0.2447  0.0652  0.5445
 6999SOL    HW132630   0.580   0.411   2.167 -0.5129 -0.0498  1.3127
 6999SOL    HW232631   0.553   0.282   2.100  0.7980  0.2900 -0.6894
 7000SOL     OW32632   3.028   1.678   2.540 -0.3290  0.1466  0.3539
 7000SOL    HW132633   2.944   1.656   2.501  0.7337 -0.2041 -1.7218
 7000SOL    HW232634   3.064   1.699   2.454 -1.4229 -1.7729 -0.5650
 7001SOL     OW32635   0.768   1.467   8.386  0.2080 -0.0843  0.0349
 7001SOL    HW132636   0.844   1.453   8.330  0.9414  4.0849 -0.0487
 7001SOL    HW232637   0.795   1.518   8.463 -0.3442  0.6324 -0.2435
 7002SOL     OW32638   2.332   0.888  13.503 -0.2613  0.2262  0.3108
 7002SOL    HW132639   2.404   0.834  13.534 -0.3591 -2.0057 -3.2276
 7002SOL    HW232640   2.283   0.899  13.584  1.4936  1.2969  1.2039
 7003SOL     OW32641   3.975   1.859   6.164  0.6092  0.3769 -0.0528
 7003SOL    HW132642   3.917   1.814   6.226  0.6720  0.8815  0.3761
 7003SOL    HW232643   4.034   1.785   6.147  1.5997  0.8584  1.2642
 7004SOL     OW32644   3.202   1.845  17.347  0.2486 -0.4749 -0.0161
 7004SOL    HW132645   3.252   1.919  17.312 -0.3641 -1.5916 -3.2499
 7004SOL    HW232646   3.170   1.891  17.424  0.6982 -1.4921  0.7682
 7005SOL     OW32647   1.768   4.344  16.825 -0.9091  0.3349 -0.0051
 7005SOL    HW132648   1.780   4.284  16.751  0.3698 -1.3987  1.6165
 7005SOL    HW232649   1.847   4.340  16.879 -0.8787 -2.0146 -0.1916
 7006SOL     OW32650   0.946   3.762   3.364  0.4725 -0.1422 -0.5815
 7006SOL    HW132651   0.881   3.711   3.413  0.3613 -0.5868 -1.1909
 7006SOL    HW232652   0.895   3.839   3.340 -0.5321 -0.1221  1.5814
 7007SOL     OW32653   2.678   0.278   3.692 -0.5860 -0.3828 -0.2509
 7007SOL    HW132654   2.628   0.345   3.738  0.3357  0.3045 -0.2382
 7007SOL    HW232655   2.767   0.314   3.691 -1.5361  1.9780 -0.4445
 7008SOL     OW32656   1.088   0.616   1.961 -0.2344  0.1066  0.2588
 7008SOL    HW132657   1.017   0.625   2.025  0.6815 -1.7474  1.5049
 7008SOL    HW232658   1.135   0.699   1.962 -0.5787  0.3128 -0.1471
 7009SOL     OW32659   3.526   0.035   4.191  0.5031 -0.1025  0.5866
 7009SOL    HW132660   3.509   4.723   4.111  0.9227  0.2326  0.2947
 7009SOL    HW232661   3.483   0.117   4.166  0.7948 -0.0253  0.3369
 7010SOL     OW32662   1.936   3.743   7.518 -0.3659  0.4025  1.0084
 7010SOL    HW132663   1.870   3.719   7.453  3.4533  0.0717 -2.7319
 7010SOL    HW232664   1.945   3.657   7.559 -0.5658  0.2017  0.6380
 7011SOL     OW32665   2.298   2.736  15.148 -0.0071  0.1555 -0.0542
 7011SOL    HW132666   2.388   2.768  15.147 -0.5567  1.7466  1.6156
 7011SOL    HW232667   2.324   2.644  15.149 -1.2021 -0.2101 -2.4935
 7012SOL     OW32668   1.531   3.932  12.694  1.1263  0.2691 -0.1071
 7012SOL    HW132669   1.474   3.975  12.759  1.4122 -0.4606  0.6254
 7012SOL    HW232670   1.609   3.978  12.724 -0.8837  2.3268  2.0477
 7013SOL     OW32671   1.131   0.244   7.503 -0.3790  0.0091  0.0087
 7013SOL    HW132672   1.155   0.312   7.440  2.9646 -0.4476  0.7630
 7013SOL    HW232673   1.188   0.169   7.487  1.7871  1.6765 -0.0601
 7014SOL     OW32674   0.163   3.647  10.959  0.1614  0.4185 -0.1660
 7014SOL    HW132675   0.079   3.656  10.915  0.8007  0.6192 -1.3439
 7014SOL    HW232676   0.218   3.646  10.881  1.4051 -0.0643  0.7064
 7015SOL     OW32677   3.370   1.260  14.837  0.1695  0.0965 -0.6066
 7015SOL    HW132678   3.288   1.253  14.788 -0.3754  0.2691  0.2611
 7015SOL    HW232679   3.415   1.193  14.786  0.6591 -0.4255  0.5133
 7016SOL     OW32680   3.122   4.322  17.563 -0.4706 -0.3006  0.3737
 7016SOL    HW132681   3.083   4.409  17.557 -0.4820 -0.4633 -1.7331
 7016SOL    HW232682   3.209   4.360  17.560 -0.2404 -0.6033  2.5804
 7017SOL     OW32683   2.469   4.688  11.711  0.1535 -0.4479  0.1348
 7017SOL    HW132684   2.466   0.047  11.702  1.0656 -0.4173  0.1181
 7017SOL    HW232685   2.512   4.679  11.626 -0.0994  0.7690 -0.1298
 7018SOL     OW32686   2.154   1.239   3.770  0.6404  0.2685  0.2463
 7018SOL    HW132687   2.234   1.285   3.746  0.8207  0.7806  1.8254
 7018SOL    HW232688   2.185   1.149   3.783  2.2779  1.0352  1.6410
 7019SOL     OW32689   1.303   4.557   8.468 -0.1231  0.1187 -0.1532
 7019SOL    HW132690   1.335   4.550   8.378 -0.9372  0.4205 -0.4650
 7019SOL    HW232691   1.312   4.466   8.497 -1.2424  0.1886  0.3938
 7020SOL     OW32692   4.460   2.986   2.518 -0.1342  0.0274  0.1191
 7020SOL    HW132693   4.500   2.949   2.597  1.5409  0.6578 -0.4414
 7020SOL    HW232694   4.383   2.931   2.503  1.9434 -2.9663  0.3903
 7021SOL     OW32695   3.973   1.347   5.925 -0.4924 -0.4162 -0.2626
 7021SOL    HW132696   3.909   1.311   5.986  0.3612 -0.6591  0.4977
 7021SOL    HW232697   3.925   1.348   5.842  1.5724  3.6434 -1.4449
 7022SOL     OW32698   3.387   0.076   6.442  0.1447 -0.0240  0.6004
 7022SOL    HW132699   3.356   0.165   6.459  0.2292 -0.0393  0.8343
 7022SOL    HW232700   3.375   0.036   6.528  0.0508  2.9368  1.9359
 7023SOL     OW32701   4.592   0.520  11.091 -0.4207 -0.3909  0.4229
 7023SOL    HW132702   4.668   0.518  11.032  0.5708 -0.3885  1.6883
 7023SOL    HW232703   4.525   0.564  11.039  0.8081  1.7641  0.6614
 7024SOL     OW32704   2.474   1.272  15.766  0.7605 -0.3633 -0.4885
 7024SOL    HW132705   2.473   1.210  15.839  1.5924 -0.0812 -0.2307
 7024SOL    HW232706   2.386   1.265  15.729 -0.0493  0.6610  1.2216
 7025SOL     OW32707   2.233   4.671   2.445 -0.0925 -0.0717  0.0645
 7025SOL    HW132708   2.182   0.009   2.475  1.4953  0.1267  2.2598
 7025SOL    HW232709   2.243   4.614   2.522 -0.4038 -1.2910 -0.7996
 7026SOL     OW32710   2.912   0.384   8.177  0.1255 -0.2068  0.4098
 7026SOL    HW132711   2.983   0.358   8.117 -1.3422 -0.5733 -1.1693
 7026SOL    HW232712   2.952   0.459   8.220  1.5360  0.1170 -1.4562
 7027SOL     OW32713   0.626   3.201  13.882 -0.3782  0.6835 -0.0282
 7027SOL    HW132714   0.684   3.198  13.806  1.6897  2.2016  1.5015
 7027SOL    HW232715   0.651   3.126  13.936 -2.4336  0.8461  1.1755
 7028SOL     OW32716   1.838   2.805   2.736  0.0105  0.5718 -0.1141
 7028SOL    HW132717   1.755   2.838   2.769  0.5888  2.5449 -0.6225
 7028SOL    HW232718   1.845   2.725   2.788 -0.6662 -0.7938 -2.1028
 7029SOL     OW32719   1.122   2.683   9.639  0.1662 -0.2185 -0.5198
 7029SOL    HW132720   1.055   2.749   9.621  0.5242 -0.1807 -1.6669
 7029SOL    HW232721   1.194   2.738   9.670 -0.5683 -0.1083  1.0155
 7030SOL     OW32722   3.340   3.847   6.876 -0.4546 -0.2015  0.2164
 7030SOL    HW132723   3.299   3.862   6.961  2.3990 -0.1775  1.5787
 7030SOL    HW232724   3.413   3.789   6.898 -1.3705 -0.4857  2.5300
 7031SOL     OW32725   0.448   0.074   1.832 -0.3389  0.7746  0.1600
 7031SOL    HW132726   0.463   0.044   1.742 -1.9557  1.0311 -0.1811
 7031SOL    HW232727   0.411   0.162   1.825  0.4570  1.0785 -0.2258
 7032SOL     OW32728   2.260   2.535  14.216  0.3654  0.1414 -0.1021
 7032SOL    HW132729   2.180   2.587  14.217  0.4942  0.3417 -0.3295
 7032SOL    HW232730   2.261   2.502  14.306  1.8559 -1.2587 -0.6313
 7033SOL     OW32731   1.930   2.085   5.785 -0.0732 -0.5765  0.1366
 7033SOL    HW132732   2.014   2.086   5.830  0.0457  0.0346 -0.0980
 7033SOL    HW232733   1.959   2.116   5.699  0.5417 -2.2053 -0.2275
 7034SOL     OW32734   4.564   0.607   5.959  0.0594 -0.1423 -0.5610
 7034SOL    HW132735   4.572   0.663   5.882  0.2974  0.1037 -0.3584
 7034SOL    HW232736   4.624   0.648   6.021 -2.6071  0.3503  1.6849
 7035SOL     OW32737   2.455   1.233   8.458  0.0975  0.0427 -0.0352
 7035SOL    HW132738   2.435   1.231   8.551  2.0175  2.3679  0.4357
 7035SOL    HW232739   2.377   1.190   8.423 -1.1892  2.0670  0.2930
 7036SOL     OW32740   3.400   4.070   6.142 -0.0104 -0.1042 -0.1559
 7036SOL    HW132741   3.397   4.042   6.050  1.8380 -0.1279 -0.2057
 7036SOL    HW232742   3.458   4.143   6.121 -1.9938  1.5126 -0.0172
 7037SOL     OW32743   2.729   2.246   4.527 -0.3804  0.2416  0.3857
 7037SOL    HW132744   2.811   2.285   4.558 -0.5778 -0.1138  1.3570
 7037SOL    HW232745   2.749   2.178   4.464 -1.2737  0.3126  0.0319
 7038SOL     OW32746   2.147   0.793   8.865 -0.1372  0.7612 -0.3509
 7038SOL    HW132747   2.179   0.855   8.930 -2.1733 -1.0499  2.3874
 7038SOL    HW232748   2.196   0.713   8.882  0.0660  0.8533 -0.5004
 7039SOL     OW32749   0.215   0.835   1.766  0.1731  0.0921  0.1690
 7039SOL    HW132750   0.241   0.803   1.680 -2.7434 -0.4255 -0.5113
 7039SOL    HW232751   0.240   0.762   1.823 -0.4753  0.8810  1.4523
 7040SOL     OW32752   3.936   1.038  13.370  0.0787 -0.0273 -0.0824
 7040SOL    HW132753   3.927   1.131  13.391 -0.6157  0.3945 -2.2345
 7040SOL    HW232754   4.011   1.023  13.428 -0.4865 -0.9620  0.4076
 7041SOL     OW32755   1.747   0.516   8.667  0.0214  0.0170 -0.0735
 7041SOL    HW132756   1.685   0.553   8.729 -2.2592 -0.5909 -2.0147
 7041SOL    HW232757   1.822   0.564   8.702 -0.8414 -1.0638  3.2105
 7042SOL     OW32758   3.048   1.080   3.526 -0.0072  0.8855 -0.3805
 7042SOL    HW132759   3.130   1.032   3.516  0.4089  1.8469 -1.4369
 7042SOL    HW232760   2.988   1.018   3.484  2.5987 -0.9770 -1.3838
 7043SOL     OW32761   3.973   2.985   1.962  0.4309 -0.3845  0.3125
 7043SOL    HW132762   3.916   3.040   2.015 -0.5367 -0.1291 -0.9986
 7043SOL    HW232763   4.044   2.975   2.026  0.8796  0.8330  0.0137
 7044SOL     OW32764   2.645   3.590   3.586 -0.3631 -0.1033  0.3668
 7044SOL    HW132765   2.676   3.613   3.673  1.4740 -0.5066 -0.1769
 7044SOL    HW232766   2.684   3.656   3.529  3.9478 -2.3608  0.7132
 7045SOL     OW32767   3.717   4.026   8.926 -0.4438  0.6480 -0.9470
 7045SOL    HW132768   3.746   3.991   9.010 -0.0596 -3.1117 -2.6354
 7045SOL    HW232769   3.712   4.116   8.959  0.8047 -0.1224  1.3181
 7046SOL     OW32770   4.468   3.422   7.093 -0.1918  0.0893 -0.0212
 7046SOL    HW132771   4.552   3.455   7.124 -0.4508 -0.1746  0.9615
 7046SOL    HW232772   4.431   3.399   7.179 -1.0688 -2.3989 -1.0680
 7047SOL     OW32773   2.306   3.542   8.710  0.2495 -0.5210  0.9884
 7047SOL    HW132774   2.365   3.584   8.772 -0.4338  0.0634  1.2420
 7047SOL    HW232775   2.289   3.625   8.666  4.8602  0.1206  0.3940
 7048SOL     OW32776   2.087   2.865  15.253 -0.2876 -0.5249 -0.6167
 7048SOL    HW132777   2.172   2.831  15.223  0.2753  0.4235 -0.1130
 7048SOL    HW232778   2.103   2.886  15.344  0.5834 -1.0887 -0.6390
 7049SOL     OW32779   4.416   3.890   8.869  0.4020  0.8503  0.1185
 7049SOL    HW132780   4.452   3.882   8.780  4.5235  1.7870  1.6718
 7049SOL    HW232781   4.418   3.984   8.889  0.5253  0.7637  0.5222
 7050SOL     OW32782   3.362   4.361  11.877 -0.3221  0.6561 -0.4906
 7050SOL    HW132783   3.376   4.348  11.783 -2.6620  1.7372 -0.9758
 7050SOL    HW232784   3.373   4.276  11.920  2.7867  1.1662 -0.2388
 7051SOL     OW32785   3.625   4.118   7.929 -0.5460  0.4648  0.4390
 7051SOL    HW132786   3.605   4.062   7.854  1.4344  0.0637  0.2076
 7051SOL    HW232787   3.711   4.154   7.905 -0.5737 -0.1150 -0.5020
 7052SOL     OW32788   3.899   1.196  16.471 -0.2763  0.0400  0.7585
 7052SOL    HW132789   3.892   1.229  16.560 -0.7286 -0.1496  0.7896
 7052SOL    HW232790   3.962   1.258  16.432 -0.1504  0.2020  1.2212
 7053SOL     OW32791   0.149   2.972  17.031  0.2281 -0.3241  0.3946
 7053SOL    HW132792   0.111   2.996  17.116  0.7089  2.1158 -0.0683
 7053SOL    HW232793   0.159   3.061  16.998  0.0883 -1.5041 -2.8445
 7054SOL     OW32794   2.881   3.607   9.430  0.3811 -0.0977 -0.2231
 7054SOL    HW132795   2.911   3.636   9.516  0.4901  0.6073 -0.4979
 7054SOL    HW232796   2.829   3.532   9.458  0.0654 -0.3044 -1.3526
 7055SOL     OW32797   4.314   0.400   5.487 -0.1048 -0.4708 -0.2591
 7055SOL    HW132798   4.337   0.469   5.549  2.1440 -2.9008  1.5815
 7055SOL    HW232799   4.299   0.460   5.414  1.8392 -0.2664 -0.4830
 7056SOL     OW32800   3.568   4.728   9.586 -0.2092  0.3870 -0.0951
 7056SOL    HW132801   3.484   0.017   9.547 -0.4414  0.0107  0.1525
 7056SOL    HW232802   3.549   4.721   9.679 -0.3993  2.0349 -0.0147
 7057SOL     OW32803   1.202   0.819   8.194  0.1966  0.0453 -0.5734
 7057SOL    HW132804   1.157   0.831   8.110  1.1281  0.1618 -1.0517
 7057SOL    HW232805   1.260   0.745   8.178  0.0627 -1.1396  4.4151
 7058SOL     OW32806   1.548   2.798   3.506  0.4622  0.1977  0.2358
 7058SOL    HW132807   1.618   2.737   3.481  0.3010  0.5612 -1.1098
 7058SOL    HW232808   1.586   2.885   3.519  1.4216 -0.1297 -0.3781
 7059SOL     OW32809   2.342   4.467   2.630  0.0335 -0.3549 -0.1401
 7059SOL    HW132810   2.415   4.463   2.691 -0.1045 -1.4751 -0.0523
 7059SOL    HW232811   2.374   4.411   2.560  0.6371  0.6972 -0.7123
 7060SOL     OW32812   1.379   1.760   3.041  0.1851  0.6241 -0.1071
 7060SOL    HW132813   1.450   1.764   2.978 -0.3468 -1.3286 -0.8008
 7060SOL    HW232814   1.314   1.699   3.006  0.6817  1.2273 -2.0684
 7061SOL     OW32815   3.534   2.490   3.896 -0.2688 -0.7101  0.2538
 7061SOL    HW132816   3.625   2.486   3.927 -0.1832  1.0224  0.2182
 7061SOL    HW232817   3.551   2.488   3.802 -1.4981  1.6977 -0.0150
 7062SOL     OW32818   1.901   2.822   3.690 -0.3212  0.6541  0.0578
 7062SOL    HW132819   1.856   2.859   3.614  1.4566  0.4723 -1.0827
 7062SOL    HW232820   1.992   2.828   3.661  0.6559  0.0263  3.0281
 7063SOL     OW32821   0.511   4.667  11.701 -0.4401 -0.3775  0.3300
 7063SOL    HW132822   0.505   4.595  11.638  1.8631  0.3804 -0.7245
 7063SOL    HW232823   0.606   4.674  11.699 -0.6402  2.4888  0.3953
 7064SOL     OW32824   3.438   3.455   5.005  0.3388 -0.4859  0.2267
 7064SOL    HW132825   3.505   3.387   4.996  1.0371  0.2250  0.0850
 7064SOL    HW232826   3.406   3.447   5.095 -0.8780  0.0565 -0.1563
 7065SOL     OW32827   2.977   3.036   1.960  0.2858 -0.1619  0.2460
 7065SOL    HW132828   2.883   3.031   1.977  0.3437  4.3057  1.9495
 7065SOL    HW232829   2.991   2.959   1.905  1.9369  1.8505 -2.1436
 7066SOL     OW32830   1.248   2.284   2.784  0.2252 -0.2389  0.5500
 7066SOL    HW132831   1.256   2.364   2.732 -0.7904  0.0675  0.8873
 7066SOL    HW232832   1.157   2.297   2.809 -0.4728 -2.6167 -0.8146
 7067SOL     OW32833   0.107   3.377  13.972 -0.1892 -0.4584 -0.0030
 7067SOL    HW132834   0.154   3.401  14.052 -0.5143 -3.5934  1.1268
 7067SOL    HW232835   0.166   3.330  13.914 -0.3965 -0.5075 -0.1746
 7068SOL     OW32836   1.986   3.830  16.430  0.5540 -0.0606  0.3957
 7068SOL    HW132837   1.970   3.865  16.517 -0.1769 -0.5943  0.4773
 7068SOL    HW232838   2.007   3.912  16.387 -2.2786  0.1300 -0.6319
 7069SOL     OW32839   4.497   2.114   6.018  0.2657 -0.3245  0.2671
 7069SOL    HW132840   4.562   2.086   6.082  0.0225 -0.3381  0.5065
 7069SOL    HW232841   4.458   2.188   6.065  2.5310 -0.0436  1.7015
 7070SOL     OW32842   3.131   1.664  16.986  0.1358  0.0418  0.4247
 7070SOL    HW132843   3.205   1.714  16.950 -1.0150  1.4198 -0.0549
 7070SOL    HW232844   3.179   1.636  17.063 -0.2520  0.0364  0.6670
 7071SOL     OW32845   4.073   0.507  12.947  0.3020 -0.0677  0.3125
 7071SOL    HW132846   4.166   0.490  12.963  0.0369  1.6006  3.6071
 7071SOL    HW232847   4.087   0.571  12.877 -1.3427 -0.5205 -0.4168
 7072SOL     OW32848   4.411   1.785   2.880  0.3628 -0.2786 -0.5206
 7072SOL    HW132849   4.413   1.879   2.862  1.9309 -0.0325  0.8600
 7072SOL    HW232850   4.371   1.781   2.967 -2.3674  3.6400 -1.6524
 7073SOL     OW32851   0.153   1.636   8.580 -0.1436  0.4757 -0.4773
 7073SOL    HW132852   0.233   1.685   8.598  0.3810 -0.4122 -0.3797
 7073SOL    HW232853   0.106   1.700   8.526 -0.2562  0.2941 -0.5976
 7074SOL     OW32854   1.312   0.597  14.650  0.5199  0.4865  0.4085
 7074SOL    HW132855   1.389   0.570  14.701  1.4061  0.5311 -0.9098
 7074SOL    HW232856   1.343   0.688  14.644  0.8235  0.2355 -1.6926
 7075SOL     OW32857   2.693   2.283  12.414 -0.6418 -0.1296 -0.6100
 7075SOL    HW132858   2.709   2.209  12.356  0.2598  0.8525 -1.6131
 7075SOL    HW232859   2.766   2.273  12.475 -2.1656  2.5390  1.6874
 7076SOL     OW32860   3.369   4.540   0.928 -0.2182 -0.0730  0.2650
 7076SOL    HW132861   3.365   4.481   0.853 -0.5835  0.4046 -0.0957
 7076SOL    HW232862   3.343   4.479   0.997  2.1373 -1.8727 -0.4274
 7077SOL     OW32863   0.902   3.167   3.461 -0.0909  0.3003  0.1969
 7077SOL    HW132864   0.986   3.200   3.428 -0.1046  0.9428  0.7930
 7077SOL    HW232865   0.852   3.245   3.485 -0.6217  0.4096 -1.2501
 7078SOL     OW32866   3.243   2.430   3.922 -0.2253  0.4836 -0.2063
 7078SOL    HW132867   3.258   2.478   4.003  1.4212 -1.1459  0.4595
 7078SOL    HW232868   3.336   2.415   3.905  0.2656  1.2348  1.8369
 7079SOL     OW32869   1.121   4.119   2.556 -0.3891  0.1993 -0.1719
 7079SOL    HW132870   1.132   4.191   2.619 -0.4376  0.3738 -0.3625
 7079SOL    HW232871   1.086   4.060   2.623 -2.6619  0.3897 -1.1945
 7080SOL     OW32872   3.833   4.104   3.798  0.3391 -0.5601 -0.1103
 7080SOL    HW132873   3.748   4.148   3.796 -0.2519 -1.6293  1.5369
 7080SOL    HW232874   3.863   4.108   3.707 -1.9044  2.4565 -0.7422
 7081SOL     OW32875   4.469   1.681  11.748  0.4853  0.1521  0.3401
 7081SOL    HW132876   4.510   1.746  11.805  1.1849 -0.7220  0.8362
 7081SOL    HW232877   4.516   1.691  11.666 -0.0233 -3.2535 -0.3402
 7082SOL     OW32878   3.530   1.260  15.057 -0.1168 -0.0964 -0.2854
 7082SOL    HW132879   3.522   1.231  14.966  0.7706 -0.8140 -0.1407
 7082SOL    HW232880   3.477   1.339  15.058 -0.1699 -0.0609 -3.3254
 7083SOL     OW32881   0.314   0.669   4.939 -0.0937 -0.6917  0.2039
 7083SOL    HW132882   0.376   0.732   4.903  1.1650 -2.4962 -0.8129
 7083SOL    HW232883   0.366   0.589   4.942  0.9193 -0.0750 -1.4053
 7084SOL     OW32884   2.676   3.535   9.693 -0.1871 -0.5989  0.8652
 7084SOL    HW132885   2.682   3.456   9.640 -1.7741  1.1901 -1.9997
 7084SOL    HW232886   2.768   3.560   9.687 -0.7297  0.6127 -2.2329
 7085SOL     OW32887   2.663   2.504   1.191  0.0060 -0.3621 -0.2997
 7085SOL    HW132888   2.613   2.446   1.134 -2.1300 -0.5054  1.7329
 7085SOL    HW232889   2.716   2.433   1.228 -0.7115 -0.6010  0.2537
 7086SOL     OW32890   2.480   3.747  13.535 -0.3725  0.0061  0.2679
 7086SOL    HW132891   2.541   3.675  13.519 -1.3013 -1.2040  2.0456
 7086SOL    HW232892   2.505   3.773  13.623 -2.3816 -1.7748  1.3699
 7087SOL     OW32893   3.974   0.654   8.192 -0.4532  0.0300 -0.3037
 7087SOL    HW132894   3.928   0.684   8.114 -2.2721 -2.4317 -0.1640
 7087SOL    HW232895   4.043   0.602   8.150 -0.3811 -0.4628  0.4156
 7088SOL     OW32896   4.511   3.841  14.188 -0.2385  0.1410 -0.1436
 7088SOL    HW132897   4.590   3.834  14.134  0.3068 -1.8126  0.9368
 7088SOL    HW232898   4.446   3.848  14.118  0.2454  1.0088 -0.5167
 7089SOL     OW32899   4.318   1.855   8.136  0.3318  0.0825 -0.0530
 7089SOL    HW132900   4.316   1.909   8.215 -0.0234 -0.1225  0.0795
 7089SOL    HW232901   4.391   1.794   8.151  0.9200  0.5570 -0.9596
 7090SOL     OW32902   3.855   4.723   2.108  0.4203  0.5377  0.6638
 7090SOL    HW132903   3.778   0.008   2.160  2.1704  1.5528  2.8358
 7090SOL    HW232904   3.842   4.629   2.095 -0.4305  0.6685  0.6110
 7091SOL     OW32905   1.137   2.700   9.935 -0.1341 -1.2599 -0.1953
 7091SOL    HW132906   1.230   2.677   9.944  0.2048 -0.2055 -0.9687
 7091SOL    HW232907   1.120   2.669   9.847 -1.4762 -0.5847 -0.1644
 7092SOL     OW32908   1.500   0.418   4.699 -0.2514 -0.3342  0.4099
 7092SOL    HW132909   1.424   0.475   4.688 -0.9564 -1.4279 -0.4050
 7092SOL    HW232910   1.565   0.477   4.738  1.1642 -1.7550  0.1881
 7093SOL     OW32911   3.763   2.923   3.245  0.5003  0.7605  0.4421
 7093SOL    HW132912   3.742   2.859   3.314 -1.1044  0.6112 -0.1800
 7093SOL    HW232913   3.844   2.963   3.275 -0.1182  1.8012  0.7128
 7094SOL     OW32914   1.774   1.518   6.803 -0.2898  0.3652 -0.0008
 7094SOL    HW132915   1.831   1.507   6.727  0.9857 -0.2127  1.0481
 7094SOL    HW232916   1.754   1.426   6.819 -1.0918  0.8362  1.7634
 7095SOL     OW32917   2.931   1.360  12.130 -0.1844  0.1861  0.0942
 7095SOL    HW132918   2.960   1.275  12.162 -0.8500 -0.6799 -1.6242
 7095SOL    HW232919   2.902   1.392  12.215 -1.5569 -1.2117  0.1493
 7096SOL     OW32920   4.650   3.526   7.493 -0.5073 -0.0599  0.2300
 7096SOL    HW132921   4.691   3.439   7.488  1.7179  0.8737  2.1657
 7096SOL    HW232922   4.662   3.536   7.587 -0.4367 -0.6782  0.2915
 7097SOL     OW32923   2.950   2.944   5.335 -0.1145  0.0725 -0.2325
 7097SOL    HW132924   3.041   2.954   5.360 -0.3123  1.2842 -0.0113
 7097SOL    HW232925   2.919   3.035   5.338 -0.5017 -0.0313 -0.8690
 7098SOL     OW32926   3.010   3.448   7.353 -0.4850  0.4593  0.2340
 7098SOL    HW132927   3.100   3.417   7.347 -1.6184 -2.3234 -1.8566
 7098SOL    HW232928   2.975   3.401   7.429  0.2994  0.8283  0.8237
 7099SOL     OW32929   2.087   1.977   2.363  0.8715 -0.0804 -0.1999
 7099SOL    HW132930   2.033   1.898   2.362 -0.8760  1.0687  0.9748
 7099SOL    HW232931   2.018   2.036   2.395  0.4435 -0.3164 -0.6808
 7100SOL     OW32932   2.521   2.481   8.707 -0.2586 -0.1483  0.0128
 7100SOL    HW132933   2.517   2.485   8.611  2.0495 -0.9481 -0.1021
 7100SOL    HW232934   2.478   2.396   8.723 -1.8224  1.1919  2.8241
 7101SOL     OW32935   1.360   1.022   1.273  0.1708 -0.0089  0.5074
 7101SOL    HW132936   1.432   1.015   1.336 -2.0909  0.2441  3.0680
 7101SOL    HW232937   1.398   1.097   1.227 -0.3115 -1.2630 -1.9484
 7102SOL     OW32938   3.405   0.081   3.344  0.5165  0.6090 -0.1273
 7102SOL    HW132939   3.309   0.087   3.343  0.6424  2.5286 -1.5263
 7102SOL    HW232940   3.424   0.170   3.314  0.6718  1.4887  2.5555
 7103SOL     OW32941   1.588   1.488   3.979 -0.8524  0.0430 -0.2287
 7103SOL    HW132942   1.656   1.464   3.916  0.8932 -0.3813  1.8295
 7103SOL    HW232943   1.537   1.408   3.962 -0.4155 -0.1573 -0.5866
 7104SOL     OW32944   2.443   3.094   2.088  0.3814  0.1473 -0.1810
 7104SOL    HW132945   2.394   3.159   2.037 -1.7267 -0.5662  0.9420
 7104SOL    HW232946   2.387   3.019   2.067 -0.7909  1.4205 -1.6171
 7105SOL     OW32947   2.094   0.772   3.334  0.3151  0.0485 -0.2515
 7105SOL    HW132948   2.008   0.771   3.378 -0.9925  0.6396 -2.8095
 7105SOL    HW232949   2.088   0.861   3.299  0.8792  0.6701  1.2129
 7106SOL     OW32950   1.682   2.892  10.820 -0.3323 -0.2172 -0.7093
 7106SOL    HW132951   1.738   2.870  10.746  1.3139  2.4342 -0.2985
 7106SOL    HW232952   1.603   2.840  10.807 -1.5332  1.0221  1.4787
 7107SOL     OW32953   4.262   0.415   3.466  0.2659 -0.2443 -0.1916
 7107SOL    HW132954   4.287   0.497   3.509 -0.6701  0.0656 -0.2377
 7107SOL    HW232955   4.173   0.439   3.437  0.6564  1.6881  0.2128
 7108SOL     OW32956   2.429   1.154  16.787 -0.0016 -0.1782  0.2491
 7108SOL    HW132957   2.391   1.066  16.792 -0.2677 -0.1683 -1.6608
 7108SOL    HW232958   2.354   1.204  16.819 -0.3095 -0.6529  0.2661
 7109SOL     OW32959   4.260   1.270   5.669  0.2367 -0.9033 -0.1513
 7109SOL    HW132960   4.341   1.280   5.720  0.5266 -0.8384 -0.6257
 7109SOL    HW232961   4.201   1.328   5.718  0.1919 -0.4442 -0.7568
 7110SOL     OW32962   4.580   3.737   5.718 -0.1444 -0.2700 -0.0438
 7110SOL    HW132963   4.529   3.701   5.790  0.4389 -0.1196  0.4390
 7110SOL    HW232964   4.578   3.829   5.744  0.0764 -0.8720  2.0406
 7111SOL     OW32965   4.489   1.284  12.899  1.0047  0.3211 -0.0149
 7111SOL    HW132966   4.458   1.350  12.960  0.1949  0.2289 -0.3266
 7111SOL    HW232967   4.500   1.346  12.827  2.1284 -1.7262 -1.6068
 7112SOL     OW32968   0.413   2.421   0.526 -0.2153 -0.4538 -0.1932
 7112SOL    HW132969   0.475   2.405   0.455  0.3495 -0.7622  0.3738
 7112SOL    HW232970   0.410   2.514   0.546 -1.5765 -0.2201 -1.4788
 7113SOL     OW32971   2.552   0.377  13.048  0.2130  0.2270 -0.3262
 7113SOL    HW132972   2.503   0.314  13.101  0.3570 -0.4230 -0.9691
 7113SOL    HW232973   2.641   0.342  13.054 -0.5968 -1.7316  0.4119
 7114SOL     OW32974   1.188   1.381   8.448  0.1684  0.2059  0.0449
 7114SOL    HW132975   1.124   1.391   8.377 -0.4262 -0.1527  0.5382
 7114SOL    HW232976   1.151   1.434   8.518  1.3296 -2.5996  2.8011
 7115SOL     OW32977   4.021   0.944   9.385  0.7884  0.0795 -0.0574
 7115SOL    HW132978   4.097   0.962   9.439  1.9999 -0.5324 -1.5401
 7115SOL    HW232979   4.019   0.849   9.399 -3.0797  0.3993  1.4332
 7116SOL     OW32980   0.685   0.371  14.301 -0.3518 -0.7806  0.2575
 7116SOL    HW132981   0.621   0.312  14.340 -0.2720 -1.4726 -0.6703
 7116SOL    HW232982   0.746   0.312  14.256 -0.0831 -0.9013  0.7770
 7117SOL     OW32983   1.438   4.445   4.869  0.3332  0.4483  0.1143
 7117SOL    HW132984   1.353   4.402   4.871  0.4176  0.2067 -1.3007
 7117SOL    HW232985   1.488   4.386   4.925  1.7319  0.9487 -0.6021
 7118SOL     OW32986   2.200   0.769   1.263 -0.2127 -0.0938 -0.6724
 7118SOL    HW132987   2.242   0.716   1.195  0.5213 -1.1243  0.5860
 7118SOL    HW232988   2.111   0.734   1.256 -0.4430  0.3684  0.0098
 7119SOL     OW32989   4.082   3.973   9.561  0.1202  0.4278 -0.2646
 7119SOL    HW132990   4.107   4.025   9.638 -1.0581  0.0600  0.3784
 7119SOL    HW232991   4.096   4.040   9.494  0.7239  0.1689 -0.3981
 7120SOL     OW32992   1.983   2.987   1.860 -0.6520  0.1317  0.2607
 7120SOL    HW132993   1.898   2.988   1.815 -1.7047  0.7359  2.2538
 7120SOL    HW232994   2.016   3.066   1.817 -0.6881  0.9103  1.6526
 7121SOL     OW32995   2.686   1.027   6.857  0.0591 -0.4682  0.3594
 7121SOL    HW132996   2.646   1.114   6.845  1.0438  0.3229  2.8835
 7121SOL    HW232997   2.755   1.051   6.919  0.5829 -0.9620 -0.0417
 7122SOL     OW32998   0.114   3.219   3.640  0.2884 -0.4035 -0.0681
 7122SOL    HW132999   0.120   3.305   3.682  0.0587 -0.1036 -0.6573
 7122SOL    HW233000   0.023   3.192   3.650  0.5025 -0.3935  1.9971
 7123SOL     OW33001   3.393   3.642   4.124 -0.1421 -0.1924  0.6514
 7123SOL    HW133002   3.421   3.551   4.137 -0.8545 -0.1284  2.7232
 7123SOL    HW233003   3.457   3.685   4.182  0.9633 -0.6309 -0.2339
 7124SOL     OW33004   4.244   2.825   4.983  0.4182 -0.1494 -0.1944
 7124SOL    HW133005   4.334   2.856   4.995 -0.3435  1.8063  0.5072
 7124SOL    HW233006   4.206   2.822   5.071 -0.7418 -2.1429 -0.7765
 7125SOL     OW33007   1.310   4.561   5.967 -0.2424  0.8363  0.2817
 7125SOL    HW133008   1.344   4.584   6.054  0.9737 -0.3482  0.1246
 7125SOL    HW233009   1.216   4.570   5.984 -0.3245  1.7737 -0.6813
 7126SOL     OW33010   0.302   4.247  15.687 -0.0960  0.2885  1.2750
 7126SOL    HW133011   0.278   4.215  15.600  0.0356 -2.3082  2.1899
 7126SOL    HW233012   0.277   4.338  15.673  0.0203  0.0670 -0.3406
 7127SOL     OW33013   1.997   3.477   5.812  0.0268 -0.3346 -0.7186
 7127SOL    HW133014   1.985   3.451   5.720 -1.1006  2.3925 -1.3415
 7127SOL    HW233015   1.952   3.407   5.859  0.7438  0.7507  1.5511
 7128SOL     OW33016   3.968   0.215  11.804  0.2307  0.1209 -0.0260
 7128SOL    HW133017   3.961   0.295  11.752 -0.2052 -0.7242 -1.2730
 7128SOL    HW233018   3.888   0.212  11.856 -1.6707  0.6808 -2.8878
 7129SOL     OW33019   4.360   0.581   5.672  0.8389  0.2961 -0.1365
 7129SOL    HW133020   4.310   0.595   5.753  0.8529 -1.0677  0.1020
 7129SOL    HW233021   4.402   0.667   5.664  1.5520 -0.2666 -2.4531
 7130SOL     OW33022   3.881   0.627   6.362  0.4962  0.2029  0.0934
 7130SOL    HW133023   3.937   0.701   6.339 -0.1894  0.3565 -1.0835
 7130SOL    HW233024   3.795   0.668   6.376  1.2690  0.9142  2.7162
 7131SOL     OW33025   3.059   1.559  10.473 -0.1758  0.6438  0.1165
 7131SOL    HW133026   3.029   1.638  10.427  0.6579  0.1675 -1.2450
 7131SOL    HW233027   3.000   1.495  10.433 -0.6773  0.5276  1.0298
 7132SOL     OW33028   0.684   1.282  11.602 -0.0449  0.2930  0.5208
 7132SOL    HW133029   0.661   1.350  11.538  0.3382  1.3785  1.5365
 7132SOL    HW233030   0.738   1.235  11.539 -2.5172 -0.8506 -0.7583
 7133SOL     OW33031   3.193   1.740   5.538  0.0034  0.1424 -0.1195
 7133SOL    HW133032   3.220   1.650   5.520  0.4150  0.2928 -0.2708
 7133SOL    HW233033   3.281   1.779   5.530 -0.6962  2.1763  2.0483
 7134SOL     OW33034   2.870   0.906   8.668  0.2440  0.4863 -0.1420
 7134SOL    HW133035   2.855   1.000   8.652  0.6224  0.5304 -0.2439
 7134SOL    HW233036   2.852   0.897   8.761 -2.0867 -1.7409 -0.7887
 7135SOL     OW33037   2.779   4.307   9.413 -0.5224  0.5117  0.1804
 7135SOL    HW133038   2.807   4.393   9.446  0.3486 -0.1511  1.1703
 7135SOL    HW233039   2.715   4.283   9.480 -0.2104 -2.4486 -0.6048
 7136SOL     OW33040   2.695   1.706  17.221  0.1278 -0.9949 -0.4187
 7136SOL    HW133041   2.789   1.704  17.239  0.4334  2.2251 -1.5846
 7136SOL    HW233042   2.684   1.661  17.138 -0.1378 -1.6900 -0.0122
 7137SOL     OW33043   2.417   1.604   1.729 -0.8151 -0.1590 -0.1690
 7137SOL    HW133044   2.354   1.533   1.740  0.4261 -1.2952 -0.3550
 7137SOL    HW233045   2.393   1.668   1.796 -1.7895  0.7278 -1.3557
 7138SOL     OW33046   3.289   2.966   7.423  0.0495 -0.0100  0.0284
 7138SOL    HW133047   3.357   3.005   7.368  1.2991  0.7352  2.1112
 7138SOL    HW233048   3.210   3.014   7.401  0.1241  0.6763  1.2297
 7139SOL     OW33049   3.277   4.146   9.333  0.1314  0.1092 -0.0128
 7139SOL    HW133050   3.326   4.110   9.258 -2.0412 -1.2873 -0.7662
 7139SOL    HW233051   3.207   4.081   9.344  0.9284 -0.7750 -0.1492
 7140SOL     OW33052   1.671   1.155   4.664 -0.0710 -0.1219 -0.3676
 7140SOL    HW133053   1.671   1.196   4.577 -0.2104  1.1797  0.2549
 7140SOL    HW233054   1.735   1.085   4.650 -1.1126 -1.2818  0.6524
 7141SOL     OW33055   3.396   4.204   4.854 -0.4606  0.2001 -0.0466
 7141SOL    HW133056   3.381   4.269   4.785 -4.0575 -1.3718 -0.7558
 7141SOL    HW233057   3.463   4.151   4.812 -1.4732 -0.7885 -0.4033
 7142SOL     OW33058   0.552   4.519   4.169  0.3326  0.5016  0.2745
 7142SOL    HW133059   0.606   4.596   4.186  3.2367 -1.0954 -1.7129
 7142SOL    HW233060   0.466   4.543   4.204  0.0389 -1.2799  0.8003
 7143SOL     OW33061   2.586   2.631   7.278 -0.3268 -0.4472  0.0920
 7143SOL    HW133062   2.649   2.561   7.296 -0.9952 -1.7512 -2.5517
 7143SOL    HW233063   2.614   2.704   7.333  2.6919  0.3721 -2.5009
 7144SOL     OW33064   3.912   4.483   3.001  0.3704 -0.1922 -0.3189
 7144SOL    HW133065   3.907   4.393   3.031 -0.0994  0.6996  2.3400
 7144SOL    HW233066   3.822   4.502   2.977  0.1258 -0.4178  0.4265
 7145SOL     OW33067   0.630   2.250   5.870 -0.0989  0.0258  0.2409
 7145SOL    HW133068   0.588   2.244   5.956  0.5854  0.4752  0.6042
 7145SOL    HW233069   0.623   2.343   5.848  2.4411 -0.0039 -0.7113
 7146SOL     OW33070   1.689   1.849   0.971  0.3056 -0.4956  0.3799
 7146SOL    HW133071   1.645   1.832   0.888 -0.8403  0.1268  0.8566
 7146SOL    HW233072   1.641   1.925   1.003  0.9770 -0.2322  0.7601
 7147SOL     OW33073   2.976   3.604   9.820 -0.2002 -0.2094 -0.3861
 7147SOL    HW133074   3.033   3.540   9.861 -1.2857 -1.6587 -1.1443
 7147SOL    HW233075   2.903   3.604   9.883 -1.2809  1.1843 -1.6278
 7148SOL     OW33076   3.575   3.835  10.289 -0.1384 -0.9406 -0.6113
 7148SOL    HW133077   3.503   3.776  10.310  0.6971 -2.2813 -1.4650
 7148SOL    HW233078   3.606   3.807  10.203 -0.3674  0.4246 -1.1290
 7149SOL     OW33079   2.775   3.754   9.229  0.2373 -0.1646  0.6349
 7149SOL    HW133080   2.844   3.798   9.180 -0.5482  0.9067  0.4659
 7149SOL    HW233081   2.824   3.723   9.305  0.8731  0.2181  0.3737
 7150SOL     OW33082   1.942   2.696   6.119  0.0887  0.6368 -0.4178
 7150SOL    HW133083   2.027   2.657   6.099  0.1381  0.1904  0.6405
 7150SOL    HW233084   1.975   2.764   6.178  2.5343 -0.0245 -1.0544
 7151SOL     OW33085   2.955   0.409   1.565 -0.1749  0.0619 -0.0112
 7151SOL    HW133086   2.927   0.410   1.657  0.3643  2.2390  0.1092
 7151SOL    HW233087   2.985   0.318   1.568 -1.5062 -0.3427  1.3451
 7152SOL     OW33088   1.622   2.827   0.640  0.6861  0.0194  0.5084
 7152SOL    HW133089   1.683   2.814   0.568  0.5531  0.2486  0.3558
 7152SOL    HW233090   1.683   2.865   0.703 -0.8260  0.5284  1.6704
 7153SOL     OW33091   1.073   3.168   2.508  0.2362  0.1313 -0.3057
 7153SOL    HW133092   1.090   3.234   2.441  4.1547 -1.7914 -1.2134
 7153SOL    HW233093   0.983   3.145   2.482  0.4578 -2.9784  1.6802
 7154SOL     OW33094   0.018   3.316   6.539 -0.0786  0.1894  0.2820
 7154SOL    HW133095   0.046   3.283   6.625  0.7596  2.5089  0.9161
 7154SOL    HW233096   4.666   3.282   6.538 -0.1890  0.5624 -2.1458
 7155SOL     OW33097   1.972   4.022   4.597  0.2041  0.4559  0.2138
 7155SOL    HW133098   1.895   3.964   4.602 -0.0229  0.9833  2.6765
 7155SOL    HW233099   1.972   4.038   4.503  0.2522  0.8779  0.2896
 7156SOL     OW33100   0.583   1.530   4.655  0.0273 -0.1727 -0.0331
 7156SOL    HW133101   0.653   1.464   4.657  0.0978 -0.0698  1.3757
 7156SOL    HW233102   0.612   1.599   4.596  2.1192 -1.0820 -0.0783
 7157SOL     OW33103   2.906   1.788  17.041 -0.4089 -0.6991  0.1081
 7157SOL    HW133104   2.891   1.855  16.975 -1.2278 -1.2184 -0.2391
 7157SOL    HW233105   2.991   1.753  17.015 -0.0061  0.1397  0.3106
 7158SOL     OW33106   4.579   2.022  11.339 -0.0488  0.4789 -1.0799
 7158SOL    HW133107   4.638   1.949  11.319  1.8514  1.5181  0.6899
 7158SOL    HW233108   4.498   1.976  11.361  1.2164  0.0329  2.5304
 7159SOL     OW33109   1.903   2.525  16.869 -0.1350 -0.0292 -0.3162
 7159SOL    HW133110   1.916   2.456  16.934  0.6061  1.1341  0.7587
 7159SOL    HW233111   1.824   2.565  16.906  1.3604  2.4176  0.1945
 7160SOL     OW33112   3.617   0.966   4.802 -0.4002  0.0182  0.3324
 7160SOL    HW133113   3.648   0.895   4.859  1.5979  0.5327 -0.1171
 7160SOL    HW233114   3.670   1.041   4.828 -1.2125  0.1979  1.4921
 7161SOL     OW33115   3.264   0.553   1.477 -0.5293  0.3225 -0.1279
 7161SOL    HW133116   3.326   0.487   1.506 -1.5317 -0.3689  0.4365
 7161SOL    HW233117   3.309   0.618   1.422  1.8182  0.7934  2.3378
 7162SOL     OW33118   4.535   1.211   7.933 -0.2500 -0.0821  0.6215
 7162SOL    HW133119   4.591   1.206   7.856 -0.4225 -1.1664  0.5720
 7162SOL    HW233120   4.494   1.293   7.904 -2.1741 -1.4850 -0.6759
 7163SOL     OW33121   2.530   3.828   6.708  0.3513  0.0884 -0.1328
 7163SOL    HW133122   2.537   3.747   6.656  1.9833 -0.2894  0.6886
 7163SOL    HW233123   2.567   3.896   6.652  1.3800 -0.8796 -0.6431
 7164SOL     OW33124   4.709   3.129  15.230  0.2425 -0.2751  0.2925
 7164SOL    HW133125   4.693   3.192  15.159  1.4790 -0.3719 -0.0716
 7164SOL    HW233126   0.011   3.060  15.177  2.6713  0.8217  0.6652
 7165SOL     OW33127   0.779   2.290   3.705 -0.4246  0.5443 -0.2237
 7165SOL    HW133128   0.798   2.293   3.799 -1.1217 -0.2785 -0.0604
 7165SOL    HW233129   0.867   2.320   3.679 -0.4048  1.8298  1.3675
 7166SOL     OW33130   2.485   0.993   1.942 -0.1299 -0.0314  0.2077
 7166SOL    HW133131   2.422   1.018   2.010  0.2863  0.0466  0.5700
 7166SOL    HW233132   2.448   0.910   1.911  0.8108 -0.0935 -0.7324
 7167SOL     OW33133   3.979   1.818  15.773 -0.0956  0.1669 -0.2664
 7167SOL    HW133134   3.955   1.755  15.842  2.8754  0.2889  0.8812
 7167SOL    HW233135   4.061   1.859  15.800  0.0931 -2.4622  3.1394
 7168SOL     OW33136   1.663   2.161   6.481 -0.2526 -0.8218 -0.2385
 7168SOL    HW133137   1.594   2.226   6.475  0.1139 -0.6236 -2.5577
 7168SOL    HW233138   1.733   2.213   6.521 -1.1408  0.2534 -0.0758
 7169SOL     OW33139   4.042   0.081   7.702 -0.0783 -0.5523  0.5357
 7169SOL    HW133140   4.090   0.100   7.621  1.4980  3.8474  2.4875
 7169SOL    HW233141   4.092   0.124   7.772 -0.1008  1.9034 -0.9367
 7170SOL     OW33142   2.920   0.549  11.634 -0.3021 -0.5526  0.7799
 7170SOL    HW133143   2.879   0.571  11.718 -0.9697  0.9903  0.0514
 7170SOL    HW233144   2.934   0.637  11.600  0.6275 -0.7508  0.6418
 7171SOL     OW33145   1.219   4.631  16.598  0.4383  0.0124  0.1616
 7171SOL    HW133146   1.157   4.605  16.530  0.2179  0.0943  0.3286
 7171SOL    HW233147   1.285   4.562  16.601  0.7916  0.2326 -2.4783
 7172SOL     OW33148   0.178   0.847   2.579 -0.0831  0.1695 -0.1673
 7172SOL    HW133149   0.266   0.822   2.607 -0.7768  0.1491  1.9526
 7172SOL    HW233150   0.183   0.820   2.487  0.0579  0.9654 -0.3946
 7173SOL     OW33151   0.535   2.393   3.778  0.5266 -0.1785 -0.0275
 7173SOL    HW133152   0.467   2.357   3.720 -0.6231  1.5147  0.2691
 7173SOL    HW233153   0.610   2.352   3.735  1.1392  0.2288  0.6588
 7174SOL     OW33154   1.832   4.203   8.883 -0.0926 -0.3974  0.2550
 7174SOL    HW133155   1.758   4.195   8.944  0.6154  0.5601  1.2350
 7174SOL    HW233156   1.806   4.132   8.825  0.6663  0.4159 -1.0718
 7175SOL     OW33157   4.458   3.514   4.940 -0.5656  0.0253 -0.0028
 7175SOL    HW133158   4.545   3.552   4.929 -0.0843 -1.2333 -0.5119
 7175SOL    HW233159   4.425   3.575   5.007 -0.7346  1.4179 -1.3576
 7176SOL     OW33160   1.054   4.551   3.400 -0.3696  0.4675  0.3812
 7176SOL    HW133161   1.101   4.470   3.387  0.4190  0.5949  2.4327
 7176SOL    HW233162   1.055   4.591   3.313  0.6849  0.7161  0.5159
 7177SOL     OW33163   0.688   0.879   2.438  0.2728 -0.2883 -0.5070
 7177SOL    HW133164   0.619   0.822   2.404  1.5565 -1.1396 -1.6844
 7177SOL    HW233165   0.646   0.894   2.523  1.0104  0.7980 -0.3294
 7178SOL     OW33166   1.943   3.530   9.603 -0.1550  0.9040 -0.2933
 7178SOL    HW133167   1.879   3.475   9.558 -0.5229 -0.5978  2.0813
 7178SOL    HW233168   2.001   3.548   9.529  0.9675 -1.0250  0.1406
 7179SOL     OW33169   4.073   2.874   8.387  0.3927 -0.0180 -0.4817
 7179SOL    HW133170   4.030   2.858   8.303  0.1432 -4.4142  0.4899
 7179SOL    HW233171   4.119   2.958   8.381  2.1524 -1.0744 -1.6914
 7180SOL     OW33172   1.151   1.623   2.952 -0.7842  0.4106 -0.2936
 7180SOL    HW133173   1.216   1.563   2.914  0.3514  2.6315 -1.8632
 7180SOL    HW233174   1.082   1.625   2.885  0.6899  0.7959 -1.7912
 7181SOL     OW33175   1.730   2.929   7.847 -0.1005 -0.5213 -0.4197
 7181SOL    HW133176   1.782   2.968   7.776  1.7052  1.0704  1.7924
 7181SOL    HW233177   1.733   2.837   7.821 -0.5092 -1.4455  2.8650
 7182SOL     OW33178   0.654   0.562   9.029  0.1853  0.5553  0.5835
 7182SOL    HW133179   0.582   0.624   9.021 -0.2927 -0.3283 -2.0153
 7182SOL    HW233180   0.627   0.541   9.118  1.5948 -4.4357 -0.1318
 7183SOL     OW33181   3.114   1.231   5.751 -0.1005  0.2984  0.7181
 7183SOL    HW133182   3.198   1.248   5.708 -1.1830 -0.0967 -1.5551
 7183SOL    HW233183   3.093   1.324   5.760 -1.5997 -0.1598  1.9512
 7184SOL     OW33184   4.005   3.440   5.903  0.2445  0.0209 -0.1708
 7184SOL    HW133185   4.061   3.378   5.949 -1.0756 -0.1183  1.2736
 7184SOL    HW233186   3.949   3.374   5.862 -0.8877  1.5721 -1.1058
 7185SOL     OW33187   1.849   4.596   4.280  0.3615 -0.1659  0.0788
 7185SOL    HW133188   1.818   4.675   4.325  0.9758 -0.7618  1.5425
 7185SOL    HW233189   1.830   4.533   4.349  0.5526 -1.6473 -1.2311
 7186SOL     OW33190   3.612   4.680  16.495  0.3331 -0.2313  0.7439
 7186SOL    HW133191   3.669   4.603  16.492 -1.4884 -1.5517  0.2694
 7186SOL    HW233192   3.672   0.017  16.504  1.6319 -1.3598  1.2944
 7187SOL     OW33193   1.673   0.308  14.930 -0.4378 -0.3086 -0.0961
 7187SOL    HW133194   1.737   0.328  14.861 -0.3949  1.2638  0.3953
 7187SOL    HW233195   1.730   0.272  14.998  0.0388 -2.5601 -1.6818
 7188SOL     OW33196   3.266   3.174   2.785 -0.3310 -0.3256  0.3564
 7188SOL    HW133197   3.287   3.238   2.854  0.6266 -0.5340  0.2674
 7188SOL    HW233198   3.346   3.121   2.783  0.4588  0.8108  1.5123
 7189SOL     OW33199   2.180   2.205  14.275  0.1558 -0.2866 -0.1663
 7189SOL    HW133200   2.197   2.258  14.353  5.1366  0.1775 -1.5924
 7189SOL    HW233201   2.196   2.118  14.313  1.2474 -0.1248 -0.2616
 7190SOL     OW33202   0.563   1.595   8.749 -0.6953 -0.2734 -0.0029
 7190SOL    HW133203   0.526   1.523   8.699 -0.2720  0.0623 -0.8046
 7190SOL    HW233204   0.542   1.574   8.840  3.0011 -0.8104  0.7455
 7191SOL     OW33205   2.851   4.388   4.469 -0.3373  0.6288  0.3863
 7191SOL    HW133206   2.925   4.438   4.434 -1.4568  2.0205  0.0081
 7191SOL    HW233207   2.870   4.391   4.563  1.4692 -0.9330  0.0541
 7192SOL     OW33208   3.340   0.510   8.872 -0.3283 -0.1238 -0.4251
 7192SOL    HW133209   3.394   0.471   8.941 -1.3219  1.2180  1.1031
 7192SOL    HW233210   3.282   0.576   8.909  1.1103  0.7821  0.2122
 7193SOL     OW33211   3.240   1.254   3.824 -1.0836  0.8327  0.0587
 7193SOL    HW133212   3.181   1.300   3.764  0.4170  0.1352 -1.9418
 7193SOL    HW233213   3.207   1.292   3.905 -1.5719 -0.4615  0.4604
 7194SOL     OW33214   2.489   0.143   6.347 -0.3562  0.0578  0.1387
 7194SOL    HW133215   2.528   0.164   6.431  2.2872  0.7136 -1.2477
 7194SOL    HW233216   2.486   0.223   6.295 -0.1275  0.7200  1.1542
 7195SOL     OW33217   3.300   0.105   6.089 -0.1949  0.3807  0.6563
 7195SOL    HW133218   3.342   0.086   6.006 -3.7283 -0.0984 -1.0155
 7195SOL    HW233219   3.209   0.098   6.060 -0.5061  1.2648  1.4074
 7196SOL     OW33220   4.544   2.752   2.678  0.0256 -0.4731  0.1042
 7196SOL    HW133221   4.582   2.700   2.749 -0.5064  1.7971  2.0442
 7196SOL    HW233222   4.563   2.691   2.607 -1.9927 -0.4024 -0.5164
 7197SOL     OW33223   4.017   0.438   3.384 -0.5164 -0.3863 -0.2010
 7197SOL    HW133224   3.988   0.516   3.337 -0.9286  0.2825  1.1848
 7197SOL    HW233225   3.973   0.371   3.331 -1.0107 -1.6020  1.7648
 7198SOL     OW33226   2.381   0.737   4.841  0.1342 -0.6041 -0.0318
 7198SOL    HW133227   2.414   0.816   4.882 -1.5290  0.0562  0.0057
 7198SOL    HW233228   2.309   0.715   4.900  0.0316 -1.1052 -0.3361
 7199SOL     OW33229   0.781   2.705   3.702  0.4918 -0.2376 -0.0089
 7199SOL    HW133230   0.790   2.799   3.685  2.6161 -0.0211  2.3864
 7199SOL    HW233231   0.862   2.678   3.660  0.7100 -0.3764  0.5027
 7200SOL     OW33232   1.973   1.587  14.985  0.3187  0.2851  0.1221
 7200SOL    HW133233   1.972   1.506  15.037  1.6298  1.3828  1.8532
 7200SOL    HW233234   2.069   1.589  14.990  0.3072 -0.1178  0.4319
 7201SOL     OW33235   3.738   3.974   3.431  0.3088  0.3702  0.3352
 7201SOL    HW133236   3.813   3.976   3.490  2.1074 -1.2356 -1.8799
 7201SOL    HW233237   3.724   4.068   3.418 -1.9123 -0.0879 -0.6456
 7202SOL     OW33238   0.484   3.090  14.581  0.1520 -0.4910 -0.0245
 7202SOL    HW133239   0.578   3.101  14.563  0.0341 -0.1256 -0.4073
 7202SOL    HW233240   0.469   3.149  14.655 -0.8957  0.6801 -1.1584
 7203SOL     OW33241   0.013   2.700   7.068  0.0758  0.1032 -0.1024
 7203SOL    HW133242   4.698   2.693   7.149  2.3465 -0.0096  1.3539
 7203SOL    HW233243   4.703   2.774   7.029 -1.2155 -0.9276 -0.5137
 7204SOL     OW33244   1.677   2.264  17.125  0.0818  0.2113 -0.2739
 7204SOL    HW133245   1.740   2.327  17.162  1.0205 -1.0852  0.3393
 7204SOL    HW233246   1.590   2.300  17.146  0.8237  2.1729 -0.5213
 7205SOL     OW33247   3.944   4.082   6.651  0.2098  0.4852  0.3593
 7205SOL    HW133248   3.912   4.167   6.679  0.7862  0.2734  1.6940
 7205SOL    HW233249   4.037   4.098   6.632 -0.1365  1.0111 -0.8659
 7206SOL     OW33250   1.049   0.812   2.201 -0.3254 -0.0090 -0.0284
 7206SOL    HW133251   1.099   0.888   2.173  1.9744 -1.4138  0.2624
 7206SOL    HW233252   1.109   0.787   2.272  0.4924 -1.2814 -1.1703
 7207SOL     OW33253   3.292   0.966   4.036  0.0186 -0.3775  0.6490
 7207SOL    HW133254   3.324   0.962   3.946 -1.2277  0.7680  0.1648
 7207SOL    HW233255   3.368   1.011   4.073  0.0495 -0.3242  0.5196
 7208SOL     OW33256   1.353   1.259   6.664 -0.1418  0.0665  0.6738
 7208SOL    HW133257   1.398   1.296   6.740 -0.0649  1.3595 -0.0023
 7208SOL    HW233258   1.349   1.166   6.687  1.8074 -0.3632 -0.7216
 7209SOL     OW33259   3.124   2.041   8.792  0.4268  0.3035  0.1141
 7209SOL    HW133260   3.125   2.136   8.798 -2.0837  0.3300  0.2464
 7209SOL    HW233261   3.171   2.024   8.710 -0.5924  0.8273 -0.5771
 7210SOL     OW33262   3.655   0.572   7.658  0.0468  0.7346 -0.1088
 7210SOL    HW133263   3.612   0.529   7.731  2.5230 -1.5203  0.0019
 7210SOL    HW233264   3.716   0.502   7.633 -0.1483 -0.9293  4.1235
 7211SOL     OW33265   0.802   3.170  10.772  0.1646 -0.2181 -0.2322
 7211SOL    HW133266   0.783   3.117  10.695 -2.6975 -0.4539  0.6282
 7211SOL    HW233267   0.805   3.104  10.842  0.6986  1.5740  1.4076
 7212SOL     OW33268   2.281   1.287   3.489  0.0378 -0.0405  0.9827
 7212SOL    HW133269   2.204   1.280   3.432  1.4447  1.9316 -1.1262
 7212SOL    HW233270   2.278   1.369   3.537 -1.2377 -0.1141  1.0294
 7213SOL     OW33271   0.118   3.336   2.157 -0.3228 -0.4476 -0.1484
 7213SOL    HW133272   0.183   3.318   2.225 -0.5760 -1.1535 -0.0957
 7213SOL    HW233273   0.036   3.344   2.206 -0.3206  1.1858 -0.4029
 7214SOL     OW33274   3.278   1.419  12.740  0.2210  0.2694 -0.3000
 7214SOL    HW133275   3.333   1.370  12.679  1.2689 -0.1467  0.9697
 7214SOL    HW233276   3.197   1.445  12.696  0.2687 -0.3548 -0.7561
 7215SOL     OW33277   1.865   1.345   6.200  0.2410 -0.5169  0.3279
 7215SOL    HW133278   1.940   1.373   6.147  0.0561 -0.6628 -0.0076
 7215SOL    HW233279   1.902   1.278   6.257  1.2021  1.0031  1.4715
 7216SOL     OW33280   0.751   3.490   5.071  0.2355 -0.4511  0.2402
 7216SOL    HW133281   0.684   3.553   5.098  3.8286  3.1431  0.8850
 7216SOL    HW233282   0.825   3.537   5.110  1.4121 -2.0693 -0.0432
 7217SOL     OW33283   3.763   3.852  13.791 -0.6876  0.7020  0.6816
 7217SOL    HW133284   3.713   3.834  13.870 -0.0770  0.5036  1.0262
 7217SOL    HW233285   3.693   3.870  13.729  0.4060 -1.2339 -1.1279
 7218SOL     OW33286   0.915   4.451   0.103  0.6454 -0.5761  0.5451
 7218SOL    HW133287   0.874   4.477   0.186  0.1688  0.8554 -0.1341
 7218SOL    HW233288   0.836   4.457   0.051  0.9435 -0.2518  0.1286
 7219SOL     OW33289   3.639   4.084  12.038 -0.0024  0.3412  0.3743
 7219SOL    HW133290   3.550   4.055  12.019  0.0157  0.2312  0.4569
 7219SOL    HW233291   3.625   4.161  12.092  0.3682  2.6549 -2.8141
 7220SOL     OW33292   4.579   4.047  16.477 -0.2655 -0.0815 -0.5701
 7220SOL    HW133293   4.550   3.985  16.409 -0.7099 -0.4223 -0.0747
 7220SOL    HW233294   4.557   3.995  16.555 -0.3822 -1.0872 -1.2786
 7221SOL     OW33295   2.880   4.642  14.160  0.2477 -0.2493  0.3442
 7221SOL    HW133296   2.891   4.737  14.159  0.9200 -0.3180  1.0047
 7221SOL    HW233297   2.967   4.603  14.166  2.2150  3.8804 -1.9414
 7222SOL     OW33298   3.898   0.548   5.074 -0.2327 -0.6755 -0.4938
 7222SOL    HW133299   3.845   0.513   5.146 -0.0705 -1.2821 -0.6695
 7222SOL    HW233300   3.943   0.472   5.036 -0.3855 -1.9412  1.8252
 7223SOL     OW33301   1.048   0.594   6.574  0.2258  0.1756 -0.6138
 7223SOL    HW133302   1.022   0.678   6.536  2.1702  0.1413 -2.0284
 7223SOL    HW233303   1.113   0.630   6.634 -0.0138  0.9791 -0.8394
 7224SOL     OW33304   3.705   3.828  13.219  0.0830 -0.0393 -0.6671
 7224SOL    HW133305   3.761   3.836  13.296 -0.1919  0.4121 -0.5148
 7224SOL    HW233306   3.631   3.789  13.267  0.6880 -1.7229 -1.1140
 7225SOL     OW33307   4.177   2.586   0.469 -0.2362 -0.0763 -0.0939
 7225SOL    HW133308   4.094   2.592   0.516 -0.2639  0.3969 -0.1986
 7225SOL    HW233309   4.237   2.574   0.543 -1.5005  1.2636  1.1498
 7226SOL     OW33310   0.948   3.439   3.138  0.2637  0.1360 -0.0709
 7226SOL    HW133311   1.014   3.447   3.207  1.8918  2.4706 -1.8744
 7226SOL    HW233312   0.923   3.348   3.149  0.0312 -0.1301 -2.6967
 7227SOL     OW33313   4.033   3.304  16.901  0.0756 -0.2498  0.1386
 7227SOL    HW133314   4.018   3.241  16.971 -3.1525 -2.7750 -2.8017
 7227SOL    HW233315   3.975   3.270  16.833 -2.3086  0.4213  1.8482
 7228SOL     OW33316   2.444   4.302   4.772  0.0053  0.8001  0.0652
 7228SOL    HW133317   2.497   4.251   4.710  1.6695 -0.6649  2.6688
 7228SOL    HW233318   2.490   4.385   4.763  0.3739  0.3955 -1.6544
 7229SOL     OW33319   0.287   1.181   4.373  0.6853 -0.2592 -0.1622
 7229SOL    HW133320   0.352   1.234   4.420 -0.7173  0.6044  0.8092
 7229SOL    HW233321   0.254   1.121   4.441 -0.5007  0.8153  0.2165
 7230SOL     OW33322   2.204   0.470  17.707 -0.1034  0.0238  0.3428
 7230SOL    HW133323   2.162   0.386  17.727  2.3062 -1.3875 -0.5034
 7230SOL    HW233324   2.296   0.466  17.732  0.2646  0.7505 -0.8979
 7231SOL     OW33325   3.282   0.308   9.415  0.0147  0.1683  0.4298
 7231SOL    HW133326   3.209   0.263   9.458  0.2374 -0.7913 -0.2027
 7231SOL    HW233327   3.359   0.254   9.427  0.2627  0.8480  1.9189
 7232SOL     OW33328   1.190   1.864   4.141 -0.1946  0.2041  0.0841
 7232SOL    HW133329   1.242   1.944   4.141  2.6880 -1.6417  2.9423
 7232SOL    HW233330   1.256   1.795   4.131 -1.0214 -0.7537  1.0996
 7233SOL     OW33331   2.986   4.445   2.784  0.6086  0.1434 -0.1445
 7233SOL    HW133332   2.954   4.493   2.861 -0.6002  0.4566 -0.8439
 7233SOL    HW233333   3.079   4.466   2.791  0.5517 -0.1525  1.6442
 7234SOL     OW33334   4.245   2.265   7.759  0.0897  0.0222 -0.6268
 7234SOL    HW133335   4.286   2.311   7.686  2.2871 -2.2323 -0.8019
 7234SOL    HW233336   4.321   2.264   7.817 -2.7669  0.6906  3.1075
 7235SOL     OW33337   2.734   4.034   5.020  0.0733 -0.2359 -0.0623
 7235SOL    HW133338   2.748   4.065   5.110 -0.8842  1.5351 -0.5113
 7235SOL    HW233339   2.649   4.078   5.013  0.6594  0.5583 -1.9796
 7236SOL     OW33340   1.531   4.450   8.299  0.1820 -0.4094  0.0749
 7236SOL    HW133341   1.592   4.411   8.362 -1.3051 -3.4927 -0.3798
 7236SOL    HW233342   1.523   4.387   8.228 -3.1660 -0.3123  0.3429
 7237SOL     OW33343   3.008   1.805   2.275  0.0036  0.4634  0.0587
 7237SOL    HW133344   3.086   1.839   2.231  0.0714 -0.2730 -0.3808
 7237SOL    HW233345   2.943   1.819   2.205  1.6944 -0.6643 -1.7329
 7238SOL     OW33346   1.048   1.533   7.891  0.0043 -0.7341  0.3131
 7238SOL    HW133347   1.072   1.615   7.935 -0.7434 -1.4090  1.9498
 7238SOL    HW233348   1.049   1.557   7.798  0.0023 -2.9899 -0.2679
 7239SOL     OW33349   1.769   4.515   5.379  0.5434  0.3782 -0.0787
 7239SOL    HW133350   1.833   4.537   5.446  1.8660 -0.8798 -0.9467
 7239SOL    HW233351   1.702   4.583   5.392  0.2999  0.3898 -1.3922
 7240SOL     OW33352   0.982   0.519   6.011 -0.1658  0.7054 -0.2341
 7240SOL    HW133353   1.055   0.537   5.952  0.4129  1.9778  0.8702
 7240SOL    HW233354   0.917   0.482   5.952  1.0706  2.0739 -2.4478
 7241SOL     OW33355   2.484   2.401   6.972  0.0489  0.3278 -0.7017
 7241SOL    HW133356   2.450   2.356   6.895  2.8356 -0.7490 -1.3003
 7241SOL    HW233357   2.577   2.381   6.978  0.3020  1.3320 -1.3707
 7242SOL     OW33358   4.050   1.264  15.376  0.2969  0.6134  0.1923
 7242SOL    HW133359   3.984   1.195  15.386  1.5323 -0.6082 -0.1420
 7242SOL    HW233360   4.120   1.227  15.429  0.9718  2.7963  0.8146
 7243SOL     OW33361   3.158   1.856  15.085 -0.5973  0.0725 -0.0591
 7243SOL    HW133362   3.206   1.914  15.145  1.9407 -1.4337 -0.6039
 7243SOL    HW233363   3.160   1.910  15.006 -2.1882  1.4484  0.8356
 7244SOL     OW33364   1.375   2.935   0.616  0.1496  0.1966 -0.3394
 7244SOL    HW133365   1.363   2.902   0.705 -0.2406  1.3287  0.0216
 7244SOL    HW233366   1.459   2.891   0.605  1.9489  3.4466  0.3472
 7245SOL     OW33367   4.237   1.646   1.919  0.6733  0.7314  0.3114
 7245SOL    HW133368   4.237   1.709   1.846 -1.7146  1.0605  0.6235
 7245SOL    HW233369   4.147   1.647   1.951  0.7113  0.7807  0.4144
 7246SOL     OW33370   4.687   0.475  15.139  0.0638 -0.5175 -0.2441
 7246SOL    HW133371   4.617   0.411  15.143 -1.9724  1.8098  1.0972
 7246SOL    HW233372   0.021   0.413  15.119 -1.1447 -1.5695 -1.2326
 7247SOL     OW33373   2.765   2.260   6.059  0.6787 -0.3453  0.0520
 7247SOL    HW133374   2.677   2.230   6.040 -0.2320  0.8762  2.2429
 7247SOL    HW233375   2.809   2.178   6.080  2.0529  0.7938  1.7014
 7248SOL     OW33376   3.731   0.155  12.372  0.1588 -0.5554  0.0557
 7248SOL    HW133377   3.672   0.135  12.300 -0.0429 -3.0873  0.9450
 7248SOL    HW233378   3.787   0.222  12.332 -0.0589  1.5430  3.2820
 7249SOL     OW33379   2.333   1.333  13.632 -0.2822 -0.3364 -0.4483
 7249SOL    HW133380   2.421   1.329  13.597 -0.6754 -3.1833 -1.0979
 7249SOL    HW233381   2.290   1.291  13.558 -1.2110 -0.3990  0.1218
 7250SOL     OW33382   2.531   1.837   6.903  0.1322  0.1740  0.3758
 7250SOL    HW133383   2.466   1.901   6.933  2.2559  1.4278  2.3144
 7250SOL    HW233384   2.614   1.878   6.927  0.6156  0.3794 -1.6804
 7251SOL     OW33385   3.465   1.621  11.748  0.7028 -0.3640 -0.5903
 7251SOL    HW133386   3.423   1.558  11.689 -1.2383 -1.0462  1.4799
 7251SOL    HW233387   3.546   1.633  11.698  0.6536 -0.0514 -0.5955
 7252SOL     OW33388   0.803   1.365   4.624 -0.4016  0.4331  0.0782
 7252SOL    HW133389   0.761   1.279   4.620 -3.5819  1.8974  1.5740
 7252SOL    HW233390   0.888   1.343   4.585 -0.3867  1.8352 -0.6613
 7253SOL     OW33391   1.088   1.844   1.067 -0.2989 -0.1849 -0.3029
 7253SOL    HW133392   1.052   1.773   1.014 -2.8389  0.0579  1.0982
 7253SOL    HW233393   1.118   1.800   1.146 -0.2868  0.7074  0.1802
 7254SOL     OW33394   2.673   4.483  11.721 -0.6385  0.0023  0.4573
 7254SOL    HW133395   2.609   4.515  11.785 -0.0321  0.3037  0.9135
 7254SOL    HW233396   2.684   4.555  11.659 -2.2401 -0.0698  0.0868
 7255SOL     OW33397   4.026   1.804   8.749  0.2766  0.2235 -0.4035
 7255SOL    HW133398   4.047   1.784   8.840 -0.2833  0.6261 -0.1924
 7255SOL    HW233399   4.028   1.899   8.758  1.5998 -0.1055  2.5702
 7256SOL     OW33400   2.104   4.513   5.313 -0.0131  0.5046  0.4565
 7256SOL    HW133401   2.165   4.510   5.387  1.4817  1.5693 -0.7307
 7256SOL    HW233402   2.084   4.419   5.315  1.3014  0.2400  1.1187
 7257SOL     OW33403   1.070   1.043   1.244  0.3888 -0.2893 -0.2876
 7257SOL    HW133404   1.163   1.046   1.224  0.3973  0.6715 -0.1320
 7257SOL    HW233405   1.053   0.966   1.189  1.0799 -0.5918 -0.0661
 7258SOL     OW33406   4.683   2.942  17.703 -0.4344 -0.1394  0.0835
 7258SOL    HW133407   4.614   2.892   0.001  0.3738 -2.1396 -0.8971
 7258SOL    HW233408   0.004   2.980   0.023  0.1065 -2.6697  1.0846
 7259SOL     OW33409   2.938   0.048  13.500 -0.4768  0.0777 -0.2456
 7259SOL    HW133410   2.938   0.053  13.596  2.2936  0.5533 -0.2629
 7259SOL    HW233411   3.029   0.028  13.480 -0.8014  1.4459 -3.0876
 7260SOL     OW33412   3.544   2.932   7.592  0.1663  0.0491 -0.1707
 7260SOL    HW133413   3.468   2.948   7.536  0.5622 -2.6191 -1.4515
 7260SOL    HW233414   3.616   2.963   7.537 -1.3057  2.2299 -0.8766
 7261SOL     OW33415   3.688   4.689   8.616  0.1142  0.5529  1.0791
 7261SOL    HW133416   3.649   4.716   8.533 -0.6243 -1.8395  0.6383
 7261SOL    HW233417   3.756   4.625   8.598 -0.0046 -0.1810  3.2745
 7262SOL     OW33418   3.645   3.454   6.539 -0.9909  0.6959 -0.5074
 7262SOL    HW133419   3.645   3.549   6.540  0.0564  0.6967 -0.2006
 7262SOL    HW233420   3.567   3.444   6.484 -0.5490 -0.0125 -1.0193
 7263SOL     OW33421   3.592   4.094   1.839  0.5129  0.1422  0.1348
 7263SOL    HW133422   3.510   4.046   1.851  0.3014  0.5845  0.4389
 7263SOL    HW233423   3.656   4.041   1.888  1.2627  0.2655 -0.7154
 7264SOL     OW33424   3.412   1.027   3.317  1.1841  0.3221  0.6317
 7264SOL    HW133425   3.422   1.096   3.252 -0.3558  0.7701  0.8925
 7264SOL    HW233426   3.455   1.062   3.396  0.5947  1.0950  0.6066
 7265SOL     OW33427   3.313   1.516   7.491 -0.6600  0.1381  0.4811
 7265SOL    HW133428   3.243   1.455   7.515 -0.4573 -0.1498  0.3475
 7265SOL    HW233429   3.376   1.499   7.562 -1.1845  0.0027  0.9131
 7266SOL     OW33430   3.067   3.874   8.240 -0.1446  0.2471 -0.2850
 7266SOL    HW133431   3.038   3.955   8.198 -1.4478  0.4950  1.1259
 7266SOL    HW233432   3.131   3.898   8.307  0.1749  0.5792 -0.7067
 7267SOL     OW33433   3.643   0.187   8.266 -0.0628 -0.4108 -0.1781
 7267SOL    HW133434   3.607   0.257   8.321  0.4522 -0.1727 -0.1505
 7267SOL    HW233435   3.701   0.239   8.211  1.1205  0.0143  1.4539
 7268SOL     OW33436   3.513   1.016   1.884 -0.2200  0.0013 -0.0503
 7268SOL    HW133437   3.459   0.987   1.957  0.3287  0.5429  0.5708
 7268SOL    HW233438   3.597   1.014   1.930 -0.2284 -0.8506 -0.0599
 7269SOL     OW33439   3.169   0.223   1.503  0.0454  0.0391  0.4675
 7269SOL    HW133440   3.163   0.292   1.437  0.4832  0.7165  1.1365
 7269SOL    HW233441   3.144   0.156   1.439 -0.1750 -0.3829  0.9919
 7270SOL     OW33442   2.744   2.643   8.151  0.3290 -0.0624  0.1659
 7270SOL    HW133443   2.700   2.558   8.147 -0.2115  0.2165  0.1302
 7270SOL    HW233444   2.717   2.697   8.077 -0.8340  0.9814  1.3440
 7271SOL     OW33445   1.018   0.440   3.202 -0.3348  0.0477 -0.4936
 7271SOL    HW133446   1.010   0.428   3.296 -2.7618 -0.4513 -0.7688
 7271SOL    HW233447   0.975   0.522   3.179  0.2936  0.6790  0.5949
 7272SOL     OW33448   0.227   0.288   9.674 -0.0952 -0.0022  0.1260
 7272SOL    HW133449   0.211   0.335   9.592  0.6693  1.3314  0.7402
 7272SOL    HW233450   0.248   0.360   9.732  0.5558  0.1739 -0.3209
 7273SOL     OW33451   0.401   4.682   5.922 -0.1807 -0.5024 -0.1554
 7273SOL    HW133452   0.443   0.018   5.968  1.5289 -1.4323 -0.2657
 7273SOL    HW233453   0.361   4.734   5.852 -3.8638 -2.0760  0.7710
 7274SOL     OW33454   0.995   0.780   1.411 -0.7089  0.1287  0.0777
 7274SOL    HW133455   1.059   0.851   1.413 -0.3782 -0.1613 -0.2083
 7274SOL    HW233456   0.977   0.770   1.504 -0.8348  1.4023  0.1933
 7275SOL     OW33457   0.684   4.437  17.720  0.6119 -0.2205  0.4934
 7275SOL    HW133458   0.699   4.355  17.672  0.8895 -0.0359  0.2598
 7275SOL    HW233459   0.593   4.423  17.745 -0.7070  2.6175 -2.7272
 7276SOL     OW33460   2.152   1.981   4.841  0.5191 -0.4158 -0.1005
 7276SOL    HW133461   2.190   2.056   4.887 -1.0359  0.1733  0.2486
 7276SOL    HW233462   2.060   2.010   4.846  0.9681  0.9724  0.2879
 7277SOL     OW33463   0.125   4.717   8.590 -0.2816  0.0014  0.2702
 7277SOL    HW133464   0.199   0.002   8.534 -0.3201  2.7323  1.2768
 7277SOL    HW233465   0.064   0.053   8.574 -0.6410 -0.8431 -2.1659
 7278SOL     OW33466   1.444   0.908   7.669 -1.0596 -0.2440 -0.2854
 7278SOL    HW133467   1.504   0.862   7.728  1.0423  4.7017  1.4275
 7278SOL    HW233468   1.383   0.837   7.651  0.6045 -2.2790  2.0837
 7279SOL     OW33469   4.479   2.905   7.659  0.2193  1.0173  0.2250
 7279SOL    HW133470   4.466   2.834   7.721 -2.0748  1.2131 -0.0350
 7279SOL    HW233471   4.574   2.912   7.663  0.3567 -0.3909 -0.9004
 7280SOL     OW33472   0.893   0.518   7.903 -0.0876  0.3215  0.2393
 7280SOL    HW133473   0.814   0.511   7.850 -0.5570  1.2570  0.8197
 7280SOL    HW233474   0.931   0.437   7.870  0.3600  0.7554 -0.2942
 7281SOL     OW33475   2.101   2.877   6.287 -0.2000  0.4252 -0.2403
 7281SOL    HW133476   2.197   2.870   6.285 -0.1073  1.9781 -1.0601
 7281SOL    HW233477   2.102   2.972   6.291 -4.1021  0.5317 -1.8892
 7282SOL     OW33478   3.913   3.605  13.263  0.4185  0.6624 -0.5009
 7282SOL    HW133479   3.913   3.586  13.169  1.3843 -1.8563  0.0082
 7282SOL    HW233480   3.879   3.694  13.256  1.1116  0.9856  0.2977
 7283SOL     OW33481   0.927   0.995   6.879  0.2229  0.3196 -0.6096
 7283SOL    HW133482   0.956   1.050   6.807 -0.1803  0.3642 -0.7405
 7283SOL    HW233483   1.008   0.945   6.892 -0.8812 -1.0957  0.8260
 7284SOL     OW33484   2.922   4.616   6.343 -0.4059  1.1106  0.8531
 7284SOL    HW133485   2.870   4.655   6.413  0.4670 -1.1865  2.7895
 7284SOL    HW233486   3.003   4.588   6.385 -0.6542  1.4294  1.5312
 7285SOL     OW33487   1.418   3.860   4.883 -0.0197  0.4479  0.1392
 7285SOL    HW133488   1.453   3.818   4.962 -1.2091  0.1881  0.5343
 7285SOL    HW233489   1.489   3.921   4.864 -0.0774  0.0937 -1.1787
 7286SOL     OW33490   0.281   3.883   3.688 -0.0386 -0.2694 -0.3100
 7286SOL    HW133491   0.356   3.938   3.668 -0.7193  0.5180 -0.7121
 7286SOL    HW233492   0.268   3.844   3.602  2.1436  1.1478 -1.2595
 7287SOL     OW33493   2.093   2.254   7.763  0.2969  0.2984 -0.2124
 7287SOL    HW133494   2.042   2.189   7.812 -0.5641  0.4269 -0.9445
 7287SOL    HW233495   2.158   2.270   7.831 -0.7291  2.6487  0.2444
 7288SOL     OW33496   3.692   0.803   9.259 -0.0898  0.1929  0.4678
 7288SOL    HW133497   3.614   0.762   9.221  0.2294 -0.1941  0.2315
 7288SOL    HW233498   3.691   0.891   9.223  3.7336  0.1551  0.2448
 7289SOL     OW33499   1.699   1.996  14.240  0.1851 -0.4142  0.4288
 7289SOL    HW133500   1.776   1.955  14.279  0.8476  0.9046  0.4828
 7289SOL    HW233501   1.623   1.955  14.283  1.5551 -1.6007  1.7185
 7290SOL     OW33502   1.559   0.739   4.621  0.4623 -0.1743 -0.4413
 7290SOL    HW133503   1.474   0.726   4.579  0.8439 -2.8529 -0.4273
 7290SOL    HW233504   1.545   0.812   4.680 -1.3385 -1.7231  1.0699
 7291SOL     OW33505   2.893   1.929   3.521  0.2985  0.4553  0.5211
 7291SOL    HW133506   2.930   1.917   3.609  2.4730  0.4469 -0.3933
 7291SOL    HW233507   2.870   2.022   3.526  0.2354  0.6178 -2.7347
 7292SOL     OW33508   1.106   2.541   7.834 -0.4157 -0.7528  0.6125
 7292SOL    HW133509   1.184   2.496   7.801 -0.1948 -0.9787  1.4631
 7292SOL    HW233510   1.063   2.562   7.751 -1.4665  2.1701  1.9022
 7293SOL     OW33511   3.087   1.218  16.405  0.1384 -0.1288 -0.3498
 7293SOL    HW133512   3.097   1.142  16.462 -0.7242 -0.7500 -1.0332
 7293SOL    HW233513   3.001   1.236  16.442 -0.0586  2.1115 -1.9339
 7294SOL     OW33514   0.635   0.742   3.505  0.5599 -0.4844  0.2191
 7294SOL    HW133515   0.653   0.701   3.590  0.6038  1.1754  1.0063
 7294SOL    HW233516   0.719   0.760   3.463  0.8764 -0.9976  0.6238
 7295SOL     OW33517   3.589   4.221  12.318 -0.5609 -0.2374  0.0418
 7295SOL    HW133518   3.589   4.307  12.275 -0.8204 -0.2256  0.0656
 7295SOL    HW233519   3.501   4.215  12.356 -0.5077 -0.0838  0.1874
 7296SOL     OW33520   4.589   3.114  17.521  0.0567 -0.3708  0.0719
 7296SOL    HW133521   4.653   3.181  17.546  0.2788 -1.0442  1.2999
 7296SOL    HW233522   4.617   3.035  17.567 -0.3532  0.6294  2.0404
 7297SOL     OW33523   0.140   3.451   6.237 -0.2447 -0.4932 -0.1360
 7297SOL    HW133524   0.135   3.378   6.175 -0.0935  1.4480 -2.4083
 7297SOL    HW233525   0.193   3.517   6.193 -0.9735 -1.1071 -1.9181
 7298SOL     OW33526   2.898   4.304   5.906 -0.3255  0.2566 -0.2574
 7298SOL    HW133527   2.932   4.216   5.890  1.3438  0.9852 -0.7078
 7298SOL    HW233528   2.961   4.355   5.855  1.5242 -0.2889  1.4585
 7299SOL     OW33529   2.468   4.583   2.060  0.0539  0.0158  0.2897
 7299SOL    HW133530   2.391   4.537   2.093  0.2993 -0.6327 -0.0557
 7299SOL    HW233531   2.455   4.674   2.089  1.4491 -0.2574  1.7515
 7300SOL     OW33532   2.818   2.992   2.303 -0.3647  0.4491 -0.6010
 7300SOL    HW133533   2.791   3.019   2.215  1.2726  2.0477 -0.6251
 7300SOL    HW233534   2.835   2.898   2.296 -4.4686 -0.3806  0.8746
 7301SOL     OW33535   4.453   1.300  16.580  0.1419 -0.3213  0.2046
 7301SOL    HW133536   4.384   1.289  16.514  0.9124 -1.8877 -0.3262
 7301SOL    HW233537   4.502   1.218  16.573  0.1330 -0.2569 -0.6004
 7302SOL     OW33538   3.285   4.297   3.400 -0.2269 -0.3065  0.0408
 7302SOL    HW133539   3.195   4.322   3.420 -1.0054 -2.2706 -1.0271
 7302SOL    HW233540   3.325   4.375   3.361 -1.2763 -1.3103 -3.0100
 7303SOL     OW33541   2.313   2.550  14.476 -0.3423  0.2769 -0.0045
 7303SOL    HW133542   2.396   2.595  14.486 -0.9841  0.8488  2.7722
 7303SOL    HW233543   2.252   2.604  14.526 -2.2626 -0.3719 -1.6467
 7304SOL     OW33544   3.564   3.784   9.966  0.1985  0.2110 -0.2163
 7304SOL    HW133545   3.586   3.870   9.930 -0.9574  0.2904 -0.7362
 7304SOL    HW233546   3.622   3.723   9.920  1.1505  0.7484  0.2624
 7305SOL     OW33547   0.376   2.636   6.822  0.2920 -0.0126 -0.2602
 7305SOL    HW133548   0.445   2.655   6.885  1.6174  0.3297 -1.8398
 7305SOL    HW233549   0.316   2.711   6.825  1.1565  0.6530  0.3471
 7306SOL     OW33550   2.298   0.556   1.119 -0.4623 -0.2351  0.0518
 7306SOL    HW133551   2.385   0.517   1.115 -0.5127 -0.1985 -1.3272
 7306SOL    HW233552   2.277   0.552   1.026  0.8423 -2.7665 -0.1208
 7307SOL     OW33553   2.324   2.362   2.998  0.5021 -0.0136  0.1683
 7307SOL    HW133554   2.315   2.411   2.916  0.3258 -1.4403 -0.6749
 7307SOL    HW233555   2.235   2.352   3.032  0.5738 -0.9634  0.0823
 7308SOL     OW33556   1.775   4.551  16.369 -0.6167  0.1211  0.3061
 7308SOL    HW133557   1.794   4.495  16.294  0.8010 -2.3688  2.4951
 7308SOL    HW233558   1.835   4.623  16.351  1.7236 -2.1069 -0.7864
 7309SOL     OW33559   1.173   3.870   3.494  1.0717  0.8237 -0.0830
 7309SOL    HW133560   1.116   3.846   3.567  0.4173  0.8679 -0.5716
 7309SOL    HW233561   1.116   3.835   3.425  2.2423 -1.2245 -0.0036
 7310SOL     OW33562   1.904   4.334   9.439  0.1883  0.3602  0.5311
 7310SOL    HW133563   1.994   4.311   9.460  0.0040 -1.3945 -0.5848
 7310SOL    HW233564   1.871   4.253   9.401  1.9156 -0.0898 -0.0273
 7311SOL     OW33565   3.311   1.634  13.767  0.4514  0.2849 -0.0140
 7311SOL    HW133566   3.289   1.712  13.819 -1.3184 -0.1437 -0.1169
 7311SOL    HW233567   3.339   1.568  13.830  2.9324  0.7256 -0.6726
 7312SOL     OW33568   0.268   2.793   7.113  0.3377  0.4325  0.1955
 7312SOL    HW133569   0.360   2.768   7.103  0.7135  1.6161  0.7105
 7312SOL    HW233570   0.218   2.711   7.111 -0.6258  1.0020  1.0991
 7313SOL     OW33571   0.420   1.946   2.980  0.0621  0.2322  0.6683
 7313SOL    HW133572   0.362   1.896   3.038 -0.2692  0.5001  0.5642
 7313SOL    HW233573   0.464   1.882   2.924  0.4294  2.4548 -1.6071
 7314SOL     OW33574   0.104   3.824   4.813 -0.2138  0.3973  0.2004
 7314SOL    HW133575   0.098   3.917   4.789  0.7262  0.4710  0.2471
 7314SOL    HW233576   0.022   3.802   4.769  0.8583 -0.9432 -1.1240
 7315SOL     OW33577   3.465   0.511   0.795 -0.0537  0.1316 -0.6844
 7315SOL    HW133578   3.436   0.554   0.876  1.1881 -1.6428  0.7175
 7315SOL    HW233579   3.416   0.561   0.730  0.8740  2.5999  0.5045
 7316SOL     OW33580   4.190   1.462  10.408  0.0095  0.1345  0.1494
 7316SOL    HW133581   4.117   1.483  10.466 -0.8204 -0.2518 -0.7501
 7316SOL    HW233582   4.162   1.489  10.321 -2.0809  0.7145  0.9899
 7317SOL     OW33583   3.183   2.597   1.642  0.2175 -0.1911  0.4413
 7317SOL    HW133584   3.100   2.630   1.609  0.1670  0.9511  1.7465
 7317SOL    HW233585   3.227   2.566   1.562  0.4692  0.5670  0.2846
 7318SOL     OW33586   4.294   2.712   6.737 -0.4479  0.3988 -0.3009
 7318SOL    HW133587   4.231   2.759   6.682 -3.0683 -1.2470  1.3183
 7318SOL    HW233588   4.284   2.621   6.708  1.7691 -0.6005  2.0953
 7319SOL     OW33589   4.057   3.843   6.065  0.2206 -0.0630 -0.0924
 7319SOL    HW133590   4.023   3.864   6.152 -0.0350  3.2758 -1.0233
 7319SOL    HW233591   3.994   3.777   6.033 -0.0804 -0.8864  2.2316
 7320SOL     OW33592   0.950   2.910   2.868 -0.4279  0.3670  0.5056
 7320SOL    HW133593   1.004   2.988   2.866  1.3613 -0.9011 -0.8530
 7320SOL    HW233594   0.878   2.926   2.930  0.1372 -0.9065  1.4915
 7321SOL     OW33595   3.455   2.572   4.279  0.2430  0.0438 -0.0326
 7321SOL    HW133596   3.447   2.605   4.369 -0.5102 -0.7790  0.2050
 7321SOL    HW233597   3.438   2.480   4.302  2.0063 -0.1200  0.6108
 7322SOL     OW33598   1.680   4.240   0.294  0.0873  0.4117  0.3330
 7322SOL    HW133599   1.604   4.225   0.237 -0.9144  0.7646  1.5790
 7322SOL    HW233600   1.737   4.297   0.242 -1.7340  0.7088 -1.3426
 7323SOL     OW33601   2.319   2.913   1.511 -0.6041 -0.0016  0.4213
 7323SOL    HW133602   2.353   2.977   1.448 -1.8511  1.6257  1.3970
 7323SOL    HW233603   2.226   2.900   1.492 -0.3143  0.6112 -1.4320
 7324SOL     OW33604   2.394   1.337   5.113 -0.0233 -0.9719 -0.1032
 7324SOL    HW133605   2.455   1.391   5.164 -0.1732 -1.3953  0.5267
 7324SOL    HW233606   2.439   1.366   5.034  2.3452 -2.8578  0.5683
 7325SOL     OW33607   0.412   0.403   2.474  0.1018  0.2996 -0.0579
 7325SOL    HW133608   0.500   0.366   2.475  0.0241  0.0770 -3.0100
 7325SOL    HW233609   0.415   0.469   2.544  1.2966 -2.4879  2.4804
 7326SOL     OW33610   2.376   2.636   7.969 -0.1203 -0.2074 -0.4340
 7326SOL    HW133611   2.356   2.722   8.006  0.6762 -0.3323  0.2879
 7326SOL    HW233612   2.387   2.673   7.881 -0.0376 -0.1079 -0.3807
 7327SOL     OW33613   4.728   3.754   7.271  0.0629 -0.9155 -0.0233
 7327SOL    HW133614   4.711   3.792   7.185  0.6935 -1.4630 -0.3940
 7327SOL    HW233615   4.637   3.751   7.298  0.7993 -0.3588  2.5137
 7328SOL     OW33616   4.114   4.317   6.386  0.5509 -0.7640 -0.1791
 7328SOL    HW133617   4.101   4.233   6.431 -0.9449 -1.6480 -2.2519
 7328SOL    HW233618   4.174   4.291   6.316 -0.3377 -0.0321 -1.2222
 7329SOL     OW33619   4.223   0.632   4.918  0.4813  0.0817  0.6825
 7329SOL    HW133620   4.150   0.573   4.905  0.5587 -0.1959  1.5319
 7329SOL    HW233621   4.195   0.674   4.999  0.0171  0.4322  0.3412
 7330SOL     OW33622   2.993   0.817  12.228 -0.4143  0.1306 -0.0282
 7330SOL    HW133623   3.026   0.815  12.318  0.9767  0.9861 -0.5250
 7330SOL    HW233624   2.948   0.732  12.227 -0.2495  0.0569 -2.1344
 7331SOL     OW33625   1.331   2.249   8.179  0.6646 -0.6583 -0.1590
 7331SOL    HW133626   1.397   2.316   8.165  0.2272 -0.5340 -1.6403
 7331SOL    HW233627   1.340   2.228   8.272  1.5762 -3.6560 -0.9222
 7332SOL     OW33628   3.211   2.433   7.872 -0.2839  0.0785  0.2279
 7332SOL    HW133629   3.159   2.480   7.937 -1.1799  0.6992 -0.9313
 7332SOL    HW233630   3.152   2.363   7.845  0.8402 -0.1949 -1.5218
 7333SOL     OW33631   0.217   3.872   7.160  0.4522 -0.4655  0.3557
 7333SOL    HW133632   0.151   3.844   7.224 -0.3753  0.3229 -0.1691
 7333SOL    HW233633   0.201   3.966   7.154 -2.7491 -1.0595 -0.4626
 7334SOL     OW33634   0.551   3.883  14.694  0.0456 -0.2182  0.2929
 7334SOL    HW133635   0.628   3.920  14.736  0.0095 -1.2243  1.2515
 7334SOL    HW233636   0.587   3.881  14.606  0.1557 -1.1054  0.3558
 7335SOL     OW33637   2.173   2.367   0.677 -0.3128 -0.2305 -0.2076
 7335SOL    HW133638   2.124   2.322   0.609  2.9625 -2.5982 -0.9689
 7335SOL    HW233639   2.146   2.314   0.752  0.4026 -1.8283 -1.0937
 7336SOL     OW33640   3.066   3.340  14.699 -0.3029 -0.2088 -0.1129
 7336SOL    HW133641   3.059   3.308  14.789 -1.2383  1.1584  0.3111
 7336SOL    HW233642   3.035   3.262  14.654  0.3842  1.3504 -3.2569
 7337SOL     OW33643   2.073   0.894   4.812 -0.3852  0.0950 -0.2223
 7337SOL    HW133644   2.083   0.897   4.907  2.6292  0.8972 -0.5470
 7337SOL    HW233645   2.069   0.988   4.795  1.5819  0.3799  0.8600
 7338SOL     OW33646   1.165   0.951   7.819 -0.1389 -0.6478  0.8189
 7338SOL    HW133647   1.123   0.865   7.829  1.1029 -1.4288 -0.7544
 7338SOL    HW233648   1.231   0.935   7.752 -0.2396 -1.3437  0.8846
 7339SOL     OW33649   0.516   0.684  13.051  0.0498 -0.0056 -0.3909
 7339SOL    HW133650   0.515   0.694  12.956 -2.1183 -3.5589 -0.7631
 7339SOL    HW233651   0.492   0.769  13.087 -0.0360  0.4731 -1.5857
 7340SOL     OW33652   3.084   4.349   3.723 -0.5058 -0.3537  0.4631
 7340SOL    HW133653   3.097   4.440   3.750 -0.4696  0.2137 -1.4294
 7340SOL    HW233654   3.064   4.346   3.629  1.7257 -3.6675  0.0786
 7341SOL     OW33655   3.823   4.402   1.463  0.1244  0.3799 -0.2005
 7341SOL    HW133656   3.899   4.358   1.426 -0.5954 -0.1864 -1.0171
 7341SOL    HW233657   3.750   4.340   1.470 -0.6588  1.3690  0.2969
 7342SOL     OW33658   0.822   1.708   5.027 -0.4245  0.4830 -0.1324
 7342SOL    HW133659   0.853   1.653   4.955 -1.5525 -1.1664  0.6587
 7342SOL    HW233660   0.729   1.710   5.006 -0.6929 -1.5077  0.8922
 7343SOL     OW33661   3.089   2.158   6.742 -0.0274 -0.0178  0.1201
 7343SOL    HW133662   3.083   2.123   6.653  1.1593  1.1419 -0.4008
 7343SOL    HW233663   3.182   2.181   6.740 -0.0428  0.2088  1.9024
 7344SOL     OW33664   2.732   2.455   1.598 -0.3786  0.4041 -0.1666
 7344SOL    HW133665   2.653   2.501   1.629  0.3462  1.0200  0.7374
 7344SOL    HW233666   2.717   2.362   1.584 -1.0827  0.3951  0.6437
 7345SOL     OW33667   2.573   0.215   3.089  0.0099 -0.3516 -0.4153
 7345SOL    HW133668   2.510   0.288   3.079 -0.8792 -0.8441  1.5937
 7345SOL    HW233669   2.644   0.266   3.127  1.1937 -2.5023  0.2144
 7346SOL     OW33670   2.685   4.411   2.231 -0.5679 -0.1631 -0.0861
 7346SOL    HW133671   2.631   4.457   2.166  1.2103  0.7153 -0.9637
 7346SOL    HW233672   2.771   4.444   2.204 -0.8259 -0.5984 -1.4654
 7347SOL     OW33673   3.239   3.285   9.019  1.4734  0.0220 -0.1795
 7347SOL    HW133674   3.305   3.315   8.958 -0.8082  2.8267 -1.2695
 7347SOL    HW233675   3.289   3.220   9.069  0.7799 -1.3667 -1.2792
 7348SOL     OW33676   2.292   1.871   7.284 -0.6421 -0.8983 -0.3956
 7348SOL    HW133677   2.379   1.877   7.325 -0.4671 -1.3932 -0.6925
 7348SOL    HW233678   2.298   1.780   7.253  0.9809 -0.6509 -0.7953
 7349SOL     OW33679   4.048   1.437  16.373 -0.1394  0.0058 -0.2312
 7349SOL    HW133680   3.972   1.490  16.349 -1.7641 -1.7360  1.1402
 7349SOL    HW233681   4.105   1.497  16.421  0.5566 -1.2678  0.5150
 7350SOL     OW33682   0.968   1.944   1.494  0.1224  0.6301 -0.4217
 7350SOL    HW133683   1.003   1.873   1.548  0.5776  1.1456 -0.0271
 7350SOL    HW233684   0.882   1.909   1.471 -0.4928  1.3736  0.7032
 7351SOL     OW33685   0.312   2.686   8.167  0.0950  0.4232  0.0041
 7351SOL    HW133686   0.375   2.746   8.208  0.9239 -0.2566 -0.2762
 7351SOL    HW233687   0.266   2.751   8.114 -0.3063  0.7415  0.7404
 7352SOL     OW33688   1.572   3.278  10.119 -0.1731 -0.0419 -0.1704
 7352SOL    HW133689   1.662   3.310  10.114  0.1467 -0.9014  0.1897
 7352SOL    HW233690   1.597   3.191  10.151 -1.7239  0.4297  2.3218
 7353SOL     OW33691   0.921   3.495   2.495 -0.1276 -0.4605  0.1066
 7353SOL    HW133692   0.899   3.568   2.437  0.0930 -0.0185  0.5794
 7353SOL    HW233693   0.971   3.437   2.438  0.4388 -0.6351  0.7796
 7354SOL     OW33694   4.698   3.401   7.238 -0.5477 -0.0409  0.6543
 7354SOL    HW133695   4.707   3.483   7.286  2.2444  0.5402 -0.8244
 7354SOL    HW233696   4.681   3.338   7.307  0.2476 -0.2415  0.6729
 7355SOL     OW33697   1.729   1.283   9.640  0.2450 -0.1316  0.5400
 7355SOL    HW133698   1.702   1.366   9.681  0.1157 -0.2006  0.5947
 7355SOL    HW233699   1.651   1.228   9.648  0.2722 -0.4999 -1.6142
 7356SOL     OW33700   2.312   1.663   7.538 -0.2944 -0.1886  0.2302
 7356SOL    HW133701   2.262   1.633   7.614  0.5471 -1.2581  0.3610
 7356SOL    HW233702   2.390   1.698   7.583 -0.4868  0.4595  0.0588
 7357SOL     OW33703   0.056   1.627   0.453  0.4504 -0.6258  0.2203
 7357SOL    HW133704   0.139   1.654   0.414 -0.2882  1.0765 -0.1672
 7357SOL    HW233705   0.007   1.708   0.465  2.7330  1.0906 -2.0167
 7358SOL     OW33706   3.612   0.016   0.067  0.1222 -0.1731 -0.2521
 7358SOL    HW133707   3.705   4.733   0.063  0.5208  1.7779 -0.9106
 7358SOL    HW233708   3.594   0.039  17.721 -2.9755  0.0007  0.3812
 7359SOL     OW33709   3.068   3.964   9.364  0.3606 -0.4163 -0.0913
 7359SOL    HW133710   3.022   3.957   9.281 -3.3594  1.5081  1.8163
 7359SOL    HW233711   3.001   4.005   9.419  1.3445 -1.7599  2.1399
 7360SOL     OW33712   1.346   0.032   3.058 -0.0144  0.3004 -0.0143
 7360SOL    HW133713   1.349   0.062   2.967 -0.5276 -0.9749 -0.4528
 7360SOL    HW233714   1.437   0.004   3.065  0.7058  2.8023  0.6893
 7361SOL     OW33715   4.606   2.822   1.690 -0.0811 -0.4107 -0.5564
 7361SOL    HW133716   4.518   2.837   1.725  1.1204  1.8998  1.5522
 7361SOL    HW233717   4.618   2.727   1.688  0.5611 -0.4115  2.5767
 7362SOL     OW33718   0.031   4.436  10.726 -0.1851 -0.2273  0.2040
 7362SOL    HW133719   4.699   4.500  10.705 -0.2355 -1.1381 -2.3594
 7362SOL    HW233720   0.064   4.464  10.811  0.6054  1.8970 -0.7898
 7363SOL     OW33721   1.995   4.044   9.247 -0.3304  0.0857  0.5538
 7363SOL    HW133722   2.038   4.109   9.303 -0.6477  2.1386 -1.5921
 7363SOL    HW233723   1.909   4.087   9.242 -0.5642 -0.4698 -0.1240
 7364SOL     OW33724   3.436   0.602   5.323  0.5006 -0.0578 -0.3195
 7364SOL    HW133725   3.430   0.524   5.268  1.6414 -1.1467  1.1169
 7364SOL    HW233726   3.467   0.668   5.261 -1.1916  1.1738  0.1464
 7365SOL     OW33727   1.903   3.226   5.290  0.5909  0.0928  0.2265
 7365SOL    HW133728   1.854   3.191   5.215  2.5649  1.6199 -1.7674
 7365SOL    HW233729   1.913   3.149   5.346 -0.4779  0.1613  0.5127
 7366SOL     OW33730   3.992   1.216   7.162  0.4050 -0.4263 -0.3373
 7366SOL    HW133731   3.932   1.144   7.183  0.3941 -0.8773 -1.9593
 7366SOL    HW233732   4.071   1.163   7.171 -0.9397 -2.8060 -2.3155
 7367SOL     OW33733   4.494   0.591  11.369  0.5396 -0.3628  0.1140
 7367SOL    HW133734   4.523   0.513  11.417 -1.5476 -0.3359  1.4589
 7367SOL    HW233735   4.552   0.586  11.294 -1.0417  2.3616 -1.2814
 7368SOL     OW33736   3.499   0.325   7.788  0.1526  0.0165  0.2414
 7368SOL    HW133737   3.511   0.320   7.883  0.7337 -1.4794  0.0903
 7368SOL    HW233738   3.405   0.327   7.774  0.4866 -0.6131 -2.1278
 7369SOL     OW33739   0.686   4.579  16.520 -0.1424  0.5163  0.6872
 7369SOL    HW133740   0.686   4.573  16.616  1.3128  1.0404  0.7233
 7369SOL    HW233741   0.670   4.672  16.504 -2.1874 -0.1129 -0.9342
 7370SOL     OW33742   4.255   1.143  15.510 -0.0855  0.2218  0.4024
 7370SOL    HW133743   4.253   1.048  15.517  2.1408  0.2181  0.9162
 7370SOL    HW233744   4.348   1.156  15.493 -0.5342  3.1952  0.1023
 7371SOL     OW33745   3.871   1.057   9.653 -0.1673 -0.1578 -0.3430
 7371SOL    HW133746   3.884   0.967   9.623  2.2559 -0.6427  2.1413
 7371SOL    HW233747   3.789   1.049   9.702  0.3043 -1.2023  0.2780
 7372SOL     OW33748   1.339   3.737  12.314 -0.0802 -0.4106 -0.4697
 7372SOL    HW133749   1.314   3.821  12.277  0.2334 -0.4957 -0.8734
 7372SOL    HW233750   1.304   3.750  12.402  3.8200 -0.2839  1.0809
 7373SOL     OW33751   2.513   4.513   3.593 -0.5523  0.5080 -0.0135
 7373SOL    HW133752   2.456   4.436   3.585  1.2367 -0.5697 -2.1268
 7373SOL    HW233753   2.567   4.496   3.671 -0.0577 -0.4255 -0.5591
 7374SOL     OW33754   2.140   0.539   3.200 -0.1109 -0.2271  0.0343
 7374SOL    HW133755   2.109   0.620   3.242 -0.3309 -0.1634 -0.2540
 7374SOL    HW233756   2.159   0.575   3.113 -0.1528  1.6332  0.7821
 7375SOL     OW33757   3.361   4.607  13.452  0.4269 -0.3570 -0.2654
 7375SOL    HW133758   3.267   4.612  13.436  0.1697 -1.3428  0.9515
 7375SOL    HW233759   3.378   4.654  13.534 -0.4192  0.7767 -0.7412
 7376SOL     OW33760   0.729   4.371   4.488  0.1227 -0.0582 -0.0419
 7376SOL    HW133761   0.755   4.363   4.397  2.4573 -3.0055  0.8706
 7376SOL    HW233762   0.677   4.291   4.497  1.2611 -0.8299 -0.3832
 7377SOL     OW33763   3.108   3.082   7.806 -0.1556 -0.1688  0.7518
 7377SOL    HW133764   3.169   3.016   7.773 -0.3315  0.1497 -0.1942
 7377SOL    HW233765   3.074   3.042   7.887 -1.2337 -0.5701  0.1004
 7378SOL     OW33766   2.775   2.889   1.470 -0.8211  0.3815 -0.3274
 7378SOL    HW133767   2.792   2.926   1.384  1.0547  1.7451  0.6111
 7378SOL    HW233768   2.783   2.961   1.532 -0.4037  0.7240 -0.7788
 7379SOL     OW33769   0.933   3.616  11.949  0.4916  0.2968 -0.1972
 7379SOL    HW133770   0.879   3.542  11.920 -1.3695  0.9161  1.6818
 7379SOL    HW233771   0.919   3.686  11.886  0.4696  1.3023  0.9257
 7380SOL     OW33772   2.708   3.857  10.913 -0.2574 -0.0460 -0.8255
 7380SOL    HW133773   2.654   3.786  10.949  0.5840  0.9909  2.4958
 7380SOL    HW233774   2.654   3.887  10.840 -1.3401  0.2821  0.0942
 7381SOL     OW33775   1.768   3.916   1.037 -0.5833  0.1032  0.2628
 7381SOL    HW133776   1.699   3.884   0.979 -1.0323  0.0348  0.8354
 7381SOL    HW233777   1.793   3.994   0.987 -0.1430 -0.5579 -0.5544
 7382SOL     OW33778   1.140   0.227   5.469  0.5873 -0.2637  0.1335
 7382SOL    HW133779   1.107   0.200   5.384 -0.3772 -0.5080  0.5787
 7382SOL    HW233780   1.150   0.142   5.513  0.4263 -1.2894 -1.8256
 7383SOL     OW33781   2.518   0.473   5.819  0.2621  0.5080 -0.5498
 7383SOL    HW133782   2.462   0.444   5.892 -0.1191  0.4696 -0.8605
 7383SOL    HW233783   2.455   0.509   5.758  0.5764  1.0957 -0.5235
 7384SOL     OW33784   2.234   0.372   2.893 -0.0366 -0.4299 -0.0730
 7384SOL    HW133785   2.299   0.396   2.960 -0.0212  1.1538 -0.6553
 7384SOL    HW233786   2.152   0.383   2.940 -0.3318 -2.3086 -0.1451
 7385SOL     OW33787   0.963   3.946  12.511 -0.0055  0.5190  0.3453
 7385SOL    HW133788   1.005   3.936  12.426 -0.3862 -2.9079  0.5646
 7385SOL    HW233789   0.873   3.932  12.483  0.1731 -1.8807  1.0174
 7386SOL     OW33790   3.246   0.314   7.710  0.2994  0.0173 -0.5860
 7386SOL    HW133791   3.240   0.294   7.616 -0.6709 -1.1276 -0.2763
 7386SOL    HW233792   3.237   0.409   7.711 -2.4245 -0.2467 -1.1834
 7387SOL     OW33793   3.500   2.805   8.271 -0.3993  0.0786 -0.4949
 7387SOL    HW133794   3.444   2.832   8.199 -0.3417  0.9922 -0.2013
 7387SOL    HW233795   3.534   2.719   8.248 -1.6597 -0.8153  0.9761
 7388SOL     OW33796   2.847   1.147   2.414  0.0762  0.1394 -0.0418
 7388SOL    HW133797   2.881   1.206   2.482  0.9207 -0.2227 -0.1487
 7388SOL    HW233798   2.851   1.197   2.333  0.6073  2.4420  1.3980
 7389SOL     OW33799   3.577   1.434   4.784 -0.1365  0.4373  0.0362
 7389SOL    HW133800   3.552   1.492   4.712  2.1377 -0.3891 -1.4228
 7389SOL    HW233801   3.667   1.414   4.759  0.5830  1.9214  1.4359
 7390SOL     OW33802   0.990   2.317   4.355 -0.3970  0.0026 -0.1079
 7390SOL    HW133803   1.033   2.398   4.380  0.2897 -0.8682  1.5582
 7390SOL    HW233804   0.994   2.275   4.441  1.0254 -1.2398 -0.7869
 7391SOL     OW33805   1.919   2.484   0.015  0.0538 -0.1768  0.2381
 7391SOL    HW133806   1.848   2.465   0.076 -0.5365  0.6644 -0.1840
 7391SOL    HW233807   1.871   2.473  17.679  0.4769  2.0383 -0.3250
 7392SOL     OW33808   1.747   4.365   1.138  0.0244 -0.1894 -0.1704
 7392SOL    HW133809   1.664   4.318   1.147 -0.8472  1.5511  0.8274
 7392SOL    HW233810   1.812   4.296   1.148  0.0277 -0.0330  0.9224
 7393SOL     OW33811   0.175   0.750   6.847 -0.6056 -0.0853  0.2626
 7393SOL    HW133812   0.237   0.677   6.844  0.2259  0.7170 -1.7425
 7393SOL    HW233813   0.209   0.798   6.772 -2.0747 -0.3557 -0.5811
 7394SOL     OW33814   2.890   0.381   9.292  0.4918 -0.1328  0.2868
 7394SOL    HW133815   2.859   0.295   9.263 -1.2094 -0.0524  1.8331
 7394SOL    HW233816   2.905   0.374   9.386 -1.1641 -1.1550  0.4931
 7395SOL     OW33817   3.974   0.252   8.351 -0.0344  0.2449 -0.2641
 7395SOL    HW133818   3.891   0.259   8.303  1.4100  1.4162 -2.5802
 7395SOL    HW233819   4.025   0.203   8.287 -2.4468 -0.2031 -1.8638
 7396SOL     OW33820   1.343   1.930   6.124  0.1413 -0.0535 -0.0790
 7396SOL    HW133821   1.371   1.938   6.215 -0.2298  1.6554 -0.1181
 7396SOL    HW233822   1.413   1.873   6.091  1.7606  1.6650  0.3543
 7397SOL     OW33823   3.834   2.010  15.400 -0.1674 -0.3718  0.0217
 7397SOL    HW133824   3.870   2.045  15.482  1.9346 -1.0134 -0.6137
 7397SOL    HW233825   3.852   1.919  15.423  1.1840 -0.8266 -2.8886
 7398SOL     OW33826   0.791   1.938   3.038 -0.4345  0.3155 -0.4274
 7398SOL    HW133827   0.747   1.888   3.107  0.7124  1.9542  1.5123
 7398SOL    HW233828   0.872   1.964   3.082 -0.6126 -1.1119  0.7329
 7399SOL     OW33829   3.218   3.875   5.155 -0.2444 -0.1748  0.1424
 7399SOL    HW133830   3.308   3.844   5.151 -0.9952 -2.6983  2.3784
 7399SOL    HW233831   3.166   3.797   5.135 -1.5437  0.8942 -0.5969
 7400SOL     OW33832   1.702   2.987   3.238  0.5852 -0.2476  0.3174
 7400SOL    HW133833   1.766   2.949   3.298  0.9782 -0.9609 -0.5540
 7400SOL    HW233834   1.760   3.005   3.165 -0.6923 -0.6165 -0.7991
 7401SOL     OW33835   1.770   2.494   5.314 -0.3978 -0.1511  0.0295
 7401SOL    HW133836   1.765   2.512   5.408  1.0745  1.5875 -0.2311
 7401SOL    HW233837   1.858   2.457   5.318 -0.6451 -0.7250  0.1325
 7402SOL     OW33838   3.252   0.855  16.392  0.1493  0.5902 -0.0144
 7402SOL    HW133839   3.309   0.779  16.403 -2.6298 -1.5401 -0.1425
 7402SOL    HW233840   3.169   0.812  16.412 -0.2943  1.9639  1.1098
 7403SOL     OW33841   1.833   1.417   8.973 -0.3531 -0.2931 -0.1760
 7403SOL    HW133842   1.893   1.354   8.933 -0.1167 -0.7639  0.9180
 7403SOL    HW233843   1.785   1.459   8.902 -0.1136 -2.5345 -1.6752
 7404SOL     OW33844   2.511   2.173  10.045 -0.1799  0.2606  0.0396
 7404SOL    HW133845   2.484   2.193  10.135  0.9051  0.6711  0.2704
 7404SOL    HW233846   2.533   2.081  10.051 -0.0134  0.1087 -3.2002
 7405SOL     OW33847   4.716   2.750  13.350  0.3864  0.5922 -0.4015
 7405SOL    HW133848   4.662   2.707  13.417  0.5714 -0.7279 -1.1020
 7405SOL    HW233849   0.006   2.831  13.393  0.1381  1.1123 -1.2224
 7406SOL     OW33850   1.662   1.455  15.228  0.0894  0.1579  0.0686
 7406SOL    HW133851   1.687   1.418  15.143 -0.4332  2.6202 -1.1615
 7406SOL    HW233852   1.652   1.375  15.280  0.4593  0.8329  1.1596
 7407SOL     OW33853   3.753   0.715   4.893 -0.0961  0.1399 -0.4553
 7407SOL    HW133854   3.784   0.630   4.924  0.6994  0.2876 -0.8529
 7407SOL    HW233855   3.803   0.768   4.955 -0.4240 -0.0606 -0.0183
 7408SOL     OW33856   2.098   2.390  13.483  0.2343 -0.0110 -0.5962
 7408SOL    HW133857   2.012   2.362  13.513 -0.0675  0.8273 -0.6742
 7408SOL    HW233858   2.106   2.335  13.405 -0.2380 -1.5039  0.3922
 7409SOL     OW33859   0.067   2.075   7.755 -0.3313 -0.3373 -0.1302
 7409SOL    HW133860   0.131   2.091   7.686 -0.4463  2.6576  0.4740
 7409SOL    HW233861   4.733   2.021   7.719 -0.5328 -0.2278  0.0963
 7410SOL     OW33862   4.655   0.413  17.333 -0.1085  0.7088  0.4883
 7410SOL    HW133863   4.619   0.409  17.244 -2.1237  0.6250  1.2947
 7410SOL    HW233864   4.724   0.347  17.327  0.4524  1.3984 -0.8322
 7411SOL     OW33865   3.647   0.086   2.298  0.2548  0.1160  0.1404
 7411SOL    HW133866   3.616   4.734   2.316  0.2371  0.2121  0.5759
 7411SOL    HW233867   3.607   0.133   2.371 -1.3384 -1.8085  0.5188
 7412SOL     OW33868   0.102   2.125   7.461  0.5253 -0.2974  0.6642
 7412SOL    HW133869   0.107   2.089   7.373 -0.5782  0.4641  0.2801
 7412SOL    HW233870   0.187   2.096   7.493  0.2389 -0.9341  0.8552
 7413SOL     OW33871   2.395   2.488  16.976 -0.2962  0.2046 -0.3169
 7413SOL    HW133872   2.322   2.449  17.023  0.7588 -2.7361 -1.1479
 7413SOL    HW233873   2.412   2.563  17.033  1.3280 -0.4801  0.0817
 7414SOL     OW33874   3.716   3.275  14.708 -0.2297 -0.2255 -0.4177
 7414SOL    HW133875   3.795   3.240  14.751 -1.5810 -4.1282 -1.1053
 7414SOL    HW233876   3.657   3.258  14.781  1.0049 -1.9354  0.2101
 7415SOL     OW33877   2.217   4.128  11.695 -0.3582 -0.2169  0.6868
 7415SOL    HW133878   2.138   4.109  11.645  0.2963  1.1908 -0.8846
 7415SOL    HW233879   2.191   4.073  11.769 -0.3285 -2.7061 -1.1653
 7416SOL     OW33880   3.697   2.881   4.611 -0.2003 -0.0394  0.0307
 7416SOL    HW133881   3.656   2.822   4.673 -1.1785  1.2507  0.6091
 7416SOL    HW233882   3.767   2.824   4.577 -0.4763  0.3556 -1.2132
 7417SOL     OW33883   1.804   2.616   8.217  0.4312 -0.2212  0.2995
 7417SOL    HW133884   1.840   2.672   8.149  1.5663 -2.1437 -0.6803
 7417SOL    HW233885   1.852   2.628   8.299  1.1763  0.6672 -0.2775
 7418SOL     OW33886   0.200   0.064  14.340  0.4918  0.1268  0.2721
 7418SOL    HW133887   0.178   0.083  14.431  1.6704 -0.1803  0.6197
 7418SOL    HW233888   0.254   4.723  14.348  1.1216  0.4814 -0.5419
 7419SOL     OW33889   2.351   3.544   8.403  0.4262 -0.3264 -0.0228
 7419SOL    HW133890   2.393   3.613   8.351  2.7849 -1.2238  0.6703
 7419SOL    HW233891   2.426   3.486   8.415  0.1909 -0.1562  2.2704
 7420SOL     OW33892   2.881   2.332   3.527 -0.5070 -0.8008  0.1834
 7420SOL    HW133893   2.926   2.401   3.477  0.0202  0.0913  1.9031
 7420SOL    HW233894   2.862   2.384   3.605  0.9016 -0.8548  0.5545
 7421SOL     OW33895   1.968   2.258   0.242 -0.3968  0.0179  0.3492
 7421SOL    HW133896   1.897   2.313   0.210  1.4723  0.8469 -2.3437
 7421SOL    HW233897   1.969   2.183   0.183  1.1897  1.2172 -1.1465
 7422SOL     OW33898   2.617   4.418   3.898 -0.1426  0.0779  0.2998
 7422SOL    HW133899   2.645   4.446   3.985  0.2718  1.2199 -0.2038
 7422SOL    HW233900   2.525   4.445   3.897 -1.1363 -3.4470 -2.9613
 7423SOL     OW33901   2.358   2.007   7.055  0.4290 -0.4623  0.1003
 7423SOL    HW133902   2.425   2.043   7.113  0.9057 -0.6659 -0.3168
 7423SOL    HW233903   2.305   1.963   7.122  2.0710 -0.8830  1.1394
 7424SOL     OW33904   0.038   1.589  11.971 -0.0414  0.0512 -0.7219
 7424SOL    HW133905   0.004   1.558  12.055  0.5246  0.7005 -0.2505
 7424SOL    HW233906   0.040   1.508  11.921 -1.6484 -0.4107 -0.0519
 7425SOL     OW33907   3.499   3.780   5.954 -0.5717  0.8849 -0.0296
 7425SOL    HW133908   3.571   3.823   5.999 -0.8329 -0.8193  2.0441
 7425SOL    HW233909   3.471   3.859   5.908 -0.5910 -1.2185 -3.6168
 7426SOL     OW33910   1.397   3.919   4.206  0.0128  0.5204  0.2402
 7426SOL    HW133911   1.374   4.004   4.245  2.0312  1.6015 -0.9522
 7426SOL    HW233912   1.422   3.949   4.119 -0.9477 -1.7592 -0.8195
 7427SOL     OW33913   0.055   0.143   2.293 -0.2434 -0.3303  0.5678
 7427SOL    HW133914   0.150   0.155   2.290 -0.2889 -0.0610  0.1640
 7427SOL    HW233915   0.038   0.113   2.204  1.9425  0.0895  0.0006
 7428SOL     OW33916   3.837   2.409   4.653  0.2997 -0.0476 -0.2269
 7428SOL    HW133917   3.841   2.402   4.748 -2.0915  1.7620  0.0088
 7428SOL    HW233918   3.816   2.319   4.630 -0.0617 -0.3077  1.1231
 7429SOL     OW33919   4.026   2.777   8.076  1.2297 -0.8288 -0.0514
 7429SOL    HW133920   3.984   2.691   8.084  0.1627 -0.1947  1.1886
 7429SOL    HW233921   4.115   2.752   8.052  1.3070  0.1537 -0.8165
 7430SOL     OW33922   2.049   1.490   3.795  0.2457  0.3596  0.1786
 7430SOL    HW133923   2.083   1.400   3.791  2.8776  1.4256 -1.4585
 7430SOL    HW233924   2.106   1.525   3.863  0.0037 -1.1504  1.1477
 7431SOL     OW33925   3.795   3.912   8.181  0.4946  0.2808  0.2983
 7431SOL    HW133926   3.870   3.967   8.157  0.4641  0.0053 -0.4089
 7431SOL    HW233927   3.778   3.865   8.100  0.1904  0.8773  0.0143
 7432SOL     OW33928   4.074   1.998   1.765  0.4079 -0.1456 -0.0635
 7432SOL    HW133929   4.143   1.933   1.758  1.6722  1.1326  0.5507
 7432SOL    HW233930   4.014   1.974   1.694  0.1753  0.5870 -0.1192
 7433SOL     OW33931   0.870   0.582   6.355 -0.0356  0.0931 -0.2686
 7433SOL    HW133932   0.857   0.495   6.318  0.9841 -0.1668 -0.0207
 7433SOL    HW233933   0.944   0.567   6.414 -0.6938  1.0210  0.7965
 7434SOL     OW33934   2.079   0.792  10.701 -0.3077  0.3042  0.1024
 7434SOL    HW133935   1.983   0.799  10.701 -0.3804 -0.6867 -0.2075
 7434SOL    HW233936   2.105   0.857  10.635 -2.0773  0.2329 -0.6633
 7435SOL     OW33937   1.037   1.420   6.842  0.3975 -0.0930 -0.6605
 7435SOL    HW133938   1.101   1.490   6.834  0.7846 -0.4511 -0.7445
 7435SOL    HW233939   1.065   1.358   6.910  0.6532  2.5695  1.6266
 7436SOL     OW33940   2.412   0.173   8.499 -0.4244 -0.6182  0.1072
 7436SOL    HW133941   2.403   0.199   8.591 -2.9604 -3.2302  0.6183
 7436SOL    HW233942   2.337   0.115   8.483 -0.7977 -0.5881  1.7238
 7437SOL     OW33943   4.121   0.073   6.544 -0.0492 -0.2871  1.0971
 7437SOL    HW133944   4.082   0.134   6.482  0.1746 -0.9073  0.3392
 7437SOL    HW233945   4.113   4.725   6.500  1.9574  0.5816 -0.9498
 7438SOL     OW33946   4.345   0.636   0.638 -0.4231  0.1677 -0.3439
 7438SOL    HW133947   4.305   0.554   0.610  2.3546 -0.1816 -3.3253
 7438SOL    HW233948   4.291   0.668   0.711 -0.7122 -0.3499 -0.3331
 7439SOL     OW33949   0.101   2.787   8.534  0.2776  0.4363  0.5287
 7439SOL    HW133950   0.007   2.777   8.550  0.6180 -1.5826  1.3170
 7439SOL    HW233951   0.128   2.701   8.567  1.1263  0.4046 -0.2656
 7440SOL     OW33952   1.129   3.875   1.458  0.2813  0.5141  0.1619
 7440SOL    HW133953   1.110   3.782   1.443 -2.4606  1.1019 -0.0545
 7440SOL    HW233954   1.194   3.868   1.528 -0.2301  0.1361  0.5978
 7441SOL     OW33955   1.934   3.044   8.158  0.1986 -0.3541 -0.1397
 7441SOL    HW133956   1.945   3.052   8.253  0.8278 -2.2347 -0.0489
 7441SOL    HW233957   1.843   3.070   8.142  0.3240  0.5086  0.5772
 7442SOL     OW33958   2.288   2.981  11.760 -0.4434 -0.5376  0.3970
 7442SOL    HW133959   2.299   3.057  11.702 -0.3835 -0.5801  0.3523
 7442SOL    HW233960   2.368   2.932  11.738  0.1020  1.3099 -1.8187
 7443SOL     OW33961   2.277   1.611   3.336  0.0118 -0.0339  0.0150
 7443SOL    HW133962   2.211   1.556   3.293 -0.5145 -0.7563  1.7208
 7443SOL    HW233963   2.299   1.679   3.274  1.0127  0.2997  0.7318
 7444SOL     OW33964   2.338   3.472  10.764 -0.4561 -0.1697 -0.4064
 7444SOL    HW133965   2.430   3.448  10.773 -0.7144 -0.8316  0.5213
 7444SOL    HW233966   2.298   3.410  10.826  0.7305  0.6145  1.1262
 7445SOL     OW33967   1.585   2.310   4.733  1.3916 -0.7857  0.6821
 7445SOL    HW133968   1.555   2.394   4.700 -0.8296 -0.8639  2.5089
 7445SOL    HW233969   1.623   2.274   4.653  0.6578 -0.1163  0.0394
 7446SOL     OW33970   2.580   3.928   5.845  0.5102 -0.1042  0.4634
 7446SOL    HW133971   2.487   3.905   5.845  0.2596  0.8929  0.7213
 7446SOL    HW233972   2.618   3.844   5.819  0.9357  0.6788 -1.3961
 7447SOL     OW33973   0.931   2.051   5.486 -0.0855  0.1198  0.0603
 7447SOL    HW133974   0.974   2.071   5.569  1.2543 -1.6684 -0.1961
 7447SOL    HW233975   1.001   2.012   5.434  1.1522 -0.2298  2.0123
 7448SOL     OW33976   3.633   3.616   1.849  0.0105  0.1484  0.3908
 7448SOL    HW133977   3.652   3.687   1.788  1.1768 -1.6055 -1.3046
 7448SOL    HW233978   3.561   3.665   1.888 -0.7252 -1.3486  0.9207
 7449SOL     OW33979   4.209   2.326  17.058 -0.5196 -0.1819 -0.3803
 7449SOL    HW133980   4.132   2.275  17.085 -0.9464  1.5516  1.6931
 7449SOL    HW233981   4.177   2.379  16.985 -0.0175  1.3713  0.5249
 7450SOL     OW33982   4.195   0.908   3.276  0.0809  0.0783  0.3383
 7450SOL    HW133983   4.213   1.002   3.273 -0.1195  0.0060 -2.4306
 7450SOL    HW233984   4.182   0.887   3.184 -1.7237  1.1780  0.3491
 7451SOL     OW33985   3.928   1.879   7.734 -0.3135 -0.3576  0.3349
 7451SOL    HW133986   3.957   1.963   7.698 -1.4756 -0.2185 -0.2757
 7451SOL    HW233987   3.990   1.870   7.807 -0.2734  1.5757  0.5428
 7452SOL     OW33988   1.139   1.760  13.491  0.0616  0.1496  0.1949
 7452SOL    HW133989   1.069   1.812  13.529 -0.4425  0.1101 -0.6674
 7452SOL    HW233990   1.204   1.764  13.561  0.3494 -1.7871  0.0427
 7453SOL     OW33991   2.164   1.487   6.731  0.1052  0.4098  0.1364
 7453SOL    HW133992   2.236   1.546   6.709 -1.0908  1.2530 -1.5185
 7453SOL    HW233993   2.170   1.421   6.662 -0.9901 -0.5250  0.9365
 7454SOL     OW33994   2.200   1.279  14.848  0.3587  0.0500 -0.0677
 7454SOL    HW133995   2.228   1.321  14.929  1.2089 -0.1653 -0.2508
 7454SOL    HW233996   2.149   1.350  14.809 -0.6168  0.5464  2.0869
 7455SOL     OW33997   0.091   4.200   2.041 -0.4765  0.1482  0.0137
 7455SOL    HW133998   0.075   4.108   2.061 -0.7858  0.7310  2.3940
 7455SOL    HW233999   0.066   4.198   1.948 -0.5744 -0.7206  0.0533
 7456SOL     OW34000   0.473   1.260   8.096 -0.1027 -0.9604 -0.3373
 7456SOL    HW134001   0.563   1.265   8.064  0.4958 -5.2299  0.6888
 7456SOL    HW234002   0.481   1.290   8.186  0.1088 -0.2147 -0.6044
 7457SOL     OW34003   0.753   1.735   6.880  1.0220  0.0849 -0.5655
 7457SOL    HW134004   0.795   1.752   6.796  0.0370  2.2571 -0.6387
 7457SOL    HW234005   0.759   1.641   6.895  1.6799  0.0479 -1.1162
 7458SOL     OW34006   1.115   0.927   1.828 -0.3311  0.5225  0.3403
 7458SOL    HW134007   1.022   0.903   1.827  0.0508 -0.9527 -1.0551
 7458SOL    HW234008   1.125   0.970   1.744 -0.2595  0.0781  0.1205
 7459SOL     OW34009   0.998   1.408   5.262  0.0816  0.2495 -0.0462
 7459SOL    HW134010   0.984   1.356   5.341 -0.0589  1.1815  0.5320
 7459SOL    HW234011   1.058   1.475   5.293 -0.1866  0.0326  0.9425
 7460SOL     OW34012   1.810   4.493   9.644 -0.4592 -0.0998 -0.3700
 7460SOL    HW134013   1.880   4.555   9.626 -2.8015  1.6230 -3.4540
 7460SOL    HW234014   1.833   4.425   9.581 -0.5299  1.1917 -1.7846
 7461SOL     OW34015   0.504   0.181  14.346 -0.3416 -0.1223 -0.0301
 7461SOL    HW134016   0.476   0.136  14.425 -0.7996 -0.3771 -0.3365
 7461SOL    HW234017   0.443   0.255  14.337 -0.6543 -0.4908 -1.0317
 7462SOL     OW34018   2.537   3.455  12.280  0.0772  0.1650 -0.3847
 7462SOL    HW134019   2.474   3.523  12.303 -0.4774 -0.3942 -0.2522
 7462SOL    HW234020   2.585   3.447  12.362 -0.6689  1.0759  0.1367
 7463SOL     OW34021   3.859   2.737   6.461  0.3496  0.2798  0.4498
 7463SOL    HW134022   3.846   2.668   6.396 -1.8851  0.0876  1.0873
 7463SOL    HW234023   3.799   2.799   6.419  0.1227  0.2665  0.7495
 7464SOL     OW34024   3.608   2.259   1.851  0.0267  0.3065 -0.2679
 7464SOL    HW134025   3.593   2.309   1.770  1.0927  0.2541 -0.4962
 7464SOL    HW234026   3.534   2.297   1.899  0.3122 -0.6486  0.9161
 7465SOL     OW34027   2.056   4.467  13.703  0.1078 -0.2102  0.2316
 7465SOL    HW134028   2.059   4.372  13.702 -1.0717 -0.2494  0.3410
 7465SOL    HW234029   1.966   4.475  13.671 -0.0092 -0.1398  0.5869
 7466SOL     OW34030   3.392   3.640   2.403 -0.7317  0.6724  0.5363
 7466SOL    HW134031   3.375   3.722   2.357  3.6477  0.8511 -0.8026
 7466SOL    HW234032   3.316   3.586   2.385  0.8481 -1.2044 -0.4605
 7467SOL     OW34033   3.650   3.426   6.012 -0.5575  0.6489 -0.4058
 7467SOL    HW134034   3.647   3.380   6.096  1.0934  3.2615  1.0908
 7467SOL    HW234035   3.563   3.431   5.973 -0.1872 -2.4539 -1.6722
 7468SOL     OW34036   2.437   0.407   0.053 -0.4590 -0.2878  0.1745
 7468SOL    HW134037   2.463   0.317   0.034  0.2196 -0.0546  0.0119
 7468SOL    HW234038   2.515   0.421   0.107  0.0635  0.4432 -0.7729
 7469SOL     OW34039   1.187   1.588  13.311 -0.2336  0.5779 -0.1212
 7469SOL    HW134040   1.149   1.644  13.379 -3.1030  1.2385 -2.2989
 7469SOL    HW234041   1.252   1.647  13.273 -0.1138 -0.0280 -0.8400
 7470SOL     OW34042   1.434   0.608  11.035  0.0581  0.0247 -0.7541
 7470SOL    HW134043   1.499   0.564  10.980  0.2994 -0.6531  0.0631
 7470SOL    HW234044   1.482   0.627  11.115 -1.4914 -1.1079  0.4504
 7471SOL     OW34045   2.905   1.264  11.287 -0.1924  0.1762  0.1542
 7471SOL    HW134046   2.874   1.321  11.217 -2.5858 -0.8085  0.4237
 7471SOL    HW234047   2.903   1.322  11.363 -1.1960  0.9033 -0.4242
 7472SOL     OW34048   0.680   3.147   3.294  0.1686  0.0293  0.2201
 7472SOL    HW134049   0.590   3.117   3.302 -1.3289  4.0895 -1.6647
 7472SOL    HW234050   0.721   3.129   3.379 -0.7310 -0.1777  0.6061
 7473SOL     OW34051   1.104   1.140   2.046  0.1529  0.2923  0.4040
 7473SOL    HW134052   1.107   1.063   1.990 -2.2700 -0.2391  1.0355
 7473SOL    HW234053   1.173   1.198   2.012  0.0857 -0.0665 -0.3233
 7474SOL     OW34054   1.125   2.837   7.144 -0.6736  0.0233 -0.6089
 7474SOL    HW134055   1.088   2.916   7.184  1.0994  0.1472  0.7800
 7474SOL    HW234056   1.137   2.854   7.051 -1.8076 -2.8121 -1.2720
 7475SOL     OW34057   2.360   3.890   2.663  0.1328 -0.1646  0.5158
 7475SOL    HW134058   2.453   3.870   2.659  0.0112 -0.9547  1.4490
 7475SOL    HW234059   2.324   3.857   2.581 -0.1689  0.9511  0.2089
 7476SOL     OW34060   1.743   4.109   2.268 -0.7530 -0.4306  0.3903
 7476SOL    HW134061   1.824   4.073   2.302  0.0473 -1.0249 -2.0932
 7476SOL    HW234062   1.767   4.201   2.265 -1.4630 -0.2864 -0.8907
 7477SOL     OW34063   0.388   2.938  14.779  0.3036  0.1656 -0.1280
 7477SOL    HW134064   0.449   2.976  14.842  1.6022  0.9371 -1.8440
 7477SOL    HW234065   0.410   2.973  14.692  0.3069  1.6418  0.4715
 7478SOL     OW34066   0.798   0.772   7.441 -0.1476 -0.2659 -0.6566
 7478SOL    HW134067   0.745   0.847   7.468 -0.3169 -0.0026 -1.7101
 7478SOL    HW234068   0.740   0.728   7.379 -0.2499 -1.2939  0.1550
 7479SOL     OW34069   2.255   2.674   1.817 -0.1317 -0.3919  0.0682
 7479SOL    HW134070   2.226   2.587   1.843 -1.8410 -0.0843 -0.7657
 7479SOL    HW234071   2.255   2.664   1.722  0.3818 -0.5780  0.0920
 7480SOL     OW34072   2.779   0.714   4.056  0.3522 -0.5126  0.1071
 7480SOL    HW134073   2.770   0.623   4.026  2.5400 -0.6115 -0.2195
 7480SOL    HW234074   2.823   0.758   3.984  3.1956 -0.9153  1.6033
 7481SOL     OW34075   1.343   2.057  11.492  0.1416 -0.5885  0.8961
 7481SOL    HW134076   1.335   1.969  11.527 -1.4335 -1.6281 -2.0532
 7481SOL    HW234077   1.269   2.063  11.431 -0.7928  0.0525  2.1074
 7482SOL     OW34078   1.668   1.485   8.763  0.5521  0.0891  0.2251
 7482SOL    HW134079   1.586   1.438   8.779 -0.2302  1.4258  0.0984
 7482SOL    HW234080   1.634   1.559   8.715 -0.7052 -0.8704 -0.3471
 7483SOL     OW34081   3.293   4.133  12.829  0.2151 -0.5529 -0.3076
 7483SOL    HW134082   3.380   4.097  12.811 -0.6459 -2.5571 -0.4713
 7483SOL    HW234083   3.280   4.100  12.918 -0.8494 -1.5958 -0.8514
 7484SOL     OW34084   3.100   0.555   3.790 -0.2890 -0.2712 -0.8595
 7484SOL    HW134085   3.166   0.586   3.728  1.0155 -0.8623  0.2305
 7484SOL    HW234086   3.106   0.621   3.859 -0.9311 -0.5078 -0.5766
 7485SOL     OW34087   3.160   2.315   8.861  1.0228  0.4052  0.0601
 7485SOL    HW134088   3.135   2.376   8.792  1.0018 -0.6581 -0.8780
 7485SOL    HW234089   3.238   2.357   8.896  1.7001  0.9228 -2.0897
 7486SOL     OW34090   2.399   0.740   1.901 -0.3923 -0.2011  0.6169
 7486SOL    HW134091   2.440   0.710   1.982 -0.5484 -0.5682  0.5588
 7486SOL    HW234092   2.307   0.724   1.920 -0.8650 -0.6056 -2.0511
 7487SOL     OW34093   0.464   4.182   2.277  0.1377 -0.0163  0.0318
 7487SOL    HW134094   0.539   4.128   2.301  1.5091  2.0138  0.3229
 7487SOL    HW234095   0.441   4.220   2.362  1.3657 -1.0465  0.8165
 7488SOL     OW34096   3.579   0.388  13.992  0.2816  0.2095 -0.4733
 7488SOL    HW134097   3.504   0.357  14.044  0.0123  0.2465 -0.8421
 7488SOL    HW234098   3.646   0.335  14.037  0.9994  1.3082 -0.2572
 7489SOL     OW34099   0.630   0.086   9.786 -0.0951 -0.2659  0.0808
 7489SOL    HW134100   0.668   0.131   9.861 -0.4279  0.6960 -0.3219
 7489SOL    HW234101   0.537   0.105   9.801  0.1055 -0.0158  0.9952
 7490SOL     OW34102   1.340   0.935   5.100 -0.4513  0.4003 -0.2021
 7490SOL    HW134103   1.300   0.990   5.032  1.4092  0.2418 -1.4205
 7490SOL    HW234104   1.403   0.996   5.139  0.8280  0.5688 -2.5320
 7491SOL     OW34105   4.655   4.018   6.086 -0.1464  0.3588  0.3234
 7491SOL    HW134106   4.652   4.010   5.991 -0.7386 -2.7839  0.6167
 7491SOL    HW234107   4.735   3.967   6.102 -0.1991 -0.1279 -1.0264
 7492SOL     OW34108   3.362   4.275  17.190 -0.4877 -0.0413 -0.0193
 7492SOL    HW134109   3.294   4.244  17.130  0.2588 -1.1833 -0.2573
 7492SOL    HW234110   3.389   4.196  17.236  0.9532  1.4109  1.6713
 7493SOL     OW34111   4.665   3.825   8.057  0.1843 -0.6597 -0.3056
 7493SOL    HW134112   4.607   3.769   8.006  0.3097 -0.6598 -0.4469
 7493SOL    HW234113   4.616   3.828   8.139 -0.1875 -1.0600 -0.5145
 7494SOL     OW34114   2.649   1.758   5.571  0.5714  0.3279 -0.0753
 7494SOL    HW134115   2.723   1.710   5.534 -0.6133 -0.2833 -1.6437
 7494SOL    HW234116   2.690   1.835   5.611 -2.1695  1.9186 -0.3450
 7495SOL     OW34117   3.472   1.868   5.013 -0.1349  0.2191 -0.7266
 7495SOL    HW134118   3.418   1.946   5.028  0.1127  0.3420 -0.4798
 7495SOL    HW234119   3.425   1.786   5.029 -0.2853  0.4551  0.0007
 7496SOL     OW34120   3.161   3.136   4.428  0.7948  0.2493  0.0329
 7496SOL    HW134121   3.230   3.083   4.389  0.3963 -0.0789 -0.2235
 7496SOL    HW234122   3.091   3.072   4.438  2.5958 -1.7226 -0.0413
 7497SOL     OW34123   3.841   0.377  13.054 -0.4997 -0.0691  0.2311
 7497SOL    HW134124   3.922   0.428  13.047 -1.2522  0.5369 -3.9481
 7497SOL    HW234125   3.868   0.309  12.992  0.5344  0.7020 -0.1655
 7498SOL     OW34126   0.465   1.517   3.631 -0.2824  0.1961 -0.5350
 7498SOL    HW134127   0.522   1.546   3.702  0.1053 -1.5640 -0.1118
 7498SOL    HW234128   0.382   1.493   3.674  1.0055 -0.8440  1.3712
 7499SOL     OW34129   4.440   1.962   7.910 -0.0791  0.0184 -0.6538
 7499SOL    HW134130   4.386   1.929   7.982 -0.0504 -0.4319 -0.8364
 7499SOL    HW234131   4.530   1.943   7.936 -0.3366 -0.7877 -0.3709
 7500SOL     OW34132   4.006   2.245  13.880  0.0606 -0.2000 -0.6572
 7500SOL    HW134133   4.076   2.194  13.838 -0.6361 -2.7446  1.2312
 7500SOL    HW234134   4.057   2.325  13.894 -0.1825 -0.5321  2.0394
 7501SOL     OW34135   2.872   1.967  12.681 -0.5068  0.5052  0.9854
 7501SOL    HW134136   2.928   1.898  12.645 -1.6250  0.0800  0.0519
 7501SOL    HW234137   2.804   1.920  12.730 -1.8480  4.0761  2.5343
 7502SOL     OW34138   2.525   3.980   6.291  0.0950 -0.2013 -0.3348
 7502SOL    HW134139   2.522   3.885   6.275  1.5164 -0.1257 -0.9976
 7502SOL    HW234140   2.593   3.989   6.224  2.0050  1.1166  1.7980
 7503SOL     OW34141   0.476   3.171  17.256 -0.1044  0.5370  0.1699
 7503SOL    HW134142   0.571   3.176  17.259  0.0636 -0.8975 -1.9876
 7503SOL    HW234143   0.453   3.235  17.189  0.7347  1.4055  0.7234
 7504SOL     OW34144   4.155   0.507   2.062  0.1241  0.4333 -0.1938
 7504SOL    HW134145   4.060   0.521   2.072 -0.3449 -1.8464 -1.4729
 7504SOL    HW234146   4.149   0.449   1.987  0.1082  1.0803 -0.6918
 7505SOL     OW34147   1.340   2.255   4.881  0.4673 -0.0807  0.4662
 7505SOL    HW134148   1.350   2.340   4.924 -1.6541  0.4887 -0.1453
 7505SOL    HW234149   1.433   2.244   4.859  0.4750 -0.4830  0.7116
 7506SOL     OW34150   4.345   4.263   2.324  0.5806  0.2987 -0.1966
 7506SOL    HW134151   4.419   4.325   2.320  0.6673  0.2682  1.0390
 7506SOL    HW234152   4.372   4.192   2.267  2.2677  0.4515  0.3868
 7507SOL     OW34153   0.124   2.278   6.240 -0.2791 -0.2148 -0.6458
 7507SOL    HW134154   0.175   2.354   6.214  0.3674  0.3643  2.3175
 7507SOL    HW234155   0.198   2.229   6.275 -0.2555  0.0848 -0.2814
 7508SOL     OW34156   1.619   0.422  13.341  0.1659 -0.1875 -0.4537
 7508SOL    HW134157   1.680   0.353  13.366 -1.5375 -1.2864  0.6889
 7508SOL    HW234158   1.584   0.395  13.256  0.3797 -1.4080 -0.1482
 7509SOL     OW34159   3.733   1.070   5.666 -0.4215 -0.3744  0.4292
 7509SOL    HW134160   3.685   1.034   5.592  0.8633  1.1606 -1.1464
 7509SOL    HW234161   3.800   1.002   5.677 -2.2328 -1.8802  2.2452
 7510SOL     OW34162   0.932   2.512   8.056  0.7012 -0.5998  0.8539
 7510SOL    HW134163   0.959   2.494   7.966  1.2980 -0.9719  1.1063
 7510SOL    HW234164   0.973   2.429   8.082  1.3419 -0.9119 -1.1367
 7511SOL     OW34165   4.500   0.399   6.939  0.3233 -0.2950  0.1079
 7511SOL    HW134166   4.565   0.331   6.956 -0.4944 -1.0719  0.1361
 7511SOL    HW234167   4.440   0.354   6.879  0.3658  0.1413 -0.2663
 7512SOL     OW34168   2.572   1.240   4.112  0.4001  0.2984 -0.2387
 7512SOL    HW134169   2.661   1.260   4.082  0.6399 -0.9791 -0.3762
 7512SOL    HW234170   2.587   1.265   4.203 -0.3649 -1.6447  0.4238
 7513SOL     OW34171   3.800   0.843   4.572 -0.1166 -0.1532 -0.0542
 7513SOL    HW134172   3.714   0.835   4.531 -0.9102  0.7126  1.4459
 7513SOL    HW234173   3.799   0.786   4.649 -1.2337 -0.8281 -0.5598
 7514SOL     OW34174   1.137   2.849   0.161 -0.1801 -0.1907 -0.1444
 7514SOL    HW134175   1.073   2.852   0.233 -0.0717 -2.5072  0.0475
 7514SOL    HW234176   1.093   2.910   0.102 -2.9782 -4.1000 -2.1445
 7515SOL     OW34177   0.150   2.791   2.544  0.2655 -0.1927 -0.1320
 7515SOL    HW134178   0.102   2.763   2.621 -0.9915  0.5601 -0.6471
 7515SOL    HW234179   0.209   2.860   2.575 -0.3341  0.1803  0.1629
 7516SOL     OW34180   1.968   3.830   7.094  0.1053 -0.0659 -0.6210
 7516SOL    HW134181   1.983   3.863   7.183  0.7747  0.4892 -0.9456
 7516SOL    HW234182   2.043   3.773   7.080  1.2845  1.2626  0.2769
 7517SOL     OW34183   0.765   4.430   0.904  0.7169  0.2267 -0.0997
 7517SOL    HW134184   0.754   4.525   0.899  1.1601  0.1809 -1.8726
 7517SOL    HW234185   0.693   4.402   0.961 -0.9148 -1.4727 -2.9481
 7518SOL     OW34186   4.502   2.509   0.384  0.4295  0.1748  0.2201
 7518SOL    HW134187   4.441   2.475   0.319  1.6636 -0.1884 -0.7533
 7518SOL    HW234188   4.490   2.436   0.445 -0.1613  0.3214  0.2708
 7519SOL     OW34189   4.736   1.934   0.282  0.5800 -0.2239 -0.2067
 7519SOL    HW134190   0.050   1.971   0.354  0.9422  0.9703 -1.0886
 7519SOL    HW234191   0.066   1.903   0.221  1.4625 -0.4294  0.8696
 7520SOL     OW34192   1.185   1.541  17.036  0.2712 -0.4239  0.8171
 7520SOL    HW134193   1.142   1.475  16.983  0.4899 -0.3606  0.5640
 7520SOL    HW234194   1.190   1.608  16.968  1.2407  1.4984  2.7386
 7521SOL     OW34195   1.368   2.654   2.789  0.2300 -0.0595 -0.1871
 7521SOL    HW134196   1.348   2.745   2.769 -1.0529 -0.5460 -1.0822
 7521SOL    HW234197   1.294   2.611   2.748  0.8177 -2.1832  0.9634
 7522SOL     OW34198   2.927   1.248  12.558 -0.4467 -0.1010 -0.5843
 7522SOL    HW134199   2.866   1.174  12.561  1.8685 -1.9772  0.3907
 7522SOL    HW234200   2.940   1.270  12.650  0.1166  2.3816 -1.2593
 7523SOL     OW34201   3.118   0.039   2.367  0.1691 -0.1129 -0.1014
 7523SOL    HW134202   3.092   4.727   2.445 -1.6613  1.3354  0.2030
 7523SOL    HW234203   3.053   0.109   2.375  0.0262 -0.3307  0.5705
 7524SOL     OW34204   4.319   3.943   7.512  0.0212  0.5889 -0.0033
 7524SOL    HW134205   4.340   3.858   7.474  0.1681  1.6066 -2.2058
 7524SOL    HW234206   4.410   3.973   7.516  0.2510 -0.0786 -0.1736
 7525SOL     OW34207   0.445   3.989  13.799 -0.3813 -0.4607 -0.7067
 7525SOL    HW134208   0.517   4.016  13.856 -0.2674  0.9572 -1.5193
 7525SOL    HW234209   0.475   4.017  13.712  0.6416 -0.9372 -0.5038
 7526SOL     OW34210   1.497   3.500  12.368  0.8309  0.3656  0.3496
 7526SOL    HW134211   1.474   3.584  12.328  1.8906  0.3873 -0.2059
 7526SOL    HW234212   1.465   3.516  12.457  2.4131 -0.8392  1.1278
 7527SOL     OW34213   0.037   4.357   5.667 -0.1484 -0.1194  0.2799
 7527SOL    HW134214   4.725   4.436   5.642  0.7559 -0.0796 -1.3704
 7527SOL    HW234215   0.107   4.395   5.721  0.0152  0.1569 -0.1177
 7528SOL     OW34216   0.053   2.396  10.962 -0.7269 -0.0126  0.5303
 7528SOL    HW134217   0.125   2.354  11.008 -0.9882 -0.9556  0.0697
 7528SOL    HW234218   0.071   2.369  10.872 -0.7923  0.6631  0.3078
 7529SOL     OW34219   3.269   0.859  16.116 -0.0729 -0.3691 -0.5836
 7529SOL    HW134220   3.230   0.774  16.131 -1.1740  0.0462 -1.1527
 7529SOL    HW234221   3.276   0.881  16.209 -1.2094  2.8619 -1.2648
 7530SOL     OW34222   3.037   3.381  10.006  0.2886  0.1815 -0.3129
 7530SOL    HW134223   3.053   3.297  10.048  0.2004 -0.6442 -1.9629
 7530SOL    HW234224   3.076   3.357   9.922 -1.7782 -0.1849 -1.1591
 7531SOL     OW34225   1.869   0.819   2.337 -0.5576 -0.4962 -0.0828
 7531SOL    HW134226   1.876   0.755   2.408  2.2661 -0.3437 -0.2206
 7531SOL    HW234227   1.851   0.899   2.386  1.2699  1.2818 -2.3143
 7532SOL     OW34228   4.185   2.903   6.898  0.1304  0.3160 -0.4440
 7532SOL    HW134229   4.250   2.962   6.937 -0.4272  1.2669 -0.9424
 7532SOL    HW234230   4.237   2.846   6.842  0.1935  0.2061 -0.2726
 7533SOL     OW34231   3.233   2.522   7.214  0.1142  0.1692 -0.6298
 7533SOL    HW134232   3.244   2.462   7.141  1.1100 -0.5544  0.1168
 7533SOL    HW234233   3.318   2.565   7.204 -0.8861  2.5597  1.0424
 7534SOL     OW34234   1.678   0.996   3.791 -0.2471 -0.3839  0.3294
 7534SOL    HW134235   1.759   1.044   3.807 -0.8737  0.8916 -0.3360
 7534SOL    HW234236   1.667   1.018   3.699  0.4762 -0.5075  0.2096
 7535SOL     OW34237   2.103   0.891   7.991 -0.2666 -0.2074  0.0597
 7535SOL    HW134238   2.173   0.956   8.003  0.8509 -2.1494  3.9909
 7535SOL    HW234239   2.093   0.871   8.084 -1.4012  0.7336  0.1366
 7536SOL     OW34240   1.548   4.083   2.618 -0.4573 -0.1217  0.1408
 7536SOL    HW134241   1.467   4.054   2.660 -1.8358  2.0762 -1.0150
 7536SOL    HW234242   1.606   4.061   2.691  0.1692  0.0193 -0.3147
 7537SOL     OW34243   2.692   1.429   8.067  0.3175 -0.2587  0.1226
 7537SOL    HW134244   2.669   1.515   8.101  1.3290 -0.9502  2.5652
 7537SOL    HW234245   2.787   1.430   8.078  0.0482  0.6268  2.2483
 7538SOL     OW34246   2.405   2.893  17.446  0.2376  0.3567 -0.0170
 7538SOL    HW134247   2.457   2.920  17.521 -0.9830  1.2285  0.5109
 7538SOL    HW234248   2.407   2.971  17.390  0.7685 -1.0488 -1.9382
 7539SOL     OW34249   0.960   1.458  13.340 -0.3990 -0.0058  0.0603
 7539SOL    HW134250   0.974   1.364  13.338 -0.9570 -0.0859 -0.1072
 7539SOL    HW234251   1.044   1.495  13.314 -0.3029 -0.4730 -0.2777
 7540SOL     OW34252   2.332   4.117   2.826 -0.1011  0.1029 -0.3039
 7540SOL    HW134253   2.311   4.023   2.830 -0.4707  0.0741 -3.2326
 7540SOL    HW234254   2.283   4.144   2.748 -0.5380  0.2330  0.0146
 7541SOL     OW34255   1.969   2.129   2.064 -0.5211  0.3978  0.0213
 7541SOL    HW134256   1.978   2.158   2.155 -0.5437  1.1183 -0.2031
 7541SOL    HW234257   2.036   2.061   2.060 -0.4852  0.5054 -1.3938
 7542SOL     OW34258   3.767   0.533   0.439  0.1883  0.9416 -0.0219
 7542SOL    HW134259   3.863   0.537   0.445  0.4152 -4.7225  0.2264
 7542SOL    HW234260   3.742   0.499   0.525 -1.5253 -2.5804 -1.8889
 7543SOL     OW34261   2.841   1.276   4.806  0.0766  0.0844  0.5107
 7543SOL    HW134262   2.818   1.355   4.855  0.0165 -0.6621  1.6981
 7543SOL    HW234263   2.936   1.279   4.806  0.1299 -1.4128  1.3466
 7544SOL     OW34264   2.495   0.991  11.856  0.1302  0.0149 -0.0184
 7544SOL    HW134265   2.561   1.060  11.865  0.0467  0.0785  0.1124
 7544SOL    HW234266   2.429   1.036  11.910  0.6789  0.0784  0.6119
 7545SOL     OW34267   3.245   3.221   3.163 -0.0717  0.2614 -0.1171
 7545SOL    HW134268   3.171   3.165   3.186  0.7533 -1.2454 -1.1209
 7545SOL    HW234269   3.318   3.166   3.190 -0.5362 -0.6768 -0.7779
 7546SOL     OW34270   4.690   0.930   8.535 -0.0629 -0.0827  0.3752
 7546SOL    HW134271   4.722   0.994   8.471  0.3286  2.4763  3.1130
 7546SOL    HW234272   0.005   0.852   8.514  0.7088  0.4084  0.4660
 7547SOL     OW34273   3.524   0.229  10.023  0.1097 -0.5280 -0.7243
 7547SOL    HW134274   3.534   0.145   9.980 -0.6446  0.1022 -2.1423
 7547SOL    HW234275   3.429   0.225  10.038  0.3170 -0.1206  0.6663
 7548SOL     OW34276   0.552   1.540   2.090  0.1883 -0.1346  0.0326
 7548SOL    HW134277   0.565   1.466   2.148 -1.6832 -0.5986 -0.1310
 7548SOL    HW234278   0.517   1.600   2.157  1.5665  0.9654 -0.2216
 7549SOL     OW34279   4.029   2.992  16.392  0.0610 -0.0455  0.0991
 7549SOL    HW134280   3.987   3.078  16.393  0.2904  0.0427  1.3724
 7549SOL    HW234281   4.006   2.965  16.303 -0.8876  0.8313  0.0760
 7550SOL     OW34282   3.582   4.160   3.722  0.1322  0.6254  0.1352
 7550SOL    HW134283   3.595   4.121   3.635  0.0769 -1.3630  1.0153
 7550SOL    HW234284   3.519   4.229   3.699  0.7139  1.2143  0.3017
 7551SOL     OW34285   2.762   2.622   9.664 -0.3834  0.1015 -0.4006
 7551SOL    HW134286   2.734   2.566   9.737  0.2014 -0.8925 -0.9385
 7551SOL    HW234287   2.845   2.658   9.696 -0.9528  0.5380  0.5975
 7552SOL     OW34288   4.372   2.421   9.211  0.0995  0.4610 -0.6431
 7552SOL    HW134289   4.376   2.326   9.200 -1.7491  0.2407  0.7933
 7552SOL    HW234290   4.298   2.439   9.153 -0.0612 -0.8588 -0.8393
 7553SOL     OW34291   4.222   2.732   2.001  0.0178  0.1129 -0.2342
 7553SOL    HW134292   4.290   2.759   2.062  0.3397  2.5173 -1.6860
 7553SOL    HW234293   4.244   2.781   1.922 -2.1641  3.7542  1.3925
 7554SOL     OW34294   3.526   3.390  10.059  0.5627  0.6937 -0.8147
 7554SOL    HW134295   3.451   3.448  10.045  0.2079  0.2746 -0.6322
 7554SOL    HW234296   3.500   3.317  10.002 -0.6423 -0.3036  1.0350
 7555SOL     OW34297   2.269   3.909   7.898  0.4000 -0.2736 -0.2452
 7555SOL    HW134298   2.338   3.845   7.880 -0.3143 -0.2977 -2.9414
 7555SOL    HW234299   2.216   3.900   7.819 -1.4445 -1.2332  1.1010
 7556SOL     OW34300   0.403   0.884   3.647 -0.0873  0.2110 -0.7847
 7556SOL    HW134301   0.434   0.933   3.571  0.0815  0.9387 -0.2427
 7556SOL    HW234302   0.481   0.838   3.678 -0.4712  0.4100  0.4937
 7557SOL     OW34303   4.315   0.662   3.592  0.3481 -0.3209 -0.0377
 7557SOL    HW134304   4.328   0.721   3.517 -1.0300 -1.3046 -1.0623
 7557SOL    HW234305   4.295   0.725   3.660  0.4461 -0.3623  0.0295
 7558SOL     OW34306   4.093   2.373   3.687 -0.3112 -0.0272  0.1115
 7558SOL    HW134307   4.110   2.420   3.605 -1.6769 -2.9062 -1.8209
 7558SOL    HW234308   4.041   2.434   3.739  0.6167 -0.1945  1.2257
 7559SOL     OW34309   1.294   1.404   5.778  0.2171  0.3365 -0.0411
 7559SOL    HW134310   1.353   1.370   5.710  2.1922  1.7504  0.9609
 7559SOL    HW234311   1.347   1.477   5.811 -1.7824  2.2519 -1.1089
 7560SOL     OW34312   2.436   2.283  10.285  0.3272 -0.2683  0.3568
 7560SOL    HW134313   2.365   2.295  10.223  1.4461 -0.4660 -0.9656
 7560SOL    HW234314   2.435   2.363  10.338 -1.4895  0.5609 -0.9310
 7561SOL     OW34315   3.568   0.329   3.932  0.4739  0.3967  0.2901
 7561SOL    HW134316   3.513   0.402   3.906  1.4035  0.3090 -1.9084
 7561SOL    HW234317   3.509   0.289   3.996 -0.4799  0.4793 -0.5538
 7562SOL     OW34318   4.641   1.168   5.692  0.5344  0.0520  0.3809
 7562SOL    HW134319   4.568   1.113   5.662  0.9344  0.0930 -0.6499
 7562SOL    HW234320   4.668   1.200   5.607 -0.1085 -0.3824  0.0075
 7563SOL     OW34321   4.126   2.072   6.061 -0.3260  0.0808  0.0063
 7563SOL    HW134322   4.078   1.991   6.077  0.7585 -0.0998  2.3370
 7563SOL    HW234323   4.147   2.090   6.152  1.6498 -0.7810 -0.2905
 7564SOL     OW34324   0.379   1.457   7.460 -0.1344  0.1725  0.5016
 7564SOL    HW134325   0.302   1.509   7.437  0.9539  0.6451 -2.0619
 7564SOL    HW234326   0.401   1.502   7.542  2.3069 -0.0607 -0.0553
 7565SOL     OW34327   1.784   3.822   3.886  0.1402 -0.5094 -0.0423
 7565SOL    HW134328   1.807   3.739   3.926  0.4785  0.1592  1.1565
 7565SOL    HW234329   1.744   3.780   3.810  1.3404 -1.0367 -0.3810
 7566SOL     OW34330   0.019   2.393   7.205 -0.3629 -0.5012 -0.3370
 7566SOL    HW134331   4.702   2.362   7.133 -0.3173  2.2728 -1.5755
 7566SOL    HW234332   0.051   2.476   7.170 -1.4082  0.8545  1.9623
 7567SOL     OW34333   0.565   2.654   1.428  0.3034 -0.3642 -0.3569
 7567SOL    HW134334   0.546   2.716   1.358  0.2795  0.6807  0.5809
 7567SOL    HW234335   0.480   2.625   1.461  0.6656 -1.9979 -0.8616
 7568SOL     OW34336   2.206   1.232  10.361  0.4876  0.6167  0.1010
 7568SOL    HW134337   2.183   1.275  10.279  1.1479 -0.5130 -0.6733
 7568SOL    HW234338   2.182   1.296  10.428 -0.6338  0.4654 -0.1589
 7569SOL     OW34339   0.581   4.332   2.935 -0.0734 -0.0307 -0.5060
 7569SOL    HW134340   0.611   4.416   2.901  2.6799 -0.6738  0.3230
 7569SOL    HW234341   0.491   4.338   2.904  0.4826  0.8997 -1.9412
 7570SOL     OW34342   2.527   3.292   6.985  0.2176  0.1511  0.2426
 7570SOL    HW134343   2.446   3.321   6.943  1.1347  1.3701 -0.6735
 7570SOL    HW234344   2.501   3.200   6.981 -2.3262  0.8893 -0.0964
 7571SOL     OW34345   4.085   3.975   7.343  0.1375  0.1352 -0.5873
 7571SOL    HW134346   4.126   3.957   7.427  0.5934 -2.9124 -1.4613
 7571SOL    HW234347   4.138   3.916   7.288 -0.5111 -0.7514 -0.2521
 7572SOL     OW34348   2.330   0.614   8.987  0.0788  0.0907 -0.1537
 7572SOL    HW134349   2.330   0.664   9.069 -1.3831 -1.8076  1.0304
 7572SOL    HW234350   2.424   0.604   8.974  0.0391  0.0906 -0.4263
 7573SOL     OW34351   2.017   3.877  15.529  0.4702  0.2541 -0.5036
 7573SOL    HW134352   2.102   3.914  15.552  0.1020  1.3157 -0.8339
 7573SOL    HW234353   2.027   3.784  15.552  2.6353  0.2541 -1.3692
 7574SOL     OW34354   1.143   2.894   6.856  0.0134  0.4806 -0.2481
 7574SOL    HW134355   1.226   2.935   6.831  0.4745  0.3015  0.9608
 7574SOL    HW234356   1.084   2.955   6.814 -0.4547  1.2533  1.5377
 7575SOL     OW34357   3.728   2.305   6.397  0.0530 -0.7342 -0.3056
 7575SOL    HW134358   3.780   2.236   6.355  1.0021  0.4486 -1.0881
 7575SOL    HW234359   3.703   2.256   6.475  2.2069 -1.4308 -0.0558
 7576SOL     OW34360   4.413   4.720   8.124  0.6719 -0.4357  0.2931
 7576SOL    HW134361   4.498   4.715   8.168  1.6243 -1.1300 -1.6178
 7576SOL    HW234362   4.385   4.633   8.151  1.3175 -0.4683  0.8623
 7577SOL     OW34363   0.449   4.337   2.067  0.3733  0.3979  0.5236
 7577SOL    HW134364   0.398   4.303   1.994 -1.7447 -0.3413  2.3229
 7577SOL    HW234365   0.429   4.271   2.133  1.1555  0.1239  0.4879
 7578SOL     OW34366   3.044   3.102  14.583 -0.4647  0.1223  0.3280
 7578SOL    HW134367   3.118   3.063  14.537 -0.8865 -0.8707  0.4977
 7578SOL    HW234368   3.021   3.044  14.656  0.2234 -1.2906 -0.5954
 7579SOL     OW34369   1.920   2.711   1.759 -0.7443 -0.1888  0.5065
 7579SOL    HW134370   1.939   2.771   1.688 -0.1309  0.7968  1.5076
 7579SOL    HW234371   1.948   2.754   1.840  1.5055 -2.9523  1.1971
 7580SOL     OW34372   1.999   0.754  12.483 -0.0032  0.6091 -0.0064
 7580SOL    HW134373   1.965   0.841  12.462 -3.0336 -0.6099 -0.1225
 7580SOL    HW234374   1.976   0.751  12.576 -1.2935  0.5325 -0.3192
 7581SOL     OW34375   0.566   2.368   4.596  0.2515 -0.1313 -0.1219
 7581SOL    HW134376   0.504   2.314   4.546  0.7704 -1.4334  0.6722
 7581SOL    HW234377   0.577   2.447   4.542 -1.6620  2.3848  3.1462
 7582SOL     OW34378   4.376   1.842  10.384  0.0462  0.1702  0.3724
 7582SOL    HW134379   4.343   1.879  10.302  0.1723 -0.1509  0.1810
 7582SOL    HW234380   4.436   1.778  10.345 -3.7490 -1.9233 -2.0126
 7583SOL     OW34381   1.555   3.132   1.402  0.0658 -0.1122  0.4328
 7583SOL    HW134382   1.567   3.219   1.440  1.1338  0.1889 -0.5901
 7583SOL    HW234383   1.648   3.109   1.393  0.3399  0.1906  2.4984
 7584SOL     OW34384   1.649   0.716   2.763 -0.4558 -0.6466 -0.1212
 7584SOL    HW134385   1.586   0.781   2.732  1.0016 -0.1184 -1.9710
 7584SOL    HW234386   1.595   0.658   2.817  3.3986 -2.2020  2.0494
 7585SOL     OW34387   0.425   2.210  16.523  0.8594 -0.0396 -0.2272
 7585SOL    HW134388   0.455   2.126  16.488 -0.9947 -1.3524  1.3007
 7585SOL    HW234389   0.502   2.265  16.528  0.0576  0.9721  1.0893
 7586SOL     OW34390   2.149   0.196  12.914 -0.2468 -0.3926 -0.0905
 7586SOL    HW134391   2.087   0.221  12.846  3.3334  2.1519 -2.4208
 7586SOL    HW234392   2.095   0.174  12.989  0.7341  0.5237  0.8921
 7587SOL     OW34393   3.001   2.437   0.122  0.1566 -0.0460 -0.4510
 7587SOL    HW134394   3.001   2.533   0.119 -2.6642 -0.0670 -0.9472
 7587SOL    HW234395   2.906   2.429   0.109  0.3563  1.4483 -2.7760
 7588SOL     OW34396   3.087   2.950   1.238 -0.8612 -0.2737  0.7689
 7588SOL    HW134397   3.143   2.923   1.311 -0.1750 -0.0125  0.3362
 7588SOL    HW234398   3.075   2.863   1.201  1.3908 -0.4611  0.5335
 7589SOL     OW34399   1.537   1.705   6.817  0.5598  0.2361  0.2082
 7589SOL    HW134400   1.491   1.718   6.900 -1.1542 -0.5778 -0.6108
 7589SOL    HW234401   1.596   1.633   6.838 -0.0658  0.4048  2.4896
 7590SOL     OW34402   3.064   3.349  10.939  0.1977 -0.2821  0.2098
 7590SOL    HW134403   3.138   3.342  11.000  0.3124  0.6751  0.1833
 7590SOL    HW234404   3.025   3.429  10.973  1.8862  0.7452 -0.2282
 7591SOL     OW34405   0.272   2.598   5.335 -0.0722  0.1120  0.6814
 7591SOL    HW134406   0.235   2.547   5.263  1.7412 -1.6186  0.9674
 7591SOL    HW234407   0.364   2.576   5.319  0.3537  0.1836  3.0484
 7592SOL     OW34408   4.377   4.620  16.861 -0.3688  0.2189 -0.1391
 7592SOL    HW134409   4.282   4.607  16.861 -0.3288 -0.1061  2.6510
 7592SOL    HW234410   4.394   4.561  16.935  0.3412 -0.5686 -0.9208
 7593SOL     OW34411   2.606   0.481   5.526 -0.2102  0.7016  0.3422
 7593SOL    HW134412   2.600   0.386   5.532 -2.8957  0.7901 -1.0954
 7593SOL    HW234413   2.522   0.507   5.564 -0.1722 -0.5208  1.2867
 7594SOL     OW34414   1.659   1.819  11.666  0.3758  0.0258  0.4290
 7594SOL    HW134415   1.649   1.912  11.646 -0.7554  0.0062  0.9080
 7594SOL    HW234416   1.569   1.791  11.647 -0.2751  2.1963  0.2654
 7595SOL     OW34417   0.386   3.492  10.357 -0.2921  0.3130  0.0915
 7595SOL    HW134418   0.449   3.434  10.399 -1.7178 -1.6850 -0.5614
 7595SOL    HW234419   0.432   3.574  10.376  1.9212 -1.1295  0.9184
 7596SOL     OW34420   3.376   4.134   2.895 -0.4478  0.4694  0.4678
 7596SOL    HW134421   3.417   4.047   2.894 -1.3264  0.0546  1.2354
 7596SOL    HW234422   3.309   4.128   2.827 -0.6704 -1.3290  0.8366
 7597SOL     OW34423   4.341   0.225   5.265  0.5250 -0.1607  0.1594
 7597SOL    HW134424   4.326   0.258   5.353 -0.5854  3.2154 -1.3043
 7597SOL    HW234425   4.368   0.299   5.210  2.4284 -1.1483 -0.2236
 7598SOL     OW34426   3.134   2.414   5.919  0.5309  0.6255 -0.7002
 7598SOL    HW134427   3.091   2.452   5.995  0.0399  1.5216 -1.4301
 7598SOL    HW234428   3.054   2.393   5.870 -0.3414  0.0176  0.9948
 7599SOL     OW34429   3.787   3.322   5.804 -0.2315 -0.3777 -0.1383
 7599SOL    HW134430   3.726   3.359   5.740  0.3179  0.7365 -0.0018
 7599SOL    HW234431   3.756   3.367   5.882  0.5138 -1.2695  0.6661
 7600SOL     OW34432   4.353   3.345   6.863 -0.0247  0.1578  0.3251
 7600SOL    HW134433   4.378   3.355   6.955  1.3969  1.1717 -0.1706
 7600SOL    HW234434   4.260   3.343   6.886 -0.5191  1.1043 -1.5617
 7601SOL     OW34435   1.547   2.246   7.799  0.0409  0.6870 -0.1106
 7601SOL    HW134436   1.600   2.226   7.876 -0.9144 -2.4301 -0.2994
 7601SOL    HW234437   1.479   2.179   7.801  1.5190 -0.7639  0.7001
 7602SOL     OW34438   0.713   3.506  11.339 -0.5858 -0.0744 -0.1998
 7602SOL    HW134439   0.674   3.434  11.289 -0.3300  0.7449 -1.5645
 7602SOL    HW234440   0.787   3.452  11.371 -0.5383 -0.0876 -0.3319
 7603SOL     OW34441   1.244   2.629   7.278 -0.8136  0.7753 -0.2757
 7603SOL    HW134442   1.235   2.720   7.249 -2.5277  0.3669 -1.0290
 7603SOL    HW234443   1.211   2.576   7.205 -0.2972  0.5595 -0.3549
 7604SOL     OW34444   4.415   1.531  16.705  0.0471 -0.7618 -0.2043
 7604SOL    HW134445   4.424   1.515  16.799 -0.5315  2.8585  0.4495
 7604SOL    HW234446   4.427   1.442  16.672  3.0226 -0.8235  1.0428
 7605SOL     OW34447   0.167   0.597   7.991  0.1881 -0.7757  0.4408
 7605SOL    HW134448   0.214   0.592   8.074  0.4763 -3.1047  0.1255
 7605SOL    HW234449   0.224   0.548   7.931  0.2240 -1.3065  0.9112
 7606SOL     OW34450   1.985   1.579   3.517  0.6008  0.0265  0.1429
 7606SOL    HW134451   1.929   1.518   3.470  0.5289  0.1839  0.0265
 7606SOL    HW234452   2.017   1.530   3.593  0.7184  0.0493  0.1081
 7607SOL     OW34453   3.212   2.573   1.958 -0.6201 -0.1921  0.2840
 7607SOL    HW134454   3.299   2.588   1.921 -0.0685  0.7008  1.9509
 7607SOL    HW234455   3.171   2.549   1.875  0.8972 -2.8288  0.3075
 7608SOL     OW34456   2.777   3.287   1.234 -0.3023 -0.2137  0.3844
 7608SOL    HW134457   2.754   3.287   1.327  0.9463  1.4652  0.6963
 7608SOL    HW234458   2.775   3.381   1.218 -0.4058 -0.2864 -0.0291
 7609SOL     OW34459   3.862   2.389  13.678  0.0755  0.2833  0.6418
 7609SOL    HW134460   3.846   2.298  13.703 -0.0071  0.4840  1.3088
 7609SOL    HW234461   3.780   2.430  13.703  0.4170  1.4967 -0.2330
 7610SOL     OW34462   2.007   3.630   3.375 -0.4906 -0.8029 -0.3539
 7610SOL    HW134463   2.053   3.686   3.437  1.9325 -2.8097 -0.3177
 7610SOL    HW234464   1.957   3.694   3.326  1.1088  1.1911  0.6278
 7611SOL     OW34465   1.418   4.276  13.974  0.6433 -0.3629 -0.3416
 7611SOL    HW134466   1.460   4.235  14.050 -0.4004  0.9603  0.9453
 7611SOL    HW234467   1.397   4.359  14.017 -1.6613 -0.6071 -1.0433
 7612SOL     OW34468   3.840   2.818  11.191 -0.6904  0.3830 -0.0647
 7612SOL    HW134469   3.838   2.899  11.140  0.3183 -0.0341 -0.7725
 7612SOL    HW234470   3.751   2.830  11.224 -1.0710 -0.2359 -0.8644
 7613SOL     OW34471   1.035   1.320   5.796  0.3459 -0.4632 -0.7267
 7613SOL    HW134472   1.046   1.227   5.816 -1.0186 -0.5990 -0.6528
 7613SOL    HW234473   1.123   1.356   5.805  0.9593 -1.9866 -0.5342
 7614SOL     OW34474   0.181   1.740   6.315 -0.4565 -0.0168  0.5489
 7614SOL    HW134475   0.238   1.751   6.391  2.2756  1.0258 -1.6808
 7614SOL    HW234476   0.210   1.806   6.252 -0.3784  0.7173  1.3556
 7615SOL     OW34477   0.878   1.345  15.175 -0.6512  0.1318 -0.4922
 7615SOL    HW134478   0.943   1.322  15.109 -0.6664 -0.9924 -0.1144
 7615SOL    HW234479   0.878   1.257  15.213  0.6044  0.2106 -0.3157
 7616SOL     OW34480   0.494   0.483   5.722 -0.4040  0.2148 -0.1054
 7616SOL    HW134481   0.426   0.545   5.695  0.1961  1.6017  1.5753
 7616SOL    HW234482   0.486   0.422   5.649 -3.8390 -2.7132  2.7085
 7617SOL     OW34483   3.200   1.896   2.104 -0.2028  0.2230  0.5797
 7617SOL    HW134484   3.206   1.893   2.008  0.6804  1.6054  0.5951
 7617SOL    HW234485   3.281   1.944   2.119 -1.1572  1.3878  2.0571
 7618SOL     OW34486   3.227   4.691   8.733 -0.4142 -0.3164 -0.0480
 7618SOL    HW134487   3.248   4.614   8.681  2.7974  0.2006  0.4876
 7618SOL    HW234488   3.304   4.708   8.787 -0.4886 -0.5899  0.1408
 7619SOL     OW34489   2.184   4.364  14.637  1.1291 -0.2227 -0.2401
 7619SOL    HW134490   2.156   4.290  14.691  0.2450  0.3731  0.1161
 7619SOL    HW234491   2.153   4.334  14.551 -1.3702  1.0532  0.2041
 7620SOL     OW34492   2.076   1.142  12.139 -1.0123 -0.3359 -0.5184
 7620SOL    HW134493   2.063   1.224  12.091  4.3058  0.1936 -1.1094
 7620SOL    HW234494   2.038   1.171  12.222 -0.3601 -1.7136  0.2678
 7621SOL     OW34495   4.352   1.890   6.363  0.0580 -0.4831  0.0162
 7621SOL    HW134496   4.308   1.822   6.414 -2.5038  1.5407  0.4710
 7621SOL    HW234497   4.404   1.835   6.304 -0.3438  0.5489 -1.2991
 7622SOL     OW34498   1.789   3.030   1.328 -0.0759 -0.3677  0.1773
 7622SOL    HW134499   1.737   2.991   1.259  0.4159 -2.1455  0.8128
 7622SOL    HW234500   1.870   3.052   1.282 -1.0942  0.5683 -1.1514
 7623SOL     OW34501   1.098   3.512   3.653 -0.6736 -0.6602  0.6016
 7623SOL    HW134502   1.149   3.580   3.696  2.1382 -1.8036 -0.9489
 7623SOL    HW234503   1.057   3.460   3.723 -0.7587  0.6622  1.5415
 7624SOL     OW34504   0.072   2.711   4.257 -0.4761  0.6748 -0.5933
 7624SOL    HW134505   0.155   2.726   4.212  0.1750  1.0587  0.7258
 7624SOL    HW234506   0.094   2.745   4.344  0.7625 -2.4087  0.2780
 7625SOL     OW34507   1.251   3.905   3.083 -0.7129  0.9058  0.1486
 7625SOL    HW134508   1.205   3.888   3.001  0.8800  0.1877 -0.5957
 7625SOL    HW234509   1.208   3.838   3.137 -0.1859 -0.0542 -0.6277
 7626SOL     OW34510   0.916   0.373   5.447 -0.2751 -0.0875 -0.0298
 7626SOL    HW134511   0.953   0.451   5.489  0.0264 -1.1903  1.7656
 7626SOL    HW234512   0.979   0.307   5.477 -0.1239 -0.4160 -1.0610
 7627SOL     OW34513   0.585   4.376  11.375 -0.5847 -0.1587  0.1784
 7627SOL    HW134514   0.548   4.298  11.333 -2.2047  0.5687  0.2777
 7627SOL    HW234515   0.680   4.371  11.363 -0.8159  0.1292 -1.7384
 7628SOL     OW34516   2.507   2.456   1.768  0.8171 -0.2736 -0.4045
 7628SOL    HW134517   2.457   2.382   1.736  0.0466 -0.3804  1.0517
 7628SOL    HW234518   2.548   2.428   1.851  0.4604  2.2310  0.6080
 7629SOL     OW34519   2.712   3.137   4.144  0.0220 -0.5598 -0.1544
 7629SOL    HW134520   2.714   3.201   4.216  0.7700 -1.2541  0.4383
 7629SOL    HW234521   2.651   3.188   4.090  1.0578 -0.5506 -1.3039
 7630SOL     OW34522   1.937   3.755  10.247  0.4147  0.3853 -0.5433
 7630SOL    HW134523   1.961   3.847  10.234  1.2585 -0.0003 -1.7330
 7630SOL    HW234524   1.857   3.741  10.196  0.8558 -0.7711 -0.9187
 7631SOL     OW34525   3.290   0.452   6.860  0.7979 -0.0947  0.3950
 7631SOL    HW134526   3.237   0.506   6.801 -0.8093 -0.1237  1.8185
 7631SOL    HW234527   3.353   0.518   6.891 -1.3329  2.3276 -0.3736
 7632SOL     OW34528   4.733   1.453  12.184 -0.4665  0.5726 -0.2758
 7632SOL    HW134529   4.650   1.449  12.136 -2.2395 -0.6736  2.9307
 7632SOL    HW234530   4.736   1.374  12.237  0.4849 -0.2199 -1.5148
 7633SOL     OW34531   0.035   3.851  11.263  0.5516  0.6000  0.6618
 7633SOL    HW134532   0.065   3.919  11.323  0.7121 -0.2229  1.5282
 7633SOL    HW234533   0.108   3.856  11.202  1.5230  1.6126  1.9104
 7634SOL     OW34534   1.055   3.514   6.752  0.1023  0.7370  0.1727
 7634SOL    HW134535   1.029   3.574   6.682  0.2709 -1.7636 -2.0381
 7634SOL    HW234536   1.008   3.546   6.828 -0.2146  1.0817 -0.1706
 7635SOL     OW34537   3.580   2.824   8.965 -0.0470  0.4234 -0.7293
 7635SOL    HW134538   3.572   2.920   8.965  0.9222  0.5044 -1.0820
 7635SOL    HW234539   3.557   2.794   8.878 -0.4090 -0.9579 -0.1622
 7636SOL     OW34540   1.743   2.277  15.172  0.0928 -0.3563 -0.0922
 7636SOL    HW134541   1.673   2.227  15.214  1.3391  1.2522  3.8750
 7636SOL    HW234542   1.752   2.340  15.243  0.8669 -0.6459  0.0602
 7637SOL     OW34543   0.828   3.402  16.993 -0.1207  0.3925 -0.4442
 7637SOL    HW134544   0.909   3.413  17.043 -0.8147  0.8979  0.5677
 7637SOL    HW234545   0.766   3.352  17.045 -1.1669  1.7627 -0.3715
 7638SOL     OW34546   1.348   1.482   3.212  0.1376 -0.0444 -0.2739
 7638SOL    HW134547   1.393   1.421   3.154  1.3390 -0.5329  1.1507
 7638SOL    HW234548   1.270   1.427   3.223 -0.6157  1.3280  1.3025
 7639SOL     OW34549   3.538   0.722   9.570  0.0907 -0.1915  0.0925
 7639SOL    HW134550   3.512   0.690   9.484  2.2577  0.8852 -0.9787
 7639SOL    HW234551   3.502   0.663   9.636  0.0301  1.4481  1.5397
 7640SOL     OW34552   2.622   1.014   9.408 -0.7721 -0.0784  1.0309
 7640SOL    HW134553   2.713   1.012   9.438 -0.6383 -0.4543  0.5969
 7640SOL    HW234554   2.625   0.946   9.341 -2.0899 -0.4291  1.3169
 7641SOL     OW34555   1.166   4.345   4.857  0.1248 -0.2735 -0.2211
 7641SOL    HW134556   1.121   4.315   4.936 -0.9163 -0.8004 -1.0084
 7641SOL    HW234557   1.140   4.437   4.848 -0.0412 -0.5308 -2.4663
 7642SOL     OW34558   3.773   0.181   1.822  1.3536  0.0454 -0.5591
 7642SOL    HW134559   3.850   0.151   1.871  1.4857  2.8911  0.9978
 7642SOL    HW234560   3.719   0.103   1.826  1.1396  0.1804 -0.7735
 7643SOL     OW34561   2.253   3.578   6.617 -0.1493 -0.1901 -0.5679
 7643SOL    HW134562   2.218   3.662   6.647 -0.0703 -0.3638  0.0165
 7643SOL    HW234563   2.177   3.549   6.568  1.3256 -1.7146 -1.9354
 7644SOL     OW34564   4.102   4.688  16.183  0.5469 -0.6739 -0.2326
 7644SOL    HW134565   4.193   4.661  16.194 -0.6549 -3.8062  1.8694
 7644SOL    HW234566   4.106   4.664  16.091  0.0057  0.4224 -0.5423
 7645SOL     OW34567   1.949   3.581  16.326  0.6522  0.5956 -0.3265
 7645SOL    HW134568   1.919   3.548  16.410  0.0924 -1.3519 -1.2915
 7645SOL    HW234569   1.933   3.675  16.336  0.2681  0.5190 -0.2193
 7646SOL     OW34570   2.121   2.984   0.251  0.2138  0.0846  0.4707
 7646SOL    HW134571   2.122   2.911   0.189  1.3556 -0.0907  0.6950
 7646SOL    HW234572   2.158   2.934   0.324  0.0131  1.0864  1.2677
 7647SOL     OW34573   1.055   0.050   8.137 -0.1340 -0.2822  0.1619
 7647SOL    HW134574   1.141   0.090   8.155 -0.1552 -0.7060  1.1905
 7647SOL    HW234575   1.067   4.696   8.161  1.3412  0.5833  2.6933
 7648SOL     OW34576   1.302   0.147   5.112  0.5877  0.3120 -0.2441
 7648SOL    HW134577   1.354   0.068   5.102 -2.0379 -1.4888  0.5043
 7648SOL    HW234578   1.328   0.191   5.031 -2.1462  1.3194 -0.5691
 7649SOL     OW34579   2.805   4.625   5.937 -0.1794 -0.7574  0.1314
 7649SOL    HW134580   2.867   4.571   5.889 -0.7396 -0.8418 -0.5080
 7649SOL    HW234581   2.737   4.626   5.869  2.0671 -3.5552 -2.0965
 7650SOL     OW34582   2.356   2.706  17.223  0.2725 -0.0426  0.2024
 7650SOL    HW134583   2.419   2.777  17.238 -2.0075  2.0021  0.1627
 7650SOL    HW234584   2.343   2.668  17.309 -2.6420 -1.8088 -1.0364
 7651SOL     OW34585   3.813   3.518  12.500  0.1129  0.2771  0.2897
 7651SOL    HW134586   3.751   3.493  12.569  0.7688 -2.5797 -0.1801
 7651SOL    HW234587   3.829   3.612  12.514 -1.1761  0.5933 -0.3152
 7652SOL     OW34588   3.606   0.194   0.277 -0.0138  0.0162 -0.0114
 7652SOL    HW134589   3.687   0.244   0.293 -0.0965 -0.1817  0.9643
 7652SOL    HW234590   3.623   0.150   0.193 -0.9482 -0.2651 -0.0479
 7653SOL     OW34591   0.760   4.316  11.850  0.0441 -1.0957  0.3886
 7653SOL    HW134592   0.765   4.278  11.762 -0.4308  0.4445 -0.2884
 7653SOL    HW234593   0.744   4.237  11.903  1.2026 -1.4582  0.2147
 7654SOL     OW34594   2.161   4.001  11.938 -0.1061  0.0121  0.0178
 7654SOL    HW134595   2.071   3.998  11.969 -0.1511 -1.7359 -0.2661
 7654SOL    HW234596   2.200   3.932  11.992 -0.9048 -2.0600 -2.0288
 7655SOL     OW34597   2.986   0.001   4.220  0.4473  0.0328 -0.2823
 7655SOL    HW134598   3.040   4.671   4.262 -0.7989  1.4980  3.7667
 7655SOL    HW234599   2.941   0.048   4.291  1.2499 -1.1913  1.0378
 7656SOL     OW34600   3.518   4.698   9.859  0.2577 -0.5000 -0.7795
 7656SOL    HW134601   3.492   4.610   9.887 -1.6494  0.0674 -0.7755
 7656SOL    HW234602   3.609   4.696   9.890 -0.1551 -1.0152  0.4015
 7657SOL     OW34603   0.239   1.910   1.865 -0.0273 -0.0804  0.2262
 7657SOL    HW134604   0.250   1.938   1.956  1.0363  1.1404 -0.2740
 7657SOL    HW234605   0.237   1.815   1.859  0.3238 -0.1290  0.9878
 7658SOL     OW34606   3.086   1.290  10.155 -0.2969  0.2459 -0.0352
 7658SOL    HW134607   3.092   1.268  10.248 -3.6225 -0.9382 -0.1202
 7658SOL    HW234608   3.160   1.245  10.113 -0.3379 -0.9294  1.1533
 7659SOL     OW34609   0.854   4.413   5.563 -0.5034  0.1276 -0.1122
 7659SOL    HW134610   0.878   4.497   5.524  0.2944  0.2299  0.6085
 7659SOL    HW234611   0.769   4.423   5.605 -0.7256 -1.8887 -0.0815
 7660SOL     OW34612   2.240   0.122   3.370  0.8111 -0.0667  0.6104
 7660SOL    HW134613   2.153   0.157   3.355  1.1632  0.8945  0.8124
 7660SOL    HW234614   2.234   0.058   3.441 -0.9162 -0.1198  0.4024
 7661SOL     OW34615   4.283   1.669   6.550  0.1079 -0.5203 -0.1513
 7661SOL    HW134616   4.227   1.607   6.502  0.0031 -0.2634 -0.3567
 7661SOL    HW234617   4.336   1.609   6.602  0.6227 -0.0486 -0.1386
 7662SOL     OW34618   2.559   4.726   2.926 -0.2218  0.0326 -0.3166
 7662SOL    HW134619   2.554   0.067   2.982  1.2804 -0.6362  0.7496
 7662SOL    HW234620   2.652   4.721   2.903 -0.6265 -1.2185 -1.6105
 7663SOL     OW34621   3.539   4.402  11.238 -0.2964  0.5582  0.3928
 7663SOL    HW134622   3.448   4.427  11.224 -0.6434 -1.3253 -0.6712
 7663SOL    HW234623   3.557   4.424  11.329  2.2522  0.3278 -0.0504
 7664SOL     OW34624   1.836   3.375  12.635 -0.4895  0.2088 -0.3284
 7664SOL    HW134625   1.891   3.296  12.638 -1.3955 -0.2376  4.1818
 7664SOL    HW234626   1.884   3.430  12.697 -0.6502  0.5499 -0.5086
 7665SOL     OW34627   3.175   2.668  12.595 -0.2297 -0.1282  0.2047
 7665SOL    HW134628   3.238   2.601  12.621 -3.0242 -2.5790  0.7053
 7665SOL    HW234629   3.092   2.627  12.620 -0.5135 -0.2804 -0.9636
 7666SOL     OW34630   0.956   3.609   7.550  0.0844  0.3620 -0.5691
 7666SOL    HW134631   1.019   3.590   7.620 -0.4414  1.2318  0.1495
 7666SOL    HW234632   0.896   3.672   7.590  0.5940  1.6516 -1.8238
 7667SOL     OW34633   1.865   0.131   2.306 -1.0848  0.3668  0.3231
 7667SOL    HW134634   1.951   0.166   2.327 -0.3168 -2.0151  1.0881
 7667SOL    HW234635   1.805   0.184   2.359 -0.6095  0.0862  1.1270
 7668SOL     OW34636   1.746   3.410   5.672  0.5582 -0.3112  0.2405
 7668SOL    HW134637   1.814   3.409   5.739  0.2119 -1.2617  0.5717
 7668SOL    HW234638   1.729   3.316   5.665  0.2507 -0.3560  1.5248
 7669SOL     OW34639   2.420   0.337  12.736 -0.5141 -0.5354 -0.3388
 7669SOL    HW134640   2.401   0.250  12.703 -1.4772 -0.8729  1.1070
 7669SOL    HW234641   2.473   0.372  12.664  1.1993 -1.9753  0.2159
 7670SOL     OW34642   0.746   4.704   4.231 -0.2792 -0.0882  0.3791
 7670SOL    HW134643   0.724   0.045   4.282  1.4217 -1.5034  3.2422
 7670SOL    HW234644   0.826   4.673   4.273  0.6535 -0.4180 -1.6303
 7671SOL     OW34645   2.730   1.853   9.007  0.4593 -0.0042 -0.0622
 7671SOL    HW134646   2.712   1.904   9.085 -1.8124 -0.9228  0.0093
 7671SOL    HW234647   2.798   1.904   8.963  0.5787 -0.8862 -0.9062
 7672SOL     OW34648   4.608   1.075   7.451  0.5159 -0.2095 -0.1917
 7672SOL    HW134649   4.616   0.986   7.416  0.1857 -0.0412 -0.6986
 7672SOL    HW234650   4.682   1.083   7.512 -0.7849  3.3496  0.8935
 7673SOL     OW34651   4.379   1.715   7.752 -0.7707  0.0353  0.3277
 7673SOL    HW134652   4.292   1.719   7.712 -1.0562 -1.4250  0.8118
 7673SOL    HW234653   4.379   1.788   7.813 -0.7719 -0.0750  0.4591
 7674SOL     OW34654   0.821   1.116   8.377 -0.6719 -0.0711 -0.1847
 7674SOL    HW134655   0.791   1.034   8.417  2.2790 -0.8094  0.4565
 7674SOL    HW234656   0.783   1.099   8.290  2.1717  2.3296 -1.8758
 7675SOL     OW34657   1.094   3.063   4.245  0.0171  0.2679  0.5067
 7675SOL    HW134658   1.189   3.054   4.235 -0.0954 -0.6247  0.3077
 7675SOL    HW234659   1.056   3.000   4.185  0.4456  0.6563 -0.1692
 7676SOL     OW34660   0.205   4.385   4.183 -0.2391  0.1250  0.2802
 7676SOL    HW134661   0.246   4.437   4.115  3.7792 -4.3549 -0.7853
 7676SOL    HW234662   0.112   4.406   4.181  0.6279  3.7679 -1.2006
 7677SOL     OW34663   1.396   0.414   1.787 -0.2202  0.3298 -0.4365
 7677SOL    HW134664   1.485   0.382   1.801 -0.5497 -0.0996  0.7018
 7677SOL    HW234665   1.378   0.401   1.694  0.3430 -0.7924 -0.3877
 7678SOL     OW34666   3.322   4.610  11.999 -0.3690  0.3207  0.6338
 7678SOL    HW134667   3.344   4.526  11.959 -1.7236  1.1156 -1.7877
 7678SOL    HW234668   3.251   4.590  12.061  1.1907  0.0519  2.3127
 7679SOL     OW34669   3.656   2.982  16.427 -0.4383  0.5633 -0.5236
 7679SOL    HW134670   3.568   2.996  16.464 -0.4921  0.5224 -0.6377
 7679SOL    HW234671   3.659   2.890  16.452 -2.7351  0.8018  0.6843
 7680SOL     OW34672   2.768   3.358   1.515 -0.5869 -0.1226  0.2799
 7680SOL    HW134673   2.685   3.376   1.558 -1.8046 -0.6452 -1.8398
 7680SOL    HW234674   2.808   3.445   1.515  0.6929 -0.7107  0.2416
 7681SOL     OW34675   2.780   2.732   5.319  0.1325  0.6238  0.1645
 7681SOL    HW134676   2.833   2.801   5.357  0.2679 -0.2666  1.6043
 7681SOL    HW234677   2.716   2.785   5.272 -0.6745 -2.5483 -2.3216
 7682SOL     OW34678   4.704   0.111   4.696  0.6096  0.1515  0.1701
 7682SOL    HW134679   4.690   0.192   4.745  0.8529 -0.8552  1.8991
 7682SOL    HW234680   0.012   0.143   4.617 -0.9208 -0.0147 -0.7522
 7683SOL     OW34681   4.434   4.362   2.813  0.5882  0.6287  0.4575
 7683SOL    HW134682   4.368   4.385   2.879 -1.1292 -0.2794 -0.9426
 7683SOL    HW234683   4.425   4.438   2.756  0.1400 -0.7214 -1.2848
 7684SOL     OW34684   0.576   2.763   4.125 -0.5620  0.5154  0.3158
 7684SOL    HW134685   0.638   2.833   4.104 -1.1874  1.3188  1.1996
 7684SOL    HW234686   0.578   2.706   4.047  2.8182 -0.0108  0.8023
 7685SOL     OW34687   3.699   0.423   0.697 -0.4558  0.2516  0.4279
 7685SOL    HW134688   3.604   0.423   0.702 -0.5769 -0.9264 -1.5938
 7685SOL    HW234689   3.722   0.486   0.765 -1.8307 -0.2303  1.3501
 7686SOL     OW34690   0.889   4.551   3.027 -0.5210  0.0118 -0.1646
 7686SOL    HW134691   0.972   4.584   3.061 -0.7116  0.8900 -0.5327
 7686SOL    HW234692   0.844   4.541   3.111  1.8594  0.3839  1.1621
 7687SOL     OW34693   4.180   2.700  16.116  0.3517  0.2619 -0.1994
 7687SOL    HW134694   4.112   2.767  16.127  0.7923  0.3858  1.6959
 7687SOL    HW234695   4.139   2.645  16.050  1.5981  0.5276 -1.1889
 7688SOL     OW34696   2.863   1.386   8.838  0.2384 -0.1597  0.4033
 7688SOL    HW134697   2.798   1.421   8.898 -0.7065 -2.0288  0.4842
 7688SOL    HW234698   2.936   1.445   8.858  1.3144 -0.9191 -1.3439
 7689SOL     OW34699   0.628   3.134   7.977  0.2351 -0.4385 -0.2103
 7689SOL    HW134700   0.670   3.065   8.028  1.7353  0.0044 -0.8510
 7689SOL    HW234701   0.656   3.113   7.888 -2.4621  0.2478 -1.2128
 7690SOL     OW34702   0.400   0.593   6.870  0.3233 -0.4848 -0.1443
 7690SOL    HW134703   0.487   0.630   6.858  0.7106 -1.2936  0.1203
 7690SOL    HW234704   0.417   0.504   6.838  1.1396  0.4458 -2.2430
 7691SOL     OW34705   2.861   0.384   2.972  0.2571  0.2091  0.0937
 7691SOL    HW134706   2.850   0.384   3.067  1.1638 -2.7796  0.2010
 7691SOL    HW234707   2.946   0.428   2.974 -0.1471  0.9818  0.3461
 7692SOL     OW34708   4.053   3.528   1.780 -0.1345  0.3103 -0.1082
 7692SOL    HW134709   4.108   3.463   1.736  0.2709  0.1569  0.6158
 7692SOL    HW234710   4.053   3.503   1.872 -1.3819  0.9391  0.0630
 7693SOL     OW34711   0.747   2.662  12.413 -0.4093  0.4139  0.2095
 7693SOL    HW134712   0.703   2.669  12.497 -0.7526  0.3437  0.0362
 7693SOL    HW234713   0.833   2.630  12.442 -1.6701 -0.1959  3.2804
 7694SOL     OW34714   3.968   4.709   5.739 -0.2342 -0.1745 -0.0121
 7694SOL    HW134715   3.961   4.616   5.763 -1.5264  0.3153  1.5003
 7694SOL    HW234716   4.046   4.729   5.790 -0.8433  0.6561  0.6060
 7695SOL     OW34717   2.230   3.729  16.599 -0.0291 -0.4565 -0.8842
 7695SOL    HW134718   2.210   3.636  16.602 -0.7389 -0.2992 -0.5939
 7695SOL    HW234719   2.146   3.773  16.587 -1.5372 -2.7345  1.3129
 7696SOL     OW34720   4.217   2.448  17.432  0.0571  0.0152 -0.3496
 7696SOL    HW134721   4.196   2.385  17.363  0.8161 -0.3113 -0.2745
 7696SOL    HW234722   4.142   2.508  17.428  0.8513  1.1750  2.0822
 7697SOL     OW34723   1.357   2.495   0.456 -0.5495 -0.0831 -0.7798
 7697SOL    HW134724   1.414   2.443   0.398  0.7989 -2.3767  2.6104
 7697SOL    HW234725   1.351   2.575   0.404  2.1715  0.4347 -0.3227
 7698SOL     OW34726   3.577   2.939   4.896  0.2842 -0.2940  0.3931
 7698SOL    HW134727   3.554   2.897   4.979 -1.4575  0.7192  0.4131
 7698SOL    HW234728   3.665   2.903   4.883 -0.4020 -2.0876  0.6250
 7699SOL     OW34729   4.227   1.247  16.909 -0.7101 -0.0674 -0.2241
 7699SOL    HW134730   4.302   1.307  16.907 -0.2149 -0.6125  3.4588
 7699SOL    HW234731   4.199   1.255  17.000 -0.4793 -0.5125 -0.1173
 7700SOL     OW34732   0.509   4.298   1.078 -0.3055  0.5872  0.1098
 7700SOL    HW134733   0.494   4.250   1.159 -1.7791  1.2622  0.2459
 7700SOL    HW234734   0.433   4.356   1.069 -0.9715 -0.3793 -0.5098
 7701SOL     OW34735   0.256   4.328   7.009 -0.4709 -0.3919  0.1799
 7701SOL    HW134736   0.219   4.259   6.952  2.1998 -2.0118  0.4345
 7701SOL    HW234737   0.203   4.314   7.087 -0.5269  0.0717  0.2245
 7702SOL     OW34738   0.221   0.081   5.453 -0.4452  0.1591  0.0908
 7702SOL    HW134739   0.184   0.038   5.530 -1.1697  0.0978 -0.2880
 7702SOL    HW234740   0.255   4.733   5.424 -0.5428  0.1549 -0.0122
 7703SOL     OW34741   2.118   2.529   8.123  0.2756 -0.2184 -0.1905
 7703SOL    HW134742   2.122   2.515   8.028 -0.5145 -1.0872 -0.0931
 7703SOL    HW234743   2.101   2.623   8.127  0.5727 -0.0790 -1.9177
 7704SOL     OW34744   2.270   2.233   1.979 -0.1547 -0.4154  0.0895
 7704SOL    HW134745   2.215   2.210   1.905  1.2662 -2.2576 -0.3885
 7704SOL    HW234746   2.221   2.305   2.017  1.2610  1.2511 -1.2672
 7705SOL     OW34747   3.323   2.099   0.951  0.1258  0.5485  0.3693
 7705SOL    HW134748   3.394   2.049   0.911 -1.4938 -1.3170 -0.1494
 7705SOL    HW234749   3.363   2.137   1.029  0.7813 -0.2232  0.4011
 7706SOL     OW34750   2.657   2.722   6.517  0.0021  0.6377  0.2042
 7706SOL    HW134751   2.731   2.664   6.499 -0.1653 -0.1462  2.0274
 7706SOL    HW234752   2.615   2.660   6.576  0.7880 -0.8597 -0.8175
 7707SOL     OW34753   2.905   1.227   5.573  0.2914 -0.6560  0.5556
 7707SOL    HW134754   2.974   1.214   5.638 -0.3037 -0.4457  1.2336
 7707SOL    HW234755   2.879   1.137   5.555  0.6469 -0.8679  1.0977
 7708SOL     OW34756   4.162   2.325   3.958  0.5634 -0.4931  0.8551
 7708SOL    HW134757   4.136   2.334   3.866  1.0141  0.5078  0.8265
 7708SOL    HW234758   4.080   2.293   3.995  0.7277 -0.5244  1.1885
 7709SOL     OW34759   2.383   1.157  14.321  0.2935 -0.0522 -0.5330
 7709SOL    HW134760   2.340   1.079  14.287  1.0983 -0.5165 -0.4842
 7709SOL    HW234761   2.409   1.190  14.235  0.0917  1.6343  0.0531
 7710SOL     OW34762   2.326   1.715   6.616 -0.7731  0.1461  0.0837
 7710SOL    HW134763   2.281   1.760   6.688 -0.3242  0.6737  0.0296
 7710SOL    HW234764   2.406   1.765   6.599  0.5889 -2.0631 -0.0184
 7711SOL     OW34765   3.262   1.468  15.979  0.9834 -0.2553 -0.3842
 7711SOL    HW134766   3.265   1.523  16.057  2.2105 -0.5997 -0.1824
 7711SOL    HW234767   3.226   1.395  16.031  1.8987  0.1193  0.7885
 7712SOL     OW34768   1.759   0.132  12.297  0.4302 -0.0845  0.0604
 7712SOL    HW134769   1.726   0.045  12.320  1.5778 -1.2701 -2.8985
 7712SOL    HW234770   1.844   0.095  12.276  0.1345 -0.1053 -1.1012
 7713SOL     OW34771   2.018   0.715  16.407  0.0254 -0.4758  0.8508
 7713SOL    HW134772   1.992   0.677  16.491 -2.0294  0.5186  0.6695
 7713SOL    HW234773   1.930   0.717  16.368  0.8773 -0.5757 -1.0706
 7714SOL     OW34774   3.536   1.161   3.839 -0.3672 -0.4074 -0.0503
 7714SOL    HW134775   3.572   1.248   3.856 -1.3615  0.1365 -0.8031
 7714SOL    HW234776   3.445   1.188   3.836 -0.3850 -0.3042  1.1390
 7715SOL     OW34777   1.994   2.230  17.336 -0.1089 -0.1604  0.0981
 7715SOL    HW134778   1.920   2.290  17.326 -0.0135 -0.2227 -0.9377
 7715SOL    HW234779   1.963   2.173  17.407 -1.7949  1.1836  0.4612
 7716SOL     OW34780   0.660   0.758   6.227  0.1379 -0.4144  0.6631
 7716SOL    HW134781   0.684   0.834   6.280  0.2035 -0.2207  0.3531
 7716SOL    HW234782   0.735   0.700   6.244 -0.6382 -0.9632  2.2185
 7717SOL     OW34783   4.404   2.667   4.023  0.0659 -0.6295  0.2197
 7717SOL    HW134784   4.490   2.701   4.048 -0.2175 -0.5897  1.1125
 7717SOL    HW234785   4.416   2.620   3.940  0.5488  1.2375 -0.7636
 7718SOL     OW34786   2.225   3.161   2.274 -0.2632  0.0346  0.0258
 7718SOL    HW134787   2.301   3.117   2.310  0.8019  1.9249  0.0701
 7718SOL    HW234788   2.198   3.095   2.210  1.1241 -0.5687  0.0754
 7719SOL     OW34789   0.861   1.753   2.776 -0.4311  0.0816  0.2875
 7719SOL    HW134790   0.805   1.803   2.836  0.2530  0.2384  0.7919
 7719SOL    HW234791   0.939   1.808   2.780 -0.3278 -0.2457  2.5752
 7720SOL     OW34792   0.270   2.746   6.184 -0.1035 -0.2793  0.5640
 7720SOL    HW134793   0.209   2.796   6.131  0.6451 -0.7781 -0.7500
 7720SOL    HW234794   0.295   2.807   6.253  1.0163 -0.0699 -0.0333
 7721SOL     OW34795   2.500   1.085   5.704 -0.3554  0.1841  0.0789
 7721SOL    HW134796   2.487   1.027   5.779 -0.0580 -0.0783 -0.0705
 7721SOL    HW234797   2.558   1.152   5.740 -0.7067  1.2520 -1.3130
 7722SOL     OW34798   3.647   1.097  16.916 -0.4000  0.3367 -0.0533
 7722SOL    HW134799   3.636   1.008  16.950  1.1355 -0.1952 -0.9697
 7722SOL    HW234800   3.710   1.137  16.976 -0.6539  0.9503 -0.1988
 7723SOL     OW34801   3.355   4.259  14.966 -0.6219 -0.2472 -0.2897
 7723SOL    HW134802   3.289   4.316  14.925 -0.5893 -0.0775 -0.1074
 7723SOL    HW234803   3.413   4.332  14.988 -0.5273 -0.7061  0.9240
 7724SOL     OW34804   4.013   3.023   4.845  0.5799 -0.1792  0.6489
 7724SOL    HW134805   4.012   3.098   4.786 -2.7341 -2.1311 -1.7324
 7724SOL    HW234806   4.066   2.963   4.793  2.3622  1.0199  1.0696
 7725SOL     OW34807   0.697   2.681   4.914  0.4565 -0.6369 -0.0962
 7725SOL    HW134808   0.607   2.650   4.907 -0.5471  2.3691 -0.4620
 7725SOL    HW234809   0.736   2.635   4.840 -0.0703 -0.5950 -0.3966
 7726SOL     OW34810   2.505   0.550   4.124 -0.1789  0.1637  0.3538
 7726SOL    HW134811   2.526   0.486   4.193 -1.5305 -1.8041 -1.0594
 7726SOL    HW234812   2.478   0.626   4.175 -1.5351  0.5856 -0.9906
 7727SOL     OW34813   1.809   0.527  17.677  0.5212 -0.4271 -0.9274
 7727SOL    HW134814   1.879   0.571  17.629 -0.0125  1.8006  0.3141
 7727SOL    HW234815   1.738   0.589  17.663  0.6460 -0.0962 -0.1439
 7728SOL     OW34816   2.626   2.785   0.378 -0.4059  0.6364 -0.1565
 7728SOL    HW134817   2.619   2.847   0.451 -0.6437 -0.2952  0.6188
 7728SOL    HW234818   2.595   2.834   0.302  1.4259  0.2219 -1.1735
 7729SOL     OW34819   3.028   4.593   5.437 -0.1315  0.4789  0.2313
 7729SOL    HW134820   3.040   4.502   5.464 -1.3674 -0.1003 -1.1416
 7729SOL    HW234821   3.050   4.584   5.345 -0.4286 -0.3450  0.2388
 7730SOL     OW34822   2.503   4.124   6.509 -0.3426  0.2472  0.0358
 7730SOL    HW134823   2.527   4.078   6.429 -0.3022 -0.0710  0.2291
 7730SOL    HW234824   2.428   4.071   6.537 -0.7714  0.1569 -1.3036
 7731SOL     OW34825   0.807   4.037   8.151 -0.1805  0.2473 -0.2961
 7731SOL    HW134826   0.897   4.041   8.182 -0.7924 -1.1344  1.6695
 7731SOL    HW234827   0.781   3.959   8.200 -1.1170 -0.7474 -2.3709
 7732SOL     OW34828   3.198   4.519   6.146  0.2929  0.1771  0.2383
 7732SOL    HW134829   3.218   4.610   6.169 -0.1729 -0.2198  2.2323
 7732SOL    HW234830   3.238   4.485   6.226 -2.4244  0.2798  1.6557
 7733SOL     OW34831   0.330   2.704   7.716 -0.1295 -0.3667 -0.0740
 7733SOL    HW134832   0.388   2.695   7.641 -0.5544 -0.4015 -0.3972
 7733SOL    HW234833   0.377   2.774   7.761 -1.0675  2.2004 -3.0353
 7734SOL     OW34834   3.567   3.810   5.589  0.2805 -0.6151 -0.0603
 7734SOL    HW134835   3.486   3.766   5.613  2.1459 -2.2737  3.1970
 7734SOL    HW234836   3.558   3.843   5.499 -1.9314  0.1998  0.4677
 7735SOL     OW34837   4.233   4.219   1.891  0.0529 -0.4889 -0.0136
 7735SOL    HW134838   4.267   4.169   1.965  0.9670  0.3483  0.1339
 7735SOL    HW234839   4.193   4.286   1.947  0.4600 -0.0721 -0.2242
 7736SOL     OW34840   1.339   1.170  14.594  0.0762 -0.0700 -0.0271
 7736SOL    HW134841   1.378   1.120  14.522  1.9453  2.6660 -0.9148
 7736SOL    HW234842   1.255   1.188  14.553  0.3305 -1.6896 -1.2679
 7737SOL     OW34843   0.693   1.917   0.878  0.4501  0.4320  0.4476
 7737SOL    HW134844   0.729   1.837   0.916 -0.8351 -0.0759  0.6307
 7737SOL    HW234845   0.704   1.964   0.961  1.8422 -1.0344  1.0936
 7738SOL     OW34846   0.666   1.638  12.946  0.1253 -0.0656  0.3832
 7738SOL    HW134847   0.752   1.674  12.922  0.2893 -0.8208 -0.1460
 7738SOL    HW234848   0.684   1.593  13.028  0.6332 -1.3808 -0.4469
 7739SOL     OW34849   1.611   2.933   6.654 -0.6238  0.2362  0.3919
 7739SOL    HW134850   1.618   2.855   6.599 -1.7246 -0.5533  1.3872
 7739SOL    HW234851   1.666   2.905   6.727  0.0996 -0.6674 -0.5090
 7740SOL     OW34852   0.254   3.387   5.103  0.3927 -0.0594  0.1925
 7740SOL    HW134853   0.230   3.347   5.187  0.6976 -0.0318  0.2942
 7740SOL    HW234854   0.278   3.476   5.132  1.0891 -0.5425  1.0985
 7741SOL     OW34855   4.281   0.197   9.141  0.3591 -0.3900  0.4758
 7741SOL    HW134856   4.276   0.170   9.232 -0.6598  0.3905  0.6557
 7741SOL    HW234857   4.213   0.263   9.151 -0.7970 -1.3992 -0.6379
 7742SOL     OW34858   4.034   2.213   9.866 -0.1379  0.3719 -0.3669
 7742SOL    HW134859   4.106   2.241   9.922 -0.1506  0.1578 -0.2450
 7742SOL    HW234860   3.976   2.284   9.893 -0.0753 -0.2819  1.4707
 7743SOL     OW34861   1.818   0.521   6.088 -0.0036  0.1126 -0.2536
 7743SOL    HW134862   1.828   0.489   6.177 -2.9668 -0.2746 -0.0653
 7743SOL    HW234863   1.723   0.522   6.079  0.2142 -2.0601 -2.9649
 7744SOL     OW34864   4.669   4.598   9.599  0.2841 -0.0300  0.6343
 7744SOL    HW134865   0.005   4.539   9.577  0.1122  0.8059 -2.2677
 7744SOL    HW234866   4.722   4.672   9.628  1.4604 -1.4013  1.9941
 7745SOL     OW34867   0.443   3.849   7.688  0.4374 -0.4297  0.1421
 7745SOL    HW134868   0.412   3.792   7.759  0.1436 -1.1971 -0.6096
 7745SOL    HW234869   0.410   3.930   7.728 -2.0707 -1.9292  1.1128
 7746SOL     OW34870   1.584   1.930   1.292 -1.0114 -0.3863 -0.0733
 7746SOL    HW134871   1.552   2.015   1.262 -1.4726 -0.2547  0.8069
 7746SOL    HW234872   1.518   1.896   1.353 -0.5342 -2.8430 -0.9140
 7747SOL     OW34873   3.766   2.229  16.118 -0.2329  0.8551  0.5946
 7747SOL    HW134874   3.818   2.167  16.067 -2.8057 -0.9608  0.1371
 7747SOL    HW234875   3.782   2.207  16.210 -0.4993 -0.6106  0.3020
 7748SOL     OW34876   4.649   3.270   6.914  0.5804 -0.5038 -0.2488
 7748SOL    HW134877   4.566   3.316   6.920 -0.0575 -1.5879 -0.7637
 7748SOL    HW234878   4.685   3.286   7.001 -0.7069  2.5096 -0.2676
 7749SOL     OW34879   4.574   1.592  12.393  0.3527 -0.1561  0.1385
 7749SOL    HW134880   4.664   1.574  12.417  0.2467 -1.2698 -0.2664
 7749SOL    HW234881   4.591   1.675  12.349  1.8773 -0.8156 -0.5143
 7750SOL     OW34882   4.283   0.773   2.553 -0.0619 -0.0592  0.0749
 7750SOL    HW134883   4.222   0.845   2.536  0.5914  0.9676  1.9554
 7750SOL    HW234884   4.257   0.741   2.639 -0.8908  3.7137  1.2436
 7751SOL     OW34885   3.920   4.218  12.888  0.1524  0.0891 -0.5008
 7751SOL    HW134886   3.923   4.212  12.983 -0.2950 -2.7882 -0.6906
 7751SOL    HW234887   3.904   4.312  12.877  0.4062  0.0565 -1.1843
 7752SOL     OW34888   1.818   0.683   5.266 -0.3072 -0.0700  0.2224
 7752SOL    HW134889   1.784   0.607   5.312 -0.7436 -0.9188 -1.4993
 7752SOL    HW234890   1.793   0.753   5.326 -1.2993 -0.6507  0.4926
 7753SOL     OW34891   4.586   2.462   7.660 -0.5631  0.1442 -0.2140
 7753SOL    HW134892   4.634   2.426   7.586 -0.6744 -0.8430  0.1902
 7753SOL    HW234893   4.519   2.393   7.658 -1.4649  1.0644 -1.8752
 7754SOL     OW34894   3.536   0.031   6.234 -0.4785 -0.2985  0.8288
 7754SOL    HW134895   3.465   0.064   6.180  0.9006  1.7951  0.2599
 7754SOL    HW234896   3.485   0.021   6.315 -1.3308 -0.0729  0.3109
 7755SOL     OW34897   0.934   3.500   0.229  0.0705 -0.0854 -0.4275
 7755SOL    HW134898   1.007   3.541   0.183  1.1513  0.2450  1.6026
 7755SOL    HW234899   0.983   3.425   0.263  0.0833  0.5511  0.9376
 7756SOL     OW34900   1.150   4.109   3.617 -0.1761  0.1616  0.9716
 7756SOL    HW134901   1.157   4.031   3.562 -0.0714  0.2869  0.8064
 7756SOL    HW234902   1.186   4.072   3.698 -0.6331 -0.9210  0.6881
 7757SOL     OW34903   1.348   0.154  13.758  0.2238 -0.2164  0.3768
 7757SOL    HW134904   1.339   0.083  13.694  3.2727 -0.5793  0.3568
 7757SOL    HW234905   1.399   0.212  13.702 -0.6015 -1.0055 -1.2070
 7758SOL     OW34906   1.620   0.897  15.076 -0.0937  0.0159  0.0311
 7758SOL    HW134907   1.525   0.897  15.083  0.0202 -1.9669  1.6094
 7758SOL    HW234908   1.641   0.971  15.132 -2.6512 -0.4333  1.6013
 7759SOL     OW34909   0.761   2.764   5.817  0.7383 -0.0936  0.9678
 7759SOL    HW134910   0.711   2.823   5.874 -0.1643  0.1527 -0.0648
 7759SOL    HW234911   0.794   2.840   5.769 -1.1324 -0.2593 -0.6109
 7760SOL     OW34912   2.077   2.118   4.075  0.3476 -0.2627  0.7184
 7760SOL    HW134913   2.160   2.096   4.033 -0.1982 -0.5254 -0.2130
 7760SOL    HW234914   2.071   2.059   4.150  3.1676 -0.3279  0.8994
 7761SOL     OW34915   0.033   1.347  10.910  0.3644 -0.2325 -0.4853
 7761SOL    HW134916   0.001   1.424  10.862 -0.1893 -1.2423 -1.7136
 7761SOL    HW234917   0.076   1.399  10.979 -0.7135 -0.0738  0.0663
 7762SOL     OW34918   2.708   0.799  11.208  0.2119  0.5474  0.4237
 7762SOL    HW134919   2.781   0.741  11.227  0.6458  1.3321  1.1809
 7762SOL    HW234920   2.699   0.844  11.292 -1.0808 -1.8113  1.5268
 7763SOL     OW34921   3.093   0.423  15.699  0.5910  0.5182  0.2833
 7763SOL    HW134922   3.014   0.471  15.674  0.6100  0.6312  0.4410
 7763SOL    HW234923   3.131   0.476  15.769 -0.9274  1.1693  0.6262
 7764SOL     OW34924   4.315   2.809   2.820 -0.4916 -0.6541  0.1757
 7764SOL    HW134925   4.391   2.832   2.767 -0.6925  1.0468  0.6433
 7764SOL    HW234926   4.279   2.896   2.837 -1.3167 -0.8825 -0.3922
 7765SOL     OW34927   0.871   4.451   5.200 -0.2582 -0.4436  0.1671
 7765SOL    HW134928   0.946   4.481   5.150  0.6729 -0.5835  1.4676
 7765SOL    HW234929   0.876   4.498   5.283 -0.7808 -2.1283  1.1695
 7766SOL     OW34930   1.094   2.774   1.947  0.9082  0.3482 -0.0837
 7766SOL    HW134931   1.011   2.788   1.992  0.2804  0.4665 -1.2804
 7766SOL    HW234932   1.091   2.838   1.876 -2.5128 -0.7900 -0.9600
 7767SOL     OW34933   0.580   3.946  16.790 -0.2885  0.0688 -0.2157
 7767SOL    HW134934   0.540   3.909  16.869  0.0921  0.7873  0.3090
 7767SOL    HW234935   0.550   3.879  16.728 -0.8157  0.8099 -0.7702
 7768SOL     OW34936   2.544   0.272   4.692  0.4951  0.0914  0.2843
 7768SOL    HW134937   2.574   0.347   4.640 -0.5320  0.0982 -0.3045
 7768SOL    HW234938   2.453   0.297   4.705  1.0111  1.0779  1.8613
 7769SOL     OW34939   4.486   1.448   9.901  0.7697  0.2251  0.2011
 7769SOL    HW134940   4.490   1.482   9.812  0.0569  0.3315  0.2147
 7769SOL    HW234941   4.495   1.353   9.896 -1.5533  0.0072  0.4656
 7770SOL     OW34942   1.479   1.143   0.475  0.1584 -0.0930 -0.1695
 7770SOL    HW134943   1.473   1.048   0.488  0.9684 -0.2626 -1.0074
 7770SOL    HW234944   1.529   1.145   0.393  0.1091  0.6506 -0.1832
 7771SOL     OW34945   3.022   3.177   3.404  0.0152  0.4029  0.0257
 7771SOL    HW134946   3.003   3.147   3.316  2.0897 -0.5626 -0.0842
 7771SOL    HW234947   2.931   3.199   3.424  0.3179  0.3293  1.5052
 7772SOL     OW34948   0.806   0.298   9.626 -0.5037  0.0069  0.4344
 7772SOL    HW134949   0.898   0.275   9.613  0.2319  2.1086  1.8075
 7772SOL    HW234950   0.758   0.219   9.604 -1.8550  1.1248 -0.6487
 7773SOL     OW34951   3.042   2.455   8.311  0.2917 -0.4747 -0.4772
 7773SOL    HW134952   3.129   2.496   8.319 -0.2920  0.5432  0.6443
 7773SOL    HW234953   3.034   2.414   8.397  0.0148 -0.8318 -0.6730
 7774SOL     OW34954   1.353   0.591   8.962 -0.1398  0.1186  0.1045
 7774SOL    HW134955   1.271   0.593   9.010  1.2604 -0.0883  2.4732
 7774SOL    HW234956   1.332   0.536   8.887 -1.6503  1.0144 -0.1334
 7775SOL     OW34957   3.251   0.415   5.543 -0.0061 -0.2500  0.2122
 7775SOL    HW134958   3.240   0.348   5.475 -1.2124  0.2675 -0.1046
 7775SOL    HW234959   3.341   0.443   5.527  0.4482 -1.0491  1.4021
 7776SOL     OW34960   0.004   4.104   2.911 -0.2469  0.3499  0.1844
 7776SOL    HW134961   4.662   4.056   2.935 -0.1779 -0.5116 -1.2687
 7776SOL    HW234962   4.736   4.179   2.970 -0.1789 -0.2430  0.9415
 7777SOL     OW34963   0.996   2.417  10.042  0.1219 -0.5642  0.1939
 7777SOL    HW134964   0.987   2.464  10.125  0.4167 -1.5422  0.7789
 7777SOL    HW234965   0.933   2.470   9.991  0.1079 -0.9996 -0.2384
 7778SOL     OW34966   4.729   2.962  12.441  0.5082  0.0833 -1.1693
 7778SOL    HW134967   0.031   2.953  12.354 -0.8240 -0.3332 -1.7249
 7778SOL    HW234968   0.065   3.006  12.485 -1.3401  1.5667  0.3987
 7779SOL     OW34969   4.028   2.857   2.676 -0.2149  0.3294  0.7034
 7779SOL    HW134970   3.994   2.769   2.693  2.1095 -0.5777  0.6508
 7779SOL    HW234971   3.987   2.865   2.590  0.3163  0.9869  0.5136
 7780SOL     OW34972   3.475   0.667  11.247  0.6092 -0.6289  0.5520
 7780SOL    HW134973   3.392   0.665  11.199  1.6229  1.1796 -1.2510
 7780SOL    HW234974   3.475   0.748  11.299  0.0941 -1.2167  1.4790
 7781SOL     OW34975   1.587   3.889  11.247 -0.0637 -0.0141  0.5056
 7781SOL    HW134976   1.662   3.874  11.191  0.1925  1.2361  0.5256
 7781SOL    HW234977   1.512   3.881  11.188  0.4919  1.2056 -0.3555
 7782SOL     OW34978   4.045   0.800   3.529  0.4938 -0.8439  0.2296
 7782SOL    HW134979   4.114   0.849   3.573 -0.1651 -2.1816  2.7123
 7782SOL    HW234980   4.049   0.833   3.439 -0.1387 -0.9159  0.1747
 7783SOL     OW34981   2.830   4.479   8.970 -0.0569 -0.2423  0.6766
 7783SOL    HW134982   2.883   4.503   8.894 -1.5914 -1.5062 -0.8167
 7783SOL    HW234983   2.840   4.560   9.019 -0.8777  0.5094 -0.3867
 7784SOL     OW34984   1.309   0.869  10.973  1.0316 -0.0973 -0.6619
 7784SOL    HW134985   1.392   0.907  10.944  2.7760 -1.5582  2.4215
 7784SOL    HW234986   1.334   0.779  10.955 -1.0714 -0.5683 -1.2001
 7785SOL     OW34987   3.057   4.481   0.117  0.3058  0.6967  0.1974
 7785SOL    HW134988   2.981   4.516   0.163 -0.5603 -1.3020  0.2916
 7785SOL    HW234989   3.042   4.499   0.025 -0.0302  2.0536  0.5197
 7786SOL     OW34990   1.467   0.469   3.205  0.3194 -0.0549  0.7518
 7786SOL    HW134991   1.397   0.420   3.162 -0.5040  1.3637  0.4552
 7786SOL    HW234992   1.503   0.394   3.252  1.2431  0.5143  0.9561
 7787SOL     OW34993   0.569   2.522  13.446  0.5544 -0.5268  0.2024
 7787SOL    HW134994   0.487   2.478  13.426  2.1391 -2.1551 -2.5711
 7787SOL    HW234995   0.616   2.453  13.493  0.7156  0.5351  1.6377
 7788SOL     OW34996   1.922   1.086   8.140 -0.6010  0.2844  0.0733
 7788SOL    HW134997   1.878   1.049   8.217 -0.4869 -1.6768 -0.7870
 7788SOL    HW234998   1.890   1.044   8.060  1.1612  0.4691 -0.7141
 7789SOL     OW34999   3.912   1.367   5.277 -0.5202  0.3020  0.2476
 7789SOL    HW135000   3.850   1.314   5.328 -1.0503  0.6218 -0.0696
 7789SOL    HW235001   3.953   1.408   5.354  1.0032 -0.5862 -0.0803
 7790SOL     OW35002   4.255   2.125   6.293  0.7127  0.4571 -0.3504
 7790SOL    HW135003   4.302   2.044   6.312  0.0847 -0.0770 -1.1153
 7790SOL    HW235004   4.218   2.159   6.374 -1.2263  0.2150 -1.1412
 7791SOL     OW35005   1.457   1.565  13.888  0.3813 -0.2817  0.1498
 7791SOL    HW135006   1.518   1.638  13.895  1.7891 -1.4646  0.1384
 7791SOL    HW235007   1.402   1.584  13.965  1.7312  1.8287  0.5973
 7792SOL     OW35008   3.874   4.297   9.329 -0.5895 -0.5334  0.1186
 7792SOL    HW135009   3.943   4.346   9.372 -0.2382 -0.9403  0.0165
 7792SOL    HW235010   3.892   4.322   9.238  1.1474 -2.5638 -0.0896
 7793SOL     OW35011   3.322   0.751   6.054 -0.7858 -0.2920  0.1228
 7793SOL    HW135012   3.313   0.661   6.085  2.1670 -1.0876 -1.3695
 7793SOL    HW235013   3.232   0.760   6.022 -0.5550 -0.6030 -0.5941
 7794SOL     OW35014   0.468   4.342   4.718  0.2813 -0.0847  0.1116
 7794SOL    HW135015   0.424   4.316   4.799  2.6722 -0.4718  1.2896
 7794SOL    HW235016   0.427   4.428   4.721 -3.7111 -1.8623 -2.0179
 7795SOL     OW35017   0.915   4.403   0.432 -0.0046  0.6770  0.6630
 7795SOL    HW135018   0.971   4.468   0.474  1.4151  0.2561 -0.5813
 7795SOL    HW235019   0.837   4.403   0.487  0.1691  2.7038  0.9199
 7796SOL     OW35020   1.891   1.150   3.727  0.2177 -0.5679 -0.7614
 7796SOL    HW135021   1.966   1.197   3.763  0.1997 -1.4078  0.3822
 7796SOL    HW235022   1.935   1.085   3.671  0.4698 -0.3157 -0.8561
 7797SOL     OW35023   1.407   1.892  11.244  0.1109  0.6672 -0.8522
 7797SOL    HW135024   1.357   1.836  11.303 -0.4636  2.4636  0.3402
 7797SOL    HW235025   1.362   1.861  11.165 -4.5606  0.4622  1.8703
 7798SOL     OW35026   2.333   1.566   8.173  0.4432  0.0157  0.2315
 7798SOL    HW135027   2.391   1.623   8.123 -0.6112 -1.0552 -2.2205
 7798SOL    HW235028   2.395   1.529   8.236  0.9608  0.9827  0.2838
 7799SOL     OW35029   1.519   2.350  16.828 -0.1378 -0.2040  0.0185
 7799SOL    HW135030   1.467   2.291  16.882  0.6385 -0.4943  0.4515
 7799SOL    HW235031   1.595   2.293  16.817  2.3054  3.4436 -2.2149
 7800SOL     OW35032   3.306   2.084  15.229  0.3830  0.1407 -0.2543
 7800SOL    HW135033   3.244   2.113  15.296  2.1084 -0.4854  1.6290
 7800SOL    HW235034   3.327   2.165  15.183 -0.3765  0.6315  0.2622
 7801SOL     OW35035   2.794   3.088   7.890 -0.5430  0.5687 -0.6961
 7801SOL    HW135036   2.728   3.086   7.821 -1.4466  0.5089  0.1775
 7801SOL    HW235037   2.829   3.176   7.875  1.9130 -0.0451  1.4761
 7802SOL     OW35038   1.261   3.668   4.101  0.1063 -0.1506 -0.2981
 7802SOL    HW135039   1.292   3.758   4.101  0.9522 -0.4273  1.3442
 7802SOL    HW235040   1.261   3.655   4.196 -0.4955  0.4684 -0.2133
 7803SOL     OW35041   0.118   3.375   0.202 -0.0782 -0.4798  0.1609
 7803SOL    HW135042   0.188   3.310   0.204  0.9853  0.7316  2.1438
 7803SOL    HW235043   0.144   3.416   0.119  0.0777 -0.7224  0.0890
 7804SOL     OW35044   0.216   1.365  15.661  0.1707 -0.3474  0.4330
 7804SOL    HW135045   0.125   1.335  15.659 -0.3471  1.2158  0.7740
 7804SOL    HW235046   0.229   1.369  15.566  1.1585  2.2570  0.6825
 7805SOL     OW35047   1.263   1.812  11.046  0.4820  0.1284 -0.2356
 7805SOL    HW135048   1.253   1.717  11.036  1.9742  0.0541 -1.0987
 7805SOL    HW235049   1.212   1.840  10.970 -1.9251 -1.3471  0.8358
 7806SOL     OW35050   3.577   1.237  17.638 -0.4157 -0.0623 -0.9369
 7806SOL    HW135051   3.580   1.171  17.568 -0.7108 -2.2843  1.1437
 7806SOL    HW235052   3.566   1.182  17.716 -0.1257  1.8750  0.4751
 7807SOL     OW35053   0.277   0.556   3.486 -0.0364 -0.9750  0.0751
 7807SOL    HW135054   0.199   0.580   3.436 -0.7232 -1.1200  1.0669
 7807SOL    HW235055   0.339   0.546   3.414 -0.9414  0.7515 -0.9338
 7808SOL     OW35056   1.178   0.485   2.793 -0.3797 -0.0877  0.5782
 7808SOL    HW135057   1.212   0.408   2.839  0.2696 -0.3916 -0.4052
 7808SOL    HW235058   1.093   0.454   2.760 -0.5468  0.2175  0.7255
 7809SOL     OW35059   2.940   2.743   0.407  0.2099 -0.5961  0.2036
 7809SOL    HW135060   2.982   2.698   0.480  0.8252  0.7739  0.7033
 7809SOL    HW235061   2.857   2.698   0.393  0.4434 -0.8055 -0.5392
 7810SOL     OW35062   0.180   3.488   3.767 -0.0659  0.0689 -0.4966
 7810SOL    HW135063   0.124   3.539   3.708 -0.8153  0.0584  0.2123
 7810SOL    HW235064   0.192   3.547   3.842 -3.4789  1.2413 -0.8594
 7811SOL     OW35065   2.101   2.318   7.509  0.0701  0.1431 -0.1470
 7811SOL    HW135066   2.096   2.295   7.602 -1.2552  0.4938 -0.1239
 7811SOL    HW235067   2.162   2.391   7.505  0.3893 -0.1982 -1.5882
 7812SOL     OW35068   1.107   4.117  11.652  0.0458 -0.0876 -0.2590
 7812SOL    HW135069   1.017   4.143  11.632 -0.2654 -0.8837  0.1269
 7812SOL    HW235070   1.109   4.022  11.642  2.9568 -0.2485  1.7736
 7813SOL     OW35071   3.362   3.638  10.231  0.3625  0.0065  0.6501
 7813SOL    HW135072   3.340   3.561  10.283 -2.0974  0.0655 -0.2778
 7813SOL    HW235073   3.356   3.607  10.141  1.1294  0.9199  0.2818
 7814SOL     OW35074   1.086   1.355   4.561 -0.1896 -0.1449 -0.0357
 7814SOL    HW135075   1.084   1.260   4.572  4.5037 -0.0269  1.6354
 7814SOL    HW235076   1.102   1.366   4.467  0.0906 -0.2507 -0.0007
 7815SOL     OW35077   2.789   2.301   2.375 -0.0422  0.3458  0.1388
 7815SOL    HW135078   2.817   2.272   2.462  0.9031  0.3691 -0.1532
 7815SOL    HW235079   2.822   2.391   2.371 -1.8304  1.0590  1.1768
 7816SOL     OW35080   2.974   0.574   5.164 -0.4928  0.3193 -0.4252
 7816SOL    HW135081   2.900   0.633   5.157  0.4757  1.3878 -1.5653
 7816SOL    HW235082   3.044   0.634   5.191  0.4093  0.1064 -2.2574
 7817SOL     OW35083   1.725   3.908  17.186 -0.3794 -0.2947  0.3329
 7817SOL    HW135084   1.809   3.891  17.227  0.6670  1.0517 -1.2573
 7817SOL    HW235085   1.665   3.843  17.224 -2.4185  1.1460 -0.4342
 7818SOL     OW35086   4.089   1.742   2.591  0.1583  0.1393 -0.0630
 7818SOL    HW135087   4.042   1.808   2.643  1.6521  1.5071 -0.4409
 7818SOL    HW235088   4.111   1.676   2.657 -0.5184 -0.4277 -0.4087
 7819SOL     OW35089   2.155   2.656   7.200  0.0287  0.3601 -0.3401
 7819SOL    HW135090   2.182   2.680   7.288 -1.7564  2.6190 -0.4238
 7819SOL    HW235091   2.191   2.567   7.199 -1.4877 -0.2564  0.3915
 7820SOL     OW35092   1.628   4.691   4.090 -0.3689 -0.3484  0.1957
 7820SOL    HW135093   1.621   4.661   4.181  1.9380  1.3213  0.9101
 7820SOL    HW235094   1.628   0.048   4.107  1.1165 -0.4850  0.9208
 7821SOL     OW35095   0.798   1.485   6.995 -0.0793 -0.3588  0.4810
 7821SOL    HW135096   0.863   1.467   6.927 -0.5515 -3.0081  0.7292
 7821SOL    HW235097   0.852   1.512   7.069 -0.2886 -1.5445  1.0722
 7822SOL     OW35098   3.498   3.946  16.080 -0.5500 -0.0699  0.5325
 7822SOL    HW135099   3.510   3.880  16.149 -0.6517  0.0966  0.7098
 7822SOL    HW235100   3.491   4.026  16.132 -2.5884 -0.4109  0.7958
 7823SOL     OW35101   3.814   2.649   4.487 -0.1831  0.0906 -0.5367
 7823SOL    HW135102   3.907   2.674   4.484 -0.1168 -0.0445  0.3495
 7823SOL    HW235103   3.821   2.578   4.551 -1.9556 -0.5349 -1.0592
 7824SOL     OW35104   1.188   4.002   6.779  0.2677 -0.0158  0.0576
 7824SOL    HW135105   1.113   3.943   6.769  0.0267  0.0656  1.4349
 7824SOL    HW235106   1.139   4.078   6.747 -2.2806 -1.9711 -0.7280
 7825SOL     OW35107   1.324   2.074   8.384  0.2457  0.2575  0.1364
 7825SOL    HW135108   1.250   2.028   8.424 -2.4217  2.2874 -2.4687
 7825SOL    HW235109   1.374   2.117   8.453  0.8289  1.0118 -0.7491
 7826SOL     OW35110   3.539   4.271   6.036 -0.4810  0.0078  0.4043
 7826SOL    HW135111   3.598   4.338   6.069 -1.5578  0.5069  1.2892
 7826SOL    HW235112   3.586   4.255   5.954  0.2612  1.5063  0.5482
 7827SOL     OW35113   1.839   3.580  13.067 -0.5918  0.2804 -0.3113
 7827SOL    HW135114   1.776   3.569  13.138  2.3832 -4.5491  1.6069
 7827SOL    HW235115   1.815   3.666  13.032 -0.5755  0.5405  0.3038
 7828SOL     OW35116   2.697   0.637   3.377 -0.0930  0.3475 -0.1495
 7828SOL    HW135117   2.641   0.707   3.343  0.8141 -0.2502 -2.8671
 7828SOL    HW235118   2.642   0.594   3.442  0.6987 -0.5054 -0.0440
 7829SOL     OW35119   2.146   2.850   5.300  0.3160 -0.2813 -0.3165
 7829SOL    HW135120   2.120   2.791   5.228 -0.1103 -1.4472  0.7970
 7829SOL    HW235121   2.174   2.784   5.363 -0.9264  0.9991  1.5794
 7830SOL     OW35122   1.863   2.737   3.930 -0.1829  0.0821 -0.0123
 7830SOL    HW135123   1.769   2.747   3.945  0.0971  0.6328  1.4755
 7830SOL    HW235124   1.869   2.769   3.840 -3.7116 -0.7023 -0.5094
 7831SOL     OW35125   0.774   2.264   7.315 -0.4184 -0.5733  0.4233
 7831SOL    HW135126   0.697   2.236   7.265 -1.3371  1.8809  0.4825
 7831SOL    HW235127   0.792   2.188   7.369  0.3866  0.8126  2.0752
 7832SOL     OW35128   3.460   3.015   9.564  0.2083  0.6840  0.4889
 7832SOL    HW135129   3.526   3.044   9.627 -1.1438  1.7428  1.3957
 7832SOL    HW235130   3.516   2.986   9.491  0.7036 -0.8866  1.5198
 7833SOL     OW35131   2.943   3.923   2.605  0.2329 -0.3420  0.5845
 7833SOL    HW135132   2.877   3.992   2.595  1.6538  0.8454 -0.5230
 7833SOL    HW235133   2.980   3.945   2.690  0.0595 -0.9603  0.8175
 7834SOL     OW35134   0.998   1.131   8.620  0.6668  0.9576 -0.0049
 7834SOL    HW135135   0.978   1.171   8.535  0.6192  2.0129  0.4994
 7834SOL    HW235136   1.049   1.056   8.591 -0.3928  0.8144 -1.4856
 7835SOL     OW35137   0.208   3.448   4.823  0.0577 -0.1800  0.6307
 7835SOL    HW135138   0.256   3.529   4.805 -1.4990  0.6041 -0.0162
 7835SOL    HW235139   0.263   3.411   4.892 -1.0515  0.9503  2.1081
 7836SOL     OW35140   0.741   4.506   8.279  0.1399 -0.3708  0.4800
 7836SOL    HW135141   0.740   4.595   8.243 -1.5381 -0.5708  0.0585
 7836SOL    HW235142   0.794   4.464   8.212 -0.7700 -0.8190  0.0383
 7837SOL     OW35143   1.149   3.789   2.860 -0.7039 -0.2827  0.7462
 7837SOL    HW135144   1.173   3.746   2.777 -1.7564  4.4061 -2.0168
 7837SOL    HW235145   1.163   3.732   2.935  0.3777 -0.2065  0.6021
 7838SOL     OW35146   3.089   2.072   8.282 -0.0435  0.3979 -0.0602
 7838SOL    HW135147   3.127   1.987   8.306 -0.8534 -0.2682 -1.1642
 7838SOL    HW235148   3.122   2.078   8.193  0.5433  0.2079  0.1472
 7839SOL     OW35149   2.168   4.685   8.095 -0.1086  0.2349  0.4551
 7839SOL    HW135150   2.238   0.014   8.094  0.6818 -0.6234 -1.1281
 7839SOL    HW235151   2.164   4.658   8.003  0.8810 -0.8551  0.7346
 7840SOL     OW35152   2.436   4.514   8.418  0.1074 -0.2269  0.4697
 7840SOL    HW135153   2.470   4.457   8.487  0.4792  0.7494  1.0845
 7840SOL    HW235154   2.491   4.488   8.343 -0.4298  1.0851 -0.3624
 7841SOL     OW35155   2.230   3.631   5.100  0.2084  0.0502 -0.4859
 7841SOL    HW135156   2.156   3.662   5.152  0.1914 -0.7721 -0.0255
 7841SOL    HW235157   2.217   3.672   5.014  0.3181 -1.9306 -1.4488
 7842SOL     OW35158   2.922   1.352  11.533 -0.4425 -0.0247  0.0523
 7842SOL    HW135159   2.851   1.385  11.588  1.6839 -0.6215  3.1762
 7842SOL    HW235160   2.996   1.342  11.593  0.6342 -0.9699 -1.4190
 7843SOL     OW35161   3.677   0.089   4.771 -0.0240  0.3134  0.2439
 7843SOL    HW135162   3.685   4.734   4.745  1.7154  0.7455 -0.7553
 7843SOL    HW235163   3.614   0.087   4.842  1.2672 -0.3017  1.3780
 7844SOL     OW35164   2.301   0.269  15.610  0.5471 -0.6180  0.3494
 7844SOL    HW135165   2.346   0.348  15.580  2.1812 -2.0439 -0.9589
 7844SOL    HW235166   2.216   0.310  15.628  1.5537  1.2803  0.8458
 7845SOL     OW35167   0.607   3.261   5.158  0.5125 -0.3209 -0.6058
 7845SOL    HW135168   0.550   3.268   5.235  0.3511  0.6564 -0.8125
 7845SOL    HW235169   0.629   3.353   5.140  1.1877  0.1456  2.5911
 7846SOL     OW35170   4.108   3.678   4.907  0.0272 -0.1948  0.0810
 7846SOL    HW135171   4.163   3.603   4.890 -3.6139 -2.8204 -0.1190
 7846SOL    HW235172   4.028   3.626   4.915  0.0014 -0.4779 -1.9464
 7847SOL     OW35173   2.397   4.339   5.232 -0.0168 -0.0489 -0.1840
 7847SOL    HW135174   2.365   4.408   5.173  1.0528  1.0352  0.4991
 7847SOL    HW235175   2.460   4.294   5.175 -0.4793  1.0474 -1.5707
 7848SOL     OW35176   1.121   2.561   4.457 -0.4198 -0.3628 -0.2619
 7848SOL    HW135177   1.155   2.593   4.541  1.4228  1.0563 -1.5672
 7848SOL    HW235178   1.181   2.605   4.397  2.4637 -1.9166  1.5050
 7849SOL     OW35179   4.174   4.329   8.995 -0.3074 -0.3976 -0.5245
 7849SOL    HW135180   4.131   4.303   8.913 -0.4875 -1.9641  0.0806
 7849SOL    HW235181   4.098   4.353   9.048 -0.3952 -1.3046 -0.2382
 7850SOL     OW35182   1.761   3.582  13.366  0.2028  0.6505 -0.4560
 7850SOL    HW135183   1.856   3.566  13.362  0.2804  0.8823  0.6284
 7850SOL    HW235184   1.758   3.593  13.461 -2.6406  0.0385 -0.4689
 7851SOL     OW35185   3.858   2.268   7.157  0.3264 -0.5885 -0.1995
 7851SOL    HW135186   3.895   2.347   7.195  0.3532 -1.7640  2.1946
 7851SOL    HW235187   3.937   2.217   7.140  0.1069 -0.8827 -0.3490
 7852SOL     OW35188   4.301   0.614   5.311 -0.2505  0.0412 -0.3935
 7852SOL    HW135189   4.259   0.672   5.247 -1.3299 -0.9652 -0.5979
 7852SOL    HW235190   4.308   0.675   5.384  0.4090  2.2019 -2.2400
 7853SOL     OW35191   3.249   1.597  17.246  0.4506  0.5998  0.2353
 7853SOL    HW135192   3.241   1.687  17.279 -0.3187 -1.0156  4.5024
 7853SOL    HW235193   3.291   1.558  17.323  1.5290  1.0570 -0.1166
 7854SOL     OW35194   0.696   3.175   6.562  0.2406  0.1373 -0.7749
 7854SOL    HW135195   0.679   3.266   6.588 -2.0601 -0.1612 -1.1931
 7854SOL    HW235196   0.623   3.154   6.504 -0.4234  0.9562 -0.2561
 7855SOL     OW35197   4.537   4.236   9.416  0.0331  0.4583 -0.1352
 7855SOL    HW135198   4.532   4.331   9.417  0.3596  0.4836 -0.9751
 7855SOL    HW235199   4.610   4.207   9.470 -1.1799 -0.8336  0.8020
 7856SOL     OW35200   4.221   4.073   3.376 -0.1351 -0.4262  0.3278
 7856SOL    HW135201   4.203   4.124   3.455 -0.1100 -0.8021  0.5775
 7856SOL    HW235202   4.271   4.005   3.421 -0.5644 -1.6546 -1.0696
 7857SOL     OW35203   0.881   1.549  13.583  0.1993  0.2848 -0.5511
 7857SOL    HW135204   0.788   1.529  13.588 -0.1688  1.9252 -0.8928
 7857SOL    HW235205   0.892   1.537  13.489 -0.5771  0.5633 -0.6790
 7858SOL     OW35206   0.604   1.511   1.195  0.0407 -0.4846 -0.3871
 7858SOL    HW135207   0.683   1.515   1.249 -0.4170 -0.0247  0.2471
 7858SOL    HW235208   0.619   1.435   1.138  3.1147 -0.5144  0.4819
 7859SOL     OW35209   1.514   0.612   6.746 -0.0697 -0.5874 -0.1139
 7859SOL    HW135210   1.525   0.599   6.840 -1.5302 -1.4086 -0.0497
 7859SOL    HW235211   1.536   0.703   6.727  1.8155 -0.4786  2.6027
 7860SOL     OW35212   2.563   0.455  15.660  0.4473  0.1959 -0.3534
 7860SOL    HW135213   2.595   0.393  15.725 -0.9671 -1.1584 -0.9457
 7860SOL    HW235214   2.588   0.404  15.583  0.2856 -0.9992  0.3750
 7861SOL     OW35215   1.334   2.045   7.834 -0.5332  0.3967  0.2952
 7861SOL    HW135216   1.330   2.013   7.924  1.2347 -2.2595 -0.5889
 7861SOL    HW235217   1.324   1.964   7.785  3.4751 -0.4899  0.9953
 7862SOL     OW35218   4.702   0.603   3.569 -0.6756  0.6438  0.2103
 7862SOL    HW135219   4.661   0.667   3.627  1.1691  0.9605  1.1414
 7862SOL    HW235220   4.705   0.524   3.623  3.0057  0.7839  0.1561
 7863SOL     OW35221   3.745   2.041   7.233  0.2728 -0.3028  0.3305
 7863SOL    HW135222   3.780   1.992   7.158 -0.1953  1.0699 -0.7837
 7863SOL    HW235223   3.773   2.127   7.203 -1.3334  0.5587  1.2995
 7864SOL     OW35224   4.280   3.465  14.741  0.3264  0.2791  0.0790
 7864SOL    HW135225   4.318   3.518  14.671 -0.2787  0.2161 -0.2965
 7864SOL    HW235226   4.354   3.419  14.780 -0.3990  0.3990  1.6082
 7865SOL     OW35227   2.278   0.514  13.801 -0.0159 -0.1279 -0.7609
 7865SOL    HW135228   2.209   0.496  13.866  2.2117  1.6542  2.1082
 7865SOL    HW235229   2.230   0.496  13.720  1.4322 -1.0734 -1.3977
 7866SOL     OW35230   0.532   4.490   8.793 -0.5160 -0.4314 -0.3310
 7866SOL    HW135231   0.501   4.427   8.858  0.1478 -2.0498 -1.5857
 7866SOL    HW235232   0.511   4.576   8.831 -0.1838 -0.2875 -0.4727
 7867SOL     OW35233   1.857   3.161   2.462 -0.3075  0.4110 -0.0038
 7867SOL    HW135234   1.811   3.203   2.389 -0.7241 -0.5426 -0.2993
 7867SOL    HW235235   1.861   3.069   2.434 -1.6003  0.4782 -0.4246
 7868SOL     OW35236   0.990   2.096   0.943  0.1425  0.0566 -0.0068
 7868SOL    HW135237   1.064   2.039   0.963  2.7435  2.9928 -1.4341
 7868SOL    HW235238   0.916   2.042   0.972  0.1130 -0.6315 -1.3710
 7869SOL     OW35239   2.228   0.772  15.648 -0.1080  0.5877  0.0348
 7869SOL    HW135240   2.250   0.679  15.639  2.5692  1.1998  0.2609
 7869SOL    HW235241   2.180   0.791  15.567  1.9038  1.3117 -1.0027
 7870SOL     OW35242   1.862   4.723   2.565  0.5533 -0.2309  0.3890
 7870SOL    HW135243   1.901   0.041   2.497  1.2224 -0.5684  0.5031
 7870SOL    HW235244   1.926   4.734   2.635  2.1540 -2.4950 -0.7532
 7871SOL     OW35245   3.934   1.936   2.730  0.5663 -0.2965  0.1374
 7871SOL    HW135246   3.841   1.941   2.753  0.1105 -1.2305 -1.4892
 7871SOL    HW235247   3.967   2.025   2.738 -3.0474  1.0054  0.4653
 7872SOL     OW35248   2.578   0.275   3.453 -0.5319  0.5482 -0.5791
 7872SOL    HW135249   2.523   0.352   3.470 -0.2048  1.2048 -2.5009
 7872SOL    HW235250   2.595   0.256   3.546  2.8535 -0.8397 -1.4773
 7873SOL     OW35251   1.957   4.018  10.558  0.2206 -0.0394  0.4428
 7873SOL    HW135252   1.877   4.057  10.522 -0.4288 -0.9695  0.8630
 7873SOL    HW235253   1.943   3.925  10.539  2.6457 -0.9453  3.2059
 7874SOL     OW35254   2.443   3.514   0.854  0.6365  0.3028  0.1109
 7874SOL    HW135255   2.471   3.567   0.929  0.7281 -1.3510  1.2500
 7874SOL    HW235256   2.491   3.544   0.777 -2.5175  2.1528 -1.1456
 7875SOL     OW35257   3.269   3.711   7.741 -0.0889  0.0126  0.1036
 7875SOL    HW135258   3.247   3.799   7.772 -2.3074 -0.6669  0.4422
 7875SOL    HW235259   3.291   3.733   7.650 -0.6071 -2.8583 -0.7062
 7876SOL     OW35260   2.899   1.604   9.136  0.5380 -0.2225 -0.6073
 7876SOL    HW135261   2.966   1.621   9.069  2.0779  2.8615  1.7159
 7876SOL    HW235262   2.824   1.634   9.085 -0.3431 -0.4528  0.5642
 7877SOL     OW35263   1.235   2.294   3.284  0.6269  0.3729 -0.1627
 7877SOL    HW135264   1.161   2.234   3.282  0.5530  0.4008  1.7631
 7877SOL    HW235265   1.269   2.268   3.370  0.2601  2.6751  0.7056
 7878SOL     OW35266   2.976   3.860   4.762  0.4950  0.7238 -0.2527
 7878SOL    HW135267   2.940   3.943   4.795  1.2968  0.4866  1.2263
 7878SOL    HW235268   2.980   3.801   4.837 -0.4809 -0.9781 -1.5532
 7879SOL     OW35269   3.323   4.108  12.131  0.0984  0.0847  0.1710
 7879SOL    HW135270   3.308   4.187  12.182  0.0553  1.4745 -2.0164
 7879SOL    HW235271   3.350   4.051  12.203 -1.0953 -2.5117 -1.4396
 7880SOL     OW35272   1.654   0.891   3.186 -0.3733 -0.0627  0.0956
 7880SOL    HW135273   1.730   0.869   3.132 -0.4288  2.2834 -0.9178
 7880SOL    HW235274   1.586   0.827   3.165 -0.2419  0.0972 -0.8064
 7881SOL     OW35275   2.284   3.303   2.822  0.1670 -0.1861 -0.4194
 7881SOL    HW135276   2.322   3.274   2.739  2.6754 -1.6460  1.2565
 7881SOL    HW235277   2.196   3.323   2.791 -0.0599 -0.7213 -0.1237
 7882SOL     OW35278   2.404   0.773  10.180  0.2530  0.1379  0.0287
 7882SOL    HW135279   2.316   0.810  10.187  0.5008  0.8252 -0.5477
 7882SOL    HW235280   2.385   0.679  10.175 -1.1033  0.3979  0.2984
 7883SOL     OW35281   3.520   2.094  12.085  0.0745  0.6081  0.3860
 7883SOL    HW135282   3.519   2.170  12.026  2.1615 -0.9005 -1.5785
 7883SOL    HW235283   3.612   2.093  12.110  0.6403  0.9704 -1.6565
 7884SOL     OW35284   3.315   3.502   6.663  0.2187  0.1344 -0.4782
 7884SOL    HW135285   3.287   3.487   6.753 -0.2844  0.5778 -0.5613
 7884SOL    HW235286   3.332   3.596   6.678  0.7527 -0.3746  2.2028
 7885SOL     OW35287   4.700   2.729   3.807  0.1245 -0.2645  0.2591
 7885SOL    HW135288   4.630   2.665   3.792  1.0561 -1.6241  1.8368
 7885SOL    HW235289   0.044   2.680   3.817 -0.8583 -1.8849  0.2511
 7886SOL     OW35290   2.194   1.616   3.987  0.2602 -0.3090 -0.3351
 7886SOL    HW135291   2.283   1.616   3.952 -0.1943 -0.3562 -1.4956
 7886SOL    HW235292   2.192   1.702   4.029  1.9903  0.6670 -2.2697
 7887SOL     OW35293   3.327   1.033   4.709  0.0208 -0.1702 -0.4386
 7887SOL    HW135294   3.410   0.989   4.695  0.0464 -1.0325  2.3709
 7887SOL    HW235295   3.332   1.114   4.659  0.5083 -0.4013 -0.7654
 7888SOL     OW35296   1.251   4.600   9.000  0.0128 -0.2139 -0.1669
 7888SOL    HW135297   1.287   4.597   8.911 -0.6794  0.1742 -0.4565
 7888SOL    HW235298   1.333   4.591   9.049 -0.3417  3.3727  1.0903
 7889SOL     OW35299   1.250   0.262   0.513  0.0583 -0.0918  0.4563
 7889SOL    HW135300   1.343   0.271   0.492 -0.3278 -1.9728 -1.9926
 7889SOL    HW235301   1.219   0.325   0.448 -0.5020  0.2661  1.0719
 7890SOL     OW35302   4.380   2.536   7.384 -0.7526 -0.4266 -0.4247
 7890SOL    HW135303   4.325   2.605   7.422  2.0679  1.2876  0.5415
 7890SOL    HW235304   4.317   2.467   7.361  0.2878 -2.2945  2.2866
 7891SOL     OW35305   3.694   4.204  16.267 -0.2175  0.1097 -0.2071
 7891SOL    HW135306   3.729   4.257  16.196  0.8277 -0.4417 -0.1022
 7891SOL    HW235307   3.741   4.121  16.264 -0.7684 -0.1807 -0.9249
 7892SOL     OW35308   2.305   2.468   7.610 -0.2446 -0.4903 -0.0260
 7892SOL    HW135309   2.377   2.527   7.586 -0.3410 -0.6382 -0.6838
 7892SOL    HW235310   2.361   2.391   7.604  0.6160  0.1524 -0.3219
 7893SOL     OW35311   3.759   3.320   2.905  0.2675 -0.0464 -0.5257
 7893SOL    HW135312   3.749   3.265   2.828 -0.2733  1.0719 -1.2604
 7893SOL    HW235313   3.684   3.377   2.889 -0.6450 -0.9506  0.5359
 7894SOL     OW35314   2.308   3.458   6.347 -0.3707 -0.3232 -0.0410
 7894SOL    HW135315   2.346   3.546   6.348 -1.6322  0.2118  0.5119
 7894SOL    HW235316   2.266   3.448   6.433  0.4008  1.6551  0.5823
 7895SOL     OW35317   0.242   3.269   1.025 -0.4539 -0.5893 -0.2221
 7895SOL    HW135318   0.275   3.207   0.959  1.7496 -0.5370  0.8183
 7895SOL    HW235319   0.159   3.285   0.981 -0.2536 -1.1353 -0.8045
 7896SOL     OW35320   3.739   3.344   9.018 -0.1235 -0.0916 -0.1720
 7896SOL    HW135321   3.734   3.332   8.923  1.2827  1.0977 -0.4108
 7896SOL    HW235322   3.833   3.363   9.019  0.2209 -1.8433  0.0713
 7897SOL     OW35323   1.168   4.490   6.385  0.1626 -0.2588  0.0916
 7897SOL    HW135324   1.239   4.549   6.411 -0.6854 -0.1599  2.1592
 7897SOL    HW235325   1.099   4.528   6.438  1.1685 -2.1964  2.7779
 7898SOL     OW35326   4.062   1.977  14.849 -0.6071 -0.0629  0.3062
 7898SOL    HW135327   4.111   2.036  14.906 -1.0068  1.0772 -0.5370
 7898SOL    HW235328   4.113   1.897  14.864 -1.2789 -1.0315 -2.6428
 7899SOL     OW35329   1.866   4.417   8.721  0.4887 -0.4205  0.0284
 7899SOL    HW135330   1.887   4.328   8.750 -0.4518 -1.2068 -1.6815
 7899SOL    HW235331   1.953   4.456   8.711  1.5819 -2.4390  1.6612
 7900SOL     OW35332   0.464   0.199   4.574  0.3601 -0.2151 -0.7143
 7900SOL    HW135333   0.538   0.220   4.632  1.5212  2.8238 -3.2635
 7900SOL    HW235334   0.425   0.286   4.563  0.5880  0.0051  0.1538
 7901SOL     OW35335   3.864   3.885   2.926 -0.6622 -0.1882  0.3122
 7901SOL    HW135336   3.948   3.866   2.969 -0.0623  0.5246 -0.5348
 7901SOL    HW235337   3.881   3.970   2.885  2.2572 -1.0800 -0.3057
 7902SOL     OW35338   2.671   3.722  13.893 -0.1163 -0.3453 -0.2288
 7902SOL    HW135339   2.634   3.635  13.875 -0.6144 -0.6113  2.0960
 7902SOL    HW235340   2.748   3.728  13.836 -0.9101 -1.0100 -1.3789
 7903SOL     OW35341   4.479   0.873   6.210 -0.7123  0.0116 -0.4942
 7903SOL    HW135342   4.431   0.933   6.267  1.2884 -0.5097  1.7388
 7903SOL    HW235343   4.554   0.932   6.196 -0.8361  0.1617 -0.5251
 7904SOL     OW35344   0.756   1.187   1.657  0.3306  0.4600 -0.1747
 7904SOL    HW135345   0.821   1.150   1.597  0.6405 -0.8484  0.9656
 7904SOL    HW235346   0.798   1.177   1.743 -1.3264  1.1523  0.7189
 7905SOL     OW35347   3.475   2.802   2.519 -0.2450  0.0739 -0.0801
 7905SOL    HW135348   3.413   2.730   2.505  1.8087 -1.4380 -1.4742
 7905SOL    HW235349   3.471   2.800   2.615  1.4724  1.0963  0.0025
 7906SOL     OW35350   2.309   3.058   1.813  0.3013 -0.3897 -0.3029
 7906SOL    HW135351   2.314   2.983   1.873  2.7215  0.4702  0.5539
 7906SOL    HW235352   2.330   3.023   1.726 -0.2857  2.2744 -1.5113
 7907SOL     OW35353   3.862   3.812  13.498 -0.3371  0.0685  0.5253
 7907SOL    HW135354   3.828   3.816  13.587 -1.5249 -1.9338  0.1624
 7907SOL    HW235355   3.953   3.787  13.514 -0.2089  1.0928  1.3864
 7908SOL     OW35356   0.826   2.255   5.299 -0.2706  0.2586 -0.2627
 7908SOL    HW135357   0.832   2.200   5.377 -2.5326 -0.5492 -0.6476
 7908SOL    HW235358   0.883   2.325   5.330 -1.5885  1.2588 -0.0899
 7909SOL     OW35359   4.377   2.855   8.718  0.2818 -0.2995  0.0722
 7909SOL    HW135360   4.378   2.790   8.648 -1.1740  0.2688 -0.4726
 7909SOL    HW235361   4.300   2.826   8.767  0.5217  0.3721  0.8513
 7910SOL     OW35362   4.580   2.528   1.719  0.5690 -0.2508 -0.2382
 7910SOL    HW135363   4.648   2.478   1.765  0.8038  1.5058  1.3696
 7910SOL    HW235364   4.519   2.511   1.791 -1.5480 -2.0985 -2.4971
 7911SOL     OW35365   2.879   0.999  14.326 -0.2033  0.1565 -0.3345
 7911SOL    HW135366   2.914   1.083  14.354 -1.0825  0.9901 -1.7587
 7911SOL    HW235367   2.920   1.002  14.239  0.7797  1.8597  0.1923
 7912SOL     OW35368   1.783   2.208   5.451 -0.3815  0.0298  0.4846
 7912SOL    HW135369   1.806   2.201   5.358  1.0574 -1.8667  0.9731
 7912SOL    HW235370   1.697   2.250   5.453 -0.3577  0.1206 -0.6104
 7913SOL     OW35371   1.934   2.557   2.965 -0.4230 -0.4929  0.2363
 7913SOL    HW135372   1.855   2.524   2.924 -1.1517  0.8131  0.5879
 7913SOL    HW235373   1.995   2.486   2.944 -0.7210 -0.7981  0.3975
 7914SOL     OW35374   3.754   3.930   8.660 -0.6322 -0.1158 -0.3502
 7914SOL    HW135375   3.767   3.948   8.753 -0.5407  0.8533 -0.5431
 7914SOL    HW235376   3.841   3.949   8.624 -0.4387 -1.2957 -0.5154
 7915SOL     OW35377   3.755   2.383   3.037  0.3386 -0.4885 -0.4321
 7915SOL    HW135378   3.721   2.446   3.100  1.4103  0.5580 -0.9117
 7915SOL    HW235379   3.842   2.423   3.031 -0.5979  1.6699  0.4147
 7916SOL     OW35380   0.790   4.391   2.076  0.2714  0.0841 -0.3512
 7916SOL    HW135381   0.779   4.298   2.059  2.8150 -0.4882  1.2119
 7916SOL    HW235382   0.883   4.405   2.057 -0.3701  4.6801 -0.2786
 7917SOL     OW35383   3.256   0.262   7.450  0.3497  0.0308  0.8621
 7917SOL    HW135384   3.330   0.283   7.393 -0.4371  0.9201  0.1705
 7917SOL    HW235385   3.221   0.181   7.412  2.3050 -0.9257  1.1192
 7918SOL     OW35386   2.931   1.509   8.128 -0.2193 -0.8448 -0.2427
 7918SOL    HW135387   3.009   1.501   8.182  0.3640 -0.0363 -0.9809
 7918SOL    HW235388   2.879   1.548   8.198 -1.1532  0.9999 -1.9501
 7919SOL     OW35389   3.404   4.404   7.158  0.0688 -0.5279 -0.0253
 7919SOL    HW135390   3.342   4.352   7.107 -0.7057  0.7652 -0.4153
 7919SOL    HW235391   3.436   4.321   7.192  0.2770 -0.2215  0.5354
 7920SOL     OW35392   1.237   1.087   4.062  0.5503  0.3304  0.4730
 7920SOL    HW135393   1.232   1.060   4.153 -1.1716  1.2139  0.6427
 7920SOL    HW235394   1.280   1.011   4.024 -2.2351 -0.7699 -0.5194
 7921SOL     OW35395   0.212   0.305   6.979 -0.1034  0.0788 -0.2679
 7921SOL    HW135396   0.157   0.367   6.932 -0.7291  1.1132  1.8762
 7921SOL    HW235397   0.261   0.270   6.904 -0.1631  0.0843 -0.3102
 7922SOL     OW35398   4.676   4.537   9.317 -0.3173  0.3340  0.0717
 7922SOL    HW135399   0.017   4.491   9.346  0.5216  2.3463  1.0208
 7922SOL    HW235400   4.648   4.566   9.404  1.6000  3.2780 -0.2915
 7923SOL     OW35401   2.717   0.900   2.430 -0.2746  0.0598 -0.3128
 7923SOL    HW135402   2.720   0.917   2.524  0.5623  0.4793 -0.4130
 7923SOL    HW235403   2.770   0.978   2.413 -1.8753  1.7298  2.5137
 7924SOL     OW35404   1.533   2.938   1.672  0.1822 -0.5317 -0.4876
 7924SOL    HW135405   1.564   2.848   1.680  0.7103 -0.2865  0.2059
 7924SOL    HW235406   1.462   2.915   1.611 -0.0812  0.0952 -0.4269
 7925SOL     OW35407   4.446   0.408   4.657 -0.1899  0.0163 -0.0372
 7925SOL    HW135408   4.518   0.378   4.712  1.3936  0.8767 -1.6690
 7925SOL    HW235409   4.376   0.349   4.685 -1.4276  1.5579  0.1619
 7926SOL     OW35410   3.312   1.167   8.186  0.1992  0.6846  0.0361
 7926SOL    HW135411   3.267   1.126   8.260  0.8585 -1.7070 -0.8965
 7926SOL    HW235412   3.331   1.089   8.134 -0.4741 -0.3330  1.3120
 7927SOL     OW35413   4.150   0.525   3.807 -0.5318  0.0825  0.1976
 7927SOL    HW135414   4.071   0.558   3.763 -0.0472  1.4253  0.3096
 7927SOL    HW235415   4.186   0.608   3.840  0.2544 -0.3418  0.4029
 7928SOL     OW35416   2.214   4.182   1.696 -0.1429 -0.0928  0.0659
 7928SOL    HW135417   2.159   4.104   1.687  0.6908 -0.8034  1.2055
 7928SOL    HW235418   2.269   4.171   1.773  1.7136 -1.3762 -1.4277
 7929SOL     OW35419   2.870   1.740   1.993 -0.8973 -0.3221  0.2917
 7929SOL    HW135420   2.824   1.823   1.979 -0.9669 -0.8248 -2.5065
 7929SOL    HW235421   2.873   1.719   1.900  0.8903 -1.0135  0.4996
 7930SOL     OW35422   1.956   3.527   7.190  0.1252  0.6502  0.1004
 7930SOL    HW135423   1.934   3.436   7.168  1.2508  0.4151 -0.0543
 7930SOL    HW235424   2.016   3.559   7.123  1.2587 -0.3406  0.6466
 7931SOL     OW35425   2.912   4.109   4.113 -0.6042  0.6711  0.3446
 7931SOL    HW135426   2.968   4.174   4.073 -0.3014  1.8160  2.6095
 7931SOL    HW235427   2.850   4.162   4.164 -1.5286  0.7110 -0.8121
 7932SOL     OW35428   2.765   0.157   8.317  0.2871 -0.0626  0.0296
 7932SOL    HW135429   2.672   0.148   8.298  0.8658 -0.9459 -2.3614
 7932SOL    HW235430   2.791   0.217   8.248  0.8239  1.9993  2.0085
 7933SOL     OW35431   2.774   2.496   7.675  0.3903  0.0685  0.4538
 7933SOL    HW135432   2.841   2.442   7.633  1.6408  1.4140  0.7078
 7933SOL    HW235433   2.805   2.490   7.765  2.3451 -1.5285 -0.3384
 7934SOL     OW35434   4.523   0.360  17.566 -0.4572  0.1040  0.0717
 7934SOL    HW135435   4.459   0.431  17.573 -2.2208 -1.3307 -1.3750
 7934SOL    HW235436   4.554   0.379  17.478 -1.7431  2.2990  0.1034
 7935SOL     OW35437   1.051   3.417   7.934  0.0408  0.8790  0.0846
 7935SOL    HW135438   1.001   3.344   7.971  2.9200 -2.5275 -2.7191
 7935SOL    HW235439   1.078   3.379   7.850  1.9277  3.5294 -0.4976
 7936SOL     OW35440   4.136   2.046   8.663  0.1762  0.4632 -0.2747
 7936SOL    HW135441   4.114   2.138   8.677  0.8503  0.6890 -0.6942
 7936SOL    HW235442   4.140   2.038   8.568  0.2184 -1.4936 -0.1012
 7937SOL     OW35443   0.247   2.481   6.126  0.4138  0.1324 -0.2493
 7937SOL    HW135444   0.284   2.563   6.159 -0.0720 -2.6748  7.2296
 7937SOL    HW235445   0.218   2.515   6.041 -1.1544  0.7902  0.5442
 7938SOL     OW35446   2.156   4.441  15.084 -0.6389 -0.3427  0.5278
 7938SOL    HW135447   2.127   4.355  15.055  0.9088  0.3772 -3.1625
 7938SOL    HW235448   2.077   4.492  15.063 -0.8550 -0.6598  0.5638
 7939SOL     OW35449   1.981   2.027   7.103 -0.3767 -0.0020  0.0071
 7939SOL    HW135450   2.001   1.934   7.108 -4.4872 -0.9222 -1.1000
 7939SOL    HW235451   1.944   2.038   7.016  0.4956 -0.0610 -0.3666
 7940SOL     OW35452   2.567   2.221   9.758 -0.2663 -0.0098  0.4475
 7940SOL    HW135453   2.625   2.294   9.781  0.4522 -0.4818  0.1361
 7940SOL    HW235454   2.531   2.201   9.844  2.0127 -0.7108  1.2548
 7941SOL     OW35455   0.960   2.907   5.698 -0.5087 -0.6562 -0.4396
 7941SOL    HW135456   0.965   2.937   5.607  0.6091 -0.6448 -0.3772
 7941SOL    HW235457   0.994   2.979   5.751 -2.3349  0.0786 -0.2714
 7942SOL     OW35458   3.654   1.346   2.477 -0.1008 -0.5750 -0.5531
 7942SOL    HW135459   3.672   1.407   2.405  0.5437 -1.7063 -1.3479
 7942SOL    HW235460   3.744   1.341   2.509 -0.1425 -1.8912 -0.6379
 7943SOL     OW35461   3.354   3.244   5.897 -0.2625 -0.3545  0.0638
 7943SOL    HW135462   3.414   3.213   5.829 -1.3309 -0.6155 -0.7592
 7943SOL    HW235463   3.390   3.332   5.912 -1.3807  0.0783  0.1863
 7944SOL     OW35464   1.230   1.089  12.409  0.6205 -0.0491 -0.6670
 7944SOL    HW135465   1.244   1.008  12.359 -0.2161  0.6189 -2.0093
 7944SOL    HW235466   1.278   1.075  12.490  1.1034  0.5707 -0.8447
 7945SOL     OW35467   1.364   1.453   2.885  0.2282 -0.1470  0.9738
 7945SOL    HW135468   1.440   1.489   2.930  0.8880  0.7369 -0.8324
 7945SOL    HW235469   1.395   1.472   2.797 -0.4340  1.6551  1.1259
 7946SOL     OW35470   1.274   2.130   7.172 -0.1884 -0.0355 -0.0407
 7946SOL    HW135471   1.205   2.063   7.177 -1.3077  0.9376 -2.4860
 7946SOL    HW235472   1.332   2.108   7.245  0.0674  1.1804  0.1153
 7947SOL     OW35473   1.897   1.511  17.466  0.4667 -0.2023  0.2769
 7947SOL    HW135474   1.898   1.430  17.516  1.5572 -0.6305 -0.4393
 7947SOL    HW235475   1.804   1.534  17.462  0.6960  0.7810  0.3525
 7948SOL     OW35476   0.639   3.751   6.949 -0.5625  0.1486  0.5092
 7948SOL    HW135477   0.692   3.800   7.012  3.5083 -0.0080 -2.8018
 7948SOL    HW235478   0.596   3.692   7.009 -0.9804  1.8462  1.8710
 7949SOL     OW35479   0.716   1.184   6.588 -0.7664  0.1687  0.5147
 7949SOL    HW135480   0.655   1.168   6.660 -2.8156  1.2681 -1.0009
 7949SOL    HW235481   0.782   1.244   6.624 -0.3141 -0.0702  0.0810
 7950SOL     OW35482   4.674   4.621   4.443 -0.3132  0.1926  0.4334
 7950SOL    HW135483   4.733   4.696   4.446  1.3055 -1.0708  0.2456
 7950SOL    HW235484   4.583   4.653   4.437  0.2674  1.4356 -1.9491
 7951SOL     OW35485   2.104   1.949   0.432 -0.0542  0.0413  0.7714
 7951SOL    HW135486   2.159   1.878   0.468  2.9284  1.4967 -0.9365
 7951SOL    HW235487   2.145   1.959   0.346 -2.1939 -0.0200 -0.2542
 7952SOL     OW35488   2.378   2.271  12.094 -0.0581  0.3728 -0.0361
 7952SOL    HW135489   2.366   2.358  12.131  1.2400  0.4313  0.2309
 7952SOL    HW235490   2.321   2.218  12.150 -1.5557  1.0862 -0.8867
 7953SOL     OW35491   0.294   0.689   7.633 -0.3319 -0.2642 -0.1185
 7953SOL    HW135492   0.249   0.730   7.708 -0.0709 -0.4053  0.1131
 7953SOL    HW235493   0.269   0.755   7.568  2.8647  0.8252 -0.2370
 7954SOL     OW35494   0.959   4.079   1.362 -0.0439 -0.1410  0.3216
 7954SOL    HW135495   1.000   4.002   1.401 -0.1925 -1.6961 -2.6318
 7954SOL    HW235496   0.981   4.141   1.432  3.9381 -0.1794 -0.9175
 7955SOL     OW35497   3.249   2.364   4.756 -0.2675  0.0603  0.0726
 7955SOL    HW135498   3.338   2.349   4.724 -1.1982 -2.0986 -1.5071
 7955SOL    HW235499   3.267   2.441   4.811  1.7146 -0.2866 -0.1286
 7956SOL     OW35500   4.529   2.910  13.615 -0.1954 -0.5087  0.2496
 7956SOL    HW135501   4.435   2.908  13.600  0.1388 -0.2361 -1.8318
 7956SOL    HW235502   4.557   2.973  13.549  1.7198 -0.4697  1.1042
 7957SOL     OW35503   4.617   4.061   4.908 -0.7718  0.2711  0.7543
 7957SOL    HW135504   4.559   4.036   4.835 -0.2006 -0.4890  0.5653
 7957SOL    HW235505   4.609   4.155   4.895 -1.4835 -0.0060 -0.8450
 7958SOL     OW35506   2.064   0.017   6.485  0.3401  0.6349 -0.3096
 7958SOL    HW135507   2.079   4.684   6.549 -1.9626  0.7906  0.3959
 7958SOL    HW235508   2.136   0.003   6.424  2.1038 -0.8220  2.0824
 7959SOL     OW35509   3.249   3.928   8.456 -0.1596 -0.1946  0.5307
 7959SOL    HW135510   3.344   3.932   8.442 -0.5361  1.6495 -1.4381
 7959SOL    HW235511   3.249   3.870   8.533 -0.5454  1.9914  2.1979
 7960SOL     OW35512   1.123   2.952   3.326  0.0443  0.0364 -0.4332
 7960SOL    HW135513   1.040   2.904   3.318 -0.1723  0.7694 -2.4243
 7960SOL    HW235514   1.142   2.947   3.420  0.7940 -2.0541 -0.6817
 7961SOL     OW35515   3.821   4.269   7.845  0.2760  0.1663 -0.5218
 7961SOL    HW135516   3.808   4.364   7.839  0.9445  0.3248  0.5188
 7961SOL    HW235517   3.842   4.252   7.754  1.3365 -1.0088 -0.0541
 7962SOL     OW35518   2.239   3.772   2.412 -0.4351  0.5019  0.1197
 7962SOL    HW135519   2.275   3.684   2.403 -0.8288  0.3682 -0.1289
 7962SOL    HW235520   2.156   3.744   2.450  1.3824  0.0401  3.6953
 7963SOL     OW35521   2.543   2.807   1.620 -0.2739  0.8331 -0.2824
 7963SOL    HW135522   2.475   2.844   1.563  0.3424 -1.3616 -2.4400
 7963SOL    HW235523   2.618   2.839   1.569  0.5559  0.8655  0.9631
 7964SOL     OW35524   2.687   1.997  17.127 -0.3205 -0.5969  0.0002
 7964SOL    HW135525   2.761   2.005  17.187  0.2241 -1.7259 -0.5329
 7964SOL    HW235526   2.687   1.903  17.142 -0.1596 -0.4355  1.0174
 7965SOL     OW35527   4.338   3.094   0.198 -0.5458  0.8119 -0.0712
 7965SOL    HW135528   4.427   3.127   0.195 -0.0592 -0.2733  2.5942
 7965SOL    HW235529   4.297   3.145   0.128 -1.7145  1.0422  0.7770
 7966SOL     OW35530   3.593   0.416   8.404  0.0487  0.0717 -0.3127
 7966SOL    HW135531   3.505   0.447   8.429  0.6799  0.2523  1.7170
 7966SOL    HW235532   3.633   0.415   8.491 -0.8795 -4.6952  0.0541
 7967SOL     OW35533   0.817   0.970  12.339 -0.1709 -0.1497 -0.0316
 7967SOL    HW135534   0.872   0.892  12.351 -0.0589  0.0439  0.7395
 7967SOL    HW235535   0.774   0.949  12.257 -2.3116  0.1532  1.0027
 7968SOL     OW35536   3.928   2.939   7.222 -0.5807  0.2960  0.2939
 7968SOL    HW135537   4.013   2.983   7.230  0.6362 -2.1508  0.9968
 7968SOL    HW235538   3.872   3.017   7.228 -1.5399 -0.5951  3.2976
 7969SOL     OW35539   2.857   0.577  11.893 -0.5575 -0.2615 -0.3562
 7969SOL    HW135540   2.808   0.659  11.899  1.6053  0.9322  1.1215
 7969SOL    HW235541   2.806   0.516  11.948 -2.2484 -0.6396 -2.3594
 7970SOL     OW35542   1.692   1.985  15.204  0.2214 -0.1901  0.4016
 7970SOL    HW135543   1.677   2.009  15.113  2.3321  0.8335  0.3383
 7970SOL    HW235544   1.723   1.895  15.192 -1.0828 -0.5126 -0.5548
 7971SOL     OW35545   2.755   3.818   3.396 -0.0474 -0.6893 -0.0907
 7971SOL    HW135546   2.661   3.840   3.392  0.3106  0.9658  0.5264
 7971SOL    HW235547   2.792   3.903   3.420 -1.0518 -0.1931 -0.2750
 7972SOL     OW35548   0.563   4.030   2.924  0.3605  0.3692 -0.3085
 7972SOL    HW135549   0.598   4.118   2.940  1.9212 -0.2030 -0.5182
 7972SOL    HW235550   0.486   4.045   2.870  0.1393  0.6014  0.0692
 7973SOL     OW35551   4.340   2.464   1.869  0.1541 -0.1153  0.0421
 7973SOL    HW135552   4.304   2.386   1.825 -0.4191  0.8083 -1.1187
 7973SOL    HW235553   4.283   2.529   1.827 -0.9242 -0.3136  1.2167
 7974SOL     OW35554   0.039   0.174  11.861 -0.2733  0.1729  0.0590
 7974SOL    HW135555   0.106   0.242  11.868  0.9877 -0.9387 -1.2805
 7974SOL    HW235556   0.087   0.095  11.882  2.0456  1.7296  0.6113
 7975SOL     OW35557   3.992   1.082  15.030 -0.2947 -0.1473 -0.1241
 7975SOL    HW135558   3.997   1.070  15.124 -0.3059  2.1551  0.1840
 7975SOL    HW235559   4.074   1.132  15.026 -0.4964  0.2609  0.9060
 7976SOL     OW35560   3.028   0.135   8.702  0.0790 -0.2376 -0.0857
 7976SOL    HW135561   3.097   0.074   8.675  0.5517  0.1026  0.3363
 7976SOL    HW235562   3.082   0.197   8.752 -2.2832 -0.4317  2.7008
 7977SOL     OW35563   1.140   2.712  11.280  0.0715 -0.0327 -0.2518
 7977SOL    HW135564   1.232   2.697  11.255 -0.4170 -3.5694 -0.0306
 7977SOL    HW235565   1.125   2.625  11.317 -0.4694  0.7687  1.4253
 7978SOL     OW35566   2.122   1.427   5.028 -0.0460 -0.0234 -0.0979
 7978SOL    HW135567   2.202   1.378   5.049  0.2800  1.1128  1.3045
 7978SOL    HW235568   2.059   1.383   5.085 -1.0791  2.7723  0.9178
 7979SOL     OW35569   1.488   0.200   5.323  0.3844  0.1097 -0.1173
 7979SOL    HW135570   1.402   0.187   5.284  0.9560 -1.3938 -0.8866
 7979SOL    HW235571   1.458   0.244   5.402  0.6150  1.9752 -1.0535
 7980SOL     OW35572   3.775   4.445   9.884 -0.1140  0.0256 -0.2783
 7980SOL    HW135573   3.785   4.392   9.963 -0.9968  1.1394  0.5687
 7980SOL    HW235574   3.752   4.535   9.906  2.5924  0.9647 -1.2456
 7981SOL     OW35575   1.878   0.809   5.722  0.0634  0.1984 -0.0479
 7981SOL    HW135576   1.811   0.759   5.769  0.1274  1.0258  0.9252
 7981SOL    HW235577   1.821   0.861   5.666  0.2231  1.4861  1.0007
 7982SOL     OW35578   3.245   2.253   8.569 -0.1509 -0.4516  0.2341
 7982SOL    HW135579   3.166   2.254   8.514 -0.5811 -0.1255  0.8543
 7982SOL    HW235580   3.315   2.271   8.507 -1.7547  0.1011 -1.4226
 7983SOL     OW35581   1.780   0.602   4.737  0.6931 -0.3221 -0.5741
 7983SOL    HW135582   1.804   0.620   4.828 -3.3926  3.8225 -0.2963
 7983SOL    HW235583   1.708   0.664   4.735  0.1206 -0.9294  1.4977
 7984SOL     OW35584   1.805   1.923   6.476 -0.2377  0.1812 -0.5075
 7984SOL    HW135585   1.762   2.003   6.445  3.0840  2.1193 -0.0697
 7984SOL    HW235586   1.769   1.921   6.565  1.1671 -0.9230  0.0379
 7985SOL     OW35587   2.265   3.228   9.206  0.2426 -0.1583  0.5038
 7985SOL    HW135588   2.268   3.309   9.155  0.1703  1.5009  3.1478
 7985SOL    HW235589   2.217   3.260   9.283  0.4800  1.0281  0.1683
 7986SOL     OW35590   2.214   2.726   0.960 -0.1114 -0.4356 -0.2041
 7986SOL    HW135591   2.244   2.815   0.944 -2.3132  0.4481  0.5492
 7986SOL    HW235592   2.261   2.705   1.041 -1.3945  1.1908  0.9564
 7987SOL     OW35593   4.037   0.560   6.976 -0.1254 -0.1027 -0.0338
 7987SOL    HW135594   3.971   0.551   7.044  0.6478 -1.3217  0.5502
 7987SOL    HW235595   4.088   0.481   6.992  1.6535  0.7215 -1.6791
 7988SOL     OW35596   0.959   0.893   3.801 -0.2293  0.9029  0.4602
 7988SOL    HW135597   0.866   0.916   3.804 -0.7451 -0.9996 -0.7671
 7988SOL    HW235598   0.973   0.856   3.714  0.4774  0.4537  0.7640
 7989SOL     OW35599   0.583   2.192   7.738  0.2759  0.3738  0.1092
 7989SOL    HW135600   0.666   2.230   7.709  1.1362 -2.5104 -1.2480
 7989SOL    HW235601   0.618   2.120   7.790  0.0602 -2.0828 -3.1053
 7990SOL     OW35602   2.359   2.743   9.219  0.7090 -0.3896  0.2605
 7990SOL    HW135603   2.328   2.698   9.141  0.9868  0.9749 -0.6269
 7990SOL    HW235604   2.316   2.825   9.199 -2.7590 -2.8598 -2.3870
 7991SOL     OW35605   0.560   2.458   7.109  0.0364 -0.5557  0.6265
 7991SOL    HW135606   0.637   2.428   7.156  2.1938  2.3125 -1.0540
 7991SOL    HW235607   0.516   2.374   7.098  0.2734 -0.6958  0.7427
 7992SOL     OW35608   4.427   4.457   5.758 -0.7558 -0.3687 -0.2534
 7992SOL    HW135609   4.369   4.516   5.710 -0.3730 -0.8143 -1.2609
 7992SOL    HW235610   4.504   4.498   5.719  0.0229 -0.9368  0.6861
 7993SOL     OW35611   2.293   0.395   6.000 -0.0984  0.1432 -0.4860
 7993SOL    HW135612   2.244   0.338   5.942  2.4412 -0.6624 -1.8450
 7993SOL    HW235613   2.285   0.351   6.085 -1.1833 -0.5949 -0.9765
 7994SOL     OW35614   3.978   2.158  15.567  0.0675  0.2482  0.0222
 7994SOL    HW135615   4.072   2.170  15.557 -0.3619  2.3495 -1.5227
 7994SOL    HW235616   3.962   2.198  15.653 -0.3680 -2.5393  1.2343
 7995SOL     OW35617   3.910   2.253  15.304 -0.0420  0.2314 -0.6413
 7995SOL    HW135618   3.871   2.166  15.311  0.4738  0.0954  0.5715
 7995SOL    HW235619   3.921   2.267  15.398  0.0723 -0.7702 -0.5138
 7996SOL     OW35620   2.834   2.594   9.398  0.1053  0.1744 -0.4451
 7996SOL    HW135621   2.845   2.503   9.425  0.7471 -0.3680 -2.5068
 7996SOL    HW235622   2.776   2.625   9.467  0.4850 -0.2579  0.0592
 7997SOL     OW35623   3.568   2.578   8.169  0.2041  0.3515 -0.6238
 7997SOL    HW135624   3.550   2.511   8.103  2.4644 -1.1079  0.2490
 7997SOL    HW235625   3.662   2.580   8.183  0.1493 -1.6893 -0.0414
 7998SOL     OW35626   0.230   3.336   5.567 -0.5401  0.4819 -0.1057
 7998SOL    HW135627   0.290   3.404   5.535 -0.5814  1.5637  2.0312
 7998SOL    HW235628   0.164   3.375   5.625 -0.9130  0.3016 -0.4212
 7999SOL     OW35629   2.687   1.927   7.469 -0.1587  0.1200 -0.4828
 7999SOL    HW135630   2.640   1.893   7.545  1.7706 -2.7127 -0.5485
 7999SOL    HW235631   2.774   1.916   7.506 -1.2629 -1.3015  1.7181
 8000SOL     OW35632   4.432   4.113   8.162  0.3122  0.4316  0.0497
 8000SOL    HW135633   4.527   4.116   8.170 -0.1035  1.2566  4.6162
 8000SOL    HW235634   4.420   4.023   8.193 -0.0415  0.3356 -0.3634
 8001SOL     OW35635   0.758   0.171   6.649  0.1603 -0.0211  0.1364
 8001SOL    HW135636   0.826   0.148   6.587  0.1872 -2.8550  1.2366
 8001SOL    HW235637   0.689   0.106   6.632  1.6257 -1.4368 -0.3849
 8002SOL     OW35638   2.288   1.583  14.983  0.6992 -0.0556 -0.1995
 8002SOL    HW135639   2.349   1.586  14.909  0.3431 -0.1070 -0.4920
 8002SOL    HW235640   2.335   1.612  15.061 -2.2855  1.2895  1.0892
 8003SOL     OW35641   4.735   1.646   3.964 -0.1917  0.1484  0.1130
 8003SOL    HW135642   4.723   1.737   3.938 -1.6586 -0.5216 -1.5884
 8003SOL    HW235643   4.727   1.595   3.883  0.5567 -1.7366  1.2226
 8004SOL     OW35644   1.367   2.215   0.866 -0.7017 -0.0477  0.3212
 8004SOL    HW135645   1.328   2.135   0.830 -1.8452  0.0081  1.4564
 8004SOL    HW235646   1.310   2.263   0.806  2.6024  1.7102 -1.4084
 8005SOL     OW35647   4.418   4.008   3.054  0.2254 -0.3828 -0.0639
 8005SOL    HW135648   4.365   4.020   3.132  1.3758 -1.6141  0.9164
 8005SOL    HW235649   4.361   4.035   2.982  1.0253  3.9273  0.9137
 8006SOL     OW35650   4.370   3.163   3.863  0.5752  0.2287 -0.1526
 8006SOL    HW135651   4.420   3.161   3.945  0.3422 -2.3950 -0.0750
 8006SOL    HW235652   4.384   3.076   3.827  0.0442  0.4320 -0.8393
 8007SOL     OW35653   1.615   0.230   4.128  0.2735 -0.2174  0.1546
 8007SOL    HW135654   1.645   0.243   4.218  2.4989  0.3047 -0.6938
 8007SOL    HW235655   1.525   0.197   4.125  0.2584 -0.2051  0.4507
 8008SOL     OW35656   0.340   3.096   3.804  0.5785 -0.4589 -0.4244
 8008SOL    HW135657   0.313   3.118   3.715  1.3210  2.7876  0.1622
 8008SOL    HW235658   0.267   3.131   3.854  2.2383  1.5172  0.5861
 8009SOL     OW35659   4.427   1.037   4.575  0.3509  0.7529  0.1067
 8009SOL    HW135660   4.332   1.042   4.585  0.2305 -1.7458  0.2576
 8009SOL    HW235661   4.455   1.126   4.551  0.4326 -0.6056 -4.8981
 8010SOL     OW35662   3.560   3.596  10.476  0.4447  0.8506 -0.3010
 8010SOL    HW135663   3.503   3.572  10.403 -1.1427  0.5705  1.0368
 8010SOL    HW235664   3.604   3.512  10.491  1.7938  1.5029 -0.5592
 8011SOL     OW35665   3.827   3.223  16.750 -0.4256  0.1181 -0.5781
 8011SOL    HW135666   3.759   3.288  16.732  0.4268  1.0962 -0.2454
 8011SOL    HW235667   3.778   3.162  16.805 -0.6402  0.0817 -0.8100
 8012SOL     OW35668   3.489   1.446   5.280  0.8229  0.0331  0.2698
 8012SOL    HW135669   3.514   1.387   5.209 -0.4394 -0.4346  0.2138
 8012SOL    HW235670   3.516   1.526   5.234 -0.1687 -0.6031 -1.4130
 8013SOL     OW35671   0.190   1.858   5.479  0.3266  0.3552  0.0466
 8013SOL    HW135672   0.237   1.941   5.485 -0.4650  0.6044  2.8204
 8013SOL    HW235673   0.107   1.896   5.451  1.1647  0.3266 -2.4083
 8014SOL     OW35674   0.449   0.840   2.694  0.1913  0.1132 -0.1802
 8014SOL    HW135675   0.506   0.765   2.711 -3.2857 -2.4723  0.0975
 8014SOL    HW235676   0.495   0.903   2.750  0.5717  0.9964 -1.4997
 8015SOL     OW35677   4.150   3.139   2.727 -0.1791  0.0737  0.3753
 8015SOL    HW135678   4.085   3.200   2.691 -0.3990  0.2382  1.0379
 8015SOL    HW235679   4.120   3.052   2.702 -0.0161 -0.1786  1.0598
 8016SOL     OW35680   3.235   3.956   3.664 -0.5035 -0.4226 -0.2671
 8016SOL    HW135681   3.239   3.866   3.633 -2.1669 -0.4669 -0.3647
 8016SOL    HW235682   3.298   3.996   3.604  1.8667 -1.9351  1.2455
 8017SOL     OW35683   4.355   3.933  13.988  0.1598 -0.1254  0.3982
 8017SOL    HW135684   4.296   4.007  13.981  0.6350  0.2992  0.8739
 8017SOL    HW235685   4.379   3.920  13.897 -1.8719  0.0220 -0.1456
 8018SOL     OW35686   2.451   4.104   7.239  0.1476  0.3883 -0.0380
 8018SOL    HW135687   2.491   4.137   7.319 -0.8232  0.8873  0.2400
 8018SOL    HW235688   2.506   4.156   7.180  2.1614  0.5267  1.9666
 8019SOL     OW35689   0.180   1.313   3.896 -0.1037 -0.1718  0.6364
 8019SOL    HW135690   0.241   1.245   3.868  1.0915  0.5618  1.4065
 8019SOL    HW235691   0.178   1.298   3.990 -1.4067 -2.2917  0.2613
 8020SOL     OW35692   1.661   2.866   4.255 -0.1049  0.6920  0.2383
 8020SOL    HW135693   1.641   2.776   4.229  1.4398  0.5406 -0.4353
 8020SOL    HW235694   1.754   2.862   4.234  0.2849  0.8688  1.9209
 8021SOL     OW35695   2.194   4.625  11.653  0.2666 -0.3019  0.4314
 8021SOL    HW135696   2.289   4.613  11.658  0.5042  1.1165 -0.6249
 8021SOL    HW235697   2.163   4.535  11.660  0.0785 -0.2877 -0.2010
 8022SOL     OW35698   0.229   0.716  14.937 -1.3834 -0.4342  0.0113
 8022SOL    HW135699   0.181   0.650  14.888 -3.0574 -0.0207  1.0970
 8022SOL    HW235700   0.246   0.665  15.016 -0.1462  1.8404  1.2165
 8023SOL     OW35701   4.333   0.671   1.621 -0.0902  0.7425 -0.1778
 8023SOL    HW135702   4.274   0.683   1.546 -1.1340 -1.9024  0.2123
 8023SOL    HW235703   4.414   0.644   1.578 -1.0075 -1.3261 -0.6061
 8024SOL     OW35704   3.083   2.297   5.217  0.2127 -0.2784 -0.0161
 8024SOL    HW135705   3.075   2.372   5.276  1.4911 -1.9154  2.2560
 8024SOL    HW235706   3.141   2.239   5.266  0.8476 -0.0267 -0.4692
 8025SOL     OW35707   1.491   3.402   2.899  0.2887  0.2772 -0.6487
 8025SOL    HW135708   1.418   3.378   2.842  2.9018 -3.6793 -2.2582
 8025SOL    HW235709   1.472   3.354   2.980  0.1755  0.2150 -0.7129
 8026SOL     OW35710   4.498   1.140   8.997 -0.5262 -0.6889  0.2319
 8026SOL    HW135711   4.502   1.070   8.932 -4.1207  1.4951 -2.3415
 8026SOL    HW235712   4.461   1.211   8.944  2.1305 -0.2715 -1.0585
 8027SOL     OW35713   2.843   2.054   1.156  0.1542  0.0945 -0.4068
 8027SOL    HW135714   2.858   1.986   1.222  0.1307  0.4792 -0.0065
 8027SOL    HW235715   2.934   2.059   1.128  0.1830  0.0450 -0.3218
 8028SOL     OW35716   4.407   0.090  11.497 -0.2661  0.4793 -0.3896
 8028SOL    HW135717   4.449   0.017  11.453 -1.3176 -0.3184 -0.0672
 8028SOL    HW235718   4.398   0.060  11.587  2.6128  2.4980  0.5815
 8029SOL     OW35719   3.674   4.435   5.431  0.3602  0.1930  0.0823
 8029SOL    HW135720   3.667   4.351   5.385  2.4802 -0.5553  1.1049
 8029SOL    HW235721   3.761   4.453   5.395 -0.3881  2.0392 -0.8076
 8030SOL     OW35722   4.069   2.504  16.383  0.3909  0.5855 -0.5927
 8030SOL    HW135723   4.143   2.455  16.347 -0.2696 -0.6828 -0.2176
 8030SOL    HW235724   4.113   2.584  16.413  0.2976  0.0086  1.0673
 8031SOL     OW35725   3.111   2.180   4.877 -0.5852  0.0408 -0.0593
 8031SOL    HW135726   3.040   2.231   4.916 -0.6644 -0.8921  0.9953
 8031SOL    HW235727   3.170   2.248   4.844 -0.9864  0.9355  1.0823
 8032SOL     OW35728   1.858   2.996  15.940 -0.4415  0.2073  0.1378
 8032SOL    HW135729   1.930   2.955  15.893 -0.2259  0.8775 -0.1196
 8032SOL    HW235730   1.782   2.954  15.899 -0.9202  1.0286  0.1769
 8033SOL     OW35731   3.624   1.528   8.245  0.0944 -0.2133 -0.1689
 8033SOL    HW135732   3.700   1.471   8.260 -0.0312 -0.0739  0.9735
 8033SOL    HW235733   3.572   1.456   8.210  0.9120 -0.5651 -0.6553
 8034SOL     OW35734   3.775   3.164   1.728 -0.1625 -0.1070  0.7136
 8034SOL    HW135735   3.834   3.139   1.658 -0.8244  0.9775 -0.2204
 8034SOL    HW235736   3.786   3.259   1.730 -3.4091  0.2998  0.7089
 8035SOL     OW35737   1.764   4.380   0.776  0.2724 -0.0502  0.2649
 8035SOL    HW135738   1.828   4.439   0.734 -0.4547 -0.0556 -0.8540
 8035SOL    HW235739   1.717   4.358   0.696 -0.3359 -0.4054  0.7188
 8036SOL     OW35740   0.851   2.685   0.237 -0.1981 -0.1738  0.3153
 8036SOL    HW135741   0.829   2.778   0.227  0.3515  0.2205  2.7412
 8036SOL    HW235742   0.887   2.686   0.326 -2.7100 -0.2837  1.3348
 8037SOL     OW35743   4.469   1.305   5.822 -0.2382 -0.1469 -0.3432
 8037SOL    HW135744   4.494   1.320   5.913  0.4230 -1.7333 -0.2798
 8037SOL    HW235745   4.537   1.244   5.795 -0.5353 -0.7644  0.3078
 8038SOL     OW35746   4.077   2.246  15.894  0.4239  0.2997 -0.1667
 8038SOL    HW135747   4.121   2.213  15.816 -0.2109 -1.6704  0.2930
 8038SOL    HW235748   4.109   2.183  15.959  0.2204 -0.5599 -0.8991
 8039SOL     OW35749   4.517   2.318   2.110 -0.4805  0.1859  0.9711
 8039SOL    HW135750   4.511   2.299   2.017 -0.2692  1.1424  0.7624
 8039SOL    HW235751   4.569   2.399   2.107 -2.1493  1.1887 -0.5641
 8040SOL     OW35752   1.070   4.409  16.218  0.2153 -0.3719  0.9115
 8040SOL    HW135753   1.149   4.366  16.251  2.4355  2.9364 -0.1019
 8040SOL    HW235754   1.056   4.475  16.286 -1.2316  1.0557 -0.7617
 8041SOL     OW35755   2.312   0.266   3.907 -0.1486 -0.2811  0.1678
 8041SOL    HW135756   2.325   0.179   3.870 -2.4526 -0.6096  0.1926
 8041SOL    HW235757   2.247   0.250   3.975 -0.4335  0.5359  0.0883
 8042SOL     OW35758   2.908   0.128  16.309 -0.6478 -0.3802  0.3327
 8042SOL    HW135759   2.876   0.172  16.230  3.1214  0.2748 -0.8633
 8042SOL    HW235760   2.889   0.193  16.377 -0.1141 -0.1706  0.2827
 8043SOL     OW35761   3.481   3.237   4.558  0.4019 -0.5671  0.1960
 8043SOL    HW135762   3.414   3.298   4.588  0.2852 -0.4049 -0.3997
 8043SOL    HW235763   3.460   3.162   4.614  0.1324  0.2713  1.2028
 8044SOL     OW35764   1.681   2.568   1.065 -0.6729 -0.4078 -0.3874
 8044SOL    HW135765   1.632   2.542   1.143 -2.9601 -1.5948 -2.2084
 8044SOL    HW235766   1.645   2.511   0.997  1.0924 -3.4695  1.2493
 8045SOL     OW35767   1.693   2.945   0.133  0.0473  0.4685 -0.3166
 8045SOL    HW135768   1.745   2.990   0.199  1.0867  0.5099 -1.1593
 8045SOL    HW235769   1.627   3.010   0.108 -1.1468 -0.2998  0.8142
 8046SOL     OW35770   1.194   1.295   5.122 -0.2396 -0.2617 -0.0374
 8046SOL    HW135771   1.238   1.307   5.206  1.3717  1.6216 -1.1675
 8046SOL    HW235772   1.121   1.355   5.141  0.5600  0.7293 -0.1188
 8047SOL     OW35773   2.542   2.277   2.079 -0.0473 -0.5565 -0.0645
 8047SOL    HW135774   2.471   2.253   2.021  0.4501  0.6973 -1.1910
 8047SOL    HW235775   2.598   2.199   2.082 -1.9890 -1.9791 -1.5428
 8048SOL     OW35776   3.251   3.481   1.329  0.0789 -0.2279  0.3499
 8048SOL    HW135777   3.318   3.426   1.370 -0.2283 -2.2570 -1.8468
 8048SOL    HW235778   3.181   3.415   1.324  1.0764 -1.3978  1.9502
 8049SOL     OW35779   3.897   1.943   2.454  0.0829  0.1246 -0.1358
 8049SOL    HW135780   3.822   1.993   2.484 -0.3009 -1.9748  2.4125
 8049SOL    HW235781   3.944   1.935   2.537 -1.0087 -1.2083  0.3459
 8050SOL     OW35782   4.233   1.064   8.631 -0.5638  0.1960 -0.3334
 8050SOL    HW135783   4.218   1.094   8.721  0.2116  0.8894 -0.4337
 8050SOL    HW235784   4.162   1.105   8.582 -1.5952 -0.5369  0.5532
 8051SOL     OW35785   3.401   3.521   9.335 -0.5858  0.1825 -0.7552
 8051SOL    HW135786   3.331   3.586   9.338  1.0813  1.9144  0.7709
 8051SOL    HW235787   3.456   3.551   9.262  1.3700 -0.4446  0.4585
 8052SOL     OW35788   0.260   3.898   0.525  0.0729  0.2575 -0.2579
 8052SOL    HW135789   0.174   3.859   0.540 -0.1989  0.2557 -1.8520
 8052SOL    HW235790   0.319   3.846   0.580  1.4996 -1.0007 -3.0131
 8053SOL     OW35791   2.383   0.444   7.835  0.2181  0.0247 -0.3992
 8053SOL    HW135792   2.408   0.531   7.867 -0.2458 -0.0278  0.0932
 8053SOL    HW235793   2.354   0.466   7.746 -0.8190  1.1995  0.2313
 8054SOL     OW35794   2.841   1.181   3.146 -0.9107 -0.0580  0.3023
 8054SOL    HW135795   2.892   1.253   3.183  2.5835 -1.0235 -2.7500
 8054SOL    HW235796   2.913   1.122   3.124  0.0793  1.3090 -0.0754
 8055SOL     OW35797   4.314   1.807   5.717  0.0678  0.1165 -0.3248
 8055SOL    HW135798   4.372   1.731   5.726  2.8454  2.4819  2.1299
 8055SOL    HW235799   4.319   1.846   5.805 -2.3202 -1.0706  0.3038
 8056SOL     OW35800   1.672   3.789   4.257 -0.0382  0.1147  0.3305
 8056SOL    HW135801   1.667   3.828   4.344  0.7454 -0.0523  0.4522
 8056SOL    HW235802   1.686   3.873   4.214 -0.6309  0.4200  0.7295
 8057SOL     OW35803   1.923   4.495   3.068  0.1722  0.3080  0.2085
 8057SOL    HW135804   1.959   4.583   3.083 -1.1100  0.5428  1.9149
 8057SOL    HW235805   1.965   4.476   2.985 -1.7844  0.8072 -0.8779
 8058SOL     OW35806   0.402   1.249   5.943 -0.3202  0.4644  0.6626
 8058SOL    HW135807   0.333   1.232   5.880  0.2328  0.9131 -0.0696
 8058SOL    HW235808   0.363   1.324   5.988  0.2036  0.5652  0.9465
 8059SOL     OW35809   1.483   1.214   9.137  0.0298 -0.5086 -0.0790
 8059SOL    HW135810   1.462   1.126   9.105 -3.7737  0.0951  0.7642
 8059SOL    HW235811   1.572   1.194   9.164 -0.4264 -1.9608  0.3259
 8060SOL     OW35812   3.350   1.895   5.864  0.5423  0.6283  0.4463
 8060SOL    HW135813   3.330   1.964   5.928 -0.0508  0.3810  0.5317
 8060SOL    HW235814   3.432   1.925   5.826  0.6696 -0.8835 -0.4586
 8061SOL     OW35815   3.071   1.576   6.435  0.4427 -0.0028 -0.5340
 8061SOL    HW135816   2.976   1.572   6.444  0.4813  1.2080  0.4095
 8061SOL    HW235817   3.072   1.662   6.393  0.0666  0.3296  0.1438
 8062SOL     OW35818   0.416   2.151  17.630 -0.0270  0.7408 -0.2358
 8062SOL    HW135819   0.472   2.095  17.684 -0.3213  0.1683 -0.5305
 8062SOL    HW235820   0.375   2.213  17.691  1.0870  0.8997  0.3523
 8063SOL     OW35821   0.594   1.456   2.604  0.3829 -0.4817 -0.3408
 8063SOL    HW135822   0.664   1.517   2.581 -0.8910  1.4304  0.7922
 8063SOL    HW235823   0.638   1.395   2.662  0.6865 -0.3939 -0.4755
 8064SOL     OW35824   0.893   2.027  12.818  0.1084 -0.3964  0.4452
 8064SOL    HW135825   0.798   2.022  12.826  0.0234  1.0359  0.4286
 8064SOL    HW235826   0.921   1.938  12.836  1.9062 -0.0547 -0.6460
 8065SOL     OW35827   2.451   3.028   6.891  0.1310 -0.0040  0.0229
 8065SOL    HW135828   2.470   2.959   6.955  0.2076 -1.2700 -1.3733
 8065SOL    HW235829   2.456   2.978   6.810  0.7310  0.3318 -0.1505
 8066SOL     OW35830   3.247   3.195   1.815 -0.4677  0.6789  0.1354
 8066SOL    HW135831   3.191   3.270   1.836  0.0831  0.8101  1.1409
 8066SOL    HW235832   3.186   3.122   1.808  0.0294  0.1478  1.3665
 8067SOL     OW35833   1.266   3.939   5.399  0.0758 -0.1517 -0.6826
 8067SOL    HW135834   1.180   3.968   5.370  0.8077  0.0501 -2.7160
 8067SOL    HW235835   1.244   3.932   5.491  0.4405 -0.4558 -0.6156
 8068SOL     OW35836   2.088   3.342   5.132 -0.1735  0.2293  0.2925
 8068SOL    HW135837   2.033   3.290   5.190 -1.8399  2.2043  0.4531
 8068SOL    HW235838   2.030   3.417   5.123  1.0671  1.1284 -0.2634
 8069SOL     OW35839   1.938   2.590  16.405  0.2898  0.3214  0.1392
 8069SOL    HW135840   1.863   2.555  16.357 -0.0202  0.2663  0.6590
 8069SOL    HW235841   1.900   2.675  16.425  0.5359  0.3386  0.5328
 8070SOL     OW35842   3.225   4.290   4.398 -0.3699  0.0715  0.6799
 8070SOL    HW135843   3.201   4.233   4.325  0.4248 -2.0959  2.1123
 8070SOL    HW235844   3.174   4.368   4.377 -3.0438 -1.0465  3.0963
 8071SOL     OW35845   1.308   3.662   3.820 -0.2269  0.0176  0.4977
 8071SOL    HW135846   1.366   3.664   3.896 -0.6450 -0.5272  0.8345
 8071SOL    HW235847   1.233   3.639   3.875 -0.3988 -2.8853 -0.9459
 8072SOL     OW35848   2.232   1.454  15.565  0.2442 -0.0944 -0.6393
 8072SOL    HW135849   2.212   1.520  15.499 -1.4655 -0.4709 -0.5028
 8072SOL    HW235850   2.161   1.391  15.555  0.0090  0.4167 -2.0937
 8073SOL     OW35851   3.210   1.419   2.514  0.1979  0.4649 -0.4515
 8073SOL    HW135852   3.127   1.450   2.549  0.9185  0.5185  1.2174
 8073SOL    HW235853   3.189   1.407   2.421 -0.6050 -1.4167 -0.0214
 8074SOL     OW35854   2.766   4.139  10.936  0.2966 -0.2172  0.0603
 8074SOL    HW135855   2.685   4.152  10.985  1.5582  2.6425  1.3789
 8074SOL    HW235856   2.754   4.049  10.906 -0.9981  0.0979 -0.3268
 8075SOL     OW35857   3.805   4.681   6.375 -0.2443 -0.4456 -0.2650
 8075SOL    HW135858   3.777   0.012   6.436 -1.2935 -1.9018  0.8741
 8075SOL    HW235859   3.753   4.695   6.297  0.4599  0.8332 -0.5021
 8076SOL     OW35860   0.862   3.373   4.705  0.0796  0.0607  0.1320
 8076SOL    HW135861   0.781   3.417   4.678 -0.9212 -2.9412 -1.8219
 8076SOL    HW235862   0.834   3.282   4.691  2.0102 -0.4234 -0.5589
 8077SOL     OW35863   3.218   2.899   3.693  0.2022 -0.2408  0.5238
 8077SOL    HW135864   3.140   2.863   3.735 -0.4965  0.7243  0.0561
 8077SOL    HW235865   3.248   2.968   3.753  0.8409 -0.0801  0.0217
 8078SOL     OW35866   0.540   0.655   2.318 -0.1568  0.6564 -0.4428
 8078SOL    HW135867   0.605   0.659   2.248 -0.8002  0.3260 -1.0651
 8078SOL    HW235868   0.557   0.564   2.341  1.4519  0.8228 -0.9942
 8079SOL     OW35869   3.977   3.454   2.583 -0.0738 -0.0859  0.2013
 8079SOL    HW135870   3.993   3.483   2.672  0.1490 -0.2728  0.2228
 8079SOL    HW235871   4.047   3.502   2.538  0.0714 -1.1315 -0.6908
 8080SOL     OW35872   2.193   0.001   4.796 -0.4315 -0.0532  0.2156
 8080SOL    HW135873   2.213   4.718   4.887 -0.2481 -0.9390 -0.0237
 8080SOL    HW235874   2.276   0.022   4.753  0.6282 -2.0746  1.2970
 8081SOL     OW35875   0.210   2.313  16.674  0.1902 -0.0511  0.4003
 8081SOL    HW135876   0.156   2.285  16.600 -0.1569  0.4858  0.4506
 8081SOL    HW235877   0.295   2.290  16.636 -0.3740 -0.0506 -0.8533
 8082SOL     OW35878   1.008   2.044  17.211 -0.2526  0.0948 -0.0646
 8082SOL    HW135879   1.055   2.068  17.291  0.2364  1.1875 -0.6701
 8082SOL    HW235880   0.925   2.038  17.258 -0.8030  0.5060 -0.9956
 8083SOL     OW35881   2.586   4.695   4.783  0.3534  0.0293  0.2821
 8083SOL    HW135882   2.655   4.735   4.730 -0.6081  0.1040 -0.9202
 8083SOL    HW235883   2.623   4.607   4.780 -0.9691 -0.5479  1.4264
 8084SOL     OW35884   2.758   3.653   4.700 -0.4524 -0.0311 -0.1331
 8084SOL    HW135885   2.826   3.632   4.764 -0.7994  0.7258  0.4812
 8084SOL    HW235886   2.679   3.613   4.737  0.4496 -1.1761  0.5645
 8085SOL     OW35887   2.797   4.526   7.566 -0.0158 -0.7483  0.2890
 8085SOL    HW135888   2.867   4.469   7.534  0.2451  0.0419 -0.5405
 8085SOL    HW235889   2.731   4.501   7.501  0.3892 -2.0779  0.3879
 8086SOL     OW35890   0.702   2.928  13.001  0.1554  0.1499 -0.0656
 8086SOL    HW135891   0.612   2.935  13.034 -0.7278  1.5180 -2.6831
 8086SOL    HW235892   0.691   2.878  12.920  0.1836 -0.3018  0.2093
 8087SOL     OW35893   4.332   0.513   4.437  0.5009 -0.1652 -0.4053
 8087SOL    HW135894   4.241   0.530   4.461  0.3885 -0.9624 -0.2685
 8087SOL    HW235895   4.366   0.477   4.519  3.4497  0.5470 -1.3307
 8088SOL     OW35896   0.498   0.768   3.281 -0.1922 -0.3901  0.1479
 8088SOL    HW135897   0.512   0.673   3.270 -1.6897 -0.3728 -1.8352
 8088SOL    HW235898   0.538   0.772   3.368 -0.5466 -1.2573  0.3571
 8089SOL     OW35899   2.123   2.730  14.586  0.4388 -0.1343  0.4319
 8089SOL    HW135900   2.062   2.689  14.647  0.2051  2.1839  1.7470
 8089SOL    HW235901   2.079   2.815  14.590 -0.6189 -0.6645  0.3170
 8090SOL     OW35902   3.985   1.058   9.136  0.3618  0.1282 -0.5892
 8090SOL    HW135903   4.010   0.978   9.090  1.7633 -2.0247  3.8255
 8090SOL    HW235904   4.005   1.033   9.227  2.3093  0.8899 -0.8125
 8091SOL     OW35905   2.692   1.515   8.659  0.5710  0.4994 -0.6551
 8091SOL    HW135906   2.613   1.520   8.712  0.9021  1.3156 -0.2415
 8091SOL    HW235907   2.750   1.451   8.701 -0.9366 -1.1866 -1.1451
 8092SOL     OW35908   4.585   4.077   9.745  0.0330 -0.0535 -0.5751
 8092SOL    HW135909   4.621   4.097   9.659 -1.5993 -3.8169 -2.1091
 8092SOL    HW235910   4.664   4.087   9.798 -2.1456 -1.3092  2.9401
 8093SOL     OW35911   3.963   0.772   3.907 -0.3003  0.2190  0.0431
 8093SOL    HW135912   3.898   0.715   3.865  0.1783  0.8381 -1.5289
 8093SOL    HW235913   3.938   0.755   3.998 -0.7454  0.2732 -0.0716
 8094SOL     OW35914   3.737   2.999   8.815  0.2219  0.3907  0.0261
 8094SOL    HW135915   3.784   2.975   8.735  0.8054 -0.4957  0.6338
 8094SOL    HW235916   3.784   3.080   8.837  2.2692 -0.4639 -1.1309
 8095SOL     OW35917   0.323   3.407   3.557  0.0381  0.3101  0.5811
 8095SOL    HW135918   0.296   3.447   3.640 -3.3960 -4.2608  1.6647
 8095SOL    HW235919   0.237   3.367   3.547 -0.2757  1.8248 -2.7898
 8096SOL     OW35920   0.406   2.385   7.710  0.2628 -0.3579 -0.7087
 8096SOL    HW135921   0.443   2.455   7.764 -2.5384  1.0326 -0.6034
 8096SOL    HW235922   0.477   2.322   7.723  0.7628  0.8477  2.2940
 8097SOL     OW35923   4.643   2.746  11.042 -0.4834 -0.4425 -1.1490
 8097SOL    HW135924   4.609   2.835  11.037 -0.0713 -0.0887  2.4007
 8097SOL    HW235925   4.726   2.763  11.086 -2.1158  0.6670  1.4738
 8098SOL     OW35926   0.634   4.065   4.799  0.2787 -0.3083 -0.1864
 8098SOL    HW135927   0.661   4.157   4.806  1.4057 -0.7630  1.2224
 8098SOL    HW235928   0.707   4.025   4.752  0.2792 -0.2299 -0.2528
 8099SOL     OW35929   2.175   3.588  10.209 -0.5999 -1.3023  0.5787
 8099SOL    HW135930   2.186   3.498  10.239 -1.8160 -1.6284  0.0498
 8099SOL    HW235931   2.081   3.601  10.197 -0.2362  0.3462 -0.4730
 8100SOL     OW35932   1.258   1.335   3.602  0.0377  0.4492 -0.0815
 8100SOL    HW135933   1.342   1.373   3.631  1.4464 -1.4575 -1.7042
 8100SOL    HW235934   1.198   1.396   3.645  0.9593  0.0289  1.8568
 8101SOL     OW35935   4.557   3.471   4.294 -0.0933  0.2327 -0.6595
 8101SOL    HW135936   4.552   3.550   4.348 -0.4884  0.0770 -0.4755
 8101SOL    HW235937   4.485   3.496   4.235  0.8167 -0.6927 -2.1774
 8102SOL     OW35938   2.985   2.242   1.457  0.0238 -0.5277  0.9846
 8102SOL    HW135939   3.059   2.232   1.398  0.6761  3.1557  1.1746
 8102SOL    HW235940   3.032   2.268   1.537  1.3568  2.2530 -0.7064
 8103SOL     OW35941   2.184   3.667   3.942  1.1247  0.5467 -0.4341
 8103SOL    HW135942   2.195   3.713   4.026  0.2711  0.9521 -0.5467
 8103SOL    HW235943   2.239   3.721   3.885 -1.1190  1.6873 -1.5166
 8104SOL     OW35944   2.324   1.087  12.050  0.3809  0.1204 -0.1533
 8104SOL    HW135945   2.331   1.170  12.004  0.0197 -0.0660 -0.5459
 8104SOL    HW235946   2.239   1.097  12.093  0.9180  2.2575  0.4203
 8105SOL     OW35947   4.365   1.511   8.032  0.2359  0.2356 -0.1583
 8105SOL    HW135948   4.339   1.449   8.100  0.9435  0.9636  0.7716
 8105SOL    HW235949   4.426   1.566   8.080 -0.7681 -0.8180  2.3342
 8106SOL     OW35950   0.921   3.035   1.630  0.3170  0.4883 -0.9790
 8106SOL    HW135951   0.999   2.984   1.653 -0.6439  0.1986  1.6814
 8106SOL    HW235952   0.926   3.025   1.535  0.1018  0.3031 -0.9723
 8107SOL     OW35953   1.573   1.790   9.729  0.3599  0.9381 -0.1116
 8107SOL    HW135954   1.613   1.872   9.758  1.0567 -0.3051  2.4662
 8107SOL    HW235955   1.518   1.779   9.807  0.6824 -0.3010 -0.0609
 8108SOL     OW35956   1.841   2.560   6.934  0.2267 -0.5206 -0.6173
 8108SOL    HW135957   1.866   2.470   6.953 -1.6057 -1.2945 -1.8190
 8108SOL    HW235958   1.829   2.597   7.021 -0.6727  1.0316 -1.4011
 8109SOL     OW35959   1.059   3.421   7.149 -0.4801  0.6129  0.1902
 8109SOL    HW135960   1.128   3.486   7.149 -1.2994  1.4802 -0.6987
 8109SOL    HW235961   1.100   3.335   7.135  0.2053  1.1136 -0.8600
 8110SOL     OW35962   3.669   3.671  12.266  0.3633  0.3431 -0.2423
 8110SOL    HW135963   3.634   3.625  12.342  0.0374 -0.1615 -0.7014
 8110SOL    HW235964   3.758   3.689  12.297  0.6342 -2.7538  0.7674
 8111SOL     OW35965   1.362   1.824   7.484  0.7637  0.0766 -0.4756
 8111SOL    HW135966   1.418   1.898   7.510 -0.9512  0.9872  0.6341
 8111SOL    HW235967   1.312   1.817   7.565  0.2350 -0.0010 -0.8106
 8112SOL     OW35968   1.992   0.099   8.574 -0.1536  0.3379 -0.0813
 8112SOL    HW135969   2.073   0.071   8.531 -0.5216 -1.0783  0.1701
 8112SOL    HW235970   1.962   0.010   8.591  0.1114 -0.1446 -2.0989
 8113SOL     OW35971   2.274   3.183  17.625 -0.3662 -0.3317  0.2753
 8113SOL    HW135972   2.272   3.207  17.718  1.6718 -1.3104  0.5607
 8113SOL    HW235973   2.338   3.113  17.628  0.8172  0.8411  2.5670
 8114SOL     OW35974   2.816   0.952   5.498 -0.1827  0.2761 -0.2040
 8114SOL    HW135975   2.806   0.856   5.498  1.3808  0.0974 -2.2630
 8114SOL    HW235976   2.754   0.968   5.427 -0.1213 -4.1467 -1.2601
 8115SOL     OW35977   0.307   1.609   8.249 -0.5402 -0.2672 -0.2105
 8115SOL    HW135978   0.295   1.694   8.292 -3.1927 -0.6791 -0.1423
 8115SOL    HW235979   0.397   1.616   8.217 -0.2436  1.8303  1.0744
 8116SOL     OW35980   2.514   2.162  12.985 -0.1590  0.4771 -0.3306
 8116SOL    HW135981   2.538   2.071  13.005  0.9119  0.8752  0.2123
 8116SOL    HW235982   2.589   2.193  12.934 -1.1051  0.4569 -1.7421
 8117SOL     OW35983   4.295   3.427   7.875  0.2988  0.3158 -0.3019
 8117SOL    HW135984   4.374   3.404   7.925  0.9321  1.9299 -0.5483
 8117SOL    HW235985   4.273   3.341   7.839 -1.6357  0.8912 -0.4836
 8118SOL     OW35986   3.883   0.835  16.889  0.7586  0.6467  0.0228
 8118SOL    HW135987   3.901   0.915  16.939 -0.2743  0.0023  1.4233
 8118SOL    HW235988   3.803   0.803  16.930 -1.5128  3.3923 -2.3192
 8119SOL     OW35989   3.854   3.064   4.224 -0.2269 -0.1647 -0.2870
 8119SOL    HW135990   3.915   3.021   4.284  1.8013  1.8231 -0.9511
 8119SOL    HW235991   3.862   3.008   4.146 -2.3731 -0.5039 -0.2603
 8120SOL     OW35992   3.929   3.121   6.211  0.5753  0.6440  0.1456
 8120SOL    HW135993   3.912   3.036   6.172 -0.1855  1.1391 -0.6066
 8120SOL    HW235994   3.980   3.105   6.290 -0.7039 -0.5504  0.7297
 8121SOL     OW35995   1.827   1.960   1.432 -0.0011 -0.1247  0.1997
 8121SOL    HW135996   1.746   1.925   1.393 -0.7299 -0.5718  2.0896
 8121SOL    HW235997   1.828   2.039   1.378 -0.0418  0.5823  1.2317
 8122SOL     OW35998   1.852   0.819   9.539 -0.3298  0.0921 -0.1089
 8122SOL    HW135999   1.928   0.874   9.559  0.1955 -0.2564 -1.1461
 8122SOL    HW236000   1.879   0.815   9.447  2.1080 -2.5596  0.7189
 8123SOL     OW36001   2.231   2.826   4.288  0.0446 -0.8967  0.2151
 8123SOL    HW136002   2.297   2.894   4.303  0.7790 -1.6012  0.1638
 8123SOL    HW236003   2.157   2.881   4.311  0.8770  1.0826 -1.8833
 8124SOL     OW36004   1.961   4.041   3.949 -0.1715  0.2857 -0.4894
 8124SOL    HW136005   2.036   3.997   3.988  0.3855  0.2281 -1.6208
 8124SOL    HW236006   1.894   3.973   3.960 -0.4571  0.7457  0.5847
 8125SOL     OW36007   1.458   2.168   1.273  0.0995 -0.3693 -0.5023
 8125SOL    HW136008   1.452   2.263   1.263  0.6115 -0.4703 -1.8108
 8125SOL    HW236009   1.374   2.144   1.314  0.7987 -0.1626  1.0208
 8126SOL     OW36010   4.531   1.649   1.544  0.1914  0.2479 -0.6619
 8126SOL    HW136011   4.614   1.682   1.508 -0.5490  1.8889 -0.8579
 8126SOL    HW236012   4.477   1.727   1.530  0.9711  0.5160 -2.1868
 8127SOL     OW36013   1.182   3.553  11.813 -0.1825  0.7639 -0.2569
 8127SOL    HW136014   1.110   3.605  11.849 -0.7526  0.2463 -0.6448
 8127SOL    HW236015   1.242   3.552  11.888 -1.4763 -2.3307  0.7670
 8128SOL     OW36016   0.095   0.910   7.634 -0.1000  0.5117  0.0086
 8128SOL    HW136017   0.060   0.858   7.706 -0.2591  0.2333 -0.2711
 8128SOL    HW236018   0.054   0.858   7.566  2.0144 -2.0893  0.7367
 8129SOL     OW36019   0.802   2.249   1.932  0.2448 -0.1389  0.1474
 8129SOL    HW136020   0.758   2.176   1.888 -3.0710  1.4775  0.7711
 8129SOL    HW236021   0.756   2.324   1.893  0.8625  0.2514  0.1662
 8130SOL     OW36022   1.520   1.561  12.435 -0.0232 -0.3250  0.0901
 8130SOL    HW136023   1.554   1.587  12.348 -2.0592  0.0415 -0.5979
 8130SOL    HW236024   1.455   1.494  12.414  0.3007 -1.0682  1.5057
 8131SOL     OW36025   3.000   2.722   4.079 -0.7525  0.3396 -0.8082
 8131SOL    HW136026   3.084   2.694   4.115 -1.4559 -0.5891  0.1242
 8131SOL    HW236027   2.949   2.643   4.094 -0.3353  0.1326 -0.4974
 8132SOL     OW36028   4.366   1.872   8.693  0.1328  0.2932 -0.3955
 8132SOL    HW136029   4.334   1.823   8.617 -1.0829 -1.1737  1.0450
 8132SOL    HW236030   4.291   1.931   8.700  0.6863  0.9625 -0.0689
 8133SOL     OW36031   4.001   1.639  15.962  0.8122  0.2905  0.4548
 8133SOL    HW136032   4.004   1.555  16.007 -0.5259  0.4676  0.8696
 8133SOL    HW236033   4.095   1.656  15.968  0.7332  1.4624 -1.5625
 8134SOL     OW36034   0.664   1.369   5.537 -0.3549  0.3293  0.1724
 8134SOL    HW136035   0.706   1.454   5.551  1.4417 -0.3359 -1.1951
 8134SOL    HW236036   0.738   1.318   5.503 -0.5979 -0.0636  0.2435
 8135SOL     OW36037   0.240   3.238   6.439  0.1807  0.0665  0.2238
 8135SOL    HW136038   0.169   3.293   6.471 -2.0086 -2.9296  0.5772
 8135SOL    HW236039   0.186   3.160   6.429 -0.2057  0.2902  0.5668
 8136SOL     OW36040   2.302   0.192   1.749 -0.2098  0.7049 -0.0458
 8136SOL    HW136041   2.327   0.276   1.790 -0.7663  1.4142 -1.1689
 8136SOL    HW236042   2.252   0.231   1.678 -0.0607  1.2799  0.1604
 8137SOL     OW36043   2.619   3.039  12.029  0.1768 -0.2497  0.2592
 8137SOL    HW136044   2.602   3.127  11.993 -1.7853 -0.1282  1.4835
 8137SOL    HW236045   2.595   3.057  12.120  1.5273 -1.2190  0.7926
 8138SOL     OW36046   2.841   0.592   9.127  0.8479 -0.1361  0.0975
 8138SOL    HW136047   2.898   0.566   9.054  0.0923  0.4737 -0.7126
 8138SOL    HW236048   2.848   0.520   9.190  0.1216 -0.3916 -0.1107
 8139SOL     OW36049   2.278   2.568   3.270  0.3930 -0.3187 -0.3116
 8139SOL    HW136050   2.263   2.474   3.278 -1.9207  0.1641  1.0877
 8139SOL    HW236051   2.201   2.604   3.226 -1.0234 -2.1891  0.6183
 8140SOL     OW36052   0.772   1.796   1.325 -0.2584 -0.0305 -0.6204
 8140SOL    HW136053   0.782   1.723   1.387  0.8281  0.7403  0.0942
 8140SOL    HW236054   0.842   1.775   1.263 -0.1790 -1.1647 -0.1450
 8141SOL     OW36055   3.561   0.416  17.287  0.5143 -0.1074  0.2415
 8141SOL    HW136056   3.535   0.381  17.372  2.9868 -1.4286  0.4435
 8141SOL    HW236057   3.598   0.336  17.249 -1.6111 -1.6991  1.5761
 8142SOL     OW36058   3.968   2.906   5.759 -0.1492 -0.5092 -0.0570
 8142SOL    HW136059   3.948   2.862   5.842 -2.1771  0.7760  0.1203
 8142SOL    HW236060   3.965   3.000   5.779 -0.3214 -0.1050 -2.0409
 8143SOL     OW36061   2.541   0.726  15.639 -0.0734 -0.1441  0.0621
 8143SOL    HW136062   2.448   0.720  15.660  0.0351  0.6922  0.7810
 8143SOL    HW236063   2.564   0.637  15.613 -0.8863  0.0559 -1.3159
 8144SOL     OW36064   3.405   0.664   6.979 -0.3768 -0.4298 -0.1242
 8144SOL    HW136065   3.426   0.611   7.055 -0.1634 -0.1133  0.0423
 8144SOL    HW236066   3.351   0.734   7.016  1.9383  0.1208  2.2439
 8145SOL     OW36067   2.771   1.020   2.673 -0.0828 -0.4672  0.3782
 8145SOL    HW136068   2.864   1.040   2.668 -0.1967 -0.4238 -1.4679
 8145SOL    HW236069   2.743   1.087   2.736 -1.2629 -0.0807 -0.5530
 8146SOL     OW36070   3.433   0.264   4.870 -0.2198  0.1789  0.0554
 8146SOL    HW136071   3.455   0.300   4.956 -0.0990  1.0231 -0.3261
 8146SOL    HW236072   3.417   0.336   4.809  0.0198 -0.3836 -0.6595
 8147SOL     OW36073   0.726   2.044   6.535  0.2436 -0.2287  0.0297
 8147SOL    HW136074   0.811   2.000   6.538  0.5791  0.3796 -0.4349
 8147SOL    HW236075   0.735   2.082   6.448 -0.5324 -0.3932 -0.1261
 8148SOL     OW36076   3.454   3.950  10.858  0.1088 -0.1168  0.1394
 8148SOL    HW136077   3.456   3.869  10.807 -0.5260 -0.6288  0.9210
 8148SOL    HW236078   3.360   3.958  10.875 -0.1133 -1.1305 -0.5691
 8149SOL     OW36079   0.199   0.059  15.521  0.1755  0.3502 -0.2368
 8149SOL    HW136080   0.156   0.102  15.595 -0.3955 -1.1809  0.3083
 8149SOL    HW236081   0.286   0.059  15.560  0.4605 -1.0684 -0.8866
 8150SOL     OW36082   2.381   4.347  11.646 -0.0945  0.2166  0.0978
 8150SOL    HW136083   2.319   4.274  11.649  0.9995 -0.6934  0.6110
 8150SOL    HW236084   2.379   4.364  11.552 -0.1141 -1.1807 -0.1535
 8151SOL     OW36085   3.257   4.621   4.265  0.0741 -0.2622  0.4895
 8151SOL    HW136086   3.241   4.702   4.216  0.1307 -0.1325  0.6892
 8151SOL    HW236087   3.334   4.574   4.234 -0.2422 -0.9124  0.7018
 8152SOL     OW36088   3.547   2.516   6.369  0.2784  0.4407  0.8990
 8152SOL    HW136089   3.537   2.573   6.445 -0.0686  1.5201  0.0348
 8152SOL    HW236090   3.614   2.452   6.396 -1.4385 -1.5338  0.5362
 8153SOL     OW36091   1.132   4.095   4.099 -0.0473 -0.1817 -0.2127
 8153SOL    HW136092   1.057   4.044   4.130 -0.7118  2.0061  1.7267
 8153SOL    HW236093   1.174   4.046   4.028 -1.4534 -3.4210  1.2052
 8154SOL     OW36094   0.768   0.815   6.596  0.1330 -0.2326 -0.2536
 8154SOL    HW136095   0.832   0.871   6.641 -0.2334  0.0092 -0.0369
 8154SOL    HW236096   0.741   0.881   6.532 -2.2108 -2.0619 -1.1394
 8155SOL     OW36097   4.360   2.257   6.830  0.0781 -0.1165 -0.3921
 8155SOL    HW136098   4.417   2.303   6.769  0.0235  0.4467 -0.0123
 8155SOL    HW236099   4.376   2.284   6.920 -0.5433 -0.9203 -0.0354
 8156SOL     OW36100   4.691   1.987   5.233 -0.2275  0.3611  0.2472
 8156SOL    HW136101   4.727   2.001   5.146 -2.0116  1.6454 -0.2785
 8156SOL    HW236102   4.700   1.891   5.234 -2.8716  0.1102 -0.0993
 8157SOL     OW36103   3.000   2.680   5.174  0.0123  0.5577 -0.2993
 8157SOL    HW136104   2.954   2.644   5.099 -1.0715 -0.3805  0.8234
 8157SOL    HW236105   2.924   2.693   5.232 -0.9319 -1.1425 -1.1610
 8158SOL     OW36106   1.102   0.217   9.481 -0.0756  0.0635 -0.5901
 8158SOL    HW136107   1.106   0.227   9.386 -1.0833  0.4687 -0.5853
 8158SOL    HW236108   1.095   0.122   9.490  2.8574 -0.1569 -0.6556
 8159SOL     OW36109   1.400   0.902   3.439  0.1004  0.0678 -0.5318
 8159SOL    HW136110   1.406   0.857   3.355  1.2169 -0.9047  0.0793
 8159SOL    HW236111   1.470   0.853   3.483  0.2740  0.8235  0.0293
 8160SOL     OW36112   4.555   1.607   0.650  0.0293  0.3210 -0.3322
 8160SOL    HW136113   4.622   1.675   0.649 -1.5672  1.9687  5.4830
 8160SOL    HW236114   4.592   1.569   0.730 -2.3160 -0.2151  0.5194
 8161SOL     OW36115   3.077   0.639   6.809 -0.2663  0.3279  0.6194
 8161SOL    HW136116   3.049   0.683   6.889  1.9092 -0.4085  1.7876
 8161SOL    HW236117   3.002   0.588   6.779 -0.0721  0.0767  0.5615
 8162SOL     OW36118   0.834   0.024   2.595 -0.1034 -0.5518 -0.0124
 8162SOL    HW136119   0.808   4.681   2.550  1.4846 -0.0127 -1.8776
 8162SOL    HW236120   0.900   4.720   2.651  1.9292  1.0185 -1.2704
 8163SOL     OW36121   4.303   3.130   4.798  0.3938  0.3481 -0.1277
 8163SOL    HW136122   4.311   3.116   4.892 -0.0852  1.4889  0.0794
 8163SOL    HW236123   4.393   3.162   4.786 -0.2684  1.9025 -0.9487
 8164SOL     OW36124   0.846   0.131  17.496 -0.3418 -0.1303 -0.3242
 8164SOL    HW136125   0.936   0.103  17.511 -0.4302 -0.3960 -0.2998
 8164SOL    HW236126   0.812   0.057  17.546 -0.9452  0.2271 -0.2039
 8165SOL     OW36127   0.692   0.125   5.528 -0.0409 -0.1550  0.0261
 8165SOL    HW136128   0.751   0.178   5.475  1.4089 -0.2880  1.4899
 8165SOL    HW236129   0.621   0.108   5.467 -0.1087  0.3802 -0.0388
 8166SOL     OW36130   2.455   1.206   7.326  0.0244 -0.0063  0.0048
 8166SOL    HW136131   2.469   1.272   7.258  0.4203  1.1987  1.2634
 8166SOL    HW236132   2.544   1.194   7.359  0.8400 -1.9351 -2.8907
 8167SOL     OW36133   0.215   0.753   7.298 -0.1769  0.4599 -0.0111
 8167SOL    HW136134   0.139   0.764   7.356 -0.8503 -3.5428 -0.1301
 8167SOL    HW236135   0.177   0.706   7.224  0.0228  1.3259 -0.6642
 8168SOL     OW36136   0.994   2.731   2.704 -0.5554  0.3134  0.0158
 8168SOL    HW136137   1.029   2.778   2.629  0.4260  0.0706  0.3108
 8168SOL    HW236138   0.975   2.797   2.770 -1.5376 -1.0718  1.1150
 8169SOL     OW36139   2.647   2.759   1.869  0.1869  0.6320 -0.2130
 8169SOL    HW136140   2.614   2.681   1.915  1.5878 -1.0872 -2.0984
 8169SOL    HW236141   2.606   2.753   1.783 -2.4929  0.4252  1.0808
 8170SOL     OW36142   4.096   1.697   9.411 -0.1348  0.0105 -0.1206
 8170SOL    HW136143   4.059   1.647   9.338  1.0529  0.3903 -0.9865
 8170SOL    HW236144   4.128   1.624   9.464 -0.3059  0.4201  0.5449
 8171SOL     OW36145   0.475   2.206   7.200  0.3568 -0.6589  0.7584
 8171SOL    HW136146   0.488   2.250   7.284 -1.6893  0.4802  0.5029
 8171SOL    HW236147   0.392   2.161   7.214  1.0209 -1.9480  0.4998
 8172SOL     OW36148   0.805   3.229   2.821 -0.0132 -0.2743  0.0732
 8172SOL    HW136149   0.804   3.156   2.883 -0.3722  0.0638  0.4632
 8172SOL    HW236150   0.726   3.204   2.774  0.9361 -0.4532 -1.4383
 8173SOL     OW36151   2.015   1.950   3.745  0.1246 -0.4281  0.2560
 8173SOL    HW136152   1.969   1.933   3.662  0.8893  1.3894 -0.5436
 8173SOL    HW236153   2.107   1.954   3.720  0.7201  1.5531  2.8311
 8174SOL     OW36154   3.115   3.302   9.503 -0.3587  0.4944  0.3714
 8174SOL    HW136155   3.098   3.335   9.415  0.3468  1.6721  0.6807
 8174SOL    HW236156   3.154   3.216   9.485  0.2660  1.0540 -0.8947
 8175SOL     OW36157   0.851   4.000  16.731 -0.1107  0.4947 -0.1492
 8175SOL    HW136158   0.762   3.970  16.750 -0.6622  1.9718 -0.4284
 8175SOL    HW236159   0.828   4.044  16.649  1.8162 -0.5439 -1.2459
 8176SOL     OW36160   3.670   1.872   2.227  0.4312  0.1430 -0.0365
 8176SOL    HW136161   3.682   1.918   2.144  0.6753  1.7631  0.8969
 8176SOL    HW236162   3.743   1.811   2.217  0.4399  0.0243  0.7207
 8177SOL     OW36163   1.540   3.395   6.248 -0.0189  0.4579 -0.1459
 8177SOL    HW136164   1.631   3.410   6.223  0.4329  2.6845  2.8579
 8177SOL    HW236165   1.507   3.454   6.180 -1.2581  1.5463  1.4077
 8178SOL     OW36166   4.676   0.200   6.859  0.3382  0.3689 -0.1634
 8178SOL    HW136167   4.707   0.277   6.812  0.0946  0.4223 -0.2380
 8178SOL    HW236168   4.654   0.148   6.782 -0.6132 -0.5687  0.7283
 8179SOL     OW36169   2.395   0.943   7.187  0.6087  0.0114 -0.0780
 8179SOL    HW136170   2.301   0.956   7.199  0.1423 -2.3744 -1.1250
 8179SOL    HW236171   2.431   1.008   7.247  1.0049  0.1321 -0.4471
 8180SOL     OW36172   1.037   0.062   3.773 -0.4189  0.3606 -0.4768
 8180SOL    HW136173   0.974   0.081   3.843  0.9186 -0.0038  0.8345
 8180SOL    HW236174   1.044   4.704   3.761  0.6288  0.5906 -1.6968
 8181SOL     OW36175   3.511   0.866  11.425 -0.1645 -0.0080 -0.7480
 8181SOL    HW136176   3.584   0.908  11.471  1.1905 -0.9802 -1.9826
 8181SOL    HW236177   3.478   0.940  11.373  2.2960  0.8125 -1.1537
 8182SOL     OW36178   0.709   0.090  11.143  0.0043  0.2484  0.2999
 8182SOL    HW136179   0.772   0.087  11.216  0.8923 -1.4290 -0.5261
 8182SOL    HW236180   0.643   0.027  11.172  0.6179  0.0493  1.2607
 8183SOL     OW36181   1.462   2.700   5.488  0.0053 -0.0140 -0.1217
 8183SOL    HW136182   1.546   2.659   5.471  0.8207  1.4651  0.3218
 8183SOL    HW236183   1.453   2.654   5.572 -2.4142 -0.2326 -0.4939
 8184SOL     OW36184   3.117   1.274   7.946  1.1183  0.6138  0.0682
 8184SOL    HW136185   3.070   1.191   7.937 -0.8664  1.6623  0.7553
 8184SOL    HW236186   3.170   1.252   8.022 -0.3905 -0.0163  0.9412
 8185SOL     OW36187   3.786   0.387   8.136  0.1095 -0.0559  0.4165
 8185SOL    HW136188   3.725   0.458   8.116  0.1334  0.5804  2.5345
 8185SOL    HW236189   3.807   0.361   8.046  0.2429  3.8897 -0.6825
 8186SOL     OW36190   1.685   3.945   5.227  0.0554 -0.1056 -0.4468
 8186SOL    HW136191   1.702   4.040   5.223 -0.2810 -0.0622 -0.8291
 8186SOL    HW236192   1.741   3.940   5.305  1.5024  0.4141 -1.4429
 8187SOL     OW36193   2.207   3.334   1.257  0.1891 -0.2744  0.3883
 8187SOL    HW136194   2.291   3.379   1.256 -0.1202  0.3012 -0.3587
 8187SOL    HW236195   2.148   3.407   1.240 -0.4146 -0.7609  0.3653
 8188SOL     OW36196   0.601   4.339   5.117 -0.1395 -0.2173 -0.6717
 8188SOL    HW136197   0.511   4.304   5.116 -0.6808  1.1737 -0.1110
 8188SOL    HW236198   0.587   4.433   5.115  0.2289 -0.1240  1.5489
 8189SOL     OW36199   3.811   4.321   4.372  0.4244 -0.4873 -0.1871
 8189SOL    HW136200   3.719   4.308   4.345  0.2973  0.1043 -0.0460
 8189SOL    HW236201   3.790   4.312   4.465 -1.3435 -1.1466 -0.6484
 8190SOL     OW36202   1.986   3.156   3.780  0.4107  0.1908  0.7497
 8190SOL    HW136203   2.073   3.115   3.777  0.4078  0.3328 -1.3228
 8190SOL    HW236204   1.990   3.212   3.702 -0.9044  0.4633  0.8748
 8191SOL     OW36205   0.073   3.675   0.561 -0.1369  0.2305 -0.0608
 8191SOL    HW136206   0.060   3.669   0.466 -2.7721 -2.3526  0.4588
 8191SOL    HW236207   4.721   3.656   0.593  0.0259  0.4816  0.5345
 8192SOL     OW36208   0.334   3.164   7.096 -0.2066 -0.0806  0.4767
 8192SOL    HW136209   0.347   3.246   7.145  3.3475 -0.6927  0.4963
 8192SOL    HW236210   0.363   3.195   7.010  0.8216 -4.1117 -0.5822
 8193SOL     OW36211   2.785   1.606   2.210  0.2320 -0.2621 -0.1815
 8193SOL    HW136212   2.819   1.519   2.186  2.9515  0.6528  0.3501
 8193SOL    HW236213   2.826   1.672   2.155 -0.5398 -0.7013 -1.2885
 8194SOL     OW36214   3.400   2.031   8.630  0.0716 -0.6331  0.5711
 8194SOL    HW136215   3.329   2.088   8.598 -0.8303 -2.0650  0.0342
 8194SOL    HW236216   3.465   2.098   8.651 -0.0938  0.3776 -2.0685
 8195SOL     OW36217   2.052   4.381   2.472 -0.4499 -0.0793 -0.0751
 8195SOL    HW136218   2.115   4.451   2.489  1.4630 -1.3653 -1.8224
 8195SOL    HW236219   2.094   4.303   2.509 -1.3422 -0.6766 -0.3174
 8196SOL     OW36220   2.649   0.720  16.446  0.0430  0.1992  1.0066
 8196SOL    HW136221   2.677   0.807  16.422  0.2772  0.3743  1.9084
 8196SOL    HW236222   2.558   0.730  16.476 -0.0033 -0.6428  1.1499
 8197SOL     OW36223   0.655   1.473   6.140 -0.4747  0.0359  0.2547
 8197SOL    HW136224   0.666   1.398   6.199 -2.5841 -0.1284  0.4150
 8197SOL    HW236225   0.735   1.473   6.087 -0.1014 -0.6244  0.7969
 8198SOL     OW36226   3.967   3.379  12.316 -0.2655  0.0979 -0.2745
 8198SOL    HW136227   3.968   3.450  12.252 -0.2091  0.2944 -0.0563
 8198SOL    HW236228   3.903   3.418  12.375  1.8604  0.6954  1.6425
 8199SOL     OW36229   3.294   3.289   7.729 -0.2984  0.5688 -0.5801
 8199SOL    HW136230   3.249   3.205   7.741  0.2043  0.0006 -2.6618
 8199SOL    HW236231   3.333   3.282   7.642  0.2567  0.1152 -0.2959
 8200SOL     OW36232   0.443   1.144  11.512 -0.4093 -0.4408  0.1142
 8200SOL    HW136233   0.506   1.164  11.442 -0.3765  0.1968  0.3307
 8200SOL    HW236234   0.500   1.160  11.587 -0.3210 -0.7615  0.1144
 8201SOL     OW36235   3.083   2.780   6.525  0.1585  0.3614  0.3677
 8201SOL    HW136236   2.996   2.759   6.561 -0.9105  0.6502 -2.0045
 8201SOL    HW236237   3.121   2.834   6.594  2.6720 -0.1889 -0.6061
 8202SOL     OW36238   3.353   0.827   4.450  0.1058  0.2097 -0.2039
 8202SOL    HW136239   3.404   0.757   4.491  2.1073  0.4102 -2.3023
 8202SOL    HW236240   3.413   0.901   4.437  0.7469 -0.4064 -0.7703
 8203SOL     OW36241   3.970   0.481   0.061  0.0811  0.9478 -0.3253
 8203SOL    HW136242   3.971   0.565   0.106 -0.3807  0.8870 -0.2022
 8203SOL    HW236243   3.978   0.511  17.716 -0.5926  1.8525 -0.0801
 8204SOL     OW36244   1.362   4.114  10.125  0.4540  0.2506 -0.3799
 8204SOL    HW136245   1.296   4.129  10.193 -0.4798 -0.4843 -1.1262
 8204SOL    HW236246   1.325   4.178  10.065  2.0711  2.0489  0.5451
 8205SOL     OW36247   3.714   3.639   9.766 -0.9732  0.3555  0.0252
 8205SOL    HW136248   3.678   3.565   9.719  1.3748 -1.8198  1.6719
 8205SOL    HW236249   3.777   3.584   9.813 -0.0890  0.1306 -1.4165
 8206SOL     OW36250   3.625   2.732  10.785 -0.1162 -0.0996 -0.3675
 8206SOL    HW136251   3.546   2.740  10.731 -0.1273 -0.0327 -0.3413
 8206SOL    HW236252   3.594   2.729  10.875  1.3672 -1.7177  0.0997
 8207SOL     OW36253   1.582   3.710   8.744 -0.6545 -0.8930 -0.1112
 8207SOL    HW136254   1.564   3.760   8.665  2.0198 -0.9361 -0.7386
 8207SOL    HW236255   1.529   3.759   8.808  0.7769  1.9096 -1.0817
 8208SOL     OW36256   3.720   4.493   2.094  0.1444 -0.3165 -0.1518
 8208SOL    HW136257   3.629   4.523   2.102  0.6109  1.5949 -2.2091
 8208SOL    HW236258   3.711   4.426   2.026 -0.7651  0.2969 -0.6307
 8209SOL     OW36259   2.698   0.667   2.297 -0.5647  0.0151 -0.3937
 8209SOL    HW136260   2.694   0.752   2.340  1.4255  0.0269 -0.2278
 8209SOL    HW236261   2.792   0.646   2.294 -0.7801 -0.7869 -1.6677
 8210SOL     OW36262   4.217   3.604   7.422 -0.1090 -0.2675 -0.6553
 8210SOL    HW136263   4.163   3.552   7.481 -1.8492  0.8910 -1.2215
 8210SOL    HW236264   4.170   3.601   7.339 -1.5300 -0.9828  0.1862
 8211SOL     OW36265   1.291   4.713   9.378 -0.0942  0.2480 -0.4833
 8211SOL    HW136266   1.305   4.622   9.352  1.4539  0.1525  0.6723
 8211SOL    HW236267   1.204   4.723   9.338  0.0672 -2.4421 -1.4970
 8212SOL     OW36268   3.603   1.218   2.092  0.1235 -0.1589  0.1376
 8212SOL    HW136269   3.652   1.276   2.033  1.3474 -0.8298  0.5018
 8212SOL    HW236270   3.517   1.259   2.090 -0.1564 -0.6836  1.3568
 8213SOL     OW36271   1.488   4.054   8.536 -0.0295  0.3156  0.0284
 8213SOL    HW136272   1.447   4.044   8.450 -1.4992  1.0949  0.6415
 8213SOL    HW236273   1.573   4.087   8.506 -0.0439  0.0262 -0.3407
 8214SOL     OW36274   0.480   2.868   1.196 -0.1167  0.1402 -0.1183
 8214SOL    HW136275   0.489   2.956   1.233 -2.0413  0.7449 -1.0686
 8214SOL    HW236276   0.388   2.869   1.168 -0.1165  0.3257 -0.1116
 8215SOL     OW36277   2.738   1.592   5.963  0.0508  0.7786  0.4606
 8215SOL    HW136278   2.747   1.676   5.918  3.8165 -0.8550 -1.8466
 8215SOL    HW236279   2.662   1.611   6.018 -0.4433 -0.5510  0.2287
 8216SOL     OW36280   3.479   3.932   0.790 -0.1243 -0.0657  0.2573
 8216SOL    HW136281   3.464   3.890   0.875 -1.2146  1.4957  0.8361
 8216SOL    HW236282   3.425   3.873   0.736 -0.1595 -1.2252  1.5593
 8217SOL     OW36283   2.047   1.495   5.969 -0.4201 -0.0192  0.2377
 8217SOL    HW136284   2.091   1.468   5.888  0.6560  1.1771  0.4237
 8217SOL    HW236285   1.988   1.567   5.946  1.9956  0.9845 -2.8561
 8218SOL     OW36286   4.215   0.132   9.390 -0.7243  0.7874  0.3251
 8218SOL    HW136287   4.133   0.081   9.390  1.4676 -2.7272  1.7747
 8218SOL    HW236288   4.266   0.098   9.463  0.1307  1.9676  0.2834
 8219SOL     OW36289   3.209   1.113   7.162 -0.4866  0.1670 -0.3266
 8219SOL    HW136290   3.292   1.158   7.177 -1.0796  1.4876 -1.0243
 8219SOL    HW236291   3.169   1.099   7.247  2.2273  0.9107  1.0891
 8220SOL     OW36292   4.476   1.724  16.376 -0.4255 -0.1637  0.0438
 8220SOL    HW136293   4.495   1.728  16.283  1.1752  0.5511  0.3877
 8220SOL    HW236294   4.459   1.816  16.393  1.1273 -0.1528  1.6300
 8221SOL     OW36295   2.536   2.351  15.710 -0.4552  0.4304  0.4921
 8221SOL    HW136296   2.624   2.372  15.741  0.2973  0.8594 -1.9522
 8221SOL    HW236297   2.555   2.318  15.623  0.5411  2.8532 -0.2003
 8222SOL     OW36298   2.339   3.661   2.131  0.2438 -0.4440  0.2377
 8222SOL    HW136299   2.348   3.567   2.145  0.4906 -0.1441  2.0832
 8222SOL    HW236300   2.249   3.666   2.099  0.0569 -2.7998  0.4192
 8223SOL     OW36301   0.152   0.268  16.482  0.6637 -0.5031  0.4783
 8223SOL    HW136302   0.195   0.353  16.496  3.2596 -1.8234  0.5959
 8223SOL    HW236303   0.080   0.301  16.428 -0.6253 -1.1746  1.7774
 8224SOL     OW36304   1.616   3.516   2.671  0.6453  0.6554 -0.1589
 8224SOL    HW136305   1.675   3.441   2.659  0.3473  0.3281  0.4018
 8224SOL    HW236306   1.566   3.487   2.747 -1.7560 -0.7352 -2.2429
 8225SOL     OW36307   4.052   4.669   9.054  0.1024 -0.1032  0.5108
 8225SOL    HW136308   4.144   4.690   9.039  0.0980  1.0227  2.0760
 8225SOL    HW236309   4.020   4.734   9.116 -0.6948  1.5291 -1.6042
 8226SOL     OW36310   2.448   2.995   1.277 -0.5323  0.2872 -0.0824
 8226SOL    HW136311   2.382   3.016   1.211 -0.0923 -0.5033 -0.7833
 8226SOL    HW236312   2.519   2.972   1.217 -0.0864 -0.5717  0.7762
 8227SOL     OW36313   1.474   0.302  13.563  0.6232  0.6077 -0.0254
 8227SOL    HW136314   1.464   0.228  13.504 -0.5128  0.8589 -0.1560
 8227SOL    HW236315   1.506   0.375  13.510 -2.3838  0.8214 -1.5694
 8228SOL     OW36316   3.186   4.124  17.726  0.3278  0.7303 -0.2666
 8228SOL    HW136317   3.157   4.195  17.669 -1.5350  0.7392  0.6895
 8228SOL    HW236318   3.248   4.166   0.039 -0.6142  2.4486 -0.4911
 8229SOL     OW36319   4.639   2.472   0.063  0.5923 -0.0099  0.8149
 8229SOL    HW136320   4.583   2.402   0.097  0.1816  1.1436  2.5502
 8229SOL    HW236321   4.716   2.455   0.117  0.7901  0.2579  0.6170
 8230SOL     OW36322   2.319   0.074   7.254  0.6276 -0.2870  0.2515
 8230SOL    HW136323   2.367   0.053   7.174 -0.3620 -0.3299 -0.3292
 8230SOL    HW236324   2.265   0.004   7.291  0.8194  0.6687  2.3693
 8231SOL     OW36325   2.767   4.656   3.538  0.5345  0.2728 -0.0035
 8231SOL    HW136326   2.770   4.672   3.633 -0.7963  2.1585 -0.2881
 8231SOL    HW236327   2.677   4.623   3.529  0.8395 -0.4934 -0.2230
 8232SOL     OW36328   0.421   3.210  15.335  0.2113 -0.2375 -0.0057
 8232SOL    HW136329   0.460   3.285  15.289 -0.0642 -0.1641 -0.1210
 8232SOL    HW236330   0.478   3.201  15.411 -0.5862 -2.4029  0.3127
 8233SOL     OW36331   1.111   1.851   5.656  0.0719  0.1230  0.1562
 8233SOL    HW136332   1.177   1.908   5.618 -0.9010  0.8999 -0.3765
 8233SOL    HW236333   1.064   1.824   5.577 -1.7447  0.4958  1.1025
 8234SOL     OW36334   0.483   1.446   6.813  0.2377  0.2433  0.4804
 8234SOL    HW136335   0.418   1.471   6.878 -0.0566  0.2690  0.1716
 8234SOL    HW236336   0.523   1.533   6.817  0.5843  0.1481 -0.8723
 8235SOL     OW36337   2.758   1.422   4.530 -0.4679 -0.0357 -0.0010
 8235SOL    HW136338   2.694   1.386   4.591  0.5629 -1.5640  0.1725
 8235SOL    HW236339   2.706   1.484   4.478  0.1665  2.4695  2.3756
 8236SOL     OW36340   2.933   1.379   2.606 -0.4077 -0.5433 -0.1939
 8236SOL    HW136341   2.963   1.438   2.675 -0.8487 -1.7342  1.0194
 8236SOL    HW236342   2.875   1.438   2.558  0.3854  0.0370 -0.4312
 8237SOL     OW36343   2.588   4.212   1.768 -0.1430  0.0241  0.4257
 8237SOL    HW136344   2.638   4.238   1.845  2.1412 -0.9722 -0.7178
 8237SOL    HW236345   2.537   4.291   1.754  0.5575  0.0233 -2.1855
 8238SOL     OW36346   0.345   0.176  10.103  0.1513 -0.3176  0.3730
 8238SOL    HW136347   0.360   0.197  10.195  0.5802  0.5002  0.1180
 8238SOL    HW236348   0.376   0.085  10.100 -3.6755 -1.5007 -3.4274
 8239SOL     OW36349   4.367   2.041   7.653 -0.1731 -0.3452 -0.4782
 8239SOL    HW136350   4.399   2.045   7.744  1.1310  2.6948 -1.0548
 8239SOL    HW236351   4.274   2.063   7.667  0.1752  0.6692  0.2442
 8240SOL     OW36352   2.192   1.727   9.224  0.0271  0.4320  0.0362
 8240SOL    HW136353   2.211   1.821   9.223 -2.4998  0.9282  0.1317
 8240SOL    HW236354   2.097   1.731   9.216 -0.0031 -0.1600  0.0532
 8241SOL     OW36355   3.056   2.550   8.045  0.0677 -0.3542  0.5865
 8241SOL    HW136356   3.085   2.521   8.131  0.1628  1.0814  1.0390
 8241SOL    HW236357   2.961   2.542   8.052 -0.2478  2.3961 -0.1712
 8242SOL     OW36358   4.177   2.254  14.625 -0.1959 -0.0288 -0.5886
 8242SOL    HW136359   4.150   2.288  14.711 -0.3807  0.7973 -0.9790
 8242SOL    HW236360   4.228   2.177  14.650 -1.1095 -0.9864 -1.6512
 8243SOL     OW36361   3.183   4.341   2.331 -0.1533  0.0440 -0.7438
 8243SOL    HW136362   3.229   4.260   2.353 -0.3478  0.5474  1.5984
 8243SOL    HW236363   3.106   4.324   2.385 -0.3777  0.0877 -1.0511
 8244SOL     OW36364   2.904   3.385   2.156 -0.4606  0.4713  0.5029
 8244SOL    HW136365   2.813   3.358   2.166 -1.1531  2.0112 -1.6281
 8244SOL    HW236366   2.949   3.321   2.211 -0.0903  0.4811  0.2182
 8245SOL     OW36367   1.455   1.261   5.610 -0.1531  0.1842  0.0304
 8245SOL    HW136368   1.482   1.170   5.619 -2.0710 -0.5864 -2.1079
 8245SOL    HW236369   1.540   1.298   5.586 -0.7718  1.3800 -0.3579
 8246SOL     OW36370   3.683   0.034  10.290 -0.1291 -0.6272 -0.1104
 8246SOL    HW136371   3.734   0.086  10.351 -0.5418 -0.6774  0.2815
 8246SOL    HW236372   3.598   0.058  10.327  0.5601 -0.7880  1.5790
 8247SOL     OW36373   1.708   3.371   9.519  0.0482 -0.3122 -0.4117
 8247SOL    HW136374   1.766   3.369   9.443 -2.4132 -0.1149 -2.3049
 8247SOL    HW236375   1.684   3.278   9.524 -1.6141  0.1235 -0.3498
 8248SOL     OW36376   2.159   1.828   6.809  0.0770  0.5237  0.0316
 8248SOL    HW136377   2.217   1.804   6.881  1.4367 -1.5093 -1.7388
 8248SOL    HW236378   2.074   1.797   6.838 -1.0254  2.6965 -0.8615
 8249SOL     OW36379   0.767   3.744   0.420 -0.1157  0.3381 -0.2286
 8249SOL    HW136380   0.862   3.750   0.409 -0.1243  1.8326  0.5251
 8249SOL    HW236381   0.762   3.701   0.505  1.3134  0.9951  0.1853
 8250SOL     OW36382   3.172   2.358  12.084  0.1972  0.2729 -0.0968
 8250SOL    HW136383   3.235   2.418  12.125  0.5906 -0.0499 -0.2228
 8250SOL    HW236384   3.184   2.278  12.134  0.9235  0.1463 -0.4614
 8251SOL     OW36385   0.941   0.209   8.513 -0.0143  0.9194  1.1230
 8251SOL    HW136386   0.963   0.126   8.555 -0.2698 -1.3121 -3.1479
 8251SOL    HW236387   0.858   0.177   8.478  0.4423 -0.5222  1.3303
 8252SOL     OW36388   4.018   3.168   5.793  0.1125 -0.5153 -0.0821
 8252SOL    HW136389   3.927   3.196   5.802  0.5202  1.1998 -1.3119
 8252SOL    HW236390   4.034   3.206   5.707  2.0435 -0.7064  0.1979
 8253SOL     OW36391   4.600   3.869   7.055 -0.0227 -0.1946 -0.3243
 8253SOL    HW136392   4.615   3.778   7.030  0.5252 -0.1453 -0.1814
 8253SOL    HW236393   4.639   3.909   6.977 -1.2756  0.6414 -0.5122
 8254SOL     OW36394   3.382   3.346  17.630  0.3826  0.0107  0.0563
 8254SOL    HW136395   3.295   3.334  17.593 -0.0292 -0.7662  1.2631
 8254SOL    HW236396   3.392   3.439  17.610  3.5935 -0.3399 -0.0820
 8255SOL     OW36397   0.740   3.902   3.762 -0.6860 -0.3333 -0.0478
 8255SOL    HW136398   0.661   3.864   3.798 -1.9191  1.4137 -0.8800
 8255SOL    HW236399   0.760   3.965   3.831 -0.5493 -0.2167 -0.1928
 8256SOL     OW36400   1.563   2.153   6.079 -0.0083 -0.0858 -0.7600
 8256SOL    HW136401   1.556   2.087   6.149 -2.2438  1.6739  0.6565
 8256SOL    HW236402   1.656   2.177   6.078  0.1021 -0.4105  2.5861
 8257SOL     OW36403   1.594   2.052   7.246  0.0069 -0.0002 -0.4059
 8257SOL    HW136404   1.638   1.967   7.257  2.0973  0.8792 -2.1566
 8257SOL    HW236405   1.567   2.043   7.154  1.0598 -0.0485 -0.7088
 8258SOL     OW36406   2.125   4.404   0.160  0.3068 -0.2746 -0.5721
 8258SOL    HW136407   2.033   4.427   0.156  0.3796  0.2359  0.7326
 8258SOL    HW236408   2.141   4.377   0.251 -0.9922 -0.5955 -0.4413
 8259SOL     OW36409   2.580   3.346  12.014  0.5087 -0.0853  0.5730
 8259SOL    HW136410   2.671   3.373  12.012  0.5065 -0.1082  0.0445
 8259SOL    HW236411   2.558   3.382  12.100  0.1284 -0.7173  0.7427
 8260SOL     OW36412   1.627   0.046   8.742 -0.4435 -0.6733  0.4482
 8260SOL    HW136413   1.574   0.124   8.759  0.4253 -0.1131  0.5820
 8260SOL    HW236414   1.621   4.731   8.822 -0.8137  0.8909  1.4163
 8261SOL     OW36415   3.131   2.846   4.871  0.2721  0.3536  0.2652
 8261SOL    HW136416   3.160   2.828   4.781  0.0208 -0.2467  0.3097
 8261SOL    HW236417   3.057   2.904   4.855 -0.9889 -0.4610  3.2140
 8262SOL     OW36418   0.231   2.618   4.039  0.2399 -0.7607 -0.0957
 8262SOL    HW136419   0.235   2.657   3.952  0.6135 -0.1790  0.1801
 8262SOL    HW236420   0.289   2.677   4.087 -1.1925  0.9234 -0.4446
 8263SOL     OW36421   3.637   2.954   1.802 -0.2490 -0.1032  0.0152
 8263SOL    HW136422   3.624   2.989   1.891  1.2896 -1.5635  0.8313
 8263SOL    HW236423   3.704   3.009   1.763 -1.9835  0.9621 -1.3988
 8264SOL     OW36424   3.086   0.534   4.696 -0.3539 -0.1231  0.7818
 8264SOL    HW136425   3.020   0.507   4.631 -0.9897  0.6882  1.0950
 8264SOL    HW236426   3.111   0.621   4.664 -0.5088 -0.3426  0.0474
 8265SOL     OW36427   2.533   4.569   5.779  0.1034  0.2473 -0.7389
 8265SOL    HW136428   2.550   4.656   5.741 -1.7553  1.3871  1.0273
 8265SOL    HW236429   2.441   4.581   5.801  0.1367  0.0036 -0.4678
 8266SOL     OW36430   1.753   1.129  15.762 -0.2603 -0.7888 -0.1622
 8266SOL    HW136431   1.719   1.105  15.676 -0.2476 -0.0586 -0.3705
 8266SOL    HW236432   1.847   1.129  15.743 -0.8540 -2.0514 -3.1156
 8267SOL     OW36433   3.150   3.204   5.174 -0.3046 -0.0854 -0.0056
 8267SOL    HW136434   3.169   3.117   5.210 -0.0105 -0.2367 -0.5198
 8267SOL    HW236435   3.187   3.193   5.086  1.6660 -2.3185  1.0989
 8268SOL     OW36436   2.117   4.202   9.904  0.1553 -0.3906  0.1832
 8268SOL    HW136437   2.107   4.148   9.826  0.5298 -0.3713  0.1181
 8268SOL    HW236438   2.049   4.269   9.895  1.0948  0.5029 -0.2983
 8269SOL     OW36439   3.207   2.002   7.676 -0.2620 -0.0703  0.1424
 8269SOL    HW136440   3.301   2.012   7.669 -0.4977  1.7023 -0.6246
 8269SOL    HW236441   3.200   1.907   7.682 -0.7383 -0.1083 -0.9074
 8270SOL     OW36442   0.038   2.803   8.265  0.1455 -0.2863  0.4994
 8270SOL    HW136443   4.699   2.746   8.281 -0.6541  0.6048 -0.1075
 8270SOL    HW236444   0.071   2.807   8.355  0.1024  0.6355  0.4722
 8271SOL     OW36445   2.889   2.551   2.446  0.2443 -0.0647  0.2680
 8271SOL    HW136446   2.824   2.581   2.509  1.4747 -0.5657  1.7918
 8271SOL    HW236447   2.895   2.627   2.388  0.9160 -1.3784 -1.3944
 8272SOL     OW36448   0.675   4.687   0.478 -0.1286  0.1801 -0.1700
 8272SOL    HW136449   0.686   4.615   0.540 -2.8052 -1.0025 -1.0552
 8272SOL    HW236450   0.676   4.641   0.394  3.0630  0.0424 -0.0575
 8273SOL     OW36451   1.364   3.345   1.153  0.0489 -0.0329 -0.0671
 8273SOL    HW136452   1.360   3.258   1.115  0.6819 -0.0880 -0.0096
 8273SOL    HW236453   1.451   3.356   1.191  0.9563 -0.0176 -2.1687
 8274SOL     OW36454   4.650   1.140   5.210 -0.3110  0.4154 -0.1533
 8274SOL    HW136455   4.561   1.134   5.175  0.5216 -0.5815 -2.0381
 8274SOL    HW236456   4.696   1.166   5.131  3.3272  2.2141  2.5438
 8275SOL     OW36457   0.786   2.752  12.160  0.7838  0.3672  0.2088
 8275SOL    HW136458   0.700   2.762  12.121  0.8823 -0.4710 -0.2286
 8275SOL    HW236459   0.774   2.699  12.239  0.0538 -0.5878 -0.5554
 8276SOL     OW36460   3.391   1.705  15.862  0.7868  0.1491 -0.4381
 8276SOL    HW136461   3.330   1.767  15.902  0.5086 -1.6146  1.9244
 8276SOL    HW236462   3.356   1.621  15.893 -1.6382  0.9078 -1.1360
 8277SOL     OW36463   1.599   2.564   4.307  0.0451  1.2131 -0.3654
 8277SOL    HW136464   1.683   2.521   4.290  0.6363  2.0129  0.5864
 8277SOL    HW236465   1.568   2.572   4.217 -0.9330  1.9498  0.0443
 8278SOL     OW36466   1.903   1.357   7.923 -0.1285  0.1875 -0.3606
 8278SOL    HW136467   1.940   1.305   7.994 -3.1449 -0.5276  0.7229
 8278SOL    HW236468   1.843   1.304   7.871  0.6938 -2.9942  1.9851
 8279SOL     OW36469   1.473   0.400   7.335  0.2919  0.4046 -0.1872
 8279SOL    HW136470   1.440   0.382   7.423 -1.6749 -1.0514 -1.2372
 8279SOL    HW236471   1.543   0.335   7.326  0.1176  0.6195 -3.0625
 8280SOL     OW36472   1.596   0.058   1.818 -0.3131  0.1809 -0.7098
 8280SOL    HW136473   1.646   0.036   1.896 -2.5256  1.7183  1.1641
 8280SOL    HW236474   1.572   0.150   1.829 -0.0436  0.4131 -2.0700
 8281SOL     OW36475   3.369   2.119   7.366 -0.0635 -0.1054  0.2883
 8281SOL    HW136476   3.384   2.040   7.419 -2.1507  0.9602  2.4526
 8281SOL    HW236477   3.302   2.089   7.305 -0.3785 -1.5141  1.3305
 8282SOL     OW36478   2.812   1.294   7.127  0.4447  0.2283 -0.2661
 8282SOL    HW136479   2.723   1.327   7.138  0.2940  0.2592 -1.6053
 8282SOL    HW236480   2.845   1.344   7.053  0.3143  0.5114 -0.1307
 8283SOL     OW36481   1.757   4.633  12.437 -0.2383 -0.0307  0.6232
 8283SOL    HW136482   1.689   4.637  12.505 -0.1486 -0.3084  0.7281
 8283SOL    HW236483   1.826   4.590  12.487  0.1049 -2.6527 -2.1662
 8284SOL     OW36484   2.210   1.867   1.751 -0.1016  0.4907 -0.0317
 8284SOL    HW136485   2.281   1.913   1.706  0.7465 -0.5686  0.2130
 8284SOL    HW236486   2.133   1.896   1.704 -0.5475 -1.2131 -0.3508
 8285SOL     OW36487   0.997   3.771   3.984  0.1091  0.2981 -0.5527
 8285SOL    HW136488   0.947   3.693   4.010 -1.2198  0.8510 -1.4640
 8285SOL    HW236489   1.046   3.793   4.063 -0.7514 -0.2475  0.1420
 8286SOL     OW36490   4.204   3.766   9.095  0.0726  0.4679 -0.3342
 8286SOL    HW136491   4.281   3.822   9.103  2.4245 -2.6611 -1.0294
 8286SOL    HW236492   4.145   3.835   9.125 -1.0986 -0.4217 -0.6170
 8287SOL     OW36493   1.600   3.292  16.570 -0.1084  0.1918  0.1106
 8287SOL    HW136494   1.506   3.289  16.554 -0.1026  2.3389 -0.3630
 8287SOL    HW236495   1.610   3.280  16.664  0.4577  1.4974  0.2246
 8288SOL     OW36496   4.152   1.141   5.423 -0.2221  0.3810 -0.3386
 8288SOL    HW136497   4.179   1.148   5.515 -0.2830 -0.1831 -0.2762
 8288SOL    HW236498   4.189   1.218   5.382 -2.4000  0.9893 -1.1955
 8289SOL     OW36499   4.652   0.038   6.656 -0.2409 -0.0950  0.3759
 8289SOL    HW136500   4.651   4.683   6.629 -0.9217  0.7750 -2.5583
 8289SOL    HW236501   4.606   0.075   6.581 -1.5603  0.2003  1.3237
 8290SOL     OW36502   0.522   2.597   4.493  0.4602 -0.3445  0.5047
 8290SOL    HW136503   0.482   2.633   4.572 -0.6675 -2.4062  0.8595
 8290SOL    HW236504   0.574   2.673   4.465  0.0783 -0.5415 -0.7613
 8291SOL     OW36505   2.521   2.864   2.804  0.1365 -0.2617  0.1698
 8291SOL    HW136506   2.455   2.924   2.769  1.7577  1.7916  0.6666
 8291SOL    HW236507   2.463   2.790   2.820  0.8334 -0.5277  1.4559
 8292SOL     OW36508   3.980   4.032   8.532 -0.0798  0.1560 -0.3652
 8292SOL    HW136509   3.898   4.061   8.490 -0.4161 -0.2822 -0.0029
 8292SOL    HW236510   4.029   3.986   8.464  0.0672  1.6635 -1.2884
 8293SOL     OW36511   3.391   1.087  11.374 -0.3609  0.1536 -0.1653
 8293SOL    HW136512   3.336   1.100  11.297 -0.0612  3.5218  0.1676
 8293SOL    HW236513   3.408   1.179  11.395  0.8589 -0.1090  0.0416
 8294SOL     OW36514   0.877   3.026  11.023  0.3003 -0.6111  0.1327
 8294SOL    HW136515   0.956   3.065  11.059  1.5474 -2.3355 -0.7231
 8294SOL    HW236516   0.873   2.969  11.101 -0.9152 -1.3277 -0.4558
 8295SOL     OW36517   3.312   0.109   7.077  0.3599  0.0487  0.0915
 8295SOL    HW136518   3.244   0.161   7.119  0.5176 -0.2447  0.7064
 8295SOL    HW236519   3.355   0.072   7.154 -0.9007  1.6277  1.5237
 8296SOL     OW36520   3.587   2.018  16.351 -0.1347 -0.0011 -0.1012
 8296SOL    HW136521   3.520   2.022  16.283 -0.4228  0.4641  0.2114
 8296SOL    HW236522   3.533   1.998  16.428 -0.1153 -2.5675 -0.7425
 8297SOL     OW36523   3.415   0.352   0.409 -0.6154 -0.2721 -0.3433
 8297SOL    HW136524   3.380   0.269   0.441  1.5351 -1.1451 -0.2751
 8297SOL    HW236525   3.484   0.317   0.353  1.0315  0.1017  1.4630
 8298SOL     OW36526   2.533   3.146   3.385 -0.4232 -0.2042 -0.2803
 8298SOL    HW136527   2.496   3.080   3.326 -1.4887  0.2619 -0.1458
 8298SOL    HW236528   2.456   3.170   3.437  0.2711 -0.0466  0.6852
 8299SOL     OW36529   1.535   1.702   2.207  0.2148  0.0538 -0.2696
 8299SOL    HW136530   1.602   1.721   2.141 -1.2122 -0.2451 -1.8025
 8299SOL    HW236531   1.500   1.789   2.224 -1.6843 -1.4650  3.6523
 8300SOL     OW36532   3.522   3.373   4.163  0.4014  0.0048  0.3459
 8300SOL    HW136533   3.578   3.364   4.240  0.1967  3.0670  0.8647
 8300SOL    HW236534   3.589   3.376   4.095 -1.4149  0.3484 -1.4071
 8301SOL     OW36535   3.363   2.326   4.331 -0.1109 -0.4718 -0.4298
 8301SOL    HW136536   3.300   2.307   4.261 -1.4006 -1.0350  0.8774
 8301SOL    HW236537   3.308   2.304   4.406 -0.8935  1.3124 -0.4666
 8302SOL     OW36538   3.149   1.556   8.325 -0.1431  0.5318  0.5085
 8302SOL    HW136539   3.211   1.618   8.363 -0.4536  2.6549 -2.4236
 8302SOL    HW236540   3.069   1.577   8.373 -0.7120  0.2771 -0.3282
 8303SOL     OW36541   0.543   2.599   0.775 -0.0557 -0.0458  0.0105
 8303SOL    HW136542   0.503   2.512   0.777  0.5737 -0.3767 -1.8502
 8303SOL    HW236543   0.468   2.656   0.792 -0.6029 -0.2964 -1.5460
 8304SOL     OW36544   0.690   0.475  11.531  0.4393 -0.6213 -0.4535
 8304SOL    HW136545   0.628   0.503  11.598  1.2958  0.9350 -0.3001
 8304SOL    HW236546   0.760   0.540  11.539 -0.9308  0.8573 -0.4189
 8305SOL     OW36547   3.005   1.657   3.007  0.4113  0.0299 -0.1047
 8305SOL    HW136548   3.043   1.680   3.091  1.2503 -0.6520 -0.2970
 8305SOL    HW236549   3.000   1.742   2.963  1.7570  0.2622  0.1998
 8306SOL     OW36550   4.407   1.798   5.305  0.0688 -0.2586 -0.1831
 8306SOL    HW136551   4.371   1.730   5.361 -0.7620 -1.1841 -1.8658
 8306SOL    HW236552   4.483   1.825   5.357 -1.1373 -0.6171  1.7825
 8307SOL     OW36553   1.405   2.961   4.216 -0.1505 -0.6727 -0.8206
 8307SOL    HW136554   1.488   2.918   4.235  0.9500  1.5108 -0.6885
 8307SOL    HW236555   1.432   3.016   4.143  0.4437  1.0508  0.7104
 8308SOL     OW36556   4.644   0.828   3.705  0.7254  0.1200  0.2643
 8308SOL    HW136557   4.574   0.886   3.735 -0.6189 -1.5439  0.3830
 8308SOL    HW236558   4.709   0.890   3.673 -0.3821  0.3989 -1.5076
 8309SOL     OW36559   0.241   1.915   8.869  0.0212 -0.1536  0.6761
 8309SOL    HW136560   0.169   1.873   8.915 -0.3729 -0.7070 -0.4451
 8309SOL    HW236561   0.286   1.961   8.940 -0.8995  0.2305  1.0057
 8310SOL     OW36562   3.052   0.915  11.255 -0.4400 -0.0920  0.5548
 8310SOL    HW136563   3.066   1.002  11.217 -0.4696 -0.7764 -1.0252
 8310SOL    HW236564   3.118   0.915  11.324  1.9064  1.4931 -1.7091
 8311SOL     OW36565   2.463   4.649  17.442  0.2089  0.1992  0.0188
 8311SOL    HW136566   2.450   4.718  17.377 -0.9158 -0.4675 -0.4618
 8311SOL    HW236567   2.386   4.592  17.439  0.1281  0.2921  0.3707
 8312SOL     OW36568   0.388   1.785   3.236 -0.4883  0.5188 -0.4173
 8312SOL    HW136569   0.390   1.754   3.327  0.4596  0.4328 -0.4681
 8312SOL    HW236570   0.328   1.724   3.192 -0.6955  0.2527  0.2243
 8313SOL     OW36571   3.116   3.815   6.530 -0.4224  0.2996 -0.2346
 8313SOL    HW136572   3.098   3.830   6.623 -0.2334 -1.3080  0.0488
 8313SOL    HW236573   3.056   3.878   6.489 -1.5528  0.7168  2.0675
 8314SOL     OW36574   1.893   4.612   1.763 -0.0006 -0.0711 -0.0995
 8314SOL    HW136575   1.933   4.530   1.734 -1.3619 -1.1913  1.2288
 8314SOL    HW236576   1.893   4.600   1.858 -0.2462 -1.0891 -0.2283
 8315SOL     OW36577   0.206   0.684   6.300  0.1032  0.1483  0.2736
 8315SOL    HW136578   0.266   0.755   6.278 -1.2824  1.1031 -0.4710
 8315SOL    HW236579   0.131   0.727   6.341 -0.3520  0.8044 -1.2232
 8316SOL     OW36580   1.852   0.152   7.961  0.0096 -0.3758 -0.6891
 8316SOL    HW136581   1.871   0.121   7.872  2.1542  1.6526 -0.9493
 8316SOL    HW236582   1.911   0.225   7.978 -1.8348  1.2032 -1.0662
 8317SOL     OW36583   3.538   0.179   3.571  0.0316  0.1477  0.8136
 8317SOL    HW136584   3.543   0.120   3.495 -0.2729  2.5363 -1.0594
 8317SOL    HW236585   3.612   0.240   3.564 -0.3958  0.6947  1.1466
 8318SOL     OW36586   4.402   0.124   4.041  0.5610  0.2496  0.3315
 8318SOL    HW136587   4.314   0.113   4.078 -0.2159  0.2507 -1.4934
 8318SOL    HW236588   4.407   0.218   4.028  0.7335  0.0889 -0.7707
 8319SOL     OW36589   1.631   2.179   3.687  0.4035  0.4064  0.3938
 8319SOL    HW136590   1.646   2.084   3.693 -0.0141  0.2362 -1.3446
 8319SOL    HW236591   1.584   2.201   3.768 -1.1810  1.8701 -0.9273
 8320SOL     OW36592   4.637   2.835   6.352 -0.8863 -0.3956 -0.0858
 8320SOL    HW136593   4.630   2.828   6.256 -1.8032  1.1981 -0.1337
 8320SOL    HW236594   4.692   2.761   6.374  0.8266  0.6439 -0.8595
 8321SOL     OW36595   4.549   0.640   7.646 -0.2885 -0.2952 -0.0577
 8321SOL    HW136596   4.604   0.657   7.722 -1.6702  1.6226  0.5217
 8321SOL    HW236597   4.461   0.665   7.674 -0.9999 -0.0777 -2.4128
 8322SOL     OW36598   3.416   3.801   6.606 -0.0721  0.4671  0.2584
 8322SOL    HW136599   3.418   3.841   6.693  1.1356  1.4715 -0.2292
 8322SOL    HW236600   3.330   3.809   6.566 -0.2906 -0.0766  0.6121
 8323SOL     OW36601   4.727   1.828   3.172 -0.1444  0.4382 -0.1614
 8323SOL    HW136602   0.056   1.865   3.113  0.0421  0.2015 -0.1023
 8323SOL    HW236603   4.706   1.750   3.121 -1.8032 -0.3535  1.7102
 8324SOL     OW36604   4.003   4.576   3.295 -0.0472 -0.3891  0.4445
 8324SOL    HW136605   3.921   4.599   3.252 -0.0817 -2.5213 -0.6459
 8324SOL    HW236606   4.051   4.659   3.302  0.1680 -0.3462 -1.5461
 8325SOL     OW36607   2.793   4.658   7.044  0.6470  0.2630 -0.2833
 8325SOL    HW136608   2.842   4.702   7.113  0.1669 -0.5923  0.5999
 8325SOL    HW236609   2.703   4.687   7.063  1.2859  0.4277  2.4985
 8326SOL     OW36610   0.916   2.771   6.165 -0.3637 -0.3434  0.1019
 8326SOL    HW136611   0.950   2.691   6.205  2.1846  0.3774 -0.6271
 8326SOL    HW236612   0.821   2.757   6.171 -1.0237  3.7364 -0.7280
 8327SOL     OW36613   2.626   3.659   0.352  0.0378  0.4318 -0.4582
 8327SOL    HW136614   2.599   3.606   0.427  1.6011 -1.2599 -1.0752
 8327SOL    HW236615   2.599   3.596   0.285 -1.4637  0.9185 -0.3065
 8328SOL     OW36616   0.919   1.050  11.632 -0.2635 -0.2870  0.0454
 8328SOL    HW136617   0.993   0.990  11.633 -0.5281 -0.5704  1.8074
 8328SOL    HW236618   0.931   1.096  11.549 -1.2872 -0.0525  0.0214
 8329SOL     OW36619   1.543   0.502   7.007 -0.3711  0.6493  0.1114
 8329SOL    HW136620   1.494   0.525   7.086 -0.4051 -0.0499  0.3021
 8329SOL    HW236621   1.499   0.419   6.986  0.9826  0.1182 -0.6504
 8330SOL     OW36622   0.484   2.770  12.576 -0.3093 -0.3960 -0.1240
 8330SOL    HW136623   0.435   2.700  12.532  1.0818 -0.5075 -1.4695
 8330SOL    HW236624   0.493   2.831  12.503  1.2311 -0.1439  0.2857
 8331SOL     OW36625   2.910   3.252   5.010  0.4750  0.1831  0.3661
 8331SOL    HW136626   2.857   3.173   5.017  0.1194  0.4767  0.9068
 8331SOL    HW236627   2.983   3.232   5.069 -0.5716 -5.1675 -0.2006
 8332SOL     OW36628   0.394   3.040  10.231 -0.2075 -0.0164 -0.2336
 8332SOL    HW136629   0.437   2.961  10.264 -0.8201 -1.2986 -2.4487
 8332SOL    HW236630   0.441   3.102  10.286 -1.3135 -1.7948  2.7165
 8333SOL     OW36631   3.643   0.804   3.771 -0.2231  0.5459  0.2178
 8333SOL    HW136632   3.567   0.783   3.824 -0.6085  0.7202 -0.2694
 8333SOL    HW236633   3.696   0.724   3.774 -0.3028  0.4322 -1.4134
 8334SOL     OW36634   0.341   2.137   4.839 -0.2238 -0.4924 -0.2436
 8334SOL    HW136635   0.302   2.140   4.926  0.4764  1.5064  0.0216
 8334SOL    HW236636   0.323   2.221   4.796  0.8387 -1.0132 -1.6864
 8335SOL     OW36637   4.684   3.140   5.936 -0.0774  0.3062  0.3310
 8335SOL    HW136638   4.611   3.080   5.917  0.9239 -0.0464 -2.4058
 8335SOL    HW236639   4.641   3.206   5.990 -2.4315  1.5400 -3.0466
 8336SOL     OW36640   2.042   3.812  17.088 -0.1905 -0.1126 -0.0276
 8336SOL    HW136641   2.121   3.789  17.039 -0.3063  1.6299 -1.0127
 8336SOL    HW236642   1.978   3.834  17.020  0.3524  1.4661 -0.0230
 8337SOL     OW36643   2.282   4.523  17.683  0.3299 -0.3040 -0.3148
 8337SOL    HW136644   2.216   4.495   0.001 -0.2344 -0.4955 -0.9866
 8337SOL    HW236645   2.365   4.482  17.707  0.2421  0.3888  1.1582
 8338SOL     OW36646   3.626   3.368   9.658  0.2177 -0.6609  0.2113
 8338SOL    HW136647   3.537   3.405   9.656  1.3326  1.9497 -0.0510
 8338SOL    HW236648   3.658   3.375   9.568 -0.2339 -1.1599  0.0066
 8339SOL     OW36649   2.054   2.361  15.672  0.3214  0.4366 -0.4733
 8339SOL    HW136650   1.985   2.401  15.724  0.3658 -0.1144  0.0160
 8339SOL    HW236651   2.014   2.276  15.653  1.8814 -0.3115 -0.4114
 8340SOL     OW36652   4.009   3.438   8.968 -0.1748 -0.1739  0.0201
 8340SOL    HW136653   4.097   3.474   8.954  0.4084 -2.2209 -1.6842
 8340SOL    HW236654   4.018   3.360   8.913  1.2812 -0.6911  0.9896
 8341SOL     OW36655   0.039   0.414   1.802  0.1785  0.2022 -1.0064
 8341SOL    HW136656   0.021   0.397   1.895  0.1442 -0.1539 -1.0770
 8341SOL    HW236657   4.691   0.440   1.768  0.1683  1.3182 -0.1449
 8342SOL     OW36658   3.461   2.418   7.994 -0.5528 -0.1036  0.5304
 8342SOL    HW136659   3.507   2.437   7.912 -0.7362 -1.2087  0.1691
 8342SOL    HW236660   3.369   2.411   7.970 -0.1494  0.6245 -1.1555
 8343SOL     OW36661   4.658   1.689   4.978  0.4205 -0.3001  0.3030
 8343SOL    HW136662   4.619   1.776   4.968 -0.0543 -0.5166  0.2949
 8343SOL    HW236663   0.010   1.696   4.943  1.5841 -0.1441  3.2308
 8344SOL     OW36664   2.589   4.006   1.604 -0.1682  0.0292 -0.4799
 8344SOL    HW136665   2.502   3.981   1.574  0.1026 -0.1118 -1.1514
 8344SOL    HW236666   2.564   4.077   1.663  0.2400 -0.9526  0.8981
 8345SOL     OW36667   3.242   0.842   3.396 -0.0886  0.0594  0.3583
 8345SOL    HW136668   3.192   0.845   3.314 -1.5794 -2.5254  1.1562
 8345SOL    HW236669   3.310   0.903   3.369  0.1460  0.0037  0.8273
 8346SOL     OW36670   3.069   2.445   6.647  0.2427  0.1440 -0.0321
 8346SOL    HW136671   3.041   2.354   6.659 -0.8003  0.6831  1.5681
 8346SOL    HW236672   3.164   2.439   6.656  0.0135  1.2919  2.8821
 8347SOL     OW36673   1.519   2.377   7.157  0.4896 -0.0764  0.2024
 8347SOL    HW136674   1.591   2.317   7.142  0.3095  0.2208 -1.9764
 8347SOL    HW236675   1.475   2.335   7.231  1.1103 -1.1330 -0.0424
 8348SOL     OW36676   3.803   0.764   7.317  0.0829  0.0014  0.1567
 8348SOL    HW136677   3.845   0.686   7.282 -1.0707 -0.1344 -0.9043
 8348SOL    HW236678   3.826   0.762   7.410  1.5882  0.2720 -0.2060
 8349SOL     OW36679   3.481   4.367  15.855  0.0391  0.2240  0.4386
 8349SOL    HW136680   3.524   4.356  15.771  0.4871 -0.3541  0.7419
 8349SOL    HW236681   3.513   4.289  15.901  0.0004  0.3154  0.6207
 8350SOL     OW36682   4.428   0.363  15.156 -0.8139  0.3503  0.3798
 8350SOL    HW136683   4.392   0.276  15.176  1.2563 -0.5840  0.0313
 8350SOL    HW236684   4.406   0.420  15.230  1.6170  2.5578 -0.6420
 8351SOL     OW36685   3.288   3.590   3.575  0.2306 -0.0316  0.0963
 8351SOL    HW136686   3.237   3.509   3.580  1.7001 -1.1607 -2.4999
 8351SOL    HW236687   3.312   3.603   3.666 -1.4074 -2.5653  0.8972
 8352SOL     OW36688   2.725   1.470  10.144 -0.0293  0.4249  0.0504
 8352SOL    HW136689   2.632   1.458  10.128  0.2235 -2.4692  0.8633
 8352SOL    HW236690   2.734   1.565  10.139  0.7129  0.2640 -1.4354
 8353SOL     OW36691   1.256   3.375  13.243 -0.4922  0.1710 -0.5657
 8353SOL    HW136692   1.251   3.314  13.170  0.4497 -0.5752  0.0022
 8353SOL    HW236693   1.345   3.410  13.243  0.2330 -1.7049 -0.3428
 8354SOL     OW36694   1.619   1.762   4.003 -0.2001 -0.2462 -0.3449
 8354SOL    HW136695   1.696   1.798   3.961  0.0876  2.6599  2.6881
 8354SOL    HW236696   1.630   1.668   3.987 -1.4155 -0.5322  0.4488
 8355SOL     OW36697   3.950   4.136   8.063 -0.1177  0.1188  0.0504
 8355SOL    HW136698   3.905   4.219   8.047 -0.9305 -0.5361 -1.0349
 8355SOL    HW236699   4.015   4.159   8.130 -0.0655  3.6561 -1.2342
 8356SOL     OW36700   2.013   2.317   3.430  0.3252 -0.5505 -0.4447
 8356SOL    HW136701   1.924   2.352   3.435  0.3831 -0.4988  0.3141
 8356SOL    HW236702   2.047   2.366   3.505  0.5426  0.4467 -1.1927
 8357SOL     OW36703   0.225   3.539   0.754  0.6438  0.4120  0.1193
 8357SOL    HW136704   0.194   3.572   0.670  0.1645  1.8757  0.8766
 8357SOL    HW236705   0.275   3.614   0.786  3.8805 -1.6184 -0.1546
 8358SOL     OW36706   2.618   1.159   3.268  0.0796 -0.2599 -0.0597
 8358SOL    HW136707   2.638   1.216   3.342 -0.8233 -1.7309  1.3109
 8358SOL    HW236708   2.692   1.180   3.211 -0.0173  0.6159  0.1457
 8359SOL     OW36709   2.073   0.694   5.326 -0.1756 -0.1787 -0.1671
 8359SOL    HW136710   1.990   0.704   5.281 -0.5692  0.2229  0.6515
 8359SOL    HW236711   2.053   0.639   5.402  0.1265 -1.4583 -1.0135
 8360SOL     OW36712   1.036   4.675   9.320  0.5395 -0.0580  0.1923
 8360SOL    HW136713   1.071   4.591   9.289  2.8448  0.8254  0.3628
 8360SOL    HW236714   0.964   4.681   9.259  0.7880  0.0381 -0.0908
 8361SOL     OW36715   3.968   2.798   2.402 -0.3309 -0.3805 -0.5406
 8361SOL    HW136716   3.954   2.719   2.349 -0.0704 -0.3463 -0.6647
 8361SOL    HW236717   3.881   2.831   2.421  0.8735  1.8644  1.0576
 8362SOL     OW36718   1.930   4.259  12.786  0.3628 -0.3889  0.5762
 8362SOL    HW136719   1.963   4.327  12.845  2.2308 -0.8701  0.0641
 8362SOL    HW236720   1.968   4.271  12.699  3.2772  0.8821  2.0014
 8363SOL     OW36721   2.269   1.598  13.587  0.5723 -0.5218 -0.2731
 8363SOL    HW136722   2.348   1.639  13.621 -0.1735 -1.7159  2.8862
 8363SOL    HW236723   2.266   1.512  13.628  0.6927 -0.4619 -0.1392
 8364SOL     OW36724   1.176   2.275   4.079 -0.8337  0.3741  0.7401
 8364SOL    HW136725   1.133   2.215   4.018  0.1225 -2.3971  2.7715
 8364SOL    HW236726   1.205   2.211   4.145  0.0208  0.3312  0.3155
 8365SOL     OW36727   0.962   3.025  13.014  0.3340  0.0435 -0.2277
 8365SOL    HW136728   0.979   3.025  13.108  1.1679 -3.2762 -0.3763
 8365SOL    HW236729   0.873   2.989  13.009  0.1799  0.5316 -0.9827
 8366SOL     OW36730   2.754   0.099   4.624  0.3137 -0.1701  0.1310
 8366SOL    HW136731   2.746   0.119   4.531 -0.8388  1.3527  0.5410
 8366SOL    HW236732   2.688   0.154   4.667  0.3547  1.2194 -1.6042
 8367SOL     OW36733   3.240   1.910  16.510  0.0956 -0.1562  0.3835
 8367SOL    HW136734   3.320   1.901  16.561  1.7598 -1.7460 -2.5414
 8367SOL    HW236735   3.212   1.818  16.502 -2.5372  0.6872 -0.2459
 8368SOL     OW36736   2.298   3.920  11.013  0.2217 -0.2610 -0.8140
 8368SOL    HW136737   2.277   3.831  10.987  0.4264 -0.4111 -0.4646
 8368SOL    HW236738   2.245   3.981  10.962  2.0104  0.9135 -1.2501
 8369SOL     OW36739   0.457   4.347  11.982 -0.4298  0.3324 -0.6727
 8369SOL    HW136740   0.534   4.403  11.971 -0.2047 -0.0699 -1.1139
 8369SOL    HW236741   0.491   4.285  11.919  0.4167 -1.7378  1.8199
 8370SOL     OW36742   3.268   3.433   7.346  0.6378  0.2153  0.0137
 8370SOL    HW136743   3.338   3.430   7.281 -1.8469  1.3299 -2.7143
 8370SOL    HW236744   3.300   3.359   7.398  2.0685  1.6973  1.2313
 8371SOL     OW36745   1.463   0.494   5.201  0.8587 -0.1151 -0.2350
 8371SOL    HW136746   1.493   0.453   5.120  1.3997  0.3149 -0.2491
 8371SOL    HW236747   1.541   0.488   5.256 -0.3834 -0.5376  1.4880
 8372SOL     OW36748   2.316   4.446   5.492 -0.3607 -0.8664  0.5555
 8372SOL    HW136749   2.271   4.368   5.524  0.5165 -1.7892 -0.4498
 8372SOL    HW236750   2.377   4.415   5.426 -0.5413 -0.4165  0.1707
 8373SOL     OW36751   2.283   0.592   2.734  0.7544 -0.3325  0.0077
 8373SOL    HW136752   2.316   0.595   2.644  0.2100  1.1385 -0.1513
 8373SOL    HW236753   2.301   0.504   2.766 -0.1773 -0.8486 -0.8678
 8374SOL     OW36754   4.154   4.483   4.224 -0.2672  0.0702  0.4028
 8374SOL    HW136755   4.075   4.519   4.264 -2.2462 -1.6074 -2.0026
 8374SOL    HW236756   4.185   4.566   4.186  4.5816 -1.5022  0.9196
 8375SOL     OW36757   1.722   2.040   4.509  0.0865 -0.1805 -0.2524
 8375SOL    HW136758   1.637   2.027   4.552 -0.7523 -0.7530 -2.1073
 8375SOL    HW236759   1.701   1.996   4.427 -1.4422  0.2972 -0.1223
 8376SOL     OW36760   1.425   3.091   5.184 -0.4981  0.2040 -0.8800
 8376SOL    HW136761   1.506   3.123   5.224 -1.5982  1.5808  0.2273
 8376SOL    HW236762   1.407   3.156   5.116 -0.2224 -0.2596 -1.3965
 8377SOL     OW36763   0.385   1.261  15.893  0.0578 -0.3958 -0.1524
 8377SOL    HW136764   0.409   1.350  15.866 -1.3655  0.4406  1.3951
 8377SOL    HW236765   0.334   1.219  15.823 -1.4647  1.0260  0.1183
 8378SOL     OW36766   3.839   2.857  13.914 -0.1225 -0.4468  0.3095
 8378SOL    HW136767   3.826   2.867  13.820 -1.6329  1.2452  0.6982
 8378SOL    HW236768   3.868   2.947  13.927  0.2430 -0.3616 -1.1514
 8379SOL     OW36769   0.274   1.579   3.077  0.0834 -0.3162  0.2236
 8379SOL    HW136770   0.280   1.510   3.011  0.0424  0.3780 -0.4923
 8379SOL    HW236771   0.247   1.524   3.151 -3.5298  0.4841 -0.4704
 8380SOL     OW36772   0.679   1.915   7.802  0.4270  0.1675  0.5551
 8380SOL    HW136773   0.698   1.922   7.896 -3.1314  0.0079  1.2904
 8380SOL    HW236774   0.617   1.842   7.790  3.4983 -2.4669  0.6603
 8381SOL     OW36775   4.072   1.864   6.584  0.2217 -0.4168  0.2719
 8381SOL    HW136776   4.153   1.813   6.587  0.1395 -0.7992 -4.4541
 8381SOL    HW236777   4.014   1.796   6.550 -1.3471 -1.1280  4.3058
 8382SOL     OW36778   2.437   2.624   2.224  0.0564 -0.4800  0.2086
 8382SOL    HW136779   2.506   2.586   2.169 -1.3291 -1.3341 -0.9238
 8382SOL    HW236780   2.487   2.612   2.305 -0.0917 -1.8006  0.1174
 8383SOL     OW36781   2.808   1.586   6.429  0.1606  0.4038 -0.3199
 8383SOL    HW136782   2.716   1.567   6.409  0.2283 -1.6596  1.2856
 8383SOL    HW236783   2.815   1.662   6.371 -1.7395  0.1569 -0.8811
 8384SOL     OW36784   0.546   0.376   0.657 -0.3330 -0.2414 -0.0141
 8384SOL    HW136785   0.464   0.425   0.647  2.0100  3.3800 -1.5376
 8384SOL    HW236786   0.568   0.365   0.564  0.0119  1.4975 -0.1471
 8385SOL     OW36787   2.500   4.135   7.714 -0.2532  0.4396  0.3410
 8385SOL    HW136788   2.570   4.168   7.770 -0.1580 -0.3678  0.6993
 8385SOL    HW236789   2.520   4.042   7.702  0.0380  0.4561  0.6901
 8386SOL     OW36790   0.667   4.129   6.623  0.3863 -0.2625 -0.7917
 8386SOL    HW136791   0.676   4.157   6.714 -0.3418 -0.7772 -0.5619
 8386SOL    HW236792   0.725   4.053   6.628 -1.8799 -2.0692 -1.9577
 8387SOL     OW36793   2.637   3.872   7.508 -0.5027  0.1893 -0.4620
 8387SOL    HW136794   2.689   3.791   7.506  0.6291  0.9187 -0.0119
 8387SOL    HW236795   2.614   3.878   7.601  0.5434  2.1235 -0.3390
 8388SOL     OW36796   2.754   3.938   0.149 -0.2217  0.0932 -0.7390
 8388SOL    HW136797   2.814   3.972   0.215 -1.0089  2.0395 -1.0244
 8388SOL    HW236798   2.745   3.845   0.168 -0.0907 -0.1525 -1.8272
 8389SOL     OW36799   3.371   1.871  12.142 -0.4890 -0.7143 -0.3608
 8389SOL    HW136800   3.319   1.871  12.062  0.1573 -0.9150 -0.7849
 8389SOL    HW236801   3.432   1.942  12.121  0.1945 -0.9169  0.9048
 8390SOL     OW36802   0.887   3.253   1.764 -0.3036 -0.0801 -0.1113
 8390SOL    HW136803   0.905   3.171   1.719 -1.9985  0.4711 -1.8029
 8390SOL    HW236804   0.808   3.276   1.716 -0.3584 -0.1188 -0.0400
 8391SOL     OW36805   3.303   2.364   7.473 -0.3980  0.4633 -0.1481
 8391SOL    HW136806   3.253   2.410   7.406 -0.3320 -2.0617 -1.9348
 8391SOL    HW236807   3.346   2.293   7.426 -3.3170 -0.2649 -1.7182
 8392SOL     OW36808   3.875   3.929   4.566  0.3832  0.4347 -0.2070
 8392SOL    HW136809   3.824   3.858   4.607  2.0848 -1.3506 -1.1985
 8392SOL    HW236810   3.869   4.003   4.627 -2.5788 -0.2999  0.4231
 8393SOL     OW36811   0.959   0.293  16.093  0.6989 -0.2084 -0.0148
 8393SOL    HW136812   0.938   0.304  16.000 -1.3475 -4.2207 -0.0320
 8393SOL    HW236813   1.028   0.230  16.072  2.0070  0.8635  1.0614
 8394SOL     OW36814   2.791   3.644   7.563 -0.1381 -0.3917 -0.8071
 8394SOL    HW136815   2.756   3.555   7.553 -2.3566  0.4313 -0.3957
 8394SOL    HW236816   2.881   3.619   7.585 -0.6267 -1.8327 -0.4161
 8395SOL     OW36817   4.385   0.448   5.046 -0.6213 -0.2318 -0.7875
 8395SOL    HW136818   4.416   0.473   5.133  2.3752  1.2429 -2.2849
 8395SOL    HW236819   4.336   0.523   5.014  1.1645  0.6378 -1.4704
 8396SOL     OW36820   3.862   1.788  14.832  0.4177  0.2328  0.3702
 8396SOL    HW136821   3.903   1.874  14.842  0.8239  0.0497  0.2306
 8396SOL    HW236822   3.838   1.775  14.924  0.6326 -0.2341  0.3587
 8397SOL     OW36823   1.681   2.691   2.137 -0.0839 -0.0075 -0.0315
 8397SOL    HW136824   1.717   2.618   2.188  0.8834 -1.2150 -2.4592
 8397SOL    HW236825   1.646   2.641   2.064  0.1924  2.3384 -1.7403
 8398SOL     OW36826   3.766   1.757   1.872  0.0709 -0.1995  0.3158
 8398SOL    HW136827   3.748   1.845   1.839 -1.2233 -0.6267 -0.1474
 8398SOL    HW236828   3.678   1.738   1.905 -0.2494  1.3197  0.3224
 8399SOL     OW36829   0.093   0.605   1.182 -0.2590  0.2946  0.8120
 8399SOL    HW136830   0.007   0.591   1.221 -0.9280 -0.6943 -1.0352
 8399SOL    HW236831   0.128   0.677   1.235  2.1054 -0.9460  0.9353
 8400SOL     OW36832   0.067   1.650   2.504 -0.3099  0.1530 -0.6678
 8400SOL    HW136833   4.734   1.598   2.464  0.9861 -1.8168 -0.3716
 8400SOL    HW236834   0.135   1.600   2.460  0.9366  1.5676 -0.3389
 8401SOL     OW36835   2.011   3.680   8.935 -0.0269 -0.2022  0.0155
 8401SOL    HW136836   1.977   3.631   8.860  0.4835 -0.8211  0.1907
 8401SOL    HW236837   2.082   3.738   8.907 -0.9122 -0.6471 -3.1864
 8402SOL     OW36838   2.277   4.147   8.813 -0.0047 -0.1419  0.1376
 8402SOL    HW136839   2.356   4.202   8.806 -0.3401  0.5553  1.9673
 8402SOL    HW236840   2.240   4.174   8.897 -1.0446 -2.0685  0.2959
 8403SOL     OW36841   0.989   1.949   6.513  0.0811 -0.6672 -0.1111
 8403SOL    HW136842   1.012   2.037   6.544  0.6436 -1.7658  2.5923
 8403SOL    HW236843   1.065   1.929   6.459 -0.2788  1.3621 -1.3560
 8404SOL     OW36844   3.710   0.678  15.350  0.3857 -0.5415 -0.2377
 8404SOL    HW136845   3.705   0.619  15.275  0.3432 -0.6776 -0.1306
 8404SOL    HW236846   3.707   0.756  15.296 -0.8159  0.0277  0.6493
 8405SOL     OW36847   3.753   2.623  12.015 -0.4905  0.3065  0.3853
 8405SOL    HW136848   3.712   2.641  11.930 -0.7259  0.9063  0.6256
 8405SOL    HW236849   3.840   2.663  12.010  1.0643 -3.0496  0.5472
 8406SOL     OW36850   4.223   3.351  12.180 -0.2837  0.1786  0.1746
 8406SOL    HW136851   4.138   3.342  12.223 -0.1286  1.6214  0.7600
 8406SOL    HW236852   4.231   3.444  12.198 -2.0318  0.3131  0.2933
 8407SOL     OW36853   4.048   2.605  13.566 -0.3498 -0.1189  0.3645
 8407SOL    HW136854   3.971   2.550  13.579 -1.1031  0.8401  0.0153
 8407SOL    HW236855   4.013   2.694  13.558  0.4950  0.2220  0.4335
 8408SOL     OW36856   4.453   2.650   8.542  0.1321  0.5172  0.4798
 8408SOL    HW136857   4.508   2.618   8.471 -0.9766 -1.4092  0.4874
 8408SOL    HW236858   4.403   2.574   8.572  0.3692  0.2123  0.1060
 8409SOL     OW36859   0.882   0.701  11.519 -0.1993 -0.5709 -0.1109
 8409SOL    HW136860   0.839   0.778  11.481  3.0474  2.2318  1.8611
 8409SOL    HW236861   0.942   0.748  11.576 -0.3489  0.0287 -0.4471
 8410SOL     OW36862   3.392   2.319   5.132 -0.8579  0.2788 -0.0906
 8410SOL    HW136863   3.387   2.344   5.224 -0.2169  0.9161 -0.2360
 8410SOL    HW236864   3.322   2.377   5.100 -1.4139 -0.1153  0.4225
 8411SOL     OW36865   1.464   2.476   2.956 -0.1085 -0.0852 -0.6712
 8411SOL    HW136866   1.425   2.532   2.889  1.4809  1.5577 -0.2184
 8411SOL    HW236867   1.381   2.446   2.993  0.5289 -0.9494  0.0486
 8412SOL     OW36868   2.112   2.201   1.737  0.5029 -0.3822  0.0420
 8412SOL    HW136869   2.041   2.249   1.695  1.5588  1.6899  0.6095
 8412SOL    HW236870   2.088   2.115   1.703  2.5517 -1.1257  0.4354
 8413SOL     OW36871   2.030   1.757   9.865 -0.4429 -0.0714  0.3016
 8413SOL    HW136872   2.030   1.745   9.770  1.0764  0.2972  0.2505
 8413SOL    HW236873   2.050   1.667   9.890 -0.8779 -1.2372 -3.6654
 8414SOL     OW36874   1.202   1.898   3.596  0.0263  0.3960  0.0726
 8414SOL    HW136875   1.296   1.915   3.603  0.6160 -2.6124 -0.7258
 8414SOL    HW236876   1.160   1.984   3.592 -0.6225  0.0053 -1.6910
 8415SOL     OW36877   3.499   0.045   6.891 -0.0042  0.0336 -0.0702
 8415SOL    HW136878   3.473   0.119   6.945 -2.0982  0.1065 -1.2134
 8415SOL    HW236879   3.512   4.709   6.951 -0.6741 -1.0547 -1.2400
 8416SOL     OW36880   0.233   1.235  17.681  0.0439  0.4906 -0.0159
 8416SOL    HW136881   0.195   1.189  17.606  0.9681 -1.2983  0.6241
 8416SOL    HW236882   0.187   1.195   0.009  1.2424 -1.5144 -0.3580
 8417SOL     OW36883   4.564   0.591   1.468  0.3186 -0.7393 -0.0260
 8417SOL    HW136884   4.563   0.575   1.373 -0.8140 -0.1099 -0.1176
 8417SOL    HW236885   4.653   0.573   1.498  0.4964 -2.1115 -1.3653
 8418SOL     OW36886   1.181   0.458  12.828 -0.1313  0.1343  0.6803
 8418SOL    HW136887   1.156   0.466  12.920 -1.2843  0.7022  0.3180
 8418SOL    HW236888   1.276   0.470  12.831  0.2147 -2.7412  1.1765
 8419SOL     OW36889   2.844   2.002   6.074 -0.5391  0.2424  0.1435
 8419SOL    HW136890   2.794   1.953   6.140  1.2989 -2.7791 -0.6625
 8419SOL    HW236891   2.839   1.940   6.001  1.1981 -1.9341  1.8639
 8420SOL     OW36892   4.174   4.109  10.359  0.5753  0.4111 -0.2401
 8420SOL    HW136893   4.233   4.164  10.308  1.4549 -1.1313 -0.8409
 8420SOL    HW236894   4.225   4.029  10.368  1.0407  0.7222 -0.0919
 8421SOL     OW36895   4.162   2.636  17.180  0.1152 -0.4630 -0.0453
 8421SOL    HW136896   4.154   2.584  17.100 -2.1349 -3.7474  2.3119
 8421SOL    HW236897   4.234   2.599  17.231  0.0875 -0.6020 -0.1080
 8422SOL     OW36898   2.079   1.478   7.434 -0.4914  0.3345  0.2843
 8422SOL    HW136899   2.098   1.470   7.527  0.1852  2.4596  0.3354
 8422SOL    HW236900   2.124   1.400   7.402  2.3566  1.3049  1.9558
 8423SOL     OW36901   4.504   2.782   5.691 -0.4619  0.2721 -0.0077
 8423SOL    HW136902   4.499   2.840   5.615  2.9261 -2.3427 -2.2538
 8423SOL    HW236903   4.595   2.753   5.688 -0.5381  0.3170 -2.5357
 8424SOL     OW36904   3.462   1.867   3.112 -0.1610 -0.5701  0.1583
 8424SOL    HW136905   3.366   1.864   3.105 -0.1721  0.0796  0.0934
 8424SOL    HW236906   3.484   1.811   3.037 -2.6943 -1.4177  0.0352
 8425SOL     OW36907   1.449   0.754   1.541 -0.2056 -0.1753  0.3777
 8425SOL    HW136908   1.504   0.723   1.613  0.4411  4.6549  1.9835
 8425SOL    HW236909   1.513   0.789   1.480  0.2656 -0.6033  0.6270
 8426SOL     OW36910   1.432   1.352   6.917  0.4801  0.2016 -0.5968
 8426SOL    HW136911   1.521   1.319   6.904 -0.1983 -1.3795 -1.1297
 8426SOL    HW236912   1.440   1.391   7.004 -1.2338 -0.3500 -0.1940
 8427SOL     OW36913   4.248   3.278  12.455 -0.6127  0.2199  0.2354
 8427SOL    HW136914   4.324   3.294  12.399 -0.1829 -0.2314  0.6924
 8427SOL    HW236915   4.290   3.237  12.530  0.0132 -0.3637 -0.4411
 8428SOL     OW36916   2.114   1.660   2.576 -0.8835  0.1390  0.0867
 8428SOL    HW136917   2.177   1.732   2.581 -1.1719  0.3251  1.0410
 8428SOL    HW236918   2.103   1.654   2.481  0.0954 -0.5102  0.0094
 8429SOL     OW36919   0.100   3.575  10.351 -0.1025 -0.0302 -0.6778
 8429SOL    HW136920   0.104   3.541  10.261 -2.8488  1.1397 -1.2498
 8429SOL    HW236921   0.189   3.553  10.379 -0.6781  0.5024  1.5449
 8430SOL     OW36922   3.045   0.974   2.572 -0.3855  0.6232 -0.0423
 8430SOL    HW136923   3.115   0.957   2.636  0.6975  2.3291 -0.7713
 8430SOL    HW236924   3.104   1.021   2.513  1.7738 -2.9235 -0.7283
 8431SOL     OW36925   1.249   4.295   3.403 -0.4679 -0.3435  0.2439
 8431SOL    HW136926   1.223   4.209   3.371  2.2684 -0.8821 -0.5163
 8431SOL    HW236927   1.303   4.274   3.479 -2.1503 -1.5426  1.1167
 8432SOL     OW36928   2.519   2.934   6.451  0.0102 -0.2300  0.5701
 8432SOL    HW136929   2.563   3.008   6.494  0.6484  0.8979 -2.0142
 8432SOL    HW236930   2.568   2.854   6.472 -3.2184 -2.0088  1.2452
 8433SOL     OW36931   1.996   0.446   4.607 -0.3450 -0.2923 -0.4773
 8433SOL    HW136932   1.913   0.493   4.602 -0.1327  0.1778  0.3978
 8433SOL    HW236933   2.060   0.514   4.629 -1.2452 -0.5048  2.7636
 8434SOL     OW36934   4.209   2.146  13.427 -1.1825  0.6665 -0.0854
 8434SOL    HW136935   4.270   2.087  13.472  1.8335  1.5558 -3.0446
 8434SOL    HW236936   4.130   2.123  13.476 -0.6552  1.1947  1.0325
 8435SOL     OW36937   3.252   1.351   5.038 -0.7191  0.3860  0.0556
 8435SOL    HW136938   3.226   1.318   5.124  0.5040 -0.4337  0.1148
 8435SOL    HW236939   3.344   1.326   5.025 -0.9162  0.3968 -1.4304
 8436SOL     OW36940   1.758   1.518   2.758 -0.2040 -0.1378 -0.5441
 8436SOL    HW136941   1.850   1.519   2.731 -0.1739 -0.9664 -0.4825
 8436SOL    HW236942   1.753   1.580   2.830 -0.9516  0.1969 -0.8854
 8437SOL     OW36943   2.981   3.921   7.523  0.5933  0.1102 -0.1364
 8437SOL    HW136944   2.888   3.905   7.539  0.2502  2.0178 -0.2219
 8437SOL    HW236945   3.010   3.920   7.615  1.3756  1.4529 -0.3707
 8438SOL     OW36946   2.414   3.978  10.496 -0.1014 -0.1935 -0.6581
 8438SOL    HW136947   2.330   4.018  10.473  0.9546  1.5130 -1.5061
 8438SOL    HW236948   2.395   3.888  10.469  1.7564 -0.9447  0.5280
 8439SOL     OW36949   2.238   1.392   5.355  0.2995 -0.1089  0.0696
 8439SOL    HW136950   2.248   1.341   5.274 -1.0040  2.7070 -1.8601
 8439SOL    HW236951   2.308   1.340   5.393  0.0236 -1.3193 -1.0569
 8440SOL     OW36952   0.392   0.155  13.122  0.1786  0.3277 -0.2459
 8440SOL    HW136953   0.452   0.226  13.100  0.3010  0.1209 -0.5716
 8440SOL    HW236954   0.442   0.105  13.187 -0.9855 -1.2557 -0.5514
 8441SOL     OW36955   4.043   0.526   0.378  0.3735 -0.6849  0.2860
 8441SOL    HW136956   4.052   0.596   0.314  1.4311  0.3072  1.5300
 8441SOL    HW236957   4.134   0.517   0.409  0.6382 -0.0744 -0.3100
 8442SOL     OW36958   1.326   1.144   7.384  0.1334 -0.6744 -0.7406
 8442SOL    HW136959   1.270   1.075   7.420 -1.3391  0.2390 -1.2911
 8442SOL    HW236960   1.255   1.207   7.371 -0.5935 -1.8076 -2.2035
 8443SOL     OW36961   2.602   4.578   6.418  0.4938  0.0514 -0.1850
 8443SOL    HW136962   2.631   4.551   6.331  1.2715 -1.8002  0.6400
 8443SOL    HW236963   2.621   4.670   6.402  2.8189 -0.4780 -0.5701
 8444SOL     OW36964   0.447   1.388   9.218 -0.2408 -0.0815  0.1318
 8444SOL    HW136965   0.530   1.343   9.231 -1.2669 -1.8201  0.7020
 8444SOL    HW236966   0.389   1.313   9.204 -0.4406  0.0167  0.4225
 8445SOL     OW36967   2.621   2.154  15.202 -0.9144  0.3144  0.4779
 8445SOL    HW136968   2.670   2.083  15.245 -1.1996  0.6233  1.3156
 8445SOL    HW236969   2.533   2.130  15.231 -1.1044 -1.2650 -1.4072
 8446SOL     OW36970   2.078   2.871  17.368  0.0352  0.0791 -0.2632
 8446SOL    HW136971   2.107   2.960  17.389 -1.0184  1.0024 -2.7773
 8446SOL    HW236972   2.165   2.833  17.377  0.9475  1.5741 -2.7697
 8447SOL     OW36973   4.610   4.358   3.050  0.8494 -0.1859  0.2628
 8447SOL    HW136974   4.612   4.449   3.078  0.5698 -0.6299  1.7016
 8447SOL    HW236975   4.541   4.382   2.988  1.3308  2.3340  0.7054
 8448SOL     OW36976   2.514   2.117   3.670  0.1879 -0.0225  0.0588
 8448SOL    HW136977   2.434   2.128   3.618 -1.0223  1.4963  2.2392
 8448SOL    HW236978   2.577   2.112   3.599  0.3619  2.0268  0.0758
 8449SOL     OW36979   0.321   1.254  16.930  0.3735 -0.3419  0.2289
 8449SOL    HW136980   0.383   1.221  16.865  1.3285  0.0592  0.9467
 8449SOL    HW236981   0.252   1.264  16.864 -1.8077 -0.6792  2.4696
 8450SOL     OW36982   2.796   1.750   3.767  0.9760  0.0224  0.3092
 8450SOL    HW136983   2.862   1.685   3.741  2.6438  1.7915  0.1826
 8450SOL    HW236984   2.841   1.834   3.772  0.3094  0.5212 -2.0272
 8451SOL     OW36985   3.949   2.863  16.127 -0.0769 -0.5477  0.6519
 8451SOL    HW136986   3.945   2.950  16.089 -0.6600 -1.2629 -0.9439
 8451SOL    HW236987   3.857   2.835  16.130 -0.8076  1.6574 -1.5579
 8452SOL     OW36988   3.271   2.311   9.166 -0.2021  0.1986  0.2630
 8452SOL    HW136989   3.247   2.303   9.258  3.0068  0.6759  1.1428
 8452SOL    HW236990   3.201   2.370   9.139 -1.0101 -1.1132 -0.4880
 8453SOL     OW36991   4.486   1.486   3.699 -0.1934  0.0783 -0.4934
 8453SOL    HW136992   4.444   1.550   3.756  1.9021  0.3537  0.7448
 8453SOL    HW236993   4.521   1.419   3.758  2.1198  0.2124 -1.6920
 8454SOL     OW36994   2.212   1.725  14.625 -0.3789  0.4846  0.2080
 8454SOL    HW136995   2.268   1.663  14.579 -2.2117 -1.5126  0.6522
 8454SOL    HW236996   2.136   1.672  14.652 -0.5643  0.3908 -0.4975
 8455SOL     OW36997   2.571   0.108  12.880  0.0115  0.7239  0.2398
 8455SOL    HW136998   2.636   0.142  12.942  1.0307 -1.7313  0.5274
 8455SOL    HW236999   2.554   0.179  12.818  4.5837  1.1721 -0.5040
 8456SOL     OW37000   1.490   2.876   3.115 -0.7391  0.0481 -0.2712
 8456SOL    HW137001   1.580   2.886   3.147 -0.4238 -1.5725 -0.6227
 8456SOL    HW237002   1.477   2.783   3.137  2.6035 -0.5285 -0.6069
 8457SOL     OW37003   1.524   1.825   5.461  0.5033  0.0958 -0.0039
 8457SOL    HW137004   1.500   1.828   5.369  2.0705 -0.4528 -0.4172
 8457SOL    HW237005   1.611   1.864   5.457  1.2133 -1.4235  0.5139
 8458SOL     OW37006   0.306   3.450  14.504  0.1675  0.6530 -0.1796
 8458SOL    HW137007   0.211   3.456  14.500  0.1649  0.9770  0.4167
 8458SOL    HW237008   0.310   3.394  14.582 -0.6734  1.0177  0.1226
 8459SOL     OW37009   4.699   0.603  14.865  0.1700 -0.0058  0.4536
 8459SOL    HW137010   4.652   0.587  14.947 -0.4463  1.6707  0.4111
 8459SOL    HW237011   4.644   0.558  14.801  1.5149 -2.2707  0.8901
 8460SOL     OW37012   1.274   0.403   7.903 -0.0590 -0.3474  0.0454
 8460SOL    HW137013   1.281   0.335   7.970 -0.4317 -1.4155 -1.0170
 8460SOL    HW237014   1.180   0.393   7.888 -0.0359  2.0338 -1.6347
 8461SOL     OW37015   3.244   3.284   8.592  0.6264  0.8436 -0.6221
 8461SOL    HW137016   3.194   3.220   8.642  1.2071  1.3761  0.6481
 8461SOL    HW237017   3.295   3.329   8.660  1.0110  0.1624 -0.4569
 8462SOL     OW37018   1.675   3.686   5.569 -0.0380  0.7146  0.2440
 8462SOL    HW137019   1.668   3.608   5.625 -1.6489 -0.2003 -1.2002
 8462SOL    HW237020   1.657   3.645   5.484 -1.0636  0.0258  0.7895
 8463SOL     OW37021   3.214   1.570  10.208 -0.5340 -0.1757  0.1447
 8463SOL    HW137022   3.189   1.487  10.251 -0.1735 -1.3026 -1.8377
 8463SOL    HW237023   3.307   1.555  10.192 -0.7137 -2.4180  1.1090
 8464SOL     OW37024   1.058   1.791   0.658 -0.4415 -0.0700  0.2230
 8464SOL    HW137025   1.025   1.711   0.697  2.1571 -1.1227  0.2731
 8464SOL    HW237026   0.993   1.798   0.588  0.8830  1.1615 -0.9025
 8465SOL     OW37027   0.862   3.270   8.150  0.2280 -0.6865 -0.3521
 8465SOL    HW137028   0.939   3.215   8.164  0.0504 -0.8952 -0.1881
 8465SOL    HW237029   0.797   3.208   8.117 -0.0604 -0.4343 -0.2539
 8466SOL     OW37030   3.364   1.683   3.865  0.3641  0.2709  0.2087
 8466SOL    HW137031   3.450   1.724   3.873  0.0818  0.5772  1.6352
 8466SOL    HW237032   3.341   1.703   3.956  0.8498  0.1941  0.3502
 8467SOL     OW37033   2.249   3.718  10.790 -0.5312 -0.1445 -0.3147
 8467SOL    HW137034   2.290   3.632  10.797  2.1960  1.2189  0.4661
 8467SOL    HW237035   2.193   3.717  10.712  1.0548 -0.2748 -1.4579
 8468SOL     OW37036   2.918   1.190   4.515 -0.2468 -0.2376 -0.0990
 8468SOL    HW137037   2.914   1.278   4.552  0.8035 -0.4964  0.6423
 8468SOL    HW237038   2.871   1.140   4.582  0.1016 -0.6108 -0.1339
 8469SOL     OW37039   4.026   3.420  14.631 -0.1423  0.8094 -0.3915
 8469SOL    HW137040   4.031   3.332  14.669 -2.0493  0.6454 -0.5268
 8469SOL    HW237041   4.100   3.463  14.674  1.4886 -0.2050 -2.2331
 8470SOL     OW37042   2.209   2.622   6.099 -0.6263  0.0654 -0.1362
 8470SOL    HW137043   2.222   2.533   6.064 -1.0082 -0.3343  0.7352
 8470SOL    HW237044   2.284   2.632   6.157 -0.6214  3.3965 -0.7295
 8471SOL     OW37045   2.740   1.765   7.968 -0.3591 -0.5999  0.0847
 8471SOL    HW137046   2.731   1.759   8.064  0.8815 -0.6392  0.1976
 8471SOL    HW237047   2.662   1.716   7.941 -0.3498 -0.5258 -0.0716
 8472SOL     OW37048   3.891   0.717   8.846 -0.3179  0.0019  0.2870
 8472SOL    HW137049   3.898   0.807   8.877 -0.5118 -0.8849  2.9614
 8472SOL    HW237050   3.798   0.702   8.827  0.3092 -0.5686 -2.3445
 8473SOL     OW37051   0.689   4.107  16.138  0.2209  0.0872  0.5392
 8473SOL    HW137052   0.784   4.106  16.127  0.1251 -0.2202 -0.2772
 8473SOL    HW237053   0.669   4.030  16.084  0.9038  0.2253  0.0823
 8474SOL     OW37054   2.196   4.515   3.280  0.3799  0.7377 -0.0842
 8474SOL    HW137055   2.197   4.583   3.347 -0.0616  0.3759  0.2829
 8474SOL    HW237056   2.109   4.477   3.292  0.1107  0.5930 -2.3731
 8475SOL     OW37057   4.088   2.759   6.049 -0.0782 -0.1211  0.0036
 8475SOL    HW137058   4.156   2.769   6.116  0.0687 -0.2905 -0.1208
 8475SOL    HW237059   4.027   2.830   6.070  2.2563  1.4392  1.5877
 8476SOL     OW37060   2.865   3.792   5.010 -0.1541  0.0507  0.5417
 8476SOL    HW137061   2.785   3.739   5.011 -0.5743  0.6594 -1.6366
 8476SOL    HW237062   2.820   3.873   4.989 -0.2562 -0.3415 -0.7621
 8477SOL     OW37063   2.138   0.174   9.989 -0.0888 -0.0483 -0.5118
 8477SOL    HW137064   2.169   0.246   9.933  2.2192  1.8259  3.0810
 8477SOL    HW237065   2.185   0.097   9.958 -0.4597 -0.3338 -0.3480
 8478SOL     OW37066   1.616   1.397   6.127 -0.3647 -0.5028 -0.2430
 8478SOL    HW137067   1.646   1.417   6.038  0.7117 -0.0624  0.2160
 8478SOL    HW237068   1.698   1.374   6.170 -0.2514 -1.3808 -0.9201
 8479SOL     OW37069   0.256   3.462  17.691  0.2255 -0.1408  0.0380
 8479SOL    HW137070   0.316   3.403  17.646  0.7234  1.2182 -1.0992
 8479SOL    HW237071   0.311   3.509   0.007 -1.0822  1.3491  0.0669
 8480SOL     OW37072   3.069   2.538   4.417 -0.3819  0.3699 -0.7736
 8480SOL    HW137073   3.136   2.606   4.408  0.2028  0.1087  1.6071
 8480SOL    HW237074   3.051   2.499   4.331 -3.7758  0.4909 -0.1116
 8481SOL     OW37075   3.991   0.259   5.248 -0.3334  0.0333  0.2843
 8481SOL    HW137076   4.065   0.211   5.211 -1.2199 -1.3838  0.3471
 8481SOL    HW237077   4.018   0.262   5.339  0.3124 -0.1803  0.1021
 8482SOL     OW37078   4.153   4.414   3.427 -0.1918  0.6603  0.3059
 8482SOL    HW137079   4.235   4.429   3.381 -1.6639  1.8330 -1.9133
 8482SOL    HW237080   4.099   4.467   3.368 -0.2918 -0.0578 -0.2542
 8483SOL     OW37081   4.020   0.801   5.762 -0.8347 -0.1379  0.1552
 8483SOL    HW137082   3.957   0.829   5.827 -0.7708  1.7813 -0.6051
 8483SOL    HW237083   3.968   0.796   5.682  0.5038  1.2957 -0.8033
 8484SOL     OW37084   3.656   1.429   1.870  0.0707  0.5112 -0.1108
 8484SOL    HW137085   3.585   1.489   1.893  1.4675  1.6943  1.0931
 8484SOL    HW237086   3.678   1.472   1.787  1.6209  1.4616  0.8127
 8485SOL     OW37087   1.345   1.770  13.670 -0.7295  0.0260  0.0269
 8485SOL    HW137088   1.382   1.691  13.709 -0.5000  0.1352  0.0271
 8485SOL    HW237089   1.326   1.817  13.751  1.4322 -1.7347  1.5387
 8486SOL     OW37090   3.261   4.352   5.638 -0.3955 -0.1182  0.3721
 8486SOL    HW137091   3.320   4.426   5.625 -2.2055  0.6818 -3.2340
 8486SOL    HW237092   3.274   4.344   5.733 -1.9011  2.1147  0.7717
 8487SOL     OW37093   1.090   3.434   4.565  0.6676  0.7515  0.0186
 8487SOL    HW137094   1.136   3.361   4.524 -1.1010 -0.3476 -0.0011
 8487SOL    HW237095   1.012   3.394   4.604  2.0002 -1.3257  0.5193
 8488SOL     OW37096   3.986   0.740  15.126  0.1983  0.2906 -0.1639
 8488SOL    HW137097   3.994   0.804  15.197  1.0821  2.1480 -1.9536
 8488SOL    HW237098   3.939   0.788  15.058 -0.1798 -0.6648 -0.5688
 8489SOL     OW37099   1.261   0.142  12.423  0.2374 -0.1449  1.0852
 8489SOL    HW137100   1.274   0.205  12.493 -0.0553  1.1845 -0.0477
 8489SOL    HW237101   1.300   0.192  12.351 -0.3959 -2.5416 -0.9370
 8490SOL     OW37102   3.392   3.278   9.260 -0.7685  0.5573 -0.1634
 8490SOL    HW137103   3.484   3.255   9.247 -1.1709 -0.9702 -0.3167
 8490SOL    HW237104   3.389   3.368   9.292  0.9281  0.1311  1.1655
 8491SOL     OW37105   0.068   3.552   5.918 -0.3095 -0.7125 -0.6233
 8491SOL    HW137106   0.019   3.475   5.947  1.6354 -1.3103  1.0580
 8491SOL    HW237107   4.733   3.615   5.921 -0.1961 -0.5515 -1.2021
 8492SOL     OW37108   2.100   4.347  10.162 -0.1834 -0.1201 -0.5643
 8492SOL    HW137109   2.018   4.310  10.194  0.1765 -0.4537 -0.0165
 8492SOL    HW237110   2.086   4.341  10.068  0.2287 -1.1430 -0.5565
 8493SOL     OW37111   4.281   1.409   2.425 -0.0371 -0.2232  0.2870
 8493SOL    HW137112   4.344   1.480   2.441  0.4485  0.1425 -3.3084
 8493SOL    HW237113   4.253   1.386   2.514 -0.2370 -0.9075  0.0448
 8494SOL     OW37114   1.412   3.973   1.867  0.0687  0.2341 -0.3842
 8494SOL    HW137115   1.460   4.023   1.933  0.7535 -2.0317  0.8404
 8494SOL    HW237116   1.321   4.003   1.874 -0.0107 -0.2530  0.7115
 8495SOL     OW37117   3.500   2.723   8.719 -0.5664 -0.4119  0.1072
 8495SOL    HW137118   3.548   2.728   8.636 -2.3695  0.4043 -0.8767
 8495SOL    HW237119   3.409   2.728   8.690 -0.4857 -3.9794 -0.8218
 8496SOL     OW37120   2.304   2.964   6.603 -0.1133  0.5979  0.9100
 8496SOL    HW137121   2.226   2.911   6.593 -0.2134  1.1441 -1.4072
 8496SOL    HW237122   2.372   2.919   6.552 -0.8620  1.3492 -0.7486
 8497SOL     OW37123   1.407   0.590   9.536  0.0301  0.4178 -0.2523
 8497SOL    HW137124   1.354   0.633   9.468 -0.4888  0.4198  0.1471
 8497SOL    HW237125   1.492   0.620   9.504 -0.7457  2.2216 -0.6040
 8498SOL     OW37126   0.356   4.478   8.190 -0.4456 -0.7598 -0.1141
 8498SOL    HW137127   0.289   4.465   8.123 -1.1064 -1.3069  0.6634
 8498SOL    HW237128   0.297   4.459   8.263 -0.6995  0.6994  0.0643
 8499SOL     OW37129   1.676   3.090   9.488 -0.3076 -0.0769  0.3782
 8499SOL    HW137130   1.679   2.999   9.460 -1.0185 -0.0955  0.3775
 8499SOL    HW237131   1.681   3.079   9.583  0.2685  1.0771  0.4900
 8500SOL     OW37132   3.792   3.081   6.994  0.0861  0.0559 -0.1679
 8500SOL    HW137133   3.755   3.114   6.912  0.8582 -1.3439 -1.0685
 8500SOL    HW237134   3.779   3.155   7.053 -4.2555 -2.7321  2.3544
 8501SOL     OW37135   2.262   0.146   3.095  0.0636 -0.2785  0.3382
 8501SOL    HW137136   2.318   0.224   3.099 -0.0382 -0.3892  3.7827
 8501SOL    HW237137   2.260   0.118   3.187 -0.5467  0.2235  0.4727
 8502SOL     OW37138   4.414   1.350   8.843  0.3694 -0.0826  0.6356
 8502SOL    HW137139   4.359   1.289   8.794 -1.5513  1.2311  1.1831
 8502SOL    HW237140   4.349   1.415   8.868  0.2846 -0.0822  0.4160
 8503SOL     OW37141   1.665   0.328   1.828  0.3772  0.2171 -0.3432
 8503SOL    HW137142   1.733   0.345   1.763 -1.2798  1.2439 -1.8175
 8503SOL    HW237143   1.713   0.334   1.910 -2.0578 -3.5505  1.3860
 8504SOL     OW37144   0.203   1.146  13.481 -0.6102  0.3299 -0.6299
 8504SOL    HW137145   0.153   1.103  13.550  1.1951 -0.4502  0.1993
 8504SOL    HW237146   0.289   1.148  13.524 -0.2698  2.0522 -1.3937
 8505SOL     OW37147   3.182   3.218   6.304  0.5091  0.2676 -0.6722
 8505SOL    HW137148   3.121   3.167   6.250  0.0703  0.7729 -0.6492
 8505SOL    HW237149   3.134   3.282   6.355 -0.7928 -1.1920 -0.0594
 8506SOL     OW37150   3.564   1.022   1.605 -0.3786  0.4016 -0.1091
 8506SOL    HW137151   3.648   1.067   1.614  0.2263 -0.6127 -0.6376
 8506SOL    HW237152   3.524   1.045   1.689  0.9462 -1.2370  0.9403
 8507SOL     OW37153   0.312   1.761  13.165  0.4286  0.0856  0.2835
 8507SOL    HW137154   0.261   1.710  13.228 -1.1644  0.8121 -0.4223
 8507SOL    HW237155   0.389   1.708  13.144  0.2400  1.0402 -2.8047
 8508SOL     OW37156   2.097   3.159   6.288  0.0179  0.9777 -0.5983
 8508SOL    HW137157   2.116   3.239   6.239  1.2703  0.6784 -0.6102
 8508SOL    HW237158   2.082   3.190   6.377 -1.6111 -2.7841  0.4213
 8509SOL     OW37159   0.681   0.583  15.602  0.2142 -0.3860  0.3672
 8509SOL    HW137160   0.712   0.602  15.691  0.1696  1.8670 -0.1026
 8509SOL    HW237161   0.749   0.619  15.546 -0.3091 -1.5493 -1.0098
 8510SOL     OW37162   0.854   3.332   8.555 -0.4712 -0.3981  0.1684
 8510SOL    HW137163   0.890   3.248   8.524 -1.0902 -1.0612  1.2387
 8510SOL    HW237164   0.828   3.310   8.644 -3.3478 -1.1552 -0.8507
 8511SOL     OW37165   0.278   0.773   2.343 -0.1204 -0.3455 -0.2598
 8511SOL    HW137166   0.359   0.726   2.323 -0.1980 -0.5658 -0.0539
 8511SOL    HW237167   0.226   0.754   2.266 -3.7538 -1.9008  2.5738
 8512SOL     OW37168   1.106   0.876   8.556  0.1636  0.3400 -0.1154
 8512SOL    HW137169   1.106   0.785   8.587  0.5803  0.2342 -0.4165
 8512SOL    HW237170   1.046   0.866   8.483  0.0166 -0.9538  0.1737
 8513SOL     OW37171   4.571   0.389  13.985 -0.4486  0.0244 -0.2555
 8513SOL    HW137172   4.485   0.397  14.026  0.3045  0.6889  1.1811
 8513SOL    HW237173   4.592   0.296  13.999 -0.1224  0.1148 -0.1550
 8514SOL     OW37174   2.482   3.680   1.371  0.0373  0.6835  0.0999
 8514SOL    HW137175   2.568   3.720   1.385  0.4541 -0.4267  0.6533
 8514SOL    HW237176   2.431   3.745   1.419 -2.2116  0.0042 -1.3701
 8515SOL     OW37177   3.229   0.037   0.911 -0.1857  0.2033  0.0117
 8515SOL    HW137178   3.281   4.694   0.919 -3.8373 -2.1261  0.2049
 8515SOL    HW237179   3.274   0.087   0.842  3.2061  0.9871  2.8226
 8516SOL     OW37180   1.409   1.460   7.993 -0.1321 -0.1380 -0.2876
 8516SOL    HW137181   1.495   1.476   8.032  0.4248 -3.3138 -0.2088
 8516SOL    HW237182   1.351   1.406   8.047  0.6885  0.6965  1.4219
 8517SOL     OW37183   1.234   1.716   6.639 -0.1067  0.5197  0.6045
 8517SOL    HW137184   1.229   1.715   6.734  2.1202 -0.3703  0.7092
 8517SOL    HW237185   1.265   1.627   6.619 -0.0381  1.1970 -2.3765
 8518SOL     OW37186   2.125   3.562   1.114 -0.3682 -0.4269  0.4584
 8518SOL    HW137187   2.146   3.531   1.026 -2.3257 -0.0311 -0.1523
 8518SOL    HW237188   2.082   3.645   1.093  1.5479  1.0720  2.5562
 8519SOL     OW37189   4.391   3.320   7.349  0.2544  0.0210 -0.2772
 8519SOL    HW137190   4.378   3.227   7.362 -1.3226  0.0793 -1.5021
 8519SOL    HW237191   4.376   3.354   7.437 -1.1593 -0.9757 -0.1430
 8520SOL     OW37192   2.892   3.011   8.151 -0.1048 -0.1519 -1.2592
 8520SOL    HW137193   2.958   2.961   8.103 -0.9288  1.4084 -4.0209
 8520SOL    HW237194   2.857   3.072   8.086 -2.0803 -0.7403 -0.7532
 8521SOL     OW37195   0.346   2.834  16.566  0.2406  0.1496  0.6157
 8521SOL    HW137196   0.277   2.840  16.500 -0.1937  2.3624  1.2883
 8521SOL    HW237197   0.331   2.747  16.604 -0.4473  0.2176  0.4929
 8522SOL     OW37198   4.636   1.322   3.864 -0.1496  0.5498 -0.2958
 8522SOL    HW137199   4.615   1.320   3.957  0.8414 -2.3318 -0.1359
 8522SOL    HW237200   4.729   1.301   3.867  0.0458  1.5201  0.2353
 8523SOL     OW37201   0.434   4.234   5.494  0.4586  0.1014  1.2297
 8523SOL    HW137202   0.409   4.321   5.525  0.3111  0.2343  0.7361
 8523SOL    HW237203   0.493   4.255   5.422 -0.9028  2.0702  0.6927
 8524SOL     OW37204   3.235   1.741  12.369 -0.1455 -0.7225  0.2412
 8524SOL    HW137205   3.269   1.805  12.307  2.2023 -0.5399  1.7359
 8524SOL    HW237206   3.259   1.652  12.343 -2.5944 -1.4399  0.3423
 8525SOL     OW37207   2.176   3.385  17.248  0.5134  0.2962  0.3451
 8525SOL    HW137208   2.218   3.467  17.223  0.9111 -0.2916 -0.9521
 8525SOL    HW237209   2.216   3.319  17.191 -2.4224 -0.9832 -0.2147
 8526SOL     OW37210   3.405   3.008   8.723 -0.5012 -0.0724  0.2262
 8526SOL    HW137211   3.397   3.001   8.628 -0.9119 -0.4212  0.2868
 8526SOL    HW237212   3.499   3.025   8.734 -0.3515 -1.1174  0.5666
 8527SOL     OW37213   2.629   0.892  13.071  0.6295  0.4046  0.0457
 8527SOL    HW137214   2.669   0.908  13.156 -0.4932  1.1983  0.4364
 8527SOL    HW237215   2.664   0.809  13.041 -0.2986  0.0874 -0.1852
 8528SOL     OW37216   4.360   1.185   3.180 -1.0064 -0.5658 -0.3557
 8528SOL    HW137217   4.342   1.142   3.096 -2.0239  2.1079 -1.5090
 8528SOL    HW237218   4.309   1.260   3.148 -1.9223 -0.9475  0.2272
 8529SOL     OW37219   1.585   4.107   4.873  0.2464 -0.1983  0.2077
 8529SOL    HW137220   1.564   4.163   4.948  1.8484 -1.0888  1.3236
 8529SOL    HW237221   1.669   4.139   4.842  0.7549  0.3677  2.1449
 8530SOL     OW37222   3.267   1.912   4.736  0.0513  0.2341 -0.6633
 8530SOL    HW137223   3.252   1.996   4.780  0.6589  0.2319 -0.4621
 8530SOL    HW237224   3.214   1.846   4.780  2.0658  0.3740  1.9521
 8531SOL     OW37225   4.516   2.294   3.689  0.5210  0.1123  0.2768
 8531SOL    HW137226   4.438   2.239   3.679 -0.0983  0.8073  1.2977
 8531SOL    HW237227   4.580   2.233   3.652  0.4814  0.2879 -0.0868
 8532SOL     OW37228   1.806   4.048   7.387 -0.0437  0.5234 -0.1537
 8532SOL    HW137229   1.757   3.968   7.367 -0.6721  0.8064  0.2597
 8532SOL    HW237230   1.772   4.102   7.317 -1.7796 -0.4963 -0.0952
 8533SOL     OW37231   0.140   1.664   7.558  0.2924  0.4733  0.0530
 8533SOL    HW137232   0.048   1.684   7.573 -0.2430 -2.5393  0.9234
 8533SOL    HW237233   0.168   1.640   7.647  1.4036  2.1401  0.1593
 8534SOL     OW37234   3.245   4.290   7.375 -0.2398 -0.2514 -0.2587
 8534SOL    HW137235   3.224   4.365   7.431  0.6265 -0.8825  0.9035
 8534SOL    HW237236   3.275   4.345   7.302 -1.3142 -1.3531 -1.5199
 8535SOL     OW37237   2.096   1.021   3.243 -0.1963 -0.5017 -0.2446
 8535SOL    HW137238   2.144   1.100   3.266 -0.2681 -0.5005 -0.1014
 8535SOL    HW237239   2.108   1.021   3.148 -1.9525  4.4424 -0.4364
 8536SOL     OW37240   2.605   0.276   7.808  0.1235  0.1076 -0.0911
 8536SOL    HW137241   2.584   0.327   7.730  1.9559 -0.3829 -0.8862
 8536SOL    HW237242   2.542   0.319   7.866 -0.2727 -0.1336 -0.3426
 8537SOL     OW37243   3.957   4.504   2.330 -0.3761  0.3693  0.7466
 8537SOL    HW137244   3.997   4.584   2.295 -4.0396  1.9696  0.2211
 8537SOL    HW237245   3.912   4.545   2.403 -2.0818  2.5703 -1.5460
 8538SOL     OW37246   1.427   2.801   4.915 -0.1757  0.1023  0.1468
 8538SOL    HW137247   1.361   2.846   4.966  0.4198  0.8443  0.2534
 8538SOL    HW237248   1.515   2.831   4.940  0.9034 -2.2215 -0.7833
 8539SOL     OW37249   0.484   1.050   3.443 -0.3084 -0.2797 -0.3667
 8539SOL    HW137250   0.518   1.130   3.403 -0.0219 -0.4688 -0.4980
 8539SOL    HW237251   0.395   1.069   3.413 -0.2969 -0.1395 -0.3099
 8540SOL     OW37252   4.264   2.860   3.166 -0.0414  0.3164 -0.5308
 8540SOL    HW137253   4.357   2.838   3.177 -0.4178 -0.1443  1.7705
 8540SOL    HW237254   4.263   2.931   3.102 -2.6085  0.2054 -0.6052
 8541SOL     OW37255   3.547   2.603   6.688  0.6979  0.0459 -0.2015
 8541SOL    HW137256   3.636   2.630   6.666  0.3968  1.1767 -0.0112
 8541SOL    HW237257   3.492   2.667   6.643  1.2240  1.3823  1.0710
 8542SOL     OW37258   1.370   2.523   5.691  0.2521 -0.0506  0.7561
 8542SOL    HW137259   1.317   2.556   5.763  1.0525  0.9202  0.8969
 8542SOL    HW237260   1.331   2.438   5.672  2.1545 -0.5403 -1.0028
 8543SOL     OW37261   4.616   1.737   7.579 -0.0106  0.4821 -0.1790
 8543SOL    HW137262   4.559   1.719   7.504 -1.2206 -1.2623  1.1376
 8543SOL    HW237263   4.557   1.717   7.652  2.1892 -1.7258  0.9929
 8544SOL     OW37264   3.334   0.930  10.088 -0.0956  0.2088  0.5186
 8544SOL    HW137265   3.251   0.948  10.132 -1.5681 -1.3633 -1.6394
 8544SOL    HW237266   3.338   1.003  10.027  2.0567  0.5137  1.0077
 8545SOL     OW37267   0.976   2.474   7.338 -0.1530 -0.5051  0.4849
 8545SOL    HW137268   0.979   2.533   7.263 -2.0225 -0.6223  0.3333
 8545SOL    HW237269   0.902   2.420   7.309 -0.1744  0.5063 -1.3912
 8546SOL     OW37270   1.117   1.697  17.341 -0.3122  0.3020 -0.3086
 8546SOL    HW137271   1.038   1.730  17.298 -1.8499  0.7652  2.8835
 8546SOL    HW237272   1.099   1.729  17.429 -0.5354 -1.5355  0.3050
 8547SOL     OW37273   3.874   2.764   7.840 -0.2624 -0.4889  0.4917
 8547SOL    HW137274   3.839   2.711   7.913 -3.7153 -1.5752 -1.9554
 8547SOL    HW237275   3.885   2.850   7.880  1.7684 -0.7429  0.4585
 8548SOL     OW37276   2.726   2.088   6.796  0.2971 -0.3211  0.8224
 8548SOL    HW137277   2.635   2.112   6.782 -0.1252 -1.1851  2.1478
 8548SOL    HW237278   2.758   2.171   6.830 -2.4583  1.2319 -0.3885
 8549SOL     OW37279   2.513   1.417   7.152  0.2035 -0.1576 -0.6471
 8549SOL    HW137280   2.540   1.477   7.082  2.4031 -0.6036 -0.1834
 8549SOL    HW237281   2.421   1.419   7.126  0.4152 -2.9043 -1.6074
 8550SOL     OW37282   2.323   1.755   3.590  0.2317 -0.9918 -0.1038
 8550SOL    HW137283   2.308   1.721   3.502  1.7617  1.7948 -1.4320
 8550SOL    HW237284   2.409   1.795   3.586  0.7688 -1.9681  1.4736
 8551SOL     OW37285   1.540   4.289   5.077  0.8693 -0.1236  0.1601
 8551SOL    HW137286   1.619   4.312   5.126  0.9726  0.4712 -0.2872
 8551SOL    HW237287   1.488   4.250   5.147  0.7006  1.4490  0.9075
 8552SOL     OW37288   2.063   3.227   7.990  0.3485  0.2017 -0.0008
 8552SOL    HW137289   2.155   3.224   8.013  0.2449 -3.0666 -0.0201
 8552SOL    HW237290   2.030   3.163   8.054 -0.4463 -0.7525 -1.3643
 8553SOL     OW37291   2.798   0.779  13.527  0.1031  0.1240  0.5147
 8553SOL    HW137292   2.872   0.838  13.542  1.5468 -1.7685  0.8080
 8553SOL    HW237293   2.831   0.732  13.450 -3.5096 -0.2929 -0.7778
 8554SOL     OW37294   1.398   3.985  17.415 -0.2282 -0.7111 -0.2918
 8554SOL    HW137295   1.419   3.919  17.349 -1.1941 -2.0062  0.7044
 8554SOL    HW237296   1.433   4.066  17.378  0.7960 -1.5442 -1.1480
 8555SOL     OW37297   2.142   2.939   3.462  0.1876 -0.3818  0.7123
 8555SOL    HW137298   2.154   2.921   3.369  1.5539  0.3578  0.7557
 8555SOL    HW237299   2.193   2.869   3.503 -1.7477 -1.2620  1.6329
 8556SOL     OW37300   2.855   0.528   7.086  0.2850 -0.1162 -0.0673
 8556SOL    HW137301   2.822   0.613   7.115  0.1100 -0.0752 -0.3897
 8556SOL    HW237302   2.949   0.538   7.095  0.2419  0.6139 -0.4737
 8557SOL     OW37303   3.889   1.518   8.938 -0.3962 -0.4783  0.6396
 8557SOL    HW137304   3.848   1.463   8.872 -0.0036 -2.1396  1.7812
 8557SOL    HW237305   3.808   1.556   8.974 -1.0581 -1.0268 -0.2645
 8558SOL     OW37306   2.430   1.805   8.050  0.4867 -0.0549 -0.6011
 8558SOL    HW137307   2.398   1.875   7.993 -2.3274  1.2002  2.5101
 8558SOL    HW237308   2.416   1.840   8.138 -1.2860 -2.3590  0.0313
 8559SOL     OW37309   2.481   3.390  17.197  0.1315  0.4678 -0.6280
 8559SOL    HW137310   2.449   3.313  17.150 -0.1094 -0.6632  1.4261
 8559SOL    HW237311   2.419   3.461  17.178 -1.6269 -1.2985 -1.4547
 8560SOL     OW37312   2.750   2.871   2.930  0.2914 -0.2997 -0.3129
 8560SOL    HW137313   2.724   2.925   3.005 -0.4699  1.4323 -1.8474
 8560SOL    HW237314   2.670   2.860   2.880 -1.7341  1.0345  2.6508
 8561SOL     OW37315   2.905   3.937  11.153  1.4147  0.2267  0.5186
 8561SOL    HW137316   2.836   3.965  11.093  2.8400 -1.1579 -1.7461
 8561SOL    HW237317   2.864   3.854  11.179 -0.4594  0.9241 -0.1744
 8562SOL     OW37318   3.016   2.651   7.471 -0.2433 -0.5651  0.2579
 8562SOL    HW137319   2.980   2.653   7.560  0.6397  0.9445  0.5818
 8562SOL    HW237320   3.108   2.667   7.495 -0.0289  0.3293 -1.1663
 8563SOL     OW37321   1.897   3.310   8.438  0.1243  0.2991  0.3769
 8563SOL    HW137322   1.978   3.347   8.405 -0.5303  0.3483 -1.1785
 8563SOL    HW237323   1.832   3.377   8.416 -0.3416 -0.6195 -1.1198
 8564SOL     OW37324   3.836   2.320   7.701  0.4063  0.2685  0.3735
 8564SOL    HW137325   3.870   2.345   7.787  2.0551  1.1988 -0.5487
 8564SOL    HW237326   3.800   2.232   7.714  2.1516 -0.4267  0.5489
 8565SOL     OW37327   0.318   2.966   4.888  0.5238  0.4602  0.1580
 8565SOL    HW137328   0.280   3.054   4.885  1.1420  0.7510  0.7207
 8565SOL    HW237329   0.401   2.994   4.927  0.7205  2.5631 -1.7432
 8566SOL     OW37330   3.348   3.715  13.810  0.7548  0.1050 -0.3771
 8566SOL    HW137331   3.355   3.694  13.717  0.6238 -1.0253 -0.1291
 8566SOL    HW237332   3.425   3.772  13.818  1.7674 -1.2874 -0.1073
 8567SOL     OW37333   4.135   4.189  12.642  0.4331  0.0319 -0.2158
 8567SOL    HW137334   4.108   4.171  12.731 -0.1211 -0.8041 -0.5535
 8567SOL    HW237335   4.219   4.143  12.637 -0.0647 -1.0843  1.7412
 8568SOL     OW37336   1.933   4.362   3.334 -0.4167  0.3439  0.0833
 8568SOL    HW137337   1.943   4.271   3.306  0.5798  0.3456  0.4142
 8568SOL    HW237338   1.912   4.398   3.248  2.3234 -1.2424 -1.2790
 8569SOL     OW37339   0.395   2.260   1.346  0.3183  0.6489  0.3069
 8569SOL    HW137340   0.352   2.216   1.420  2.5382  0.3663  1.4079
 8569SOL    HW237341   0.483   2.271   1.382  1.1643 -1.0886 -1.2629
 8570SOL     OW37342   1.834   4.420   2.648  0.1324  0.4531  0.3422
 8570SOL    HW137343   1.870   4.508   2.662 -0.1443  0.6594 -0.2590
 8570SOL    HW237344   1.864   4.389   2.563  1.6779  0.0688  1.0309
 8571SOL     OW37345   2.450   1.393  10.098 -0.4255  0.0622 -0.4118
 8571SOL    HW137346   2.365   1.366  10.132  0.1820 -0.3548  0.7806
 8571SOL    HW237347   2.476   1.322  10.040  1.5159 -1.2673  2.0732
 8572SOL     OW37348   1.847   1.791   4.975  0.3137  0.2259 -0.2426
 8572SOL    HW137349   1.817   1.703   4.998  0.2761  0.7156  1.6348
 8572SOL    HW237350   1.941   1.775   4.968  0.5142  0.9763  0.6351
 8573SOL     OW37351   3.796   2.313   3.607  0.9102  0.1954  0.0493
 8573SOL    HW137352   3.832   2.269   3.530 -0.0826 -4.7319  2.4256
 8573SOL    HW237353   3.707   2.279   3.607  0.6007  1.0325  1.3388
 8574SOL     OW37354   2.892   0.283   2.731  0.4619  0.4793 -0.5509
 8574SOL    HW137355   2.815   0.287   2.674  0.1106  1.0935 -0.0345
 8574SOL    HW237356   2.857   0.305   2.817 -1.7505  3.6355 -2.2439
 8575SOL     OW37357   1.619   2.951   2.184 -0.1394 -0.1111  0.0311
 8575SOL    HW137358   1.681   3.024   2.182 -1.3818  0.9354  0.0159
 8575SOL    HW237359   1.663   2.876   2.145  2.0288 -0.2324  2.6758
 8576SOL     OW37360   2.520   2.158   5.199 -0.1805  0.4557 -0.5421
 8576SOL    HW137361   2.585   2.226   5.220 -0.3518  0.3381  0.3531
 8576SOL    HW237362   2.550   2.086   5.255  1.0582  2.9641  2.0426
 8577SOL     OW37363   4.521   1.962   7.457 -0.3178 -0.0622  0.4721
 8577SOL    HW137364   4.588   1.917   7.509 -0.7033 -3.9777 -2.3851
 8577SOL    HW237365   4.469   1.993   7.530 -1.2979  1.2547 -0.7901
 8578SOL     OW37366   4.161   2.368  10.083  0.0964 -0.5442 -0.2393
 8578SOL    HW137367   4.134   2.359  10.175 -0.1009  1.1691 -0.1232
 8578SOL    HW237368   4.187   2.459  10.074 -0.6153 -0.3933 -0.7651
 8579SOL     OW37369   0.625   0.865   5.520 -0.1907  0.5931  0.3442
 8579SOL    HW137370   0.663   0.809   5.588 -1.0733  1.7023  1.7485
 8579SOL    HW237371   0.585   0.797   5.465  1.6819 -0.8234  0.7341
 8580SOL     OW37372   2.036   3.104   1.225 -0.3618 -0.5491 -0.0978
 8580SOL    HW137373   2.030   3.070   1.136  0.9180  3.1094 -1.5850
 8580SOL    HW237374   2.114   3.159   1.216  0.3394 -1.5358 -0.0722
 8581SOL     OW37375   1.842   3.657   6.737 -0.0115  0.4746  0.2744
 8581SOL    HW137376   1.816   3.676   6.827 -1.2325  0.6355 -0.1046
 8581SOL    HW237377   1.767   3.609   6.701  1.3861 -1.1049 -0.5155
 8582SOL     OW37378   1.655   1.758   9.033 -0.4423 -0.4560  0.0890
 8582SOL    HW137379   1.591   1.768   8.962  0.4421 -0.9959 -0.7973
 8582SOL    HW237380   1.604   1.710   9.098 -0.4936  0.2302  0.5521
 8583SOL     OW37381   1.059   2.846   4.032  0.4906 -0.2375  0.5542
 8583SOL    HW137382   1.116   2.773   4.006 -1.9463 -1.5574 -1.0531
 8583SOL    HW237383   1.023   2.794   4.104  0.9477  2.9596  3.0689
 8584SOL     OW37384   1.314   4.043   3.299  0.4682  0.0909 -0.2053
 8584SOL    HW137385   1.295   3.998   3.216 -2.5868 -2.9467  2.1410
 8584SOL    HW237386   1.298   3.976   3.365  1.4691 -0.0591 -0.1143
 8585SOL     OW37387   1.244   3.966   3.849 -0.2054  0.2357 -0.7931
 8585SOL    HW137388   1.170   3.914   3.881  2.6725 -2.3602  1.6199
 8585SOL    HW237389   1.311   3.901   3.827  0.4909  0.3599  0.9589
 8586SOL     OW37390   3.766   0.892   2.063 -0.0859 -0.0758 -0.0975
 8586SOL    HW137391   3.802   0.884   1.974 -0.3245 -2.4196  0.0185
 8586SOL    HW237392   3.734   0.806   2.089 -0.7039  0.7148  1.7470
 8587SOL     OW37393   1.592   2.537   5.107  0.1253  0.3358 -0.5137
 8587SOL    HW137394   1.610   2.630   5.093 -3.8448  1.6281  2.9260
 8587SOL    HW237395   1.653   2.534   5.181 -2.5272  1.2772  1.6975
 8588SOL     OW37396   0.549   0.200   7.367  0.2860  0.2959 -0.2258
 8588SOL    HW137397   0.463   0.171   7.337 -0.0814  1.3738 -0.2182
 8588SOL    HW237398   0.586   0.216   7.281  0.4296 -0.5685 -0.3191
 8589SOL     OW37399   0.450   4.677  17.196  0.6516 -0.2253 -0.1718
 8589SOL    HW137400   0.495   4.660  17.279  1.2872 -1.1263 -0.6942
 8589SOL    HW237401   0.524   4.721  17.155 -1.2641  4.8432  1.8164
 8590SOL     OW37402   0.366   1.559   2.722  0.0299  0.3044  0.3177
 8590SOL    HW137403   0.434   1.529   2.662 -0.9008 -1.0878 -0.0350
 8590SOL    HW237404   0.310   1.482   2.727 -0.9535  1.0818  1.2174
 8591SOL     OW37405   4.720   1.624   2.093  0.6150  0.1334  0.7213
 8591SOL    HW137406   4.694   1.711   2.121 -0.9784  0.8633 -2.9604
 8591SOL    HW237407   4.683   1.567   2.160 -1.3029  0.4419 -0.0620
 8592SOL     OW37408   2.303   3.815   9.339 -0.5930  0.0207 -0.1837
 8592SOL    HW137409   2.389   3.822   9.380  0.9907  2.0644 -3.8559
 8592SOL    HW237410   2.335   3.831   9.251 -2.3769  1.3603 -0.5933
 8593SOL     OW37411   1.192   1.318  13.341 -0.0498  0.5817  0.4643
 8593SOL    HW137412   1.200   1.412  13.323  0.3532  0.5335  0.3916
 8593SOL    HW237413   1.251   1.299  13.414  0.1236  0.6449  0.3407
 8594SOL     OW37414   1.740   2.941  15.185 -0.1849  0.4022  0.4775
 8594SOL    HW137415   1.835   2.926  15.182 -0.8120 -3.2322 -1.0302
 8594SOL    HW237416   1.707   2.852  15.177  0.8223 -0.0741  1.5636
 8595SOL     OW37417   1.310   2.132  11.088  0.5421 -0.1275 -1.0372
 8595SOL    HW137418   1.400   2.112  11.063  1.1819 -0.3606  1.4136
 8595SOL    HW237419   1.296   2.093  11.174 -2.0880  1.0572 -0.9136
 8596SOL     OW37420   3.126   4.194  17.069  0.5030  0.4096 -0.3259
 8596SOL    HW137421   3.099   4.268  17.015  0.9588  1.6419  1.1451
 8596SOL    HW237422   3.166   4.147  16.996 -1.4212 -0.0838 -1.0659
 8597SOL     OW37423   3.698   2.725   3.422  0.0021 -0.2862  0.3927
 8597SOL    HW137424   3.744   2.672   3.487 -0.2183  0.0821  0.8531
 8597SOL    HW237425   3.661   2.793   3.479  0.1478 -0.3434  0.5543
 8598SOL     OW37426   2.226   4.151   3.071  0.2234 -0.2266  0.2093
 8598SOL    HW137427   2.149   4.203   3.050 -0.1635 -1.2953 -1.0565
 8598SOL    HW237428   2.265   4.155   2.983  1.1779  1.5073  0.7135
 8599SOL     OW37429   1.888   0.670   4.207  0.0273 -0.4789  1.0569
 8599SOL    HW137430   1.881   0.629   4.293 -0.8295  0.3423  1.3747
 8599SOL    HW237431   1.805   0.648   4.166  0.0563 -0.3644  0.9381
 8600SOL     OW37432   2.088   1.304   3.298 -0.0739 -0.1709  0.3194
 8600SOL    HW137433   2.041   1.311   3.215 -1.2190 -0.4217  0.9358
 8600SOL    HW237434   2.011   1.295   3.355  0.8037 -0.7806  1.4049
 8601SOL     OW37435   4.634   3.025   2.965 -0.2431  0.3803 -0.0287
 8601SOL    HW137436   4.613   3.118   2.962 -1.2983  0.2661  3.4352
 8601SOL    HW237437   4.671   3.005   2.879  3.4977 -1.1345  1.9660
 8602SOL     OW37438   1.478   1.675   5.110  0.2788 -0.4196  0.0209
 8602SOL    HW137439   1.495   1.756   5.159 -0.9734 -0.4305  0.4547
 8602SOL    HW237440   1.426   1.624   5.171  2.0468 -0.9452  1.0959
 8603SOL     OW37441   0.460   1.818   6.792 -0.4790  0.2270 -0.5597
 8603SOL    HW137442   0.541   1.796   6.839 -0.6498  0.6920 -0.0590
 8603SOL    HW237443   0.482   1.898   6.745 -1.2902  0.6833 -0.1494
 8604SOL     OW37444   2.338   3.151  12.164 -0.1707  0.5717  0.1367
 8604SOL    HW137445   2.406   3.089  12.139 -0.0731  0.2764  1.1590
 8604SOL    HW237446   2.380   3.184  12.243 -0.6674 -0.3676  0.7811
 8605SOL     OW37447   0.839   3.834   5.877  0.5631  0.4537  0.1661
 8605SOL    HW137448   0.763   3.822   5.820  0.9730 -1.1625 -0.0524
 8605SOL    HW237449   0.807   3.804   5.962  2.6884  0.0138  0.8115
 8606SOL     OW37450   1.243   1.181  11.369 -0.6486  0.7773  0.3387
 8606SOL    HW137451   1.309   1.124  11.329 -2.1603  0.9213 -2.3823
 8606SOL    HW237452   1.173   1.170  11.305 -0.4541 -0.4247  0.3370
 8607SOL     OW37453   0.297   1.404   1.155  0.0362 -0.3411  0.1041
 8607SOL    HW137454   0.364   1.442   1.212  1.4311  0.7724 -2.2834
 8607SOL    HW237455   0.303   1.474   1.090  0.9614 -1.6754 -1.2618
 8608SOL     OW37456   1.815   2.312   3.179 -0.6104 -0.5225  0.1036
 8608SOL    HW137457   1.835   2.238   3.235 -1.1694 -2.2859 -2.0084
 8608SOL    HW237458   1.725   2.339   3.199 -0.1070  1.0652  0.2449
 8609SOL     OW37459   2.728   3.537   5.580 -0.0726 -0.3184  0.0630
 8609SOL    HW137460   2.695   3.482   5.510  0.5820  1.3869 -1.6074
 8609SOL    HW237461   2.821   3.528   5.558  0.3388 -2.2285  2.5366
 8610SOL     OW37462   0.091   2.983  13.435 -0.0902  0.1406 -0.2316
 8610SOL    HW137463   0.072   3.029  13.353 -1.5164  0.1381  0.0894
 8610SOL    HW237464   0.174   3.023  13.459 -0.8982  2.0508 -0.6222
 8611SOL     OW37465   1.173   1.447  10.637  0.1736  0.1421 -0.0652
 8611SOL    HW137466   1.130   1.375  10.591 -0.0254  0.0668  0.2410
 8611SOL    HW237467   1.227   1.478  10.564 -1.3149  3.3117  0.1962
 8612SOL     OW37468   0.886   0.523  16.224 -0.2699 -0.0912 -0.2336
 8612SOL    HW137469   0.935   0.455  16.178  0.7282  0.3096  0.2259
 8612SOL    HW237470   0.888   0.483  16.311 -2.4976  0.0587 -0.1131
 8613SOL     OW37471   1.058   3.851   4.243  0.2050  0.1924 -0.2538
 8613SOL    HW137472   1.091   3.918   4.302  0.1962 -0.7983  0.8684
 8613SOL    HW237473   1.072   3.782   4.308 -0.1586  1.5164  1.2277
 8614SOL     OW37474   3.180   0.528  17.439  0.3018  0.3480 -0.5581
 8614SOL    HW137475   3.182   0.525  17.535  0.2191 -2.8294 -0.6340
 8614SOL    HW237476   3.235   0.454  17.413 -0.6704 -0.3823 -0.5552
 8615SOL     OW37477   2.622   3.996  10.670  0.0110 -0.1285  0.7122
 8615SOL    HW137478   2.549   3.975  10.612 -0.6863  0.6288  1.3207
 8615SOL    HW237479   2.595   4.085  10.692  1.4820  0.5014 -0.0367
 8616SOL     OW37480   2.596   3.018   7.706 -0.0021  0.1775  0.2229
 8616SOL    HW137481   2.662   2.988   7.644  0.5840 -2.1175  1.9641
 8616SOL    HW237482   2.520   3.039   7.653 -1.3094 -2.5623  1.0101
 8617SOL     OW37483   2.876   2.565   6.499  0.1209  0.3067 -0.2624
 8617SOL    HW137484   2.953   2.550   6.553  1.9531  0.3987 -2.8663
 8617SOL    HW237485   2.885   2.488   6.443  0.2522 -0.4982  0.8733
 8618SOL     OW37486   3.738   1.586   1.656  0.6159 -0.2720  0.4525
 8618SOL    HW137487   3.780   1.607   1.573 -0.9920  1.5516  0.0867
 8618SOL    HW237488   3.757   1.664   1.708  1.6332  2.0275 -3.3486
 8619SOL     OW37489   2.003   3.328   4.034  0.2711  0.2021 -0.0579
 8619SOL    HW137490   2.061   3.287   3.970  1.3587  2.9538 -0.8092
 8619SOL    HW237491   1.944   3.384   3.984 -1.5640 -1.1507  0.5923
 8620SOL     OW37492   0.184   4.060   2.294  0.6563 -0.8862  0.0261
 8620SOL    HW137493   0.256   4.067   2.231  1.5863  0.3162  1.2199
 8620SOL    HW237494   0.205   4.136   2.348  1.2771 -1.2151  0.2408
 8621SOL     OW37495   4.519   1.471   7.787  0.4200 -0.1636  0.0205
 8621SOL    HW137496   4.472   1.545   7.748 -0.5631  0.5704  2.5588
 8621SOL    HW237497   4.481   1.483   7.874 -1.2714 -0.3601 -0.7039
 8622SOL     OW37498   3.881   0.414   7.658 -0.3312 -0.2373 -0.5268
 8622SOL    HW137499   3.935   0.492   7.670  2.6120 -2.0101 -2.2841
 8622SOL    HW237500   3.934   0.381   7.586 -0.4672  1.3349 -1.3367
 8623SOL     OW37501   3.668   3.724   6.512 -0.2606 -0.2699  0.0019
 8623SOL    HW137502   3.577   3.752   6.524 -0.1422 -0.1105  0.5694
 8623SOL    HW237503   3.696   3.765   6.430 -1.0409  0.2486 -0.0099
 8624SOL     OW37504   0.932   1.711  11.533  0.1080  0.1053  0.5566
 8624SOL    HW137505   0.942   1.653  11.458  0.7188 -0.4708  1.0755
 8624SOL    HW237506   0.860   1.664  11.576  0.4687 -0.5390  0.4528
 8625SOL     OW37507   2.716   4.363   3.315  0.4541 -0.3646 -0.3356
 8625SOL    HW137508   2.771   4.439   3.297  1.0235 -0.6093  0.3805
 8625SOL    HW237509   2.629   4.382   3.277 -0.0502  0.4174  1.2221
 8626SOL     OW37510   3.746   4.211   5.256 -0.6946 -0.3207 -0.1729
 8626SOL    HW137511   3.766   4.239   5.167  1.1736 -0.2967  0.2577
 8626SOL    HW237512   3.834   4.199   5.291 -0.1533  1.2409 -1.0306
 8627SOL     OW37513   4.686   2.089   3.633  0.0083 -0.0984  0.0910
 8627SOL    HW137514   0.022   2.083   3.694  0.2354  1.3134 -0.0488
 8627SOL    HW237515   4.617   2.032   3.668  0.8321 -0.2103  1.5008
 8628SOL     OW37516   1.177   1.554   8.800 -0.3314  0.4940 -0.2582
 8628SOL    HW137517   1.220   1.512   8.875  0.5722  1.1929 -0.3827
 8628SOL    HW237518   1.175   1.477   8.744 -3.0876  1.4343 -1.4441
 8629SOL     OW37519   2.982   3.986   2.865  0.3391 -0.2942  0.2978
 8629SOL    HW137520   3.039   3.962   2.939  1.8142 -0.4925 -0.9016
 8629SOL    HW237521   2.895   3.966   2.898  0.6609  0.5668  1.6600
 8630SOL     OW37522   0.855   2.215   7.865  0.1482  0.5549 -0.3023
 8630SOL    HW137523   0.923   2.235   7.929 -2.2416 -1.9576  2.9787
 8630SOL    HW237524   0.904   2.146   7.820  0.7583  0.0716  1.1241
 8631SOL     OW37525   3.018   2.027   5.452 -0.3373 -0.7870 -0.1706
 8631SOL    HW137526   3.109   2.048   5.431 -0.8787 -1.4136 -3.1256
 8631SOL    HW237527   3.018   2.047   5.546  1.0078  0.4034 -0.4165
 8632SOL     OW37528   1.279   0.304  15.893  0.4158 -0.3165 -0.0731
 8632SOL    HW137529   1.371   0.311  15.917  0.9733 -1.9210 -1.7594
 8632SOL    HW237530   1.250   0.232  15.949 -1.2067  0.2215 -0.2208
 8633SOL     OW37531   0.473   2.327   3.393 -0.3261  0.1729 -0.1288
 8633SOL    HW137532   0.512   2.414   3.406 -0.8070  0.2482  0.8249
 8633SOL    HW237533   0.425   2.305   3.473  0.4925  0.5465  0.4741
 8634SOL     OW37534   1.526   0.973  15.935 -0.3920 -0.1263 -0.3927
 8634SOL    HW137535   1.618   0.972  15.962  0.0387 -1.7947 -1.9840
 8634SOL    HW237536   1.483   0.992  16.019  0.0293 -0.3697 -0.1176
 8635SOL     OW37537   1.374   2.631   1.401  0.1115 -0.4273  0.1725
 8635SOL    HW137538   1.304   2.624   1.466 -1.8083 -1.4772 -2.0464
 8635SOL    HW237539   1.404   2.720   1.422 -1.8710 -0.9724  5.2031
 8636SOL     OW37540   2.816   3.026  13.030  0.2014 -0.2941 -0.0197
 8636SOL    HW137541   2.829   3.045  12.937  0.0888 -1.0238 -0.1834
 8636SOL    HW237542   2.893   3.070  13.064 -1.3517  1.6935  0.9255
 8637SOL     OW37543   4.721   2.249   6.968 -0.1780  0.1642 -0.0720
 8637SOL    HW137544   4.693   2.283   6.883 -0.7505  0.5666  0.2762
 8637SOL    HW237545   4.690   2.159   6.962  1.1134 -0.3230  0.4627
 8638SOL     OW37546   2.289   4.459  11.882 -0.3669  0.0202 -0.0916
 8638SOL    HW137547   2.344   4.535  11.901 -0.7243  0.5294 -1.1030
 8638SOL    HW237548   2.329   4.433  11.799 -0.0627  0.0577  0.0448
 8639SOL     OW37549   3.291   1.433  11.154 -0.2319  0.6800 -0.8395
 8639SOL    HW137550   3.250   1.494  11.215 -1.6177  1.0227 -2.1341
 8639SOL    HW237551   3.241   1.434  11.073  1.3942  0.9760 -1.8490
 8640SOL     OW37552   3.766   1.090   2.277 -0.5902 -0.0312  0.0860
 8640SOL    HW137553   3.784   1.008   2.230  0.7708 -0.3321  1.1343
 8640SOL    HW237554   3.726   1.139   2.205 -1.9119  2.1966  2.3189
 8641SOL     OW37555   2.182   3.469   4.743 -0.2690  0.2373  0.1365
 8641SOL    HW137556   2.096   3.434   4.765 -0.6475  0.9956 -0.1423
 8641SOL    HW237557   2.183   3.549   4.796  0.4655 -0.9563  1.9265
 8642SOL     OW37558   3.092   4.126   4.589  0.2339  0.4316  0.4197
 8642SOL    HW137559   3.160   4.176   4.542  0.0946  2.4279  2.3339
 8642SOL    HW237560   3.073   4.055   4.527  0.6702  0.4472  0.2659
 8643SOL     OW37561   2.848   0.060   9.357 -0.6876 -0.0244 -0.5874
 8643SOL    HW137562   2.841   4.713   9.404 -1.0546  0.9521  1.0904
 8643SOL    HW237563   2.909   0.102   9.417 -0.8552 -1.1375  0.3814
 8644SOL     OW37564   0.894   0.678   3.141 -0.1499 -0.3970  1.4139
 8644SOL    HW137565   0.854   0.717   3.218 -1.0512  1.4438  0.0145
 8644SOL    HW237566   0.840   0.725   3.077 -1.8973 -1.3364  2.1989
 8645SOL     OW37567   0.599   1.161   7.773 -0.1061  0.1369  0.0970
 8645SOL    HW137568   0.532   1.096   7.752 -1.3838  0.4133  3.2604
 8645SOL    HW237569   0.540   1.235   7.766  0.7541  0.6400 -1.7680
 8646SOL     OW37570   2.515   0.764   8.277 -0.1163 -0.1558  0.2070
 8646SOL    HW137571   2.547   0.682   8.240  2.6156  0.9048  0.2786
 8646SOL    HW237572   2.544   0.761   8.368  0.6639 -0.3286 -0.0515
 8647SOL     OW37573   1.725   2.376   8.435 -0.3729  0.0895  0.0923
 8647SOL    HW137574   1.739   2.468   8.458 -1.1040  0.4341 -0.8454
 8647SOL    HW237575   1.806   2.330   8.457 -0.3779  0.0906  0.1127
 8648SOL     OW37576   4.730   3.551   3.003  0.2708 -0.2126 -0.0992
 8648SOL    HW137577   0.070   3.565   3.057  0.8371 -2.7565 -0.2395
 8648SOL    HW237578   4.725   3.637   2.961 -0.9749 -0.3401 -0.2074
 8649SOL     OW37579   4.304   4.450   7.307  0.0541 -0.4195 -0.0945
 8649SOL    HW137580   4.350   4.366   7.304  0.5837 -0.1779  1.5503
 8649SOL    HW237581   4.286   4.465   7.214  4.0445  2.9504 -0.2998
 8650SOL     OW37582   1.212   2.128   1.392 -0.3258  0.4626  0.0346
 8650SOL    HW137583   1.134   2.081   1.418 -0.3853  0.6265  0.1524
 8650SOL    HW237584   1.173   2.183   1.323 -0.2060  0.2676 -0.1894
 8651SOL     OW37585   4.075   3.966  15.313  0.2214 -0.7041  0.2790
 8651SOL    HW137586   4.013   3.894  15.317 -0.4223 -0.2810 -1.8714
 8651SOL    HW237587   4.100   3.959  15.221 -1.4701  0.6558 -0.2925
 8652SOL     OW37588   1.214   1.262   9.150  0.5695  0.0605 -0.4027
 8652SOL    HW137589   1.305   1.231   9.152  0.9519  1.0938 -1.5554
 8652SOL    HW237590   1.220   1.334   9.086  0.6516 -0.2126 -0.7026
 8653SOL     OW37591   2.139   2.583   2.653 -0.2433  0.0847 -0.1371
 8653SOL    HW137592   2.076   2.655   2.656  0.4114  0.6484  0.1451
 8653SOL    HW237593   2.128   2.546   2.565 -1.9411  1.0598 -0.3345
 8654SOL     OW37594   3.523   0.006  16.194 -0.6934 -0.2528  0.2544
 8654SOL    HW137595   3.594   4.728  16.257 -1.0920 -0.9474  0.5422
 8654SOL    HW237596   3.552   4.698  16.115  0.3764 -0.1350  0.5767
 8655SOL     OW37597   4.729   0.404   5.247  0.5898  0.1407  0.3343
 8655SOL    HW137598   4.681   0.487   5.252 -0.0232 -0.2850  1.3595
 8655SOL    HW237599   0.042   0.421   5.166 -0.0092 -0.7387 -0.2214
 8656SOL     OW37600   2.502   1.490   8.355 -0.1816  0.2227 -0.3146
 8656SOL    HW137601   2.467   1.543   8.426  1.1482 -0.5083  0.8924
 8656SOL    HW237602   2.476   1.404   8.388  3.5517 -0.6010  0.4636
 8657SOL     OW37603   2.842   3.083   3.878  0.2668  0.0865 -0.2492
 8657SOL    HW137604   2.797   3.091   3.962  1.1914 -0.0136  0.2617
 8657SOL    HW237605   2.930   3.114   3.899  0.9475 -1.9787 -0.0865
 8658SOL     OW37606   2.705   1.788  12.869  0.1434  0.6919 -0.4729
 8658SOL    HW137607   2.717   1.856  12.935  1.1217  0.5202 -0.4772
 8658SOL    HW237608   2.790   1.747  12.883  0.8670  2.2736 -0.1617
 8659SOL     OW37609   3.632   0.098   3.107  0.3035  0.1900 -0.2205
 8659SOL    HW137610   3.546   0.115   3.069  0.5222  1.9097  0.0788
 8659SOL    HW237611   3.679   0.176   3.078 -1.6038  2.0159  1.6675
 8660SOL     OW37612   4.047   1.166   6.260 -0.3508  0.9401 -0.4217
 8660SOL    HW137613   3.998   1.241   6.294  2.0108  2.0609  0.4532
 8660SOL    HW237614   3.998   1.096   6.303  1.2203  0.5720  0.7314
 8661SOL     OW37615   2.218   2.873   6.018  0.5276  0.3358 -0.5350
 8661SOL    HW137616   2.269   2.870   6.100  1.1256 -1.4552 -0.9719
 8661SOL    HW237617   2.185   2.784   6.007 -1.0902  0.6069  2.1833
 8662SOL     OW37618   1.580   0.902   6.703 -0.0124  0.2138 -0.6181
 8662SOL    HW137619   1.503   0.956   6.721 -0.0462  0.7919 -2.5149
 8662SOL    HW237620   1.589   0.933   6.613  2.7905 -0.6348 -0.6462
 8663SOL     OW37621   0.075   1.035  15.489 -0.6700 -0.4737  0.0925
 8663SOL    HW137622   0.074   1.026  15.394 -0.4870  1.4224 -0.1022
 8663SOL    HW237623   0.049   1.127  15.503  0.0890 -0.3736  0.8675
 8664SOL     OW37624   0.813   4.677   9.176  0.1604  0.7523 -0.2672
 8664SOL    HW137625   0.828   4.582   9.175 -3.5800  0.1569 -0.4759
 8664SOL    HW237626   0.724   4.688   9.142 -0.4777 -1.2597  0.7453
 8665SOL     OW37627   4.451   1.669   9.300 -0.1960  0.4091 -0.2769
 8665SOL    HW137628   4.417   1.589   9.259 -1.4295  1.4456 -1.2749
 8665SOL    HW237629   4.432   1.747   9.248  1.3073  1.2429  0.4250
 8666SOL     OW37630   2.520   3.785   5.490  0.2025  0.3275 -0.1772
 8666SOL    HW137631   2.506   3.726   5.565  0.6237  0.1925 -0.2086
 8666SOL    HW237632   2.504   3.727   5.415  0.6930  0.9129 -0.7294
 8667SOL     OW37633   2.273   2.963   2.654  0.6686 -0.4909  0.3417
 8667SOL    HW137634   2.257   2.916   2.572  3.4401 -0.1925 -0.3672
 8667SOL    HW237635   2.244   3.049   2.625 -3.5691 -1.3428  2.1284
 8668SOL     OW37636   1.142   4.532   7.501  0.0900  0.3049  0.2191
 8668SOL    HW137637   1.077   4.519   7.431  0.3296  0.3537 -0.0145
 8668SOL    HW237638   1.182   4.610   7.463  0.6796  0.6013  1.4554
 8669SOL     OW37639   4.099   2.772   5.515 -0.1033  0.4226  0.1679
 8669SOL    HW137640   4.054   2.798   5.596 -0.6969 -0.6090  0.1713
 8669SOL    HW237641   4.087   2.849   5.459 -1.1156  0.5383  0.5420
 8670SOL     OW37642   2.115   4.673  12.420  0.2055  0.0676 -0.3916
 8670SOL    HW137643   2.060   4.695  12.345 -0.4739 -0.6973 -0.1212
 8670SOL    HW237644   2.180   4.611  12.385  0.2763  0.3735 -0.7897
 8671SOL     OW37645   0.714   3.320   6.898 -0.2763 -0.0720 -0.0873
 8671SOL    HW137646   0.758   3.261   6.960 -0.8916  1.9846  2.3391
 8671SOL    HW237647   0.740   3.407   6.928 -0.8465  0.6528 -1.7340
 8672SOL     OW37648   4.407   0.214   1.822 -0.5385 -0.3459  0.0729
 8672SOL    HW137649   4.473   0.145   1.829  0.4892  0.3928 -2.1278
 8672SOL    HW237650   4.368   0.187   1.738 -1.0228  1.1513 -0.1822
 8673SOL     OW37651   4.084   0.838   2.148  0.0843 -0.2273  0.0630
 8673SOL    HW137652   4.101   0.754   2.105 -2.9611 -0.0114 -1.5711
 8673SOL    HW237653   4.098   0.903   2.078  0.7918  0.9897  1.3472
 8674SOL     OW37654   1.516   0.985   4.001 -0.3830  0.0248  0.0048
 8674SOL    HW137655   1.579   1.009   3.933  1.0825  2.3153  2.1848
 8674SOL    HW237656   1.477   0.911   3.954 -2.1450  0.2274  1.1542
 8675SOL     OW37657   1.883   4.531   8.384  0.2241  0.3358  0.3917
 8675SOL    HW137658   1.809   4.484   8.423  0.1636 -0.3232 -0.5456
 8675SOL    HW237659   1.938   4.542   8.462 -0.9343 -1.7946  1.5238
 8676SOL     OW37660   2.507   3.599   8.873  0.6337  0.7342 -0.2486
 8676SOL    HW137661   2.576   3.561   8.928  0.4934  0.6785 -0.1109
 8676SOL    HW237662   2.523   3.693   8.875 -1.8661  1.1603 -1.3017
 8677SOL     OW37663   1.423   2.316  11.527 -0.0671  0.1611 -0.5150
 8677SOL    HW137664   1.384   2.230  11.509 -2.1482  0.9190  0.5013
 8677SOL    HW237665   1.502   2.290  11.575 -1.5322 -0.8630  1.3227
 8678SOL     OW37666   1.692   4.717  13.446  0.4104 -0.1612  0.4771
 8678SOL    HW137667   1.711   4.659  13.519 -0.6371 -1.6095 -0.3941
 8678SOL    HW237668   1.601   4.693  13.429  0.4517  0.8279 -1.1292
 8679SOL     OW37669   2.742   2.433  11.482 -0.3110 -0.1264 -0.0587
 8679SOL    HW137670   2.809   2.448  11.549  0.7599 -0.6383 -1.0317
 8679SOL    HW237671   2.691   2.354  11.499  1.8108 -1.5478 -0.2838
 8680SOL     OW37672   1.890   1.474   4.430  0.6048  0.4737 -0.0512
 8680SOL    HW137673   1.946   1.501   4.357 -1.1939  1.7695 -0.9637
 8680SOL    HW237674   1.827   1.420   4.382  0.6406  0.5747 -0.2104
 8681SOL     OW37675   0.343   3.313   9.485  0.3339 -0.0003  0.2676
 8681SOL    HW137676   0.266   3.260   9.502 -0.1402  0.1547 -1.4612
 8681SOL    HW237677   0.414   3.262   9.446 -0.0437  0.0473 -0.4837
 8682SOL     OW37678   4.016   3.535   5.559  0.0158  0.0789 -0.5205
 8682SOL    HW137679   4.044   3.559   5.648 -0.8472  0.7364 -0.4218
 8682SOL    HW237680   4.034   3.441   5.559 -0.1603  0.0520  1.0753
 8683SOL     OW37681   2.423   2.025   3.294 -0.1821  0.5764 -0.2639
 8683SOL    HW137682   2.379   2.067   3.368  2.1743  1.9877  0.3361
 8683SOL    HW237683   2.428   2.097   3.230  2.7300  0.6594  0.0824
 8684SOL     OW37684   2.811   1.828   5.839 -0.0859 -0.2915 -0.1183
 8684SOL    HW137685   2.781   1.902   5.786  0.3916  0.3200  0.4675
 8684SOL    HW237686   2.898   1.811   5.803  0.2294  2.1449 -0.4828
 8685SOL     OW37687   3.360   3.847  12.255  0.4540  0.8025 -0.5617
 8685SOL    HW137688   3.368   3.752  12.267 -1.8101  0.8630  1.2369
 8685SOL    HW237689   3.446   3.873  12.289 -0.0337  0.8174  0.6466
 8686SOL     OW37690   1.971   3.303   1.991 -0.3783  0.2206  0.1637
 8686SOL    HW137691   2.043   3.240   1.997 -1.1035 -0.6376 -0.2128
 8686SOL    HW237692   1.955   3.318   1.898  1.2614  2.5311  0.2523
 8687SOL     OW37693   2.307   3.203  17.054  0.2460  0.1876  0.4087
 8687SOL    HW137694   2.249   3.127  17.062 -1.6047  1.4603 -0.7290
 8687SOL    HW237695   2.328   3.200  16.960 -1.2297 -0.3802  0.0962
 8688SOL     OW37696   3.345   1.644  13.505  0.0983  0.0180 -0.4370
 8688SOL    HW137697   3.328   1.636  13.599 -0.1213  3.2948 -0.2067
 8688SOL    HW237698   3.420   1.585  13.505 -0.6402 -0.9193  0.4420
 8689SOL     OW37699   3.249   0.241   6.630  0.1558  0.1821 -0.4013
 8689SOL    HW137700   3.229   0.295   6.706 -0.7059 -0.2238 -0.3318
 8689SOL    HW237701   3.294   0.167   6.672  0.2398  1.3111  1.4449
 8690SOL     OW37702   2.368   1.058  10.207  0.4030  0.0158 -0.0018
 8690SOL    HW137703   2.351   1.140  10.255  1.0734  1.0801 -1.5695
 8690SOL    HW237704   2.282   1.018  10.215  0.5663 -0.3366 -0.0287
 8691SOL     OW37705   3.505   4.322   0.404  0.3555 -0.6030  0.0446
 8691SOL    HW137706   3.552   4.405   0.399  1.1085 -1.0955 -0.9546
 8691SOL    HW237707   3.420   4.328   0.360  0.9574 -1.2431 -1.1833
 8692SOL     OW37708   2.771   2.724   4.416 -0.6601 -0.0519  0.2989
 8692SOL    HW137709   2.682   2.744   4.444 -1.1587 -0.9136 -0.6248
 8692SOL    HW237710   2.750   2.661   4.347  0.5807  1.0458 -1.0795
 8693SOL     OW37711   0.714   2.480   1.789  0.1641  0.4010  0.1998
 8693SOL    HW137712   0.644   2.530   1.830  0.2726  0.4934  0.2713
 8693SOL    HW237713   0.732   2.539   1.716 -3.8886  2.1306  0.5940
 8694SOL     OW37714   0.432   1.426   5.306  0.1482  0.1680  0.0026
 8694SOL    HW137715   0.515   1.443   5.351 -0.1123 -0.5666  0.7691
 8694SOL    HW237716   0.384   1.508   5.312  1.3588  0.7985  1.2554
 8695SOL     OW37717   4.523   1.748  16.114 -0.2559  0.6766  0.0817
 8695SOL    HW137718   4.565   1.765  16.029  0.2749  1.0477  0.4175
 8695SOL    HW237719   4.541   1.654  16.108 -2.0309  0.3197  0.5192
 8696SOL     OW37720   1.017   1.740   5.419  0.2111  0.1530  0.2270
 8696SOL    HW137721   0.942   1.772   5.368  1.9184  0.2045 -2.2830
 8696SOL    HW237722   1.086   1.729   5.353 -0.7658 -2.9275 -0.2769
 8697SOL     OW37723   2.334   4.733   5.406  0.0399 -0.4255 -0.4447
 8697SOL    HW137724   2.329   4.717   5.312 -1.4914  0.5731 -0.5339
 8697SOL    HW237725   2.356   4.646   5.439  1.6673  0.0408 -0.2984
 8698SOL     OW37726   2.522   0.856   9.153 -0.2495  0.2851  0.1915
 8698SOL    HW137727   2.479   0.777   9.185 -1.2413 -0.1821 -2.2552
 8698SOL    HW237728   2.613   0.825   9.153 -0.5964 -0.7643 -1.5763
 8699SOL     OW37729   1.705   0.712   1.267 -0.3078 -0.1456  0.4286
 8699SOL    HW137730   1.648   0.647   1.225  1.0860 -2.9903  2.9504
 8699SOL    HW237731   1.787   0.664   1.272 -0.6072 -0.6303  0.6465
 8700SOL     OW37732   2.281   3.874   7.188 -0.2882  0.2161 -0.0835
 8700SOL    HW137733   2.338   3.950   7.191  1.5946 -1.2184  0.6311
 8700SOL    HW237734   2.214   3.893   7.253 -0.3002  2.8699 -0.8901
 8701SOL     OW37735   1.134   3.832   1.785  0.6741 -0.2740 -0.0807
 8701SOL    HW137736   1.062   3.823   1.724  2.1441 -2.0429 -1.5414
 8701SOL    HW237737   1.139   3.928   1.791  3.2913 -0.3507 -0.8577
 8702SOL     OW37738   4.295   4.585   9.266  0.2458 -0.2323 -0.0316
 8702SOL    HW137739   4.221   4.621   9.316  0.1742  1.8476 -1.6186
 8702SOL    HW237740   4.327   4.522   9.330  1.0308 -0.6265 -0.8098
 8703SOL     OW37741   1.003   1.152   3.936  0.2140 -0.6578 -0.2591
 8703SOL    HW137742   1.087   1.139   3.980  0.1242 -0.0152  0.1091
 8703SOL    HW237743   1.015   1.087   3.867 -3.7537 -0.8242 -0.8195
 8704SOL     OW37744   2.181   2.496  17.729  0.0591 -0.3071 -0.0204
 8704SOL    HW137745   2.207   2.410  17.696  1.7521 -0.3708  1.5062
 8704SOL    HW237746   2.086   2.490  17.739  0.2573  0.7971  2.3982
 8705SOL     OW37747   4.353   2.829   1.764  0.2503  0.3409 -0.4704
 8705SOL    HW137748   4.295   2.901   1.738  0.1587  0.0892 -0.9657
 8705SOL    HW237749   4.317   2.762   1.706 -2.3381  0.1030  1.4595
 8706SOL     OW37750   0.361   2.791   5.551 -0.4834 -0.7108 -0.4436
 8706SOL    HW137751   0.315   2.760   5.473 -2.2030 -1.3190  0.7998
 8706SOL    HW237752   0.450   2.767   5.527 -0.4861 -1.8549  0.6770
 8707SOL     OW37753   3.136   4.270   2.077 -0.2302  0.3157  0.0400
 8707SOL    HW137754   3.137   4.175   2.080  0.6375  0.2991 -0.9525
 8707SOL    HW237755   3.178   4.291   2.161  0.9649  2.4929 -1.1130
 8708SOL     OW37756   4.185   1.997   5.224 -0.3836  0.0481  0.2093
 8708SOL    HW137757   4.217   2.022   5.137 -1.2552 -1.8319 -0.6494
 8708SOL    HW237758   4.243   1.926   5.251  0.2939  0.5088 -0.0340
 8709SOL     OW37759   4.369   0.482  12.648 -0.1685  0.1979 -0.3955
 8709SOL    HW137760   4.450   0.491  12.598 -0.5646 -0.1777 -1.1034
 8709SOL    HW237761   4.356   0.389  12.628 -0.1095 -0.2064  1.3892
 8710SOL     OW37762   4.023   3.804   4.141  0.0301 -0.2655  0.1197
 8710SOL    HW137763   3.987   3.889   4.116  0.1081  0.2391  1.7409
 8710SOL    HW237764   4.115   3.827   4.126  0.7497 -1.5427  2.6129
 8711SOL     OW37765   0.584   0.086  13.325 -0.1792 -0.3040  0.1482
 8711SOL    HW137766   0.648   0.156  13.334 -1.0143  0.7729 -2.3886
 8711SOL    HW237767   0.517   0.116  13.385  0.8105  0.1684  1.0117
 8712SOL     OW37768   2.160   3.273   7.555 -0.4170  0.5858 -0.6012
 8712SOL    HW137769   2.097   3.303   7.620 -0.9751  0.2829 -1.0064
 8712SOL    HW237770   2.112   3.201   7.515  1.1706 -0.7407 -0.1074
 8713SOL     OW37771   3.203   3.524   6.933 -0.0397 -0.3273  0.7353
 8713SOL    HW137772   3.145   3.593   6.965  0.5185 -0.3325  1.7547
 8713SOL    HW237773   3.154   3.448   6.961  0.6602 -1.6521 -1.6556
 8714SOL     OW37774   3.148   0.786   1.193  0.0007 -0.0244  0.4430
 8714SOL    HW137775   3.137   0.873   1.233  1.4422 -0.5689  2.0244
 8714SOL    HW237776   3.116   0.732   1.265  0.8694  0.0609  0.9001
 8715SOL     OW37777   1.828   1.049   5.985 -0.0008 -0.1085  0.0630
 8715SOL    HW137778   1.855   1.076   6.073  2.5263 -2.2577 -0.0517
 8715SOL    HW237779   1.741   1.017   6.005  0.1085 -0.4434  0.0067
 8716SOL     OW37780   2.054   3.538   6.449  0.6367  0.4267 -0.6245
 8716SOL    HW137781   2.033   3.445   6.461 -0.2636  0.3495 -2.7222
 8716SOL    HW237782   2.030   3.552   6.357 -1.8069  0.0897 -0.0424
 8717SOL     OW37783   2.184   2.953  17.076  0.3402 -0.2656 -0.4311
 8717SOL    HW137784   2.197   2.877  17.018 -1.3391 -0.3115 -0.7237
 8717SOL    HW237785   2.179   2.905  17.158  1.2211 -0.8779 -0.7323
 8718SOL     OW37786   0.059   2.475   0.366 -0.1945  0.3434  0.3551
 8718SOL    HW137787   0.042   2.387   0.332  0.8678 -0.8183  2.7845
 8718SOL    HW237788   4.708   2.511   0.352 -1.4813 -1.8628  2.6414
 8719SOL     OW37789   1.113   0.880  13.574 -0.4987 -0.2327 -0.1034
 8719SOL    HW137790   1.079   0.953  13.624 -2.1040  0.2875 -1.9398
 8719SOL    HW237791   1.195   0.913  13.537 -1.1959  1.4395 -0.1591
 8720SOL     OW37792   1.387   3.811   9.771 -0.3863 -0.3244 -0.1999
 8720SOL    HW137793   1.334   3.847   9.842 -1.7978 -1.1095 -0.8488
 8720SOL    HW237794   1.424   3.887   9.726  2.3274 -0.8972  1.0625
 8721SOL     OW37795   3.515   3.414   3.817  0.7793 -0.1022  0.0921
 8721SOL    HW137796   3.589   3.393   3.874 -0.1194 -1.6828  0.6862
 8721SOL    HW237797   3.564   3.434   3.738  0.6025 -2.3946 -0.6034
 8722SOL     OW37798   1.735   0.493   6.609  0.5795  0.8613 -0.6932
 8722SOL    HW137799   1.659   0.537   6.645 -1.5716 -0.8225 -3.1835
 8722SOL    HW237800   1.787   0.483   6.689 -1.0742  0.5454  0.3314
 8723SOL     OW37801   3.570   1.740   5.460 -0.2227  0.4068 -0.1608
 8723SOL    HW137802   3.566   1.668   5.522  0.3858 -1.5373 -2.3679
 8723SOL    HW237803   3.630   1.703   5.394 -2.1729 -1.0773 -1.0989
 8724SOL     OW37804   3.320   0.083   3.716  0.1215 -0.2452  0.5111
 8724SOL    HW137805   3.255   0.137   3.671 -0.5288  0.6787  2.5617
 8724SOL    HW237806   3.400   0.127   3.688  0.2772 -0.4270  0.6649
 8725SOL     OW37807   1.650   2.045   8.735  0.5855  0.1731 -0.3288
 8725SOL    HW137808   1.571   1.991   8.740  0.1862  0.8702  0.8189
 8725SOL    HW237809   1.608   2.100   8.668  1.4705 -0.3195 -1.2858
 8726SOL     OW37810   0.327   4.338   2.920  0.3081 -0.4629  0.7385
 8726SOL    HW137811   0.289   4.298   2.998 -0.2765  0.9937  1.2101
 8726SOL    HW237812   0.323   4.428   2.952 -1.3335 -0.2522 -0.0586
 8727SOL     OW37813   0.720   2.665   8.065  0.9376 -0.7585 -0.3699
 8727SOL    HW137814   0.648   2.606   8.086  0.6178  0.0603  0.8338
 8727SOL    HW237815   0.799   2.610   8.067  0.1807 -1.8406 -0.4336
 8728SOL     OW37816   0.247   2.907   2.164  0.4959 -0.3743 -0.2050
 8728SOL    HW137817   0.293   2.989   2.180 -1.1184  0.8667 -1.9245
 8728SOL    HW237818   0.302   2.850   2.218  1.9785 -0.0487 -1.3582
 8729SOL     OW37819   1.744   4.656  11.689 -0.0664 -0.5285  0.9207
 8729SOL    HW137820   1.704   4.730  11.643  1.8669  1.0603  1.8186
 8729SOL    HW237821   1.834   4.662  11.658  1.3138  0.2440  5.1479
 8730SOL     OW37822   3.009   4.335   4.020 -1.0059  0.3752  0.5187
 8730SOL    HW137823   2.952   4.412   4.028  1.6326  2.1320  2.8857
 8730SOL    HW237824   3.049   4.340   3.933 -1.5317 -0.3111  0.2447
 8731SOL     OW37825   0.479   1.361   4.447 -0.2466 -0.6526 -0.1420
 8731SOL    HW137826   0.478   1.403   4.361 -1.7282  1.4750  0.9076
 8731SOL    HW237827   0.516   1.433   4.498 -0.5923  0.4604 -1.4608
 8732SOL     OW37828   0.059   0.918   5.609  0.0821 -0.1369  0.0687
 8732SOL    HW137829   0.021   0.924   5.521 -1.6764  1.5785  0.9361
 8732SOL    HW237830   0.040   1.004   5.644 -0.9350 -0.5144  0.4606
 8733SOL     OW37831   2.302   0.584   0.563  0.0244  0.7039 -0.2624
 8733SOL    HW137832   2.358   0.512   0.592  1.9734  1.2776 -2.6277
 8733SOL    HW237833   2.325   0.574   0.471 -0.0153  0.5779 -0.2587
 8734SOL     OW37834   4.692   2.730   7.988  0.4615  0.0405 -0.5862
 8734SOL    HW137835   0.001   2.689   7.915 -0.8145 -2.2294 -0.1221
 8734SOL    HW237836   0.024   2.755   8.050  0.1338  0.1536 -0.2642
 8735SOL     OW37837   4.368   2.762  13.325 -0.0579 -0.4390  0.6702
 8735SOL    HW137838   4.463   2.750  13.332  0.0654  0.1372 -0.0246
 8735SOL    HW237839   4.335   2.677  13.354 -0.8063 -0.6580 -0.8320
 8736SOL     OW37840   0.093   0.653  10.678  0.1708  0.0274  0.4082
 8736SOL    HW137841   0.017   0.694  10.636  2.9370  1.1995 -3.3735
 8736SOL    HW237842   0.145   0.732  10.691 -0.3032  0.6734 -1.6452
 8737SOL     OW37843   2.648   0.332   8.718 -0.1566  0.3259  0.2605
 8737SOL    HW137844   2.570   0.287   8.751  0.2152 -1.1822 -0.9392
 8737SOL    HW237845   2.709   0.270   8.757 -0.2726  0.3381  0.4664
 8738SOL     OW37846   1.577   4.673   3.136  0.0109 -0.4184 -0.2893
 8738SOL    HW137847   1.577   4.578   3.152  1.7346 -0.4750 -0.6325
 8738SOL    HW237848   1.647   4.665   3.071 -0.0920 -0.5505 -0.3864
 8739SOL     OW37849   0.338   1.719   0.451  0.0190 -0.5338  0.0468
 8739SOL    HW137850   0.392   1.732   0.529  0.1725 -1.3958  0.0813
 8739SOL    HW237851   0.399   1.668   0.398  1.8805  2.3870 -0.6229
 8740SOL     OW37852   2.549   2.580   7.569  0.1797 -0.2246  0.1452
 8740SOL    HW137853   2.611   2.598   7.499  0.9446 -0.5593  0.7416
 8740SOL    HW237854   2.610   2.527   7.621 -0.5345 -0.2439  0.9762
 8741SOL     OW37855   4.569   3.995   5.799  0.3251  0.0891  0.4607
 8741SOL    HW137856   4.523   4.075   5.826  0.8292  0.8683 -0.9775
 8741SOL    HW237857   4.655   4.026   5.771  1.2846 -0.9063  2.3442
 8742SOL     OW37858   4.572   3.484   3.295 -0.0062 -0.0143  0.5591
 8742SOL    HW137859   4.484   3.475   3.333 -0.4327  1.1600 -0.1388
 8742SOL    HW237860   4.556   3.534   3.215 -1.8068  1.9374  2.1404
 8743SOL     OW37861   3.611   1.573   5.037  0.0770  0.2819  0.0596
 8743SOL    HW137862   3.537   1.603   4.984  0.4116  2.9431  1.0830
 8743SOL    HW237863   3.625   1.488   4.995 -1.6153 -0.4527  0.9705
 8744SOL     OW37864   3.403   0.009   1.918 -0.6089 -0.4186 -0.6686
 8744SOL    HW137865   3.493   0.019   1.887 -0.3301  2.6080  1.0791
 8744SOL    HW237866   3.364   0.073   1.857 -0.8215 -1.3836 -1.5463
 8745SOL     OW37867   2.508   2.253   3.159  0.2000  0.3539  0.1612
 8745SOL    HW137868   2.437   2.295   3.110  2.2754 -0.2215 -3.3697
 8745SOL    HW237869   2.545   2.323   3.213  1.8053 -0.5820  0.2882
 8746SOL     OW37870   3.340   0.973   5.642 -0.4112  0.1734  0.0580
 8746SOL    HW137871   3.364   0.925   5.722  1.3794 -0.9274 -1.1393
 8746SOL    HW237872   3.252   0.940   5.625 -0.5179 -0.3067  1.5858
 8747SOL     OW37873   2.840   0.183   2.008  0.4644 -0.0766 -0.5667
 8747SOL    HW137874   2.799   0.126   1.943  3.6128 -1.2813 -1.4739
 8747SOL    HW237875   2.793   0.155   2.086  2.1387  0.2782  0.5649
 8748SOL     OW37876   0.352   2.091   4.198 -0.1126  0.0454 -0.0240
 8748SOL    HW137877   0.336   2.095   4.103 -2.3910 -0.5069  0.3298
 8748SOL    HW237878   0.268   2.050   4.220 -1.3020  3.2156  1.2914
 8749SOL     OW37879   3.260   1.116   5.293 -0.1347  0.2544 -0.3153
 8749SOL    HW137880   3.217   1.041   5.333 -2.1704  1.7137  0.2318
 8749SOL    HW237881   3.180   1.166   5.278 -0.3952  0.0192  0.2879
 8750SOL     OW37882   1.786   1.085   8.940  0.4305  0.4586 -0.1904
 8750SOL    HW137883   1.752   1.078   8.850 -2.0397 -1.6341  0.8912
 8750SOL    HW237884   1.724   1.137   8.991 -0.5470 -1.3378  0.4752
 8751SOL     OW37885   1.108   3.955   8.520  0.0278  0.2145 -0.5235
 8751SOL    HW137886   1.028   4.001   8.495 -0.0400  1.3069  1.7616
 8751SOL    HW237887   1.106   3.876   8.466  0.2466  1.1418 -1.8923
 8752SOL     OW37888   3.580   2.628   1.437 -0.3992 -0.0194 -0.6239
 8752SOL    HW137889   3.546   2.709   1.477  0.8637 -0.1362  0.6667
 8752SOL    HW237890   3.673   2.649   1.441 -0.4035 -0.4944  1.9966
 8753SOL     OW37891   1.927   4.643   2.019 -0.2660 -0.0017 -0.3854
 8753SOL    HW137892   1.880   4.621   2.099  0.7818  0.5698  0.3817
 8753SOL    HW237893   1.945   4.736   2.030  2.1887 -0.3174 -1.7986
 8754SOL     OW37894   0.295   3.248   2.351 -0.9250  0.0943  0.0868
 8754SOL    HW137895   0.366   3.191   2.320 -1.3513  0.4288 -1.5353
 8754SOL    HW237896   0.265   3.200   2.428 -1.3708 -0.4636 -0.4336
 8755SOL     OW37897   1.411   3.357   3.166  0.1577  0.0822  0.4528
 8755SOL    HW137898   1.410   3.269   3.202 -0.7862 -0.5645 -1.1973
 8755SOL    HW237899   1.469   3.406   3.225 -1.0718  1.6765  0.3538
 8756SOL     OW37900   3.808   3.501   0.979 -0.0592  0.0046 -0.5428
 8756SOL    HW137901   3.762   3.568   0.929 -0.4027  0.7195  0.7472
 8756SOL    HW237902   3.852   3.471   0.899  0.2031 -0.9346 -0.0514
 8757SOL     OW37903   4.075   2.644   3.478  0.0150  0.2582 -1.4549
 8757SOL    HW137904   4.100   2.589   3.404  0.1959  0.0605 -1.2484
 8757SOL    HW237905   4.026   2.715   3.438 -2.4623 -1.2348 -1.0739
 8758SOL     OW37906   3.166   4.616   7.054 -0.2566  0.2973  0.3990
 8758SOL    HW137907   3.155   4.545   6.991 -1.2618  2.0068 -1.3290
 8758SOL    HW237908   3.235   4.664   7.009 -0.3313 -0.3574 -0.4093
 8759SOL     OW37909   2.446   0.733   4.434 -0.1579 -0.1377  0.2643
 8759SOL    HW137910   2.493   0.815   4.448 -3.1349  1.1368  2.8171
 8759SOL    HW237911   2.492   0.678   4.497 -1.8526 -0.8286  0.9041
 8760SOL     OW37912   0.080   4.317   2.757  0.0341  0.6928  0.2918
 8760SOL    HW137913   0.040   4.237   2.791  0.2617 -0.1774 -1.4933
 8760SOL    HW237914   0.155   4.339   2.813  1.2026  2.1117 -1.8675
 8761SOL     OW37915   4.389   2.903  15.906  0.2714 -0.2559  0.2358
 8761SOL    HW137916   4.362   2.843  15.837  0.3290 -0.6540  0.5634
 8761SOL    HW237917   4.362   2.860  15.987 -0.6110  0.3903  0.2925
 8762SOL     OW37918   0.431   2.205   4.425 -0.2514  0.1328 -0.2635
 8762SOL    HW137919   0.417   2.175   4.336 -0.0137 -2.0198  0.4344
 8762SOL    HW237920   0.417   2.133   4.486  5.1865 -0.9469 -0.3386
 8763SOL     OW37921   2.381   4.295   3.510  0.4473  0.0464 -0.3745
 8763SOL    HW137922   2.467   4.253   3.517  0.9974  0.8428 -2.3486
 8763SOL    HW237923   2.371   4.277   3.416 -0.2285 -0.7887 -0.1355
 8764SOL     OW37924   4.048   4.635  15.915  0.0744 -0.2657 -0.6396
 8764SOL    HW137925   4.051   4.704  15.849  0.1398 -0.6212 -1.0127
 8764SOL    HW237926   4.087   4.566  15.861  0.1037 -0.4461 -0.3891
 8765SOL     OW37927   4.553   0.171   3.089 -0.1400 -0.3139 -0.4860
 8765SOL    HW137928   4.507   0.237   3.141  2.0915  0.8112  0.0544
 8765SOL    HW237929   4.497   0.165   3.012 -0.6341  1.2846 -0.2603
 8766SOL     OW37930   3.094   0.899   5.447 -0.0050 -0.2063 -0.2349
 8766SOL    HW137931   3.120   0.844   5.521 -1.7791 -0.6274  0.0724
 8766SOL    HW237932   3.009   0.932   5.475  0.9497  1.5859  0.5246
 8767SOL     OW37933   0.922   3.731   5.212 -0.5371  0.7318 -0.0709
 8767SOL    HW137934   0.935   3.771   5.126 -1.9867  1.2089 -0.0707
 8767SOL    HW237935   0.918   3.814   5.260  1.1922  1.0100 -0.4071
 8768SOL     OW37936   1.745   3.930   8.771  0.0401  0.0911  0.3232
 8768SOL    HW137937   1.680   3.969   8.828  1.2827  0.4317  1.5070
 8768SOL    HW237938   1.767   3.854   8.824  1.1020  1.0771  1.2823
 8769SOL     OW37939   3.764   0.877   7.785 -0.4240 -0.5530  0.3776
 8769SOL    HW137940   3.851   0.842   7.803 -0.1823 -0.9036 -1.4400
 8769SOL    HW237941   3.779   0.970   7.764 -1.1759 -0.2324  1.2459
 8770SOL     OW37942   2.352   0.141   8.767  0.2787  0.4696 -0.2567
 8770SOL    HW137943   2.396   0.180   8.842  0.8634  1.5994 -1.1883
 8770SOL    HW237944   2.262   0.147   8.797  0.7248  1.3931  0.8697
 8771SOL     OW37945   0.248   3.374  14.231  0.1874  0.0992  0.2434
 8771SOL    HW137946   0.313   3.401  14.296 -0.1458  1.3847  0.0286
 8771SOL    HW237947   0.305   3.345  14.160  1.8532 -0.6050  1.8722
 8772SOL     OW37948   3.183   4.631  16.656  0.2049  0.1714 -0.7535
 8772SOL    HW137949   3.119   4.633  16.585 -1.3994 -0.9540  0.6727
 8772SOL    HW237950   3.167   4.723  16.676 -0.8041  0.0389 -0.9645
 8773SOL     OW37951   4.045   1.464   7.085  0.4730  0.0614  0.6409
 8773SOL    HW137952   4.000   1.484   7.003 -1.1285  1.5976  1.8720
 8773SOL    HW237953   4.015   1.374   7.096 -1.1595  0.5559  0.2480
 8774SOL     OW37954   2.109   1.069  15.491 -0.5677 -0.1740 -0.2033
 8774SOL    HW137955   2.130   0.997  15.431  1.0970 -0.5659  0.8595
 8774SOL    HW237956   2.192   1.115  15.484  0.3956 -1.7700  0.7795
 8775SOL     OW37957   0.406   0.540   7.849  0.3915 -0.4512  0.0376
 8775SOL    HW137958   0.376   0.574   7.764 -0.6131 -1.6395 -0.0783
 8775SOL    HW237959   0.408   0.447   7.826 -0.6143 -0.6353  0.6929
 8776SOL     OW37960   2.271   0.936   6.377 -0.3126  0.2111 -0.5277
 8776SOL    HW137961   2.226   0.866   6.424  1.0063 -2.2518 -2.9241
 8776SOL    HW237962   2.223   1.014   6.405  1.0497  0.2967  1.6022
 8777SOL     OW37963   1.881   2.467   4.990 -0.5047  0.3064 -0.0312
 8777SOL    HW137964   1.790   2.461   5.020 -0.4097  2.0536  0.6029
 8777SOL    HW237965   1.869   2.424   4.905 -2.3293 -3.6172  2.2027
 8778SOL     OW37966   0.972   3.175   8.890 -0.2608 -0.6879 -0.4691
 8778SOL    HW137967   0.882   3.204   8.874 -0.2187  0.1209  0.7354
 8778SOL    HW237968   1.013   3.259   8.876 -0.4918 -0.4545  0.2205
 8779SOL     OW37969   0.300   1.448   0.107  0.1981 -0.2637  0.1173
 8779SOL    HW137970   0.261   1.530   0.077  1.2201  0.1166 -0.1646
 8779SOL    HW237971   0.288   1.394   0.029  1.2276  0.0227 -0.2521
 8780SOL     OW37972   1.202   1.178  15.249 -0.0708 -0.1347 -0.2746
 8780SOL    HW137973   1.239   1.176  15.161 -0.0984 -2.1896 -0.2425
 8780SOL    HW237974   1.112   1.151  15.232 -0.3752  1.1431 -0.6239
 8781SOL     OW37975   1.442   2.834   6.086 -0.1749 -0.4674 -0.5455
 8781SOL    HW137976   1.348   2.834   6.069 -0.6264  0.0752  1.9442
 8781SOL    HW237977   1.443   2.821   6.181 -0.7877  0.3598 -0.4246
 8782SOL     OW37978   2.400   4.158   9.121  0.0113  0.0787 -0.1621
 8782SOL    HW137979   2.445   4.138   9.202 -1.7550  1.0860  1.0794
 8782SOL    HW237980   2.375   4.071   9.091 -0.2890  0.0971  0.0275
 8783SOL     OW37981   0.016   1.835   8.520 -0.1441  0.1896 -0.1403
 8783SOL    HW137982   4.714   1.813   8.605  4.1946  1.1967  2.1119
 8783SOL    HW237983   0.062   1.913   8.550 -0.9877  1.1646 -1.4243
 8784SOL     OW37984   1.793   0.771  10.681 -0.6133 -0.2331  0.0920
 8784SOL    HW137985   1.742   0.814  10.613  1.3608  1.1682 -0.4911
 8784SOL    HW237986   1.737   0.694  10.686 -0.4348 -0.2950  1.0638
 8785SOL     OW37987   2.268   1.865   2.654 -0.7583  0.0643 -0.5730
 8785SOL    HW137988   2.342   1.905   2.607 -0.0024  0.2006  0.7520
 8785SOL    HW237989   2.212   1.939   2.678  0.5756  0.1880  2.1306
 8786SOL     OW37990   2.625   1.515   9.780  0.4597 -0.2722  0.1917
 8786SOL    HW137991   2.659   1.566   9.707 -0.5077  0.3400  0.1678
 8786SOL    HW237992   2.705   1.496   9.829  1.4108  2.3737 -0.3203
 8787SOL     OW37993   3.185   4.334  15.699  0.4448 -0.8210  0.2505
 8787SOL    HW137994   3.109   4.374  15.658 -0.5068 -2.5363  0.3071
 8787SOL    HW237995   3.188   4.240  15.679 -0.2653 -0.9225  0.6095
 8788SOL     OW37996   1.028   0.694   9.487 -0.1241 -0.4241 -0.2264
 8788SOL    HW137997   1.073   0.620   9.446 -0.7393  0.8045 -3.1263
 8788SOL    HW237998   1.030   0.766   9.424 -2.8801  0.1741  0.3857
 8789SOL     OW37999   0.904   2.691   2.329  0.0374 -0.5147 -0.2622
 8789SOL    HW138000   0.888   2.677   2.236 -1.2639 -0.4334 -0.0570
 8789SOL    HW238001   0.818   2.713   2.366  0.3544  3.2164 -1.7158
 8790SOL     OW38002   4.368   2.534   3.219 -0.1261  0.4881 -0.1267
 8790SOL    HW138003   4.339   2.552   3.129  2.2297 -1.0606 -1.1812
 8790SOL    HW238004   4.463   2.526   3.206 -0.7724 -3.2556 -2.6969
 8791SOL     OW38005   2.911   0.417   3.659 -0.1944 -0.0003  0.6799
 8791SOL    HW138006   2.977   0.450   3.720  1.6322 -0.1555 -1.2095
 8791SOL    HW238007   2.939   0.461   3.579 -1.4404 -0.5413 -0.0516
 8792SOL     OW38008   0.379   3.796   4.159 -0.1630 -0.0679 -0.2924
 8792SOL    HW138009   0.431   3.853   4.214  1.8305  0.3790 -2.6490
 8792SOL    HW238010   0.397   3.713   4.204 -0.2779  0.9623  1.6362
 8793SOL     OW38011   3.419   3.528   7.131 -0.6152 -0.0036  0.1089
 8793SOL    HW138012   3.336   3.547   7.087 -0.5431 -3.3377 -1.4894
 8793SOL    HW238013   3.479   3.575   7.073 -0.5872 -0.5154 -0.2733
 8794SOL     OW38014   4.626   1.248  11.973  0.7180  0.5217  0.3744
 8794SOL    HW138015   4.539   1.284  11.992  0.9997  1.0903  0.5942
 8794SOL    HW238016   4.666   1.302  11.905 -1.4246 -0.4016 -1.5962
 8795SOL     OW38017   2.218   3.968  13.632  0.6812  0.0373  0.1637
 8795SOL    HW138018   2.249   3.912  13.703  0.8994 -0.4484 -0.3191
 8795SOL    HW238019   2.280   3.950  13.562 -0.4969  1.7195 -1.3348
 8796SOL     OW38020   3.779   1.371   6.114 -0.0051 -0.5733 -0.6623
 8796SOL    HW138021   3.817   1.375   6.201 -1.1633 -1.0858 -0.1391
 8796SOL    HW238022   3.694   1.409   6.132  0.1306 -0.2388 -0.7206
 8797SOL     OW38023   4.357   0.466   8.907  0.3460 -0.2291 -0.0858
 8797SOL    HW138024   4.379   0.554   8.939 -0.4771  0.0157 -0.1913
 8797SOL    HW238025   4.266   0.485   8.884  0.1443 -2.5637 -1.1562
 8798SOL     OW38026   1.397   1.855   8.607 -0.1708  0.1049 -0.2546
 8798SOL    HW138027   1.304   1.861   8.589 -0.1132  0.9969 -0.2532
 8798SOL    HW238028   1.433   1.814   8.528 -1.4018 -3.5031  1.0596
 8799SOL     OW38029   3.138   3.411  12.685 -0.3576 -0.1155  0.6003
 8799SOL    HW138030   3.164   3.503  12.691  0.5768 -0.4208  1.2389
 8799SOL    HW238031   3.226   3.377  12.670 -0.6451  0.3200 -2.1756
 8800SOL     OW38032   3.058   2.865   8.011  0.5681  0.8941  0.3570
 8800SOL    HW138033   3.004   2.786   8.017  1.6711  0.0693 -0.5014
 8800SOL    HW238034   3.143   2.824   8.026 -0.5717 -0.7359  2.3792
 8801SOL     OW38035   3.898   0.856  16.583  0.4211  0.1358  0.4082
 8801SOL    HW138036   3.978   0.907  16.566  0.1864 -0.0876 -1.3777
 8801SOL    HW238037   3.895   0.854  16.679 -2.3456  2.3095  0.3525
 8802SOL     OW38038   2.781   1.902   7.120  0.3643 -0.2205 -0.1195
 8802SOL    HW138039   2.732   1.922   7.199 -1.6129 -0.4946 -1.2777
 8802SOL    HW238040   2.821   1.988   7.112 -0.6364  0.3695  1.2722
 8803SOL     OW38041   0.395   2.778   2.348 -0.7876 -0.3431  0.2991
 8803SOL    HW138042   0.412   2.844   2.415 -0.1075 -0.0844 -0.1274
 8803SOL    HW238043   0.371   2.712   2.412 -1.7398  2.8310  3.2138
 8804SOL     OW38044   2.235   4.569  10.152 -0.1319  0.3050 -0.5623
 8804SOL    HW138045   2.235   4.584  10.057  1.4727  2.9276 -0.1401
 8804SOL    HW238046   2.206   4.478  10.157 -0.5211  0.3362 -2.3319
 8805SOL     OW38047   4.353   3.645  14.570 -0.1133 -0.1187 -0.8232
 8805SOL    HW138048   4.401   3.644  14.487 -2.4886  2.9712 -2.2252
 8805SOL    HW238049   4.317   3.734  14.566 -0.9281 -0.3707  0.8619
 8806SOL     OW38050   1.946   4.655   7.531 -0.4706  0.3336  0.1336
 8806SOL    HW138051   1.965   0.008   7.560  0.0629 -0.0531  0.9764
 8806SOL    HW238052   1.856   4.642   7.559 -0.2215  0.3519  0.9377
 8807SOL     OW38053   1.736   1.067   2.058 -0.5737  0.0897  0.7481
 8807SOL    HW138054   1.812   1.104   2.102  0.5493 -0.7046 -0.5243
 8807SOL    HW238055   1.669   1.119   2.103 -0.9167 -0.8378  1.3145
 8808SOL     OW38056   2.524   4.298   2.769  0.1969 -0.0021 -0.1598
 8808SOL    HW138057   2.465   4.234   2.808  0.8717  1.2017  2.8365
 8808SOL    HW238058   2.568   4.343   2.842  1.3432  0.7971 -1.3374
 8809SOL     OW38059   2.848   2.987   0.274 -0.4420  0.3048 -1.0867
 8809SOL    HW138060   2.825   2.919   0.211  0.4848 -1.3663  0.4027
 8809SOL    HW238061   2.854   2.927   0.348 -0.7407 -0.0409 -1.3449
 8810SOL     OW38062   4.445   3.163   1.530  0.0308 -0.1111  0.2050
 8810SOL    HW138063   4.372   3.113   1.566 -0.4229 -0.4344 -1.1442
 8810SOL    HW238064   4.522   3.119   1.567  0.2337  1.0191  1.1080
 8811SOL     OW38065   3.810   4.154  13.842  0.0739  0.2737 -0.2269
 8811SOL    HW138066   3.780   4.063  13.834  0.6224  0.0428  0.2441
 8811SOL    HW238067   3.904   4.134  13.844  0.5387  2.6597  0.8781
 8812SOL     OW38068   0.586   2.886  16.396  0.1744  0.1953 -0.1591
 8812SOL    HW138069   0.631   2.807  16.428  0.1926  0.6002  0.8308
 8812SOL    HW238070   0.505   2.891  16.447 -1.1800 -0.0524 -2.3113
 8813SOL     OW38071   0.752   0.830  15.183  0.5013  0.4660  0.1405
 8813SOL    HW138072   0.752   0.797  15.272  1.1132  0.3123  0.0849
 8813SOL    HW238073   0.728   0.755  15.129 -0.3318  0.0789  1.0494
 8814SOL     OW38074   1.650   1.699   8.609 -0.7445 -0.0060  0.0439
 8814SOL    HW138075   1.671   1.763   8.541 -0.8681  0.2114  0.2128
 8814SOL    HW238076   1.714   1.724   8.675  1.6499 -1.2530 -1.8156
 8815SOL     OW38077   0.594   3.847   3.127 -0.2103  0.2281  0.3324
 8815SOL    HW138078   0.661   3.896   3.175 -1.6217  2.6191 -0.1192
 8815SOL    HW238079   0.569   3.907   3.056 -0.0562  1.3617  1.2294
 8816SOL     OW38080   4.551   0.781   2.469 -0.2726 -0.1967 -0.4785
 8816SOL    HW138081   4.521   0.836   2.397  1.5019 -0.5957 -1.5250
 8816SOL    HW238082   4.469   0.740   2.496  0.2666 -1.4740 -0.7812
 8817SOL     OW38083   0.757   4.710   8.112 -0.5884 -1.2443  0.1384
 8817SOL    HW138084   0.849   4.731   8.131 -1.3394  0.5761  1.7703
 8817SOL    HW238085   0.763   4.680   8.021  0.1924  1.1085 -0.5817
 8818SOL     OW38086   0.692   2.998   5.288  0.1056  0.1204 -0.4272
 8818SOL    HW138087   0.667   3.077   5.241 -1.6993 -0.2809 -0.1237
 8818SOL    HW238088   0.611   2.949   5.275  0.0706  0.6528 -2.1424
 8819SOL     OW38089   2.558   1.552   7.429 -0.3395 -0.0630  0.0269
 8819SOL    HW138090   2.598   1.533   7.344  1.0796  0.3601  0.5917
 8819SOL    HW238091   2.468   1.560   7.399  0.3413  0.7616 -1.8401
 8820SOL     OW38092   1.572   3.130   2.442 -0.4727  0.5822 -0.1764
 8820SOL    HW138093   1.520   3.084   2.377 -0.0216  1.3364 -1.0778
 8820SOL    HW238094   1.559   3.224   2.427 -0.7614  0.3823 -1.1553
 8821SOL     OW38095   2.829   4.561   9.531  0.6151 -0.4744  1.0180
 8821SOL    HW138096   2.738   4.568   9.561 -0.3426 -1.5967 -1.6130
 8821SOL    HW238097   2.865   4.587   9.616  2.8061 -1.1929  0.2909
 8822SOL     OW38098   0.495   3.141   1.231  0.4531  0.0324 -0.2826
 8822SOL    HW138099   0.431   3.146   1.302  2.5135  0.3686  1.5139
 8822SOL    HW238100   0.488   3.230   1.197  0.5656 -0.2538 -1.0548
 8823SOL     OW38101   4.152   3.519   9.235  0.3825 -0.1177 -0.0236
 8823SOL    HW138102   4.104   3.480   9.161 -0.7490  0.9596  0.1434
 8823SOL    HW238103   4.187   3.598   9.194  3.0168 -0.7407  1.0567
 8824SOL     OW38104   3.367   3.637   3.848 -0.4519 -0.1490  0.8302
 8824SOL    HW138105   3.370   3.635   3.943  0.8392 -3.9539  0.6996
 8824SOL    HW238106   3.433   3.572   3.827 -0.8255 -0.1980 -0.2149
 8825SOL     OW38107   4.066   0.934   4.306 -0.2300  0.6335  0.7662
 8825SOL    HW138108   4.062   0.871   4.378 -1.0630  0.4080  0.5284
 8825SOL    HW238109   4.105   1.011   4.346 -1.7305  1.4625  0.6461
 8826SOL     OW38110   0.752   2.143   1.386 -0.4932  0.4664  0.1535
 8826SOL    HW138111   0.846   2.160   1.398 -0.6628  2.7882 -2.0668
 8826SOL    HW238112   0.717   2.223   1.425 -1.0814 -0.1102  0.8331
 8827SOL     OW38113   4.713   1.572   4.537  0.7553  0.1032 -0.3067
 8827SOL    HW138114   0.047   1.520   4.574  0.3725  0.0765  0.3977
 8827SOL    HW238115   4.699   1.517   4.460 -0.5450 -0.6268  0.4439
 8828SOL     OW38116   4.332   2.852  16.278 -0.7150  0.1455 -0.2715
 8828SOL    HW138117   4.286   2.803  16.210  0.5992 -0.0386 -1.0487
 8828SOL    HW238118   4.273   2.926  16.292 -2.2065 -1.0239 -0.3699
 8829SOL     OW38119   1.475   0.099   2.359  0.3001  0.7588 -0.1004
 8829SOL    HW138120   1.503   0.008   2.368 -1.9800  0.1079  0.4636
 8829SOL    HW238121   1.389   0.081   2.321  1.0001  2.8141 -2.6736
 8830SOL     OW38122   1.718   1.925   3.663  0.3229 -0.3267  0.3474
 8830SOL    HW138123   1.769   1.910   3.583 -0.1331 -0.4837  0.0866
 8830SOL    HW238124   1.661   1.849   3.661  0.9476 -0.7735 -0.3758
 8831SOL     OW38125   3.934   2.803  16.568  0.0672 -0.9903  0.7694
 8831SOL    HW138126   3.950   2.871  16.503 -1.7712 -1.5032 -0.2470
 8831SOL    HW238127   3.874   2.754  16.511 -0.3541 -3.3747  3.2478
 8832SOL     OW38128   1.490   3.266   7.058 -0.1090  0.8928 -0.5173
 8832SOL    HW138129   1.505   3.348   7.011  0.8814  0.1507 -1.5080
 8832SOL    HW238130   1.562   3.205   7.041 -0.6284  0.3557 -0.7972
 8833SOL     OW38131   3.996   2.213   6.803 -0.1103  0.6239  0.1909
 8833SOL    HW138132   3.965   2.124   6.816  0.7123 -0.0248 -2.4343
 8833SOL    HW238133   4.040   2.223   6.887 -1.2064 -0.6199  0.9190
 8834SOL     OW38134   4.683   2.895  11.441 -0.2395  0.7406 -0.0227
 8834SOL    HW138135   4.706   2.881  11.533 -0.4222 -0.3780 -0.1485
 8834SOL    HW238136   4.655   2.986  11.450 -0.3557  0.5148  1.8144
 8835SOL     OW38137   3.455   4.508   7.644 -0.1620  0.2730  0.9977
 8835SOL    HW138138   3.504   4.490   7.564  0.1947 -0.4735  1.3769
 8835SOL    HW238139   3.377   4.553   7.612  1.0283  1.6795  0.0960
 8836SOL     OW38140   4.443   3.770  16.323 -0.2652 -0.1180 -0.2565
 8836SOL    HW138141   4.511   3.832  16.297 -1.6328  1.5181  0.1154
 8836SOL    HW238142   4.503   3.695  16.328 -1.2279 -0.9141 -0.5560
 8837SOL     OW38143   0.184   1.353   2.628 -0.0910 -0.7951 -0.1492
 8837SOL    HW138144   0.097   1.387   2.648 -0.0394 -0.3355 -0.7164
 8837SOL    HW238145   0.172   1.261   2.653  3.4073 -0.9700  0.9112
 8838SOL     OW38146   2.719   1.217   1.637 -0.3544 -0.1090  0.1447
 8838SOL    HW138147   2.757   1.295   1.596  0.3036  0.4958  1.8796
 8838SOL    HW238148   2.656   1.259   1.696  0.7989 -0.1305  1.3966
 8839SOL     OW38149   0.574   2.727  13.254 -0.1525  0.2822  0.2240
 8839SOL    HW138150   0.534   2.725  13.167 -0.2321  1.2481  0.2453
 8839SOL    HW238151   0.559   2.647  13.304  2.1830 -0.2454  0.0780
 8840SOL     OW38152   0.426   4.399  11.591 -0.8409  0.1331 -0.4116
 8840SOL    HW138153   0.488   4.410  11.519 -1.5511 -0.3291 -1.0878
 8840SOL    HW238154   0.425   4.305  11.607  0.8945 -0.2580 -2.6351
 8841SOL     OW38155   3.930   3.176   3.064  0.0943 -0.5090  0.1426
 8841SOL    HW138156   3.934   3.124   2.985 -1.3677 -1.6654  0.8252
 8841SOL    HW238157   3.855   3.229   3.037  0.8011  0.1601 -0.4986
 8842SOL     OW38158   0.821   1.856   5.288 -0.2133 -0.0329  0.5649
 8842SOL    HW138159   0.819   1.835   5.194  0.4057 -0.7255  0.7041
 8842SOL    HW238160   0.759   1.928   5.288 -2.0607 -1.6381  0.8371
 8843SOL     OW38161   3.480   1.030   5.203 -0.5566 -0.0710  0.5603
 8843SOL    HW138162   3.444   1.030   5.114 -0.6055  1.7395  0.5723
 8843SOL    HW238163   3.403   1.074   5.241 -0.2364  1.1848 -0.2429
 8844SOL     OW38164   1.583   3.379   1.516  0.0596 -0.1006 -0.1503
 8844SOL    HW138165   1.527   3.456   1.504  0.5198  0.2009 -0.3662
 8844SOL    HW238166   1.595   3.376   1.611  2.8642 -2.0268 -0.5863
 8845SOL     OW38167   2.123   0.918   7.232  0.3219 -0.2449 -0.3999
 8845SOL    HW138168   2.104   0.829   7.203 -0.2355 -0.5816  0.9727
 8845SOL    HW238169   2.042   0.935   7.281  0.6326  1.6100 -0.5190
 8846SOL     OW38170   0.866   3.235   6.094  1.0005  0.4954  0.0470
 8846SOL    HW138171   0.801   3.295   6.130  0.1129  0.4634 -1.4671
 8846SOL    HW238172   0.822   3.206   6.013  0.4153 -0.3436  0.6638
 8847SOL     OW38173   2.242   1.661   5.249  1.0123  0.0577 -0.2944
 8847SOL    HW138174   2.252   1.582   5.304  1.0959 -0.8180 -1.5750
 8847SOL    HW238175   2.200   1.715   5.316 -1.4094  0.7745 -2.4401
 8848SOL     OW38176   0.139   1.058  15.927 -0.1998  0.7436  0.1825
 8848SOL    HW138177   0.081   1.018  15.862  1.2915 -0.7476 -0.2457
 8848SOL    HW238178   0.201   0.985  15.927 -1.0188  0.0587  1.1300
 8849SOL     OW38179   1.438   4.617  15.845 -0.3814  0.0586 -0.5906
 8849SOL    HW138180   1.400   4.660  15.767  0.9987 -2.8941 -2.8616
 8849SOL    HW238181   1.495   4.684  15.884 -0.3632 -0.9009  1.0054
 8850SOL     OW38182   4.356   2.597   0.689 -0.3255  0.0953 -0.4810
 8850SOL    HW138183   4.429   2.550   0.649 -1.6555 -1.8842 -0.5710
 8850SOL    HW238184   4.394   2.592   0.776 -1.0719  2.1556 -0.0404
 8851SOL     OW38185   3.771   3.967  12.295 -0.1547  0.1925  0.2678
 8851SOL    HW138186   3.687   3.951  12.337 -0.4064  2.0265  0.4328
 8851SOL    HW238187   3.747   3.974  12.202  1.0825  0.5909 -0.0134
 8852SOL     OW38188   2.999   1.586   3.685 -0.4878  0.2774  0.2302
 8852SOL    HW138189   3.035   1.506   3.646  0.5503  1.7789 -1.8508
 8852SOL    HW238190   3.051   1.659   3.651  0.0024 -0.9750 -1.7193
 8853SOL     OW38191   0.616   2.321   0.378  0.0622  0.6595  0.2314
 8853SOL    HW138192   0.635   2.360   0.293  1.7759  1.7086  1.0998
 8853SOL    HW238193   0.691   2.345   0.432 -0.5868  0.5693  1.1718
 8854SOL     OW38194   3.273   1.499   5.444  0.1091 -0.1019  0.2019
 8854SOL    HW138195   3.353   1.492   5.391  1.8561  1.4376  2.5990
 8854SOL    HW238196   3.297   1.439   5.515  0.2680  2.5739  2.4033
 8855SOL     OW38197   4.531   2.864   5.070 -0.3465 -0.6106 -0.2733
 8855SOL    HW138198   4.625   2.869   5.089 -0.4390 -0.9828  0.2760
 8855SOL    HW238199   4.496   2.813   5.143 -2.2937 -0.1300 -0.8778
 8856SOL     OW38200   2.716   3.286  10.100  0.1274  0.3675  0.6813
 8856SOL    HW138201   2.744   3.215  10.159 -0.3739 -2.0265 -1.9667
 8856SOL    HW238202   2.745   3.364  10.147  0.0891  1.4957 -1.1973
 8857SOL     OW38203   1.808   3.916   3.468 -0.4981  0.1153  0.3296
 8857SOL    HW138204   1.858   3.943   3.545  0.5044 -0.9415  0.0372
 8857SOL    HW238205   1.750   3.855   3.513 -0.1410 -0.0656  0.5465
 8858SOL     OW38206   4.004   1.381  14.179  0.3944  0.0177  0.0628
 8858SOL    HW138207   3.964   1.455  14.225  1.3504  0.0430  0.8533
 8858SOL    HW238208   3.953   1.303  14.200 -0.6373  0.0254 -2.4540
 8859SOL     OW38209   3.033   0.648   1.375 -0.8271  0.3869  0.3080
 8859SOL    HW138210   3.099   0.593   1.419 -0.8189 -0.7776 -1.1471
 8859SOL    HW238211   2.983   0.670   1.453  0.2144  0.6262  0.9070
 8860SOL     OW38212   1.381   1.541   1.255 -0.1839 -0.5041 -0.0271
 8860SOL    HW138213   1.443   1.499   1.315 -0.6406 -3.1303 -1.4209
 8860SOL    HW238214   1.435   1.596   1.198 -0.2778 -0.7949 -0.3916
 8861SOL     OW38215   0.249   2.997   8.680 -0.4728 -0.6610  0.2242
 8861SOL    HW138216   0.190   2.963   8.747 -0.4483  1.2962  1.2598
 8861SOL    HW238217   0.232   2.929   8.616 -2.8553  0.5965 -0.4704
 8862SOL     OW38218   4.113   1.854   7.958  0.3364 -0.3222  0.2643
 8862SOL    HW138219   4.060   1.806   8.021 -1.2208 -0.2434 -0.9896
 8862SOL    HW238220   4.197   1.843   8.003  0.1146 -0.0395  0.7445
 8863SOL     OW38221   3.683   0.343   9.549  0.2093 -0.7573  0.2298
 8863SOL    HW138222   3.635   0.421   9.575  0.2470 -0.5954 -0.1913
 8863SOL    HW238223   3.769   0.351   9.590  0.1811 -1.1049  0.3609
 8864SOL     OW38224   1.681   3.086   6.982  0.0140 -0.1001 -0.0579
 8864SOL    HW138225   1.666   3.044   6.897  1.1971 -1.9952  0.6788
 8864SOL    HW238226   1.732   3.015   7.022  0.3677 -0.6778 -1.5324
 8865SOL     OW38227   0.356   1.985   2.125 -0.5188  0.0334  0.5468
 8865SOL    HW138228   0.337   1.951   2.212 -0.4428  0.5662  0.7714
 8865SOL    HW238229   0.450   1.998   2.131 -0.9067  2.1138  2.1747
 8866SOL     OW38230   1.769   4.686   6.883 -0.0206 -0.2698  0.1906
 8866SOL    HW138231   1.702   0.001   6.928 -1.6942 -2.0882 -0.1918
 8866SOL    HW238232   1.849   0.002   6.887 -0.5889  0.5991 -0.2130
 8867SOL     OW38233   3.438   3.721  10.680  0.6696 -0.3303 -0.0722
 8867SOL    HW138234   3.445   3.644  10.738  2.0800 -0.5430 -0.5287
 8867SOL    HW238235   3.500   3.697  10.611  0.0110 -0.2153 -0.6967
 8868SOL     OW38236   3.387   3.171  17.301 -0.3843  0.2809 -0.3830
 8868SOL    HW138237   3.472   3.166  17.256  0.5251  2.0019  1.1437
 8868SOL    HW238238   3.376   3.258  17.340  0.6008  0.1792  0.1271
 8869SOL     OW38239   0.031   0.661   7.031  0.4284  0.5203  0.4567
 8869SOL    HW138240   0.099   0.698   6.975 -0.0080  0.3880 -0.1592
 8869SOL    HW238241   4.692   0.712   7.005 -0.0331 -0.5882 -0.3736
 8870SOL     OW38242   1.201   2.287   1.758 -0.3672  0.4532 -0.6042
 8870SOL    HW138243   1.197   2.339   1.838  0.7694  0.3536 -0.4801
 8870SOL    HW238244   1.236   2.206   1.796 -2.1687 -0.3028 -0.5481
 8871SOL     OW38245   1.403   3.176   0.481  0.2406 -0.8024 -0.2165
 8871SOL    HW138246   1.407   3.083   0.503  1.7865  0.1147  3.3051
 8871SOL    HW238247   1.484   3.181   0.430  0.6007  0.4996  0.4877
 8872SOL     OW38248   3.726   0.796   2.906  0.5812  0.6062 -0.1849
 8872SOL    HW138249   3.652   0.806   2.966 -0.6405 -0.6489 -1.4836
 8872SOL    HW238250   3.781   0.739   2.960 -1.2098 -3.0164 -2.1925
 8873SOL     OW38251   3.403   3.912   8.039  0.3238 -0.3654 -0.0953
 8873SOL    HW138252   3.361   3.972   8.102  0.0861  0.2098 -0.7952
 8873SOL    HW238253   3.476   3.963   8.005  0.1930  0.2766  0.5689
 8874SOL     OW38254   1.340   0.016  14.532 -0.3009  0.3318  0.1652
 8874SOL    HW138255   1.425   4.717  14.559 -0.5100  0.7066  1.3306
 8874SOL    HW238256   1.371   0.106  14.523 -0.4761  0.2238 -1.4093
 8875SOL     OW38257   2.242   0.851   4.298  0.5255  0.3419  0.1287
 8875SOL    HW138258   2.268   0.812   4.214  0.0704 -2.7176  1.3988
 8875SOL    HW238259   2.303   0.800   4.352  0.3248  0.7538  0.7340
 8876SOL     OW38260   0.064   2.640   6.432 -0.3706 -0.4208  0.2357
 8876SOL    HW138261   0.118   2.614   6.507 -1.5211 -2.6514  0.2888
 8876SOL    HW238262   0.123   2.652   6.358  0.5369 -1.5130  0.7823
 8877SOL     OW38263   2.050   4.218  13.641  0.1099 -0.4756 -0.1954
 8877SOL    HW138264   2.126   4.160  13.647  1.6012  1.1666 -3.4584
 8877SOL    HW238265   1.974   4.159  13.640 -0.6250  0.4377  1.7192
 8878SOL     OW38266   2.913   3.860   1.915  0.2530  0.7544 -0.0639
 8878SOL    HW138267   2.953   3.893   1.835  0.0697  2.6483  0.6378
 8878SOL    HW238268   2.936   3.934   1.972  0.3519  1.0924 -0.5441
 8879SOL     OW38269   1.427   0.201   7.621  0.0279 -0.2634 -0.8871
 8879SOL    HW138270   1.453   0.201   7.713  1.6676  0.1913 -1.3511
 8879SOL    HW238271   1.371   0.123   7.617 -0.3185 -0.1151  1.2073
 8880SOL     OW38272   4.097   0.919   3.031 -0.1158 -0.0102  0.3700
 8880SOL    HW138273   4.076   0.839   2.983 -1.9997  1.6034 -1.5169
 8880SOL    HW238274   4.188   0.936   3.008  0.0714 -0.4801  0.7625
 8881SOL     OW38275   3.536   1.098   3.555 -0.4339  0.2113  0.5249
 8881SOL    HW138276   3.548   1.084   3.649  1.6750 -2.5824 -0.1587
 8881SOL    HW238277   3.613   1.045   3.534  0.4709  2.0194 -0.7279
 8882SOL     OW38278   4.613   2.467   0.647  0.0799 -0.0944 -0.3589
 8882SOL    HW138279   4.681   2.511   0.697 -2.2593  2.0327  0.9625
 8882SOL    HW238280   4.669   2.393   0.623 -0.0935 -0.5721  0.7356
 8883SOL     OW38281   3.373   3.867   2.269 -0.2086 -0.5675  0.4806
 8883SOL    HW138282   3.453   3.908   2.234  0.6991 -1.2201  1.7679
 8883SOL    HW238283   3.371   3.892   2.362  0.4674  0.8299  0.1241
 8884SOL     OW38284   0.428   2.291   6.562 -0.0623  0.5559  0.4433
 8884SOL    HW138285   0.492   2.362   6.553 -1.3402  1.5584 -0.6836
 8884SOL    HW238286   0.354   2.350   6.579 -0.9047  0.0489 -1.4467
 8885SOL     OW38287   0.452   0.034  15.647 -0.1950  0.1406 -0.4802
 8885SOL    HW138288   0.508   0.046  15.571  1.0352  2.4168  0.8103
 8885SOL    HW238289   0.484   0.092  15.715 -0.6321  0.0565 -0.2012
 8886SOL     OW38290   4.266   1.605  16.487  0.5680 -0.1137  0.0479
 8886SOL    HW138291   4.338   1.652  16.445 -0.2530  0.0314 -1.2004
 8886SOL    HW238292   4.319   1.559  16.552 -0.5200  1.4138  2.0563
 8887SOL     OW38293   3.793   0.204   6.237  0.2580  0.6082 -0.2000
 8887SOL    HW138294   3.704   0.175   6.257  0.0697  1.5405  0.3251
 8887SOL    HW238295   3.815   0.138   6.171  0.7947  1.0603 -0.4672
 8888SOL     OW38296   2.514   3.600   6.571 -0.4760  0.0785 -0.1784
 8888SOL    HW138297   2.425   3.573   6.597 -0.4107 -0.3722 -0.4279
 8888SOL    HW238298   2.554   3.516   6.549  0.6479  0.3977  0.6788
 8889SOL     OW38299   1.466   2.546  10.555 -0.5634  0.7065  0.0427
 8889SOL    HW138300   1.461   2.635  10.587  0.4893  1.2417 -1.2666
 8889SOL    HW238301   1.420   2.562  10.472 -2.0230  0.5626  0.8236
 8890SOL     OW38302   3.796   4.350   6.576 -0.4282 -0.5180 -0.1293
 8890SOL    HW138303   3.730   4.336   6.644  0.5035 -0.4926  0.7783
 8890SOL    HW238304   3.819   4.437   6.608  0.8791 -1.0204  0.3189
 8891SOL     OW38305   3.769   4.369   6.286 -0.4910  0.2330 -0.3061
 8891SOL    HW138306   3.786   4.375   6.380  0.5239  0.4982 -0.5121
 8891SOL    HW238307   3.810   4.284   6.270 -2.4620 -0.5487 -1.2650
 8892SOL     OW38308   3.112   1.800   6.701  0.3034  0.0350  0.1891
 8892SOL    HW138309   3.175   1.754   6.645  0.8951  3.1284 -1.6973
 8892SOL    HW238310   3.162   1.818   6.780  1.1973  1.7763 -0.7644
 8893SOL     OW38311   2.447   2.214   6.751 -0.7113  0.1840  0.2317
 8893SOL    HW138312   2.402   2.280   6.698 -1.3268 -1.0905 -0.8312
 8893SOL    HW238313   2.369   2.186   6.798 -1.7200 -1.4689 -2.4150
 8894SOL     OW38314   3.858   1.673   6.400 -0.0338 -0.4098  0.0621
 8894SOL    HW138315   3.779   1.621   6.382 -0.7573  0.2707  1.2441
 8894SOL    HW238316   3.828   1.741   6.460 -0.6453 -0.5517 -0.0841
 8895SOL     OW38317   3.666   1.310   1.514  0.8513  0.5863  0.1805
 8895SOL    HW138318   3.576   1.342   1.519  1.0514  1.6073 -3.1765
 8895SOL    HW238319   3.717   1.320   1.595  0.3343 -1.9072  0.8088
 8896SOL     OW38320   3.527   3.138   5.674  0.0669 -0.2585 -0.0532
 8896SOL    HW138321   3.595   3.110   5.613  1.3158 -1.8277  2.0655
 8896SOL    HW238322   3.518   3.232   5.656  1.8985 -0.0014  0.4150
 8897SOL     OW38323   4.116   4.049   7.664 -0.7150 -0.1247  0.1765
 8897SOL    HW138324   4.183   3.982   7.675  0.0058  0.1478 -2.5284
 8897SOL    HW238325   4.039   4.005   7.701 -1.3922  0.6204 -0.3391
 8898SOL     OW38326   4.573   4.114   9.155 -0.1419 -0.0442  0.3350
 8898SOL    HW138327   4.577   4.157   9.241  2.6272 -1.1867  0.7788
 8898SOL    HW238328   4.663   4.124   9.125  0.1463 -1.8450  0.6164
 8899SOL     OW38329   2.880   4.070  13.419  0.1125  0.9096 -0.7094
 8899SOL    HW138330   2.894   4.154  13.462 -0.7210  0.4645  0.4344
 8899SOL    HW238331   2.799   4.056  13.469  0.0902 -2.7773 -1.7430
 8900SOL     OW38332   2.173   2.873   2.896 -0.3496 -0.1593 -0.0076
 8900SOL    HW138333   2.079   2.878   2.882  0.0496  0.6345 -2.3242
 8900SOL    HW238334   2.211   2.935   2.834  1.3655  0.7914  1.9735
 8901SOL     OW38335   3.043   3.304   6.981 -0.0003  0.4315 -0.0709
 8901SOL    HW138336   2.954   3.303   6.945  0.4069  1.1766 -1.1299
 8901SOL    HW238337   3.030   3.266   7.067  2.5074  0.2461  0.2159
 8902SOL     OW38338   1.969   2.504   5.562 -0.1996  0.1182  0.3267
 8902SOL    HW138339   2.044   2.563   5.549 -0.1433 -0.0161  0.0385
 8902SOL    HW238340   1.903   2.569   5.585 -0.5466  0.2395 -1.0556
 8903SOL     OW38341   1.701   1.692  16.583 -0.6985 -0.3988  0.5780
 8903SOL    HW138342   1.764   1.735  16.640 -1.5109 -0.5613  1.5876
 8903SOL    HW238343   1.728   1.730  16.499 -1.2339 -0.8605  0.1953
 8904SOL     OW38344   1.008   1.238   8.864  0.2607  0.8200 -0.4674
 8904SOL    HW138345   0.987   1.202   8.778 -1.3220  1.4290 -0.3303
 8904SOL    HW238346   0.948   1.312   8.872  0.5130  0.8394  1.2913
 8905SOL     OW38347   0.882   2.682   0.544 -0.4873 -0.1207  0.5949
 8905SOL    HW138348   0.978   2.680   0.549 -0.3625  2.6970 -0.5371
 8905SOL    HW238349   0.879   2.718   0.633  2.2609 -0.9291  1.0366
 8906SOL     OW38350   1.147   3.591   5.304 -0.7881  0.0336  0.1558
 8906SOL    HW138351   1.062   3.614   5.268  0.4935 -0.3044 -3.0913
 8906SOL    HW238352   1.182   3.527   5.242 -0.6334  0.1502  0.1218
 8907SOL     OW38353   0.561   4.348   3.928  0.2380  0.3097  0.4942
 8907SOL    HW138354   0.546   4.431   3.883  0.5399  0.1754  0.1482
 8907SOL    HW238355   0.572   4.378   4.018  0.2364 -3.0327  1.6060
 8908SOL     OW38356   1.011   2.334   2.045 -0.0338 -0.2585  0.2491
 8908SOL    HW138357   0.931   2.305   2.001 -0.4198 -2.0448  2.1218
 8908SOL    HW238358   1.021   2.276   2.120  0.0350 -0.6826 -0.0843
 8909SOL     OW38359   1.092   4.102   6.341  0.2449  0.0354  0.1616
 8909SOL    HW138360   1.035   4.102   6.264 -1.3764  1.5412  1.3597
 8909SOL    HW238361   1.044   4.158   6.401  1.5600  1.9428 -0.5471
 8910SOL     OW38362   2.321   3.290   5.807 -0.1798  0.3885  0.0081
 8910SOL    HW138363   2.409   3.283   5.769 -0.6793 -0.8071 -0.9260
 8910SOL    HW238364   2.277   3.216   5.765  1.2129 -2.0627  2.8862
 8911SOL     OW38365   4.444   3.730  10.611 -0.4748  0.1948 -0.1244
 8911SOL    HW138366   4.524   3.678  10.603  0.6370  1.6348  1.8138
 8911SOL    HW238367   4.453   3.768  10.698 -0.6361 -1.6187  0.6825
 8912SOL     OW38368   3.651   2.875   7.130 -0.0104 -0.0025  0.5670
 8912SOL    HW138369   3.705   2.933   7.076 -2.5090  3.0672  1.3226
 8912SOL    HW238370   3.715   2.833   7.188  0.2830 -0.1305  0.1486
 8913SOL     OW38371   1.492   0.011   9.570 -0.3122 -0.4868 -0.5737
 8913SOL    HW138372   1.431   0.004   9.497 -2.6068  1.1265  1.2040
 8913SOL    HW238373   1.512   4.660   9.602 -0.2034 -0.0282  0.6343
 8914SOL     OW38374   0.635   2.374   1.476 -0.1917 -0.6761  0.0362
 8914SOL    HW138375   0.606   2.359   1.566 -0.2449  0.1942  0.1652
 8914SOL    HW238376   0.605   2.462   1.454 -0.2114 -0.3695  1.2779
 8915SOL     OW38377   4.675   1.476   8.291 -0.8003  0.1017 -0.1820
 8915SOL    HW138378   4.722   1.402   8.253 -1.2048  0.2707 -1.0081
 8915SOL    HW238379   0.001   1.505   8.357 -0.8775 -0.1688  0.0109
 8916SOL     OW38380   4.169   3.379   4.437 -0.0630  0.0437  0.6139
 8916SOL    HW138381   4.226   3.454   4.457 -1.0413  1.0681 -0.3686
 8916SOL    HW238382   4.141   3.401   4.348 -1.0817 -1.7584  0.4993
 8917SOL     OW38383   2.374   2.377  17.368 -0.0085 -0.1686 -0.4898
 8917SOL    HW138384   2.318   2.434  17.316 -0.7470 -0.3938  0.0536
 8917SOL    HW238385   2.311   2.309  17.393 -0.0699 -0.6130 -1.8623
 8918SOL     OW38386   2.916   1.613   8.499  0.1651 -0.2903 -0.2602
 8918SOL    HW138387   2.843   1.551   8.511 -0.3099  0.2346 -0.4613
 8918SOL    HW238388   2.932   1.653   8.584 -3.3028 -1.0066  0.7418
 8919SOL     OW38389   2.728   2.417   9.896  0.7350 -0.4622 -0.1267
 8919SOL    HW138390   2.684   2.377   9.972 -0.5927  1.2285 -0.0144
 8919SOL    HW238391   2.814   2.434   9.935  0.9218  0.3750 -0.9248
 8920SOL     OW38392   3.963   2.594   2.709 -0.0222 -0.0583 -0.1665
 8920SOL    HW138393   3.878   2.632   2.687 -1.4552 -2.4820  1.1447
 8920SOL    HW238394   3.983   2.542   2.631 -0.0275  0.4018 -0.4684
 8921SOL     OW38395   3.252   2.912   1.442 -0.2790  0.2926 -0.1876
 8921SOL    HW138396   3.325   2.957   1.485 -0.3157  0.9148 -0.7842
 8921SOL    HW238397   3.195   2.896   1.517 -1.3974 -0.5376 -1.2186
 8922SOL     OW38398   1.653   4.501   7.956  0.3626 -0.8679  0.5174
 8922SOL    HW138399   1.568   4.528   7.991  0.2727  2.0049 -1.9687
 8922SOL    HW238400   1.699   4.571   8.001 -1.3128 -0.5747  1.7929
 8923SOL     OW38401   2.983   1.770   8.719 -0.3437  0.5833 -0.3967
 8923SOL    HW138402   3.012   1.831   8.787 -2.3514  0.3830  0.6501
 8923SOL    HW238403   3.011   1.684   8.752 -3.0070  0.1236  0.6777
 8924SOL     OW38404   4.139   3.703   2.463  0.4831  0.0479  0.0171
 8924SOL    HW138405   4.163   3.680   2.373 -3.1154 -1.7468 -0.5026
 8924SOL    HW238406   4.087   3.782   2.447  0.0316 -0.6852 -2.2843
 8925SOL     OW38407   0.558   4.146   8.033  0.4972  0.2362 -0.2169
 8925SOL    HW138408   0.610   4.073   8.066 -1.1688 -0.2716  1.2255
 8925SOL    HW238409   0.587   4.209   8.099 -0.5534  0.7373 -0.2300
 8926SOL     OW38410   2.344   3.530   2.516 -0.4744  0.1500  0.2429
 8926SOL    HW138411   2.362   3.443   2.552  0.9166  0.0923 -0.6135
 8926SOL    HW238412   2.251   3.537   2.538 -0.1329  0.2568  1.6748
 8927SOL     OW38413   3.012   2.456   8.639  0.3139  0.4605  0.4418
 8927SOL    HW138414   3.012   2.388   8.571  0.4826 -0.4876  1.3974
 8927SOL    HW238415   2.952   2.414   8.700  1.6629 -1.6993  0.2894
 8928SOL     OW38416   2.350   0.546   5.618 -0.2625  0.2447 -0.4819
 8928SOL    HW138417   2.302   0.619   5.656 -2.0015 -1.4003  0.4870
 8928SOL    HW238418   2.276   0.494   5.586 -0.3682  0.7407 -1.0440
 8929SOL     OW38419   0.316   2.844   4.180  0.1739 -0.2292  0.0436
 8929SOL    HW138420   0.403   2.808   4.197  0.7953  1.3123  0.1561
 8929SOL    HW238421   0.332   2.939   4.179 -2.9712  0.2803 -1.4304
 8930SOL     OW38422   0.596   1.374   1.573 -0.7466 -0.7888 -0.2160
 8930SOL    HW138423   0.575   1.415   1.657  1.5137  2.2377 -1.1146
 8930SOL    HW238424   0.653   1.303   1.601  0.3448 -0.7290 -2.2842
 8931SOL     OW38425   1.317   1.698   1.802  0.2488  0.2163  0.4150
 8931SOL    HW138426   1.369   1.765   1.847  0.1517  1.5966 -1.4886
 8931SOL    HW238427   1.387   1.656   1.752 -0.8442 -1.6454  0.4555
 8932SOL     OW38428   1.139   3.173   4.492  0.6372 -0.1294  0.1695
 8932SOL    HW138429   1.086   3.133   4.422  0.3965  0.7983 -0.1746
 8932SOL    HW238430   1.225   3.161   4.451  0.2733 -0.7474 -0.4174
 8933SOL     OW38431   2.347   3.070  16.183 -0.5055 -0.1603 -0.3654
 8933SOL    HW138432   2.301   3.046  16.103  1.7322  0.6550 -1.9281
 8933SOL    HW238433   2.437   3.047  16.159 -1.4732 -0.5058 -3.5694
 8934SOL     OW38434   2.432   4.153   5.780  0.0033 -0.0169  0.1197
 8934SOL    HW138435   2.483   4.233   5.765  0.0402  0.0593  0.6195
 8934SOL    HW238436   2.493   4.108   5.838 -1.8891 -3.4558 -0.6043
 8935SOL     OW38437   3.892   0.242   4.183  0.3884  0.1043 -0.6743
 8935SOL    HW138438   3.835   0.175   4.222  0.3696  0.2616 -0.4339
 8935SOL    HW238439   3.889   0.316   4.244 -2.5242  0.1369 -0.8607
 8936SOL     OW38440   2.148   3.964   2.130 -0.1517  0.0508  0.5404
 8936SOL    HW138441   2.137   3.884   2.078  1.0810  1.6911 -2.2637
 8936SOL    HW238442   2.102   4.029   2.078  2.0274  0.4155 -0.9455
 8937SOL     OW38443   2.644   3.718   3.054  0.4441  0.0264 -0.0789
 8937SOL    HW138444   2.636   3.648   2.989  1.5340  1.2547 -1.5377
 8937SOL    HW238445   2.732   3.719   3.090  1.0365 -2.0587 -1.4857
 8938SOL     OW38446   3.421   2.772   1.873 -0.0098  0.4186  0.7259
 8938SOL    HW138447   3.399   2.812   1.789  1.1247  0.9166  0.6753
 8938SOL    HW238448   3.514   2.795   1.877  0.6151 -2.1112  0.9800
 8939SOL     OW38449   0.002   3.357  15.053  0.1193 -0.0039  0.1310
 8939SOL    HW138450   4.684   3.435  15.045 -0.1630 -0.3411 -1.2539
 8939SOL    HW238451   0.016   3.333  14.961 -0.3203  0.8262 -0.1518
 8940SOL     OW38452   3.582   0.654   0.284 -0.5408  0.1215 -0.6914
 8940SOL    HW138453   3.636   0.587   0.326 -1.0704 -0.1664 -0.4674
 8940SOL    HW238454   3.614   0.728   0.337 -0.1335 -0.8192  0.3758
 8941SOL     OW38455   4.288   4.150   0.932  0.2400 -0.2090 -0.0771
 8941SOL    HW138456   4.220   4.213   0.955 -1.1661 -0.9774 -2.1165
 8941SOL    HW238457   4.342   4.206   0.876  0.7465 -0.5910  0.0392
 8942SOL     OW38458   1.426   4.348   5.829  0.1296 -0.6690  0.1487
 8942SOL    HW138459   1.516   4.380   5.826  0.5113 -1.8353 -0.6165
 8942SOL    HW238460   1.389   4.426   5.871 -0.9144 -0.9310 -0.2883
 8943SOL     OW38461   2.069   2.327   6.275 -0.5617  0.2184  0.3209
 8943SOL    HW138462   2.162   2.304   6.266 -0.8303 -0.8106  0.1751
 8943SOL    HW238463   2.062   2.422   6.268 -1.0542 -0.0478 -2.6713
 8944SOL     OW38464   3.034   2.337  10.003 -0.5945  0.1461  0.3319
 8944SOL    HW138465   2.996   2.301   9.923  1.6717 -0.1509 -0.6372
 8944SOL    HW238466   3.127   2.351   9.982 -0.9977 -0.7723 -2.0303
 8945SOL     OW38467   1.434   1.727   8.843 -0.1927  0.2123 -0.0852
 8945SOL    HW138468   1.353   1.678   8.856 -0.7092  1.1465  0.2126
 8945SOL    HW238469   1.403   1.796   8.784  1.2466 -0.7619 -1.9834
 8946SOL     OW38470   2.431   2.139  17.256 -0.3779 -0.0829 -0.1989
 8946SOL    HW138471   2.437   2.231  17.284  1.9210  0.2180 -1.6266
 8946SOL    HW238472   2.517   2.137  17.214 -0.5110 -1.3545 -0.4064
 8947SOL     OW38473   3.414   4.248   8.780 -0.1335  0.0713 -0.4729
 8947SOL    HW138474   3.450   4.297   8.855  0.4275  1.1572 -1.4336
 8947SOL    HW238475   3.341   4.204   8.822  1.1595 -2.1802 -0.6005
 8948SOL     OW38476   1.675   3.184  14.742 -0.3134 -0.7818 -0.2498
 8948SOL    HW138477   1.593   3.205  14.697  0.9248  1.1018 -1.6175
 8948SOL    HW238478   1.715   3.129  14.674  2.3542 -1.7822  2.1065
 8949SOL     OW38479   3.560   1.911   6.354 -0.3243 -0.4426 -0.3248
 8949SOL    HW138480   3.651   1.939   6.359 -0.3025 -0.6993  0.7581
 8949SOL    HW238481   3.569   1.851   6.279  0.6092 -0.7858  0.0640
 8950SOL     OW38482   1.215   0.634   9.302 -0.0692 -0.6008  0.5358
 8950SOL    HW138483   1.159   0.583   9.244 -2.4846  1.2738  1.2084
 8950SOL    HW238484   1.244   0.700   9.239  0.0830 -0.5763  0.6318
 8951SOL     OW38485   2.661   2.191   9.497  0.7703 -0.3287  0.4201
 8951SOL    HW138486   2.663   2.096   9.483  2.8389  0.0354 -1.8265
 8951SOL    HW238487   2.602   2.184   9.572  0.5993 -1.9801  0.1310
 8952SOL     OW38488   2.479   3.813  16.626 -0.5169  0.5619 -0.2773
 8952SOL    HW138489   2.401   3.770  16.589 -0.1523  1.5386 -2.1455
 8952SOL    HW238490   2.444   3.901  16.637 -2.1329 -0.1277  0.2444
 8953SOL     OW38491   2.585   1.605   9.520 -0.1825  0.0204 -0.6664
 8953SOL    HW138492   2.582   1.510   9.511  0.4473 -0.2910  2.5818
 8953SOL    HW238493   2.496   1.618   9.487  0.0889  0.7841 -1.0899
 8954SOL     OW38494   1.795   1.470   5.346  0.3405  0.3748  0.2459
 8954SOL    HW138495   1.877   1.512   5.371  0.5099 -0.8015  1.6383
 8954SOL    HW238496   1.776   1.507   5.260  0.7927  0.6976  0.2838
 8955SOL     OW38497   0.759   1.121   5.489  0.3723 -0.0679 -0.3180
 8955SOL    HW138498   0.740   1.028   5.481  0.1128  0.1183 -1.8932
 8955SOL    HW238499   0.731   1.152   5.403  1.5905 -0.7829 -0.9707
 8956SOL     OW38500   0.548   2.349   8.418  0.4512  0.3630 -0.0826
 8956SOL    HW138501   0.636   2.386   8.418  1.4849 -2.1232  0.1498
 8956SOL    HW238502   0.492   2.426   8.420 -0.8107 -0.5490  0.0570
 8957SOL     OW38503   2.925   4.300   7.458  0.8542  0.1995  0.3380
 8957SOL    HW138504   2.958   4.288   7.369  1.0258 -0.8542  0.5479
 8957SOL    HW238505   2.836   4.266   7.453  0.0024  2.5613 -0.7868
 8958SOL     OW38506   1.935   3.832  17.334 -0.0282 -0.2051 -0.1980
 8958SOL    HW138507   2.006   3.792  17.384  0.2859 -0.4010 -0.7985
 8958SOL    HW238508   1.964   3.811  17.245  0.7815 -0.2505  0.0767
 8959SOL     OW38509   0.837   4.094  12.994 -0.0261  0.7843  0.4348
 8959SOL    HW138510   0.897   4.164  12.966 -1.1212  1.1906 -0.8997
 8959SOL    HW238511   0.892   4.057  13.062  1.1702 -0.3460 -1.1528
 8960SOL     OW38512   2.618   2.165  14.915 -0.2317 -0.1671 -0.4119
 8960SOL    HW138513   2.602   2.172  15.009 -0.2620 -1.7740 -0.3048
 8960SOL    HW238514   2.696   2.219  14.902 -1.2115  1.2598 -0.4514
 8961SOL     OW38515   0.799   4.670  17.666  0.7071 -0.1297 -0.6441
 8961SOL    HW138516   0.881   4.620  17.668  1.8170  1.7466  1.0169
 8961SOL    HW238517   0.728   4.613  17.695 -0.5941  0.9303 -1.7593
 8962SOL     OW38518   1.543   2.342   5.494  0.4416 -0.0453 -0.9923
 8962SOL    HW138519   1.485   2.277   5.535  0.1092 -0.1007 -1.5421
 8962SOL    HW238520   1.482   2.391   5.438 -3.2571 -2.7061  0.6754
 8963SOL     OW38521   1.562   2.525  11.829  0.0300 -0.4351 -0.3203
 8963SOL    HW138522   1.480   2.514  11.879 -0.6196  0.2674 -1.2348
 8963SOL    HW238523   1.629   2.538  11.896 -1.4140  1.0210  0.8536
 8964SOL     OW38524   4.026   4.562   6.469 -0.7524 -0.2169  0.2204
 8964SOL    HW138525   3.936   4.582   6.445 -0.9111 -3.4283 -1.7191
 8964SOL    HW238526   4.039   4.470   6.447  0.2028 -0.0085 -0.0823
 8965SOL     OW38527   4.329   1.193   3.447 -0.3757  0.1334  0.6325
 8965SOL    HW138528   4.414   1.195   3.490  0.6013 -0.4443 -1.2850
 8965SOL    HW238529   4.356   1.212   3.357 -1.5923 -0.3515  0.1585
 8966SOL     OW38530   3.502   1.410   6.100  0.7075 -0.0451 -0.6820
 8966SOL    HW138531   3.447   1.339   6.132  0.5043  0.6610  0.5088
 8966SOL    HW238532   3.437   1.473   6.068 -0.5853 -1.2066 -0.3420
 8967SOL     OW38533   3.482   0.671   1.810  0.2518  0.0581  0.1536
 8967SOL    HW138534   3.394   0.636   1.794 -0.1086  1.1136 -0.1357
 8967SOL    HW238535   3.468   0.760   1.841 -1.2995 -0.5338  1.1411
 8968SOL     OW38536   0.511   3.548  16.797 -0.2743 -0.4931 -0.4730
 8968SOL    HW138537   0.554   3.620  16.751  0.2333 -1.9965 -2.3338
 8968SOL    HW238538   0.419   3.569  16.778 -0.6102 -1.9218 -0.4351
 8969SOL     OW38539   3.665   4.296   5.802 -0.4345  0.5858 -0.4103
 8969SOL    HW138540   3.754   4.328   5.815 -0.6780  0.9362  0.4134
 8969SOL    HW238541   3.681   4.221   5.745  1.3604 -0.2378  1.1943
 8970SOL     OW38542   3.255   0.162   4.621 -0.1892  0.1837 -0.0917
 8970SOL    HW138543   3.318   0.195   4.685  1.6792 -1.1105 -1.2721
 8970SOL    HW238544   3.172   0.195   4.655 -1.7362 -2.2608 -1.4154
 8971SOL     OW38545   2.076   1.892  15.052  0.9318 -0.0034  0.1902
 8971SOL    HW138546   2.082   1.888  14.956  0.1077 -0.3859  0.1567
 8971SOL    HW238547   2.046   1.980  15.071  0.1669 -0.2645  0.1833
 8972SOL     OW38548   2.743   3.741   1.692  0.5698 -0.2285  0.3193
 8972SOL    HW138549   2.781   3.778   1.772 -0.2435 -0.2260  0.7008
 8972SOL    HW238550   2.686   3.815   1.671 -0.0110 -0.3513  1.5050
 8973SOL     OW38551   1.216   2.125   6.375 -0.1827  0.0556 -0.1364
 8973SOL    HW138552   1.307   2.143   6.351  0.8760  1.1133  4.5065
 8973SOL    HW238553   1.237   2.096   6.464  0.5439  0.9254 -0.0274
 8974SOL     OW38554   4.344   0.018   6.712 -0.0877  0.4131  0.2673
 8974SOL    HW138555   4.342   0.099   6.763 -0.4248 -0.4158  1.5764
 8974SOL    HW238556   4.300   0.042   6.630  2.2548 -0.5839 -1.2777
 8975SOL     OW38557   4.595   3.049  14.800  0.0691  0.0296 -0.5317
 8975SOL    HW138558   4.638   3.134  14.804  0.8083 -0.3807  0.3727
 8975SOL    HW238559   4.661   2.997  14.753  1.9164 -0.1118  2.2111
 8976SOL     OW38560   1.494   1.311   8.492  0.2585 -0.1642  0.4739
 8976SOL    HW138561   1.398   1.308   8.489  0.2096 -0.6820  2.2602
 8976SOL    HW238562   1.509   1.301   8.586  1.0253 -0.2814  0.3391
 8977SOL     OW38563   1.600   3.194   0.304 -0.5282 -0.4778 -0.0824
 8977SOL    HW138564   1.542   3.191   0.228 -0.6756 -0.4638  0.0296
 8977SOL    HW238565   1.688   3.196   0.267 -0.1711 -2.6212  0.6805
 8978SOL     OW38566   0.551   1.755   4.107  0.1433 -0.0346 -0.3241
 8978SOL    HW138567   0.577   1.846   4.123 -0.2575  0.2450 -1.1997
 8978SOL    HW238568   0.593   1.717   4.183  2.8580 -0.7424 -2.1843
 8979SOL     OW38569   2.245   4.669   9.868  0.5651  0.3887 -0.1327
 8979SOL    HW138570   2.179   4.665   9.799  0.4116  0.1811  0.0226
 8979SOL    HW238571   2.308   4.729   9.830  0.7369  0.2230 -0.1092
 8980SOL     OW38572   4.410   1.521   6.780 -0.0289 -0.1512  0.0196
 8980SOL    HW138573   4.360   1.484   6.852  0.9493  1.5168  1.5590
 8980SOL    HW238574   4.496   1.480   6.788 -0.0050 -0.0308  0.3774
 8981SOL     OW38575   4.654   2.848   4.066  0.0691 -0.3651 -0.1706
 8981SOL    HW138576   4.727   2.815   4.118  2.4706  2.2589 -1.9134
 8981SOL    HW238577   4.677   2.824   3.976  0.8125  3.1393 -0.9412
 8982SOL     OW38578   1.710   1.142   3.258 -0.0581 -0.6114  0.2722
 8982SOL    HW138579   1.675   1.054   3.246  0.2349 -0.5881 -0.8036
 8982SOL    HW238580   1.801   1.131   3.231 -0.3536 -0.1963 -0.9234
 8983SOL     OW38581   4.348   1.339   8.276  0.3824  0.2544 -0.2754
 8983SOL    HW138582   4.296   1.383   8.343 -2.5382 -1.8128 -1.1951
 8983SOL    HW238583   4.438   1.340   8.309  0.6000  1.1740 -0.8862
 8984SOL     OW38584   2.225   0.688   5.072  0.3948 -0.4777  0.4160
 8984SOL    HW138585   2.147   0.631   5.066  0.5126 -0.8555  2.5142
 8984SOL    HW238586   2.258   0.666   5.159 -0.9157 -1.8453  0.5716
 8985SOL     OW38587   0.027   3.672   0.305  0.1587  0.0808 -0.4668
 8985SOL    HW138588   4.700   3.636   0.243 -0.9900  0.9014  0.2493
 8985SOL    HW238589   4.734   3.763   0.299 -3.6847 -1.2355 -1.5925
 8986SOL     OW38590   3.120   0.766   8.923  0.2437  0.0132  0.0159
 8986SOL    HW138591   3.115   0.695   8.988 -0.7445 -0.9939 -1.1694
 8986SOL    HW238592   3.028   0.790   8.925 -0.2643 -1.8736 -0.4536
 8987SOL     OW38593   3.125   1.833   3.711 -0.1110  0.0949  0.1911
 8987SOL    HW138594   3.195   1.862   3.653  2.3824 -0.3710  2.9383
 8987SOL    HW238595   3.168   1.775   3.774  1.8154  0.9049 -0.3865
 8988SOL     OW38596   0.730   1.700   1.985  0.5928  0.4006 -0.2274
 8988SOL    HW138597   0.684   1.619   2.008  0.6240  0.6761  0.8058
 8988SOL    HW238598   0.818   1.667   2.005  0.9085  1.2480 -0.2388
 8989SOL     OW38599   3.571   0.823   0.970  0.5912 -0.0840  0.1412
 8989SOL    HW138600   3.615   0.821   1.055 -1.2061 -2.3825  1.0080
 8989SOL    HW238601   3.491   0.777   0.994 -0.2595  1.0583 -0.4683
 8990SOL     OW38602   1.894   2.816   2.469  0.0331  0.2465 -0.0357
 8990SOL    HW138603   1.878   2.816   2.563  1.4667 -0.4535  0.2123
 8990SOL    HW238604   1.807   2.823   2.431 -0.2386  0.7883  0.7029
 8991SOL     OW38605   0.324   1.423   3.330  0.2305 -0.1367 -0.3264
 8991SOL    HW138606   0.296   1.425   3.422  0.9064  0.4947 -0.1356
 8991SOL    HW238607   0.406   1.375   3.345  0.2398  0.1473  0.5474
 8992SOL     OW38608   1.702   3.772   7.008  0.2211 -0.1980 -0.0298
 8992SOL    HW138609   1.777   3.789   7.066 -1.2344 -0.9552  2.0754
 8992SOL    HW238610   1.697   3.861   6.974  2.5355  0.6979  1.9621
 8993SOL     OW38611   1.682   1.939   3.047 -0.4232 -0.0773  0.0865
 8993SOL    HW138612   1.598   1.971   3.016 -0.0541 -0.7194 -1.5724
 8993SOL    HW238613   1.685   1.987   3.130  0.1147  1.3190 -0.7290
 8994SOL     OW38614   1.245   0.370  11.055 -0.4110  0.0974 -0.0989
 8994SOL    HW138615   1.307   0.436  11.022  1.6864 -1.3444  0.9773
 8994SOL    HW238616   1.164   0.405  11.017 -0.4912  0.3277  0.2876
 8995SOL     OW38617   3.306   2.129   3.965 -0.5781 -0.7490  0.3942
 8995SOL    HW138618   3.303   2.197   3.898  1.6925  0.6225  1.6811
 8995SOL    HW238619   3.399   2.106   3.959 -0.4037 -0.1350  0.7816
 8996SOL     OW38620   1.550   2.513  17.330 -0.0442 -0.6556 -0.1133
 8996SOL    HW138621   1.517   2.427  17.305  1.1199 -1.4567  1.0993
 8996SOL    HW238622   1.471   2.548  17.371  0.1839 -1.9474  1.4379
 8997SOL     OW38623   4.185   2.619   1.700 -0.1621 -0.6445 -0.5260
 8997SOL    HW138624   4.107   2.673   1.715  0.0239 -0.6471  0.4757
 8997SOL    HW238625   4.142   2.541   1.665 -1.2923 -0.3463  0.2063
 8998SOL     OW38626   1.067   1.952   7.208  0.0833 -0.3131 -0.2871
 8998SOL    HW138627   1.023   1.987   7.286  0.8605 -1.9319  0.8746
 8998SOL    HW238628   0.996   1.940   7.145 -0.5327 -2.1418  0.7604
 8999SOL     OW38629   3.297   3.597  11.708 -0.1570  0.4114 -0.1718
 8999SOL    HW138630   3.358   3.535  11.748 -1.7578 -1.0130  0.0651
 8999SOL    HW238631   3.300   3.574  11.615  0.8246 -1.4935  0.3191
 9000SOL     OW38632   2.152   1.325  10.102  0.0512  0.1034  0.4461
 9000SOL    HW138633   2.158   1.408  10.055  0.7303 -0.9448 -1.3003
 9000SOL    HW238634   2.107   1.273  10.036  0.1022  1.7741 -0.9197
 9001SOL     OW38635   0.129   2.036   0.513 -0.2382 -0.1493  0.0694
 9001SOL    HW138636   0.105   2.125   0.538  0.9538  0.0457  0.5384
 9001SOL    HW238637   0.225   2.039   0.514 -0.2268 -0.2925 -0.6002
 9002SOL     OW38638   0.134   3.878   6.157  0.0439  0.4308 -0.2250
 9002SOL    HW138639   0.191   3.930   6.213 -0.2432 -1.8721  2.2077
 9002SOL    HW238640   0.195   3.808   6.134 -0.3007  0.0945 -0.1232
 9003SOL     OW38641   4.222   0.891   6.075  0.1492  0.1056  0.0435
 9003SOL    HW138642   4.309   0.859   6.103  1.1032  1.2874 -1.5828
 9003SOL    HW238643   4.261   0.962   6.024  0.7907 -0.2013  0.1018
 9004SOL     OW38644   3.510   1.137   2.445  0.0308 -0.0100  0.3781
 9004SOL    HW138645   3.540   1.226   2.463 -1.8794  0.3883  1.6167
 9004SOL    HW238646   3.582   1.118   2.385 -0.5138 -1.2017  0.0998
 9005SOL     OW38647   3.710   3.630  12.848  0.1405 -0.2693 -0.0944
 9005SOL    HW138648   3.764   3.638  12.926  0.7090  0.7719 -0.6091
 9005SOL    HW238649   3.706   3.722  12.824 -2.6188 -0.5032 -0.5209
 9006SOL     OW38650   3.558   2.142   8.919 -0.5236  0.0170 -0.6773
 9006SOL    HW138651   3.611   2.222   8.910 -0.5449  0.3794  2.5808
 9006SOL    HW238652   3.471   2.179   8.932 -0.1943  0.7379 -0.5464
 9007SOL     OW38653   3.751   0.182  14.512  0.4400  0.2706 -0.3086
 9007SOL    HW138654   3.700   0.243  14.458 -0.2406 -0.9420 -1.0285
 9007SOL    HW238655   3.773   0.116  14.447 -3.1556  0.4852 -1.7639
 9008SOL     OW38656   0.673   1.035   2.677  0.0484  0.0087 -0.1487
 9008SOL    HW138657   0.702   1.126   2.690 -2.2372  0.6727  0.2469
 9008SOL    HW238658   0.755   0.987   2.683  1.1375  1.9839  1.2022
 9009SOL     OW38659   1.069   3.341   5.158  0.1019 -0.8161 -0.0243
 9009SOL    HW138660   1.058   3.258   5.111 -1.1688 -0.1115 -0.9650
 9009SOL    HW238661   1.099   3.308   5.242 -0.4181  1.0144  0.8823
 9010SOL     OW38662   2.583   0.693  15.910  0.5385  0.0172 -0.3619
 9010SOL    HW138663   2.530   0.769  15.933  1.1016  0.5363 -0.8095
 9010SOL    HW238664   2.590   0.698  15.815  2.3829 -0.1146 -0.2145
 9011SOL     OW38665   1.698   3.210   4.487  0.0440 -0.3451 -0.1441
 9011SOL    HW138666   1.694   3.217   4.392 -0.8372  0.3292 -0.0609
 9011SOL    HW238667   1.767   3.274   4.507  0.6737 -0.7061 -1.2027
 9012SOL     OW38668   4.627   4.486   6.068  0.2324 -0.3890  0.0627
 9012SOL    HW138669   4.690   4.549   6.033  1.0261 -0.4438  1.3899
 9012SOL    HW238670   4.680   4.454   6.140 -0.0774  1.2042  0.9892
 9013SOL     OW38671   0.980   2.526   1.458 -0.8239  0.4116  0.2273
 9013SOL    HW138672   1.060   2.557   1.498  0.7648  0.3816 -2.9297
 9013SOL    HW238673   1.003   2.434   1.444 -1.3435  0.1273  1.2258
 9014SOL     OW38674   2.478   0.569   2.166  0.2946  0.1324 -0.0486
 9014SOL    HW138675   2.562   0.599   2.199 -0.9303  2.6168  0.8031
 9014SOL    HW238676   2.433   0.593   2.247 -0.0072  1.7919 -0.6996
 9015SOL     OW38677   1.736   0.467   5.361  0.2499  0.0117 -0.4065
 9015SOL    HW138678   1.727   0.430   5.449 -2.2206 -3.2098 -2.0659
 9015SOL    HW238679   1.819   0.427   5.334  0.2434  0.4329 -1.0563
 9016SOL     OW38680   2.095   2.233   1.337 -0.2579 -0.0053 -0.0792
 9016SOL    HW138681   2.158   2.173   1.297 -0.4144 -1.3927  1.7597
 9016SOL    HW238682   2.058   2.279   1.262  0.2301 -0.4138 -0.5675
 9017SOL     OW38683   3.645   3.685   4.239  0.0264  0.0373  0.2291
 9017SOL    HW138684   3.699   3.661   4.164  2.5471  3.6658  0.8870
 9017SOL    HW238685   3.709   3.680   4.310 -1.1500 -0.1432  1.2814
 9018SOL     OW38686   0.522   0.830   4.867  0.2790 -0.4482 -0.5433
 9018SOL    HW138687   0.599   0.864   4.822 -1.0284  1.1383 -1.6001
 9018SOL    HW238688   0.556   0.741   4.859 -1.6672 -1.2089 -0.3607
 9019SOL     OW38689   4.011   4.624  10.858  0.6996 -0.2862 -0.7018
 9019SOL    HW138690   3.959   4.558  10.812  2.8266 -1.6346 -1.1890
 9019SOL    HW238691   3.943   4.678  10.898  0.5999 -0.9789  0.0797
 9020SOL     OW38692   0.827   1.580   2.550  0.2145  0.2431  0.1541
 9020SOL    HW138693   0.856   1.616   2.634 -1.0526  0.8317  0.3478
 9020SOL    HW238694   0.906   1.549   2.507  0.6223 -1.5611  2.1712
 9021SOL     OW38695   1.927   3.909   6.349 -0.7439 -0.6740  0.6714
 9021SOL    HW138696   1.861   3.843   6.328  0.5009 -2.0534  1.1259
 9021SOL    HW238697   2.002   3.849   6.354 -0.4788 -0.1889  2.5354
 9022SOL     OW38698   4.219   0.685   0.884 -0.3557  0.6613 -0.0717
 9022SOL    HW138699   4.190   0.598   0.909 -1.7647  1.4699  1.1216
 9022SOL    HW238700   4.143   0.710   0.831  0.7427  1.5774 -1.2241
 9023SOL     OW38701   1.125   0.315   6.876  0.4100  0.3091  0.0044
 9023SOL    HW138702   1.124   0.281   6.786 -1.0568  0.5804 -0.0952
 9023SOL    HW238703   1.034   0.297   6.901  0.6331 -1.8576 -0.7999
 9024SOL     OW38704   1.855   4.577  11.999  0.0653 -0.4544 -0.4846
 9024SOL    HW138705   1.922   4.636  11.964 -0.6516  0.8592  0.3427
 9024SOL    HW238706   1.827   4.543  11.914  1.1698  1.2997 -1.5379
 9025SOL     OW38707   4.202   3.883  16.298  0.1497  0.2130 -0.1563
 9025SOL    HW138708   4.248   3.965  16.282 -1.8043  0.6460 -3.5535
 9025SOL    HW238709   4.274   3.827  16.324 -1.6658 -2.2302 -0.4002
 9026SOL     OW38710   2.264   3.509  14.892 -0.0735 -0.1328 -0.0502
 9026SOL    HW138711   2.346   3.557  14.885  0.6413 -1.2655  0.7223
 9026SOL    HW238712   2.281   3.449  14.964  0.4923 -1.3162 -1.1717
 9027SOL     OW38713   0.498   4.600   4.502 -0.8681  0.1414  0.2547
 9027SOL    HW138714   0.538   4.522   4.541  1.9910  0.7308 -1.5289
 9027SOL    HW238715   0.549   4.664   4.552  0.2450 -0.8360  0.3791
 9028SOL     OW38716   1.380   2.406   5.276  0.2343  0.4314 -0.3650
 9028SOL    HW138717   1.380   2.476   5.211 -2.6146 -0.1305 -0.9350
 9028SOL    HW238718   1.300   2.358   5.260  0.7906 -0.1879 -1.2422
 9029SOL     OW38719   3.584   1.009   4.421  0.3682 -0.0642 -0.1708
 9029SOL    HW138720   3.578   1.104   4.435 -1.9475 -0.1174 -0.9144
 9029SOL    HW238721   3.659   0.989   4.366 -0.1970 -1.5045 -0.4174
 9030SOL     OW38722   1.199   0.799   3.932  0.3082 -0.0696 -0.0865
 9030SOL    HW138723   1.257   0.808   3.856  0.6858  1.0970  0.3508
 9030SOL    HW238724   1.113   0.804   3.889  1.8658  1.9810 -2.9544
 9031SOL     OW38725   3.941   2.369   8.327 -0.0633 -0.5908 -0.3013
 9031SOL    HW138726   3.852   2.352   8.359  0.0633  1.2054  1.0192
 9031SOL    HW238727   3.985   2.368   8.412  0.0362  0.2231 -0.3479
 9032SOL     OW38728   0.965   0.551   8.413 -0.5867 -0.0802 -0.3079
 9032SOL    HW138729   0.965   0.639   8.376 -2.5159 -0.0102 -0.1386
 9032SOL    HW238730   0.957   0.504   8.330 -0.7804 -1.0118  0.2335
 9033SOL     OW38731   1.163   0.120   7.139  0.0266  0.3953 -0.2724
 9033SOL    HW138732   1.093   0.184   7.152  0.5643  1.0486 -0.5761
 9033SOL    HW238733   1.144   0.092   7.050  0.3190  1.0927 -0.5596
 9034SOL     OW38734   4.332   4.273   4.994 -0.3450  0.2582 -0.0945
 9034SOL    HW138735   4.304   4.223   4.917  0.3040  1.9835 -1.4338
 9034SOL    HW238736   4.288   4.233   5.069  0.4023  0.8421  0.6461
 9035SOL     OW38737   3.350   1.624   4.976  0.0253 -0.6141 -0.9687
 9035SOL    HW138738   3.317   1.537   4.998  1.3256 -0.2872  2.2661
 9035SOL    HW238739   3.267   1.662   4.946  0.8169  1.6459 -0.2811
 9036SOL     OW38740   3.342   2.779   1.104 -0.0312 -0.3406  0.1037
 9036SOL    HW138741   3.260   2.755   1.147 -0.4507 -3.0736 -2.2387
 9036SOL    HW238742   3.382   2.695   1.083 -1.2324 -1.5038  2.4868
 9037SOL     OW38743   3.758   0.671   0.822 -0.4655 -0.0258  0.0074
 9037SOL    HW138744   3.694   0.729   0.863  1.0098  2.0251 -0.5599
 9037SOL    HW238745   3.823   0.649   0.889 -1.0914 -1.0060  0.2919
 9038SOL     OW38746   2.418   2.047   2.467 -0.1160  0.0728 -0.2383
 9038SOL    HW138747   2.382   2.039   2.379  0.0010  0.4850 -0.3200
 9038SOL    HW238748   2.406   2.140   2.485 -0.4195  0.1933 -1.0460
 9039SOL     OW38749   1.813   1.473   2.260  0.3972 -0.3015 -0.1093
 9039SOL    HW138750   1.784   1.387   2.229  0.0252  0.0233 -0.6709
 9039SOL    HW238751   1.890   1.458   2.315  1.0754 -2.9797 -1.7917
 9040SOL     OW38752   0.596   3.238   7.358 -0.2448 -0.6875  0.5297
 9040SOL    HW138753   0.564   3.151   7.332 -0.7324 -0.4741  0.4327
 9040SOL    HW238754   0.687   3.216   7.380 -0.2450  1.4804  2.6370
 9041SOL     OW38755   0.395   2.112   8.343  0.3807 -0.1532  0.2218
 9041SOL    HW138756   0.429   2.191   8.385  3.1925  0.1841 -2.6324
 9041SOL    HW238757   0.302   2.130   8.349  0.7299  1.3648  1.1078
 9042SOL     OW38758   1.727   0.071  16.087 -0.2335 -0.3212  0.2610
 9042SOL    HW138759   1.708   0.074  15.994 -0.3448 -2.1096  0.2265
 9042SOL    HW238760   1.662   0.137  16.114 -0.8100 -1.6120  2.0512
 9043SOL     OW38761   2.050   0.605   1.585 -0.5647  0.2353  0.5723
 9043SOL    HW138762   2.011   0.567   1.664 -1.4236 -0.2953 -0.1099
 9043SOL    HW238763   2.129   0.552   1.582 -0.4955  0.4164 -0.7739
 9044SOL     OW38764   1.941   2.993   5.441  0.7661  0.5437  0.2399
 9044SOL    HW138765   2.004   2.950   5.383  2.8199  1.3654  1.8545
 9044SOL    HW238766   1.952   2.946   5.524  1.0243  2.4337  1.2666
 9045SOL     OW38767   0.363   2.379  12.248 -0.3015  0.2341  0.1627
 9045SOL    HW138768   0.402   2.300  12.287 -0.8064  0.5419  1.2977
 9045SOL    HW238769   0.363   2.364  12.154 -1.9805 -3.2278  0.6710
 9046SOL     OW38770   3.756   2.111   5.513  0.3214  0.1645 -0.0936
 9046SOL    HW138771   3.783   2.028   5.474  0.9048 -0.7077  2.1641
 9046SOL    HW238772   3.768   2.164   5.434 -3.0912 -0.5607 -1.0952
 9047SOL     OW38773   2.091   2.228  13.259  0.2455  0.0186 -0.0576
 9047SOL    HW138774   2.060   2.152  13.211  0.8625 -0.9732  1.1355
 9047SOL    HW238775   2.027   2.291  13.226 -2.2515 -2.3025  0.3400
 9048SOL     OW38776   3.770   2.739   3.026 -0.1196  0.0221  0.1404
 9048SOL    HW138777   3.786   2.805   3.093 -1.3645  0.2973  0.1720
 9048SOL    HW238778   3.734   2.672   3.083 -0.7969  0.7638  0.5871
 9049SOL     OW38779   2.528   1.615   6.223 -0.3085  0.1164 -0.1320
 9049SOL    HW138780   2.452   1.613   6.164  1.4377 -2.1146 -2.3419
 9049SOL    HW238781   2.490   1.600   6.309 -3.1993  0.4252 -1.3460
 9050SOL     OW38782   1.310   2.190   5.938  0.0437  0.2035  0.3573
 9050SOL    HW138783   1.378   2.168   6.002  0.6637  0.8290 -0.0908
 9050SOL    HW238784   1.368   2.192   5.862 -0.1671 -2.4941  0.0981
 9051SOL     OW38785   2.634   3.114   6.660  0.1886  0.6076 -0.5818
 9051SOL    HW138786   2.708   3.120   6.600  2.0086  0.9728  1.6952
 9051SOL    HW238787   2.679   3.092   6.742 -0.8281 -0.0538 -0.1970
 9052SOL     OW38788   0.242   1.359   0.628 -0.9075 -0.1060 -0.1052
 9052SOL    HW138789   0.249   1.350   0.533 -0.0237  0.5750 -0.1130
 9052SOL    HW238790   0.212   1.447   0.649  2.0701  0.3732  2.1714
 9053SOL     OW38791   0.155   4.466   7.807 -0.3701 -0.5922 -0.2676
 9053SOL    HW138792   0.095   4.528   7.765 -0.6371 -0.5597  0.1575
 9053SOL    HW238793   0.137   4.486   7.899 -0.4367 -0.4701 -0.3076
 9054SOL     OW38794   2.093   0.912   5.861 -0.0048 -0.1976  0.2371
 9054SOL    HW138795   2.007   0.879   5.838 -0.7831  0.9013  1.5685
 9054SOL    HW238796   2.079   0.950   5.948 -2.4544  1.6149 -0.9561
 9055SOL     OW38797   3.732   2.129   2.571 -0.2722  0.3185 -0.2622
 9055SOL    HW138798   3.711   2.213   2.613 -0.2852 -1.1290  2.6149
 9055SOL    HW238799   3.669   2.075   2.618 -0.7596  2.1266  1.1941
 9056SOL     OW38800   0.931   1.918   8.376  0.2375  0.2960 -0.0832
 9056SOL    HW138801   0.846   1.900   8.415  1.1325 -2.4965  0.5731
 9056SOL    HW238802   0.927   2.010   8.351 -1.6875  0.5991  1.3965
 9057SOL     OW38803   2.340   4.090   0.022 -0.0159 -0.2421  0.1496
 9057SOL    HW138804   2.423   4.127   0.053 -1.1611  0.7570  2.0383
 9057SOL    HW238805   2.287   4.167  17.745  1.0266  0.2655 -0.5403
 9058SOL     OW38806   3.900   0.220  16.097 -0.3226  0.5420 -0.2085
 9058SOL    HW138807   3.943   0.271  16.029 -0.8563  0.1135 -0.8706
 9058SOL    HW238808   3.866   0.149  16.042 -1.8235 -0.2321  1.7203
 9059SOL     OW38809   4.123   1.692   8.385 -0.4085  0.5510  0.1765
 9059SOL    HW138810   4.075   1.649   8.455  2.2006  0.4363  1.9073
 9059SOL    HW238811   4.199   1.635   8.400 -0.3002  0.7836  0.5027
 9060SOL     OW38812   1.774   2.367   4.204  0.1827  0.3063  0.0771
 9060SOL    HW138813   1.870   2.364   4.202  0.1046 -1.5543 -0.3521
 9060SOL    HW238814   1.752   2.378   4.112 -2.1688  0.6827  0.6771
 9061SOL     OW38815   1.642   3.070  12.253 -0.2472 -0.2175  0.6005
 9061SOL    HW138816   1.556   3.072  12.293 -0.4281 -2.6302  0.3042
 9061SOL    HW238817   1.667   3.162  12.266 -1.8437  0.5027 -1.3359
 9062SOL     OW38818   0.873   4.051   4.453  0.0975  0.3651  0.0818
 9062SOL    HW138819   0.860   3.975   4.511  2.9152  1.9037  2.7280
 9062SOL    HW238820   0.881   4.126   4.512 -0.0994  0.1687  0.3620
 9063SOL     OW38821   2.913   2.156  10.734 -0.0787  0.4071 -0.5608
 9063SOL    HW138822   2.830   2.118  10.764  0.0892  0.4254 -0.0762
 9063SOL    HW238823   2.916   2.177  10.640 -0.5736  1.0943 -0.4212
 9064SOL     OW38824   2.196   1.387   8.544 -0.2563 -0.1887  0.0148
 9064SOL    HW138825   2.150   1.380   8.460 -0.1729 -1.0296  0.0449
 9064SOL    HW238826   2.193   1.296   8.572  0.0993  0.5273  2.3700
 9065SOL     OW38827   3.713   2.373  17.292 -0.2554  0.5395 -0.4722
 9065SOL    HW138828   3.642   2.422  17.333 -0.3262  0.0471 -0.0088
 9065SOL    HW238829   3.673   2.357  17.206 -2.4675 -0.4087  0.7632
 9066SOL     OW38830   3.040   0.381   3.994 -0.6481 -0.0982  0.5699
 9066SOL    HW138831   3.045   0.450   4.060 -0.7148  0.4793 -0.0248
 9066SOL    HW238832   3.036   0.440   3.918 -1.7867  0.5536  1.1238
 9067SOL     OW38833   0.120   0.468   6.116  0.0921  0.2696  0.1491
 9067SOL    HW138834   0.177   0.539   6.144 -1.2352  0.7539  1.5863
 9067SOL    HW238835   0.093   0.501   6.030  0.1760  2.8045  1.0991
 9068SOL     OW38836   2.542   0.712   7.909 -0.7387  0.1010  1.0195
 9068SOL    HW138837   2.565   0.728   7.817 -0.4070 -1.9987  0.7513
 9068SOL    HW238838   2.609   0.770   7.946  1.2331 -2.2490  1.1290
 9069SOL     OW38839   1.093   1.743   3.898 -0.4934 -0.5796 -0.4836
 9069SOL    HW138840   1.164   1.789   3.853 -0.8372  0.9463  0.5081
 9069SOL    HW238841   1.094   1.784   3.985 -0.2018  0.5723 -1.0169
 9070SOL     OW38842   0.332   0.533   8.866 -0.4303 -0.2759 -0.2163
 9070SOL    HW138843   0.250   0.509   8.822 -0.0525 -2.8767  0.5078
 9070SOL    HW238844   0.376   0.579   8.794  0.0685 -0.2298  0.1148
 9071SOL     OW38845   3.347   1.044   4.974  0.5051  0.7569  0.3875
 9071SOL    HW138846   3.388   1.130   4.968  1.2101  0.2687 -1.6206
 9071SOL    HW238847   3.329   1.017   4.884  1.6556  0.2661  0.2982
 9072SOL     OW38848   2.044   3.140  13.709  0.2380  0.3258 -0.5519
 9072SOL    HW138849   2.125   3.190  13.714 -1.0612  2.5659 -2.0560
 9072SOL    HW238850   2.079   3.058  13.674  0.0665  1.0618 -2.4516
 9073SOL     OW38851   2.658   3.010  15.920  0.5291  0.1190  0.8380
 9073SOL    HW138852   2.746   3.018  15.958  1.1915 -0.7573 -0.4949
 9073SOL    HW238853   2.675   2.997  15.826 -3.3654  0.9051  0.0506
 9074SOL     OW38854   1.182   3.504   8.176 -0.2327  0.3570  0.0955
 9074SOL    HW138855   1.275   3.485   8.184 -0.1882  0.2819 -0.5935
 9074SOL    HW238856   1.152   3.454   8.100 -0.4516  0.5872  0.0311
 9075SOL     OW38857   2.465   4.598  12.746 -0.3537 -0.1239  0.2318
 9075SOL    HW138858   2.514   4.677  12.771 -0.0180 -1.4400  3.7135
 9075SOL    HW238859   2.376   4.618  12.776 -0.4903  1.6424 -1.3211
 9076SOL     OW38860   3.794   0.820   9.539  0.0261  0.0235  0.5437
 9076SOL    HW138861   3.702   0.809   9.565 -0.5958  2.4650 -0.6491
 9076SOL    HW238862   3.776   0.804   9.447  2.6959 -3.1349  0.5760
 9077SOL     OW38863   2.017   0.282   2.719 -0.4397 -0.3699 -0.6573
 9077SOL    HW138864   2.082   0.307   2.785 -0.3220 -3.0145  0.2318
 9077SOL    HW238865   1.936   0.298   2.768 -0.1054  1.4095 -0.6585
 9078SOL     OW38866   1.468   2.742  14.743  0.2253 -0.5185 -0.0351
 9078SOL    HW138867   1.512   2.659  14.758 -1.5528 -1.4920 -0.1676
 9078SOL    HW238868   1.445   2.733  14.651  0.8254 -3.0760  0.0629
 9079SOL     OW38869   4.567   4.331  16.920  0.0527  0.5370 -0.2575
 9079SOL    HW138870   4.629   4.401  16.937 -2.2127  2.3540  0.4432
 9079SOL    HW238871   4.608   4.293  16.842  0.8571  0.3478  0.2549
 9080SOL     OW38872   4.408   1.055   9.248  0.3030 -0.1099  0.2862
 9080SOL    HW138873   4.439   0.964   9.246 -0.3627 -0.3465  0.9448
 9080SOL    HW238874   4.439   1.090   9.164 -0.9028  1.1001  0.3530
 9081SOL     OW38875   3.958   1.022  11.460  0.1621 -0.0499  0.1188
 9081SOL    HW138876   3.920   1.002  11.374 -1.1271 -1.2811  0.9957
 9081SOL    HW238877   3.882   1.017  11.518 -0.9455  1.2094 -1.2012
 9082SOL     OW38878   4.367   3.860   2.140 -0.4393 -0.0511 -0.1293
 9082SOL    HW138879   4.290   3.916   2.126 -0.0615  0.5874  0.3787
 9082SOL    HW238880   4.317   3.779   2.135 -1.3631  0.4583  0.6886
 9083SOL     OW38881   4.128   4.663  16.947  0.0432 -0.1285  0.2839
 9083SOL    HW138882   4.121   4.718  17.025  1.5266 -0.4320  0.6311
 9083SOL    HW238883   4.111   4.729  16.880 -0.9741 -1.3241 -0.6477
 9084SOL     OW38884   0.085   2.869   5.074 -0.4572  0.2112  0.6390
 9084SOL    HW138885   0.124   2.906   4.995  0.4044 -0.4403  0.7678
 9084SOL    HW238886   0.138   2.919   5.137  1.3346 -0.4285 -0.3694
 9085SOL     OW38887   3.038   0.760  11.499 -0.1080  0.2030  0.2644
 9085SOL    HW138888   3.106   0.709  11.456 -0.6965  0.2440 -0.7042
 9085SOL    HW238889   3.093   0.814  11.556  0.8028 -0.8870  0.4150
 9086SOL     OW38890   3.255   0.933  11.580 -0.5352  0.1880 -0.5819
 9086SOL    HW138891   3.323   0.869  11.598  0.0061  0.1665 -2.6894
 9086SOL    HW238892   3.301   0.987  11.516 -1.4425 -1.1724 -2.3823
 9087SOL     OW38893   2.471   0.969   4.132 -0.1521  0.1389  0.2164
 9087SOL    HW138894   2.512   1.049   4.101 -0.1581 -0.2475 -0.8102
 9087SOL    HW238895   2.544   0.924   4.175 -1.7200  0.3124  3.0598
 9088SOL     OW38896   4.736   3.571  14.204 -0.1953  0.7271 -0.1332
 9088SOL    HW138897   0.094   3.560  14.201 -0.1411  1.2491 -0.5362
 9088SOL    HW238898   4.718   3.630  14.131  0.4298 -1.0608 -1.7337
 9089SOL     OW38899   0.827   0.149   2.351  0.3722 -0.0160  0.0616
 9089SOL    HW138900   0.815   0.056   2.334  1.5315 -0.5560  2.1917
 9089SOL    HW238901   0.836   0.150   2.447  1.4795  0.7386 -0.0420
 9090SOL     OW38902   0.859   2.123   6.284  0.2350  0.3854  0.0814
 9090SOL    HW138903   0.933   2.062   6.287  1.1047  1.4366 -0.0876
 9090SOL    HW238904   0.793   2.084   6.226 -2.1514  1.3413  2.1534
 9091SOL     OW38905   4.082   0.588   7.700  0.2125  0.2314  0.1591
 9091SOL    HW138906   4.095   0.641   7.622 -0.5907  0.0523 -0.0939
 9091SOL    HW238907   4.081   0.665   7.757  1.7602  0.4527 -0.1123
 9092SOL     OW38908   2.401   2.613   3.881 -0.5786 -0.5326 -0.0386
 9092SOL    HW138909   2.481   2.581   3.839  0.1753  2.4510 -0.8440
 9092SOL    HW238910   2.335   2.547   3.859  1.8339 -3.4537  1.3329
 9093SOL     OW38911   1.013   0.096   3.510  0.3230 -0.1049  0.7623
 9093SOL    HW138912   1.010   0.086   3.605 -1.6877 -1.1884  0.6013
 9093SOL    HW238913   1.046   0.012   3.478 -2.0310 -0.6674 -0.1972
 9094SOL     OW38914   3.235   1.405   3.268 -0.6935 -0.4039  0.4287
 9094SOL    HW138915   3.250   1.351   3.346 -1.4413  0.0166  0.8592
 9094SOL    HW238916   3.279   1.353   3.201 -0.3505 -0.2623  0.5421
 9095SOL     OW38917   1.382   3.773   7.772  0.2983 -0.3589  0.2660
 9095SOL    HW138918   1.420   3.859   7.755  0.7665  0.0960  3.6797
 9095SOL    HW238919   1.433   3.707   7.725  0.2551  0.7443 -1.3498
 9096SOL     OW38920   0.645   2.422   5.503 -0.0146  0.2253  0.7747
 9096SOL    HW138921   0.613   2.457   5.587  0.6261  2.2109  0.1897
 9096SOL    HW238922   0.719   2.483   5.497  0.2532 -0.2394 -0.5483
 9097SOL     OW38923   1.917   1.767  12.918  0.1429 -0.5003 -0.1597
 9097SOL    HW138924   1.861   1.829  12.965  0.2246  1.2570 -2.4001
 9097SOL    HW238925   1.922   1.793  12.826 -0.3175  1.8671  0.4862
 9098SOL     OW38926   4.234   4.256   3.133 -0.2461  0.2799  0.1587
 9098SOL    HW138927   4.236   4.217   3.220  0.9903 -0.0021 -0.0032
 9098SOL    HW238928   4.307   4.316   3.149 -0.0975  0.1808 -0.1504
 9099SOL     OW38929   0.211   0.445   8.423  0.0302  0.2779  0.3294
 9099SOL    HW138930   0.117   0.460   8.413  0.1460  2.3494  2.1615
 9099SOL    HW238931   0.231   0.357   8.390  2.4299  0.3030  1.6783
 9100SOL     OW38932   3.075   2.382   2.581  0.2409  0.0031  0.5010
 9100SOL    HW138933   3.026   2.442   2.525  2.6459  0.1892 -1.3883
 9100SOL    HW238934   3.166   2.412   2.589  0.0894  0.5054  0.2709
 9101SOL     OW38935   2.509   0.555   3.569 -0.4602 -0.3912  0.6562
 9101SOL    HW138936   2.503   0.527   3.660 -3.1735 -0.2285  0.5460
 9101SOL    HW238937   2.416   0.556   3.543 -0.4936  0.0070  0.7806
 9102SOL     OW38938   2.044   1.501  16.629  0.4655 -0.5398  0.3363
 9102SOL    HW138939   1.997   1.510  16.546 -0.4220 -0.7239  0.8184
 9102SOL    HW238940   2.007   1.577  16.674  0.0675 -0.6526  0.2075
 9103SOL     OW38941   1.602   0.317   6.363  0.1660  0.1683 -0.1888
 9103SOL    HW138942   1.670   0.273   6.414 -0.7030 -1.0806 -0.0864
 9103SOL    HW238943   1.567   0.369   6.436 -2.1833 -0.6128 -0.7684
 9104SOL     OW38944   3.919   4.235  13.180 -0.1072 -0.4809  0.3962
 9104SOL    HW138945   3.888   4.146  13.197 -1.4802 -0.0835 -0.0198
 9104SOL    HW238946   3.909   4.277  13.266 -2.0843  1.0868 -0.6074
 9105SOL     OW38947   3.001   1.119  12.265 -0.3024 -0.1143 -0.2658
 9105SOL    HW138948   2.922   1.125  12.318  0.3327  3.0480  0.3115
 9105SOL    HW238949   3.049   1.044  12.302 -0.6397 -0.6159 -0.8507
 9106SOL     OW38950   2.850   3.345   8.575 -0.5942  0.5219  0.6708
 9106SOL    HW138951   2.898   3.275   8.620  0.2106  1.5085  1.3371
 9106SOL    HW238952   2.764   3.338   8.616 -0.7751 -0.4649  0.1363
 9107SOL     OW38953   0.971   1.598   0.837 -0.3313  0.1743  0.9066
 9107SOL    HW138954   0.973   1.503   0.845  2.0135  0.3083  1.6278
 9107SOL    HW238955   0.884   1.630   0.864 -0.0033 -0.3964  2.5950
 9108SOL     OW38956   0.960   1.928   2.101  0.3748  0.3570 -0.4081
 9108SOL    HW138957   1.009   1.846   2.092  0.1339  0.1240  0.3513
 9108SOL    HW238958   0.962   1.943   2.196  0.8631  0.4215 -0.4304
 9109SOL     OW38959   4.092   1.648   7.680  0.1140 -0.0612  0.2612
 9109SOL    HW138960   4.110   1.667   7.588 -0.3391 -1.7932 -0.1724
 9109SOL    HW238961   4.024   1.714   7.693  0.3127  0.4780 -1.3629
 9110SOL     OW38962   1.736   1.544  11.502  0.0773 -0.9575  0.8677
 9110SOL    HW138963   1.733   1.596  11.421  3.1304 -2.1274  0.0303
 9110SOL    HW238964   1.774   1.611  11.559  2.8577 -1.1936 -0.7047
 9111SOL     OW38965   4.622   3.809   5.022 -0.3316 -0.4269  0.0282
 9111SOL    HW138966   4.609   3.898   4.992  2.2575 -0.3850 -0.9465
 9111SOL    HW238967   4.535   3.791   5.058 -1.0401  0.4023 -1.2934
 9112SOL     OW38968   1.696   2.214  15.446 -0.3392  0.7652  0.7804
 9112SOL    HW138969   1.742   2.195  15.528  0.2162  2.1349  0.7898
 9112SOL    HW238970   1.662   2.127  15.428 -0.1265  0.8042  0.1946
 9113SOL     OW38971   0.187   1.603   5.658  0.2946  0.2722  0.7356
 9113SOL    HW138972   0.203   1.691   5.622  2.4533  0.6339  2.5523
 9113SOL    HW238973   0.273   1.563   5.644 -0.3757 -0.4182 -1.4432
 9114SOL     OW38974   4.139   2.139   7.984  0.1126  0.4513 -0.1419
 9114SOL    HW138975   4.165   2.159   7.894 -0.8037 -0.7406 -0.6672
 9114SOL    HW238976   4.143   2.043   7.986 -0.4518  0.3982 -1.8965
 9115SOL     OW38977   0.652   0.027  10.165  0.5624  0.3727  0.5203
 9115SOL    HW138978   0.564   4.726  10.156  1.5086 -1.6161 -0.1790
 9115SOL    HW238979   0.653   0.044  10.259 -1.4791 -1.7554  0.9479
 9116SOL     OW38980   0.258   2.281   8.728 -0.4504 -0.0736  0.1298
 9116SOL    HW138981   0.354   2.275   8.718 -0.7035 -1.0348 -1.8150
 9116SOL    HW238982   0.238   2.285   8.821 -1.0718  0.0377 -0.0107
 9117SOL     OW38983   0.748   0.109   3.444  0.4750  0.4824  0.0467
 9117SOL    HW138984   0.710   0.061   3.518  0.4295  0.3311 -0.0754
 9117SOL    HW238985   0.841   0.091   3.454  0.6952  0.6308 -1.7015
 9118SOL     OW38986   2.929   2.181  15.030 -0.2495  0.6031  0.1680
 9118SOL    HW138987   3.021   2.192  15.056 -1.0635  1.9336  2.4011
 9118SOL    HW238988   2.929   2.179  14.934 -0.5661 -0.4288  0.1912
 9119SOL     OW38989   0.541   3.576  14.562 -0.1331  0.3899 -0.2736
 9119SOL    HW138990   0.535   3.562  14.657  0.5155 -1.6353 -0.5177
 9119SOL    HW238991   0.453   3.546  14.539  0.9219 -1.8373 -1.4659
 9120SOL     OW38992   3.205   2.476  14.624 -0.5517 -0.1138  0.0727
 9120SOL    HW138993   3.267   2.544  14.652 -0.0717 -0.6420  0.2929
 9120SOL    HW238994   3.131   2.495  14.681  1.0207  1.7099  1.5261
 9121SOL     OW38995   1.042   1.612   4.238  0.0447  0.4293  0.3939
 9121SOL    HW138996   1.098   1.683   4.205  2.9386 -1.1552  1.8974
 9121SOL    HW238997   0.955   1.631   4.202  0.2276 -0.0661 -0.3159
 9122SOL     OW38998   0.419   0.050   8.525 -0.5377 -0.1414 -0.0326
 9122SOL    HW138999   0.424   4.694   8.546 -1.0612 -0.2794 -0.5197
 9122SOL    HW239000   0.428   0.091   8.612 -2.3486  0.1985  0.0048
 9123SOL     OW39001   1.611   0.267   5.071 -0.2537  0.5608  0.5070
 9123SOL    HW139002   1.688   0.218   5.042  0.2577  0.6940  1.6446
 9123SOL    HW239003   1.594   0.237   5.160  0.5891  1.7055  1.0471
 9124SOL     OW39004   4.489   3.609  14.343  0.2194  0.3315  0.1347
 9124SOL    HW139005   4.552   3.560  14.290  1.3590  0.6795  1.1564
 9124SOL    HW239006   4.515   3.695  14.309  1.3827  0.9380  2.5844
 9125SOL     OW39007   3.240   0.993   3.749 -0.2280  0.0853 -0.3420
 9125SOL    HW139008   3.262   1.084   3.768 -1.2742  0.1573  0.5229
 9125SOL    HW239009   3.148   0.995   3.776  0.1797  3.4776  0.7497
 9126SOL     OW39010   3.967   1.204   3.171 -0.2784 -0.1848 -0.2097
 9126SOL    HW139011   3.988   1.262   3.244 -2.4790 -1.0377  1.1112
 9126SOL    HW239012   3.878   1.227   3.144 -0.6920 -0.5811  0.7927
 9127SOL     OW39013   0.976   1.178   1.463 -0.0353  0.0885  0.0496
 9127SOL    HW139014   1.018   1.264   1.464 -0.3788  0.2672 -1.8602
 9127SOL    HW239015   1.006   1.140   1.381 -0.2579 -1.0458  0.4894
 9128SOL     OW39016   3.023   3.640  16.385  0.0915 -0.1887  0.2048
 9128SOL    HW139017   2.986   3.727  16.368  1.2514  0.0405 -1.1416
 9128SOL    HW239018   3.073   3.667  16.462  1.3951  0.7526 -0.9718
 9129SOL     OW39019   1.082   2.674   3.581  0.0327 -0.5115  0.4175
 9129SOL    HW139020   1.160   2.719   3.612 -0.1995  1.5065 -1.8791
 9129SOL    HW239021   1.104   2.658   3.489 -1.0356  0.2506  0.0357
 9130SOL     OW39022   3.980   3.025   9.519 -0.6774 -0.3771  0.0938
 9130SOL    HW139023   3.907   3.005   9.577 -0.7380  0.6236  0.3669
 9130SOL    HW239024   4.003   3.112   9.552 -0.4847 -0.8676  1.2570
 9131SOL     OW39025   2.254   0.380  13.394  0.4911 -0.0309  0.3574
 9131SOL    HW139026   2.217   0.439  13.460 -0.9975  0.9892 -1.3612
 9131SOL    HW239027   2.336   0.346  13.429  1.8593  0.3912 -2.3923
 9132SOL     OW39028   0.042   1.009  13.642 -0.0081 -0.0648 -0.3439
 9132SOL    HW139029   4.694   1.002  13.598 -0.5172 -0.1679  0.6515
 9132SOL    HW239030   0.016   0.998  13.734 -2.3757  2.8127 -0.6813
 9133SOL     OW39031   4.181   0.699   6.448 -0.1807 -0.3806  0.3673
 9133SOL    HW139032   4.143   0.687   6.361 -0.3175  2.5543  0.0173
 9133SOL    HW239033   4.121   0.650   6.504 -2.4689  0.6159 -1.2323
 9134SOL     OW39034   2.338   3.314   7.321 -0.6589 -0.1828  0.0441
 9134SOL    HW139035   2.291   3.298   7.403 -0.0821 -0.4008  0.3358
 9134SOL    HW239036   2.279   3.275   7.256 -0.0506  2.2719 -1.9583
 9135SOL     OW39037   3.684   2.164   4.058 -0.5175 -0.1460  0.3854
 9135SOL    HW139038   3.774   2.134   4.068 -0.9547 -2.3293 -2.1439
 9135SOL    HW239039   3.664   2.109   3.983 -2.1965  2.5144 -1.1112
 9136SOL     OW39040   2.987   2.391  12.311 -0.4846  0.0222  0.1650
 9136SOL    HW139041   2.959   2.450  12.241 -2.1322  0.3858  1.1291
 9136SOL    HW239042   3.028   2.328  12.252 -1.8588  0.5194 -1.3262
 9137SOL     OW39043   4.209   3.480   3.057  0.2265 -0.0145  0.0755
 9137SOL    HW139044   4.285   3.537   3.044 -0.5863  0.7269 -1.4693
 9137SOL    HW239045   4.256   3.397   3.067  0.3937  0.0200 -0.4008
 9138SOL     OW39046   1.742   2.949  14.545 -0.4204 -0.9450 -0.0264
 9138SOL    HW139047   1.663   2.964  14.493  0.3090  1.6029 -0.3726
 9138SOL    HW239048   1.750   2.854  14.557  0.3306 -0.8037  0.5747
 9139SOL     OW39049   0.743   0.244  10.015  0.6960  0.3887  0.2860
 9139SOL    HW139050   0.730   0.173  10.078  0.3494  0.6272  0.4776
 9139SOL    HW239051   0.701   0.315  10.062 -0.3299  0.8736 -1.3848
 9140SOL     OW39052   3.039   1.841   3.288  0.5513  0.6134 -0.1347
 9140SOL    HW139053   3.011   1.858   3.377  0.9574 -1.2916  0.3628
 9140SOL    HW239054   3.119   1.791   3.308 -1.3304 -2.3913 -0.1187
 9141SOL     OW39055   4.386   3.966   0.744  0.0668 -0.2968  0.3774
 9141SOL    HW139056   4.422   3.986   0.830 -0.7618  2.8061  0.0196
 9141SOL    HW239057   4.317   4.032   0.736 -1.1870 -1.9781 -2.7859
 9142SOL     OW39058   4.318   4.614   2.749  0.1731  0.1695  0.3997
 9142SOL    HW139059   4.232   4.653   2.757 -0.2508 -0.7022  0.1246
 9142SOL    HW239060   4.332   4.575   2.663 -2.0579 -0.7930  0.4873
 9143SOL     OW39061   0.822   1.949   7.024 -0.8534 -0.1899 -0.1494
 9143SOL    HW139062   0.728   1.966   7.028 -0.7285  0.6310 -0.7084
 9143SOL    HW239063   0.817   1.867   6.975  1.2612 -1.9308  2.5312
 9144SOL     OW39064   3.577   2.358  16.504  0.3910 -0.2404 -0.2771
 9144SOL    HW139065   3.550   2.312  16.425 -2.0094  0.6179  0.0246
 9144SOL    HW239066   3.550   2.450  16.494  1.0648 -0.1223 -0.9917
 9145SOL     OW39067   4.327   0.685   3.130  0.1605  0.0905 -0.1518
 9145SOL    HW139068   4.255   0.624   3.113 -1.0970  2.5799 -3.8207
 9145SOL    HW239069   4.401   0.625   3.128  0.9867  1.1874 -2.4401
 9146SOL     OW39070   2.807   1.681  17.605 -0.4483 -0.7383  0.2182
 9146SOL    HW139071   2.765   1.750  17.554  1.9147  0.7638  0.3242
 9146SOL    HW239072   2.882   1.666  17.547 -0.5027 -1.2517  0.2803
 9147SOL     OW39073   4.501   0.179   4.400  0.6438 -0.1869 -0.2710
 9147SOL    HW139074   4.528   0.206   4.488  1.1092 -0.4978 -0.3178
 9147SOL    HW239075   4.534   0.247   4.341 -1.1051  1.6233  0.8453
 9148SOL     OW39076   3.839   1.833   4.896 -0.2838  0.1594  0.1755
 9148SOL    HW139077   3.851   1.926   4.912 -0.3807  0.9016 -4.0678
 9148SOL    HW239078   3.874   1.804   4.980 -2.5363 -2.0105  0.3851
 9149SOL     OW39079   2.343   1.265  14.560 -0.4704  0.1085  0.2424
 9149SOL    HW139080   2.365   1.355  14.536  2.2554 -0.3956  0.8505
 9149SOL    HW239081   2.367   1.216  14.481  0.2262  1.2038 -0.2280
 9150SOL     OW39082   0.907   2.475   3.380 -0.1401 -0.4193  0.2909
 9150SOL    HW139083   0.827   2.520   3.353  0.0263 -1.8011 -2.5331
 9150SOL    HW239084   0.872   2.412   3.443  2.5382 -2.3248 -0.1162
 9151SOL     OW39085   2.047   0.362   0.534  0.6275  0.5625 -0.1468
 9151SOL    HW139086   2.113   0.378   0.601 -0.4598  0.2672  0.9780
 9151SOL    HW239087   1.965   0.367   0.582  0.2901  1.1658 -0.7785
 9152SOL     OW39088   3.760   1.831   5.712  0.4589 -0.1041 -0.0720
 9152SOL    HW139089   3.709   1.774   5.654 -3.9012  1.9846  1.7111
 9152SOL    HW239090   3.816   1.774   5.765  0.6549 -0.1410 -0.3209
 9153SOL     OW39091   1.941   2.031  12.385 -0.2642 -0.4182  0.4103
 9153SOL    HW139092   1.915   2.020  12.477  2.2228  0.9649  1.2913
 9153SOL    HW239093   1.919   1.948  12.342  0.4661 -0.2532 -0.2802
 9154SOL     OW39094   3.539   2.692   2.778  0.8029  0.0446  0.1456
 9154SOL    HW139095   3.562   2.712   2.869  2.6059  1.8429 -0.7038
 9154SOL    HW239096   3.528   2.597   2.784 -0.1208  0.2306  1.2976
 9155SOL     OW39097   3.967   2.237   1.204 -0.0862 -0.0305  0.4630
 9155SOL    HW139098   3.943   2.221   1.112  1.4108 -0.9913  0.2500
 9155SOL    HW239099   4.035   2.304   1.197  0.3460 -0.6041 -0.9271
 9156SOL     OW39100   0.676   1.140   4.551 -0.4076  0.6358 -0.3464
 9156SOL    HW139101   0.593   1.178   4.525  0.0950  0.1747 -2.6233
 9156SOL    HW239102   0.711   1.093   4.475 -0.1426 -0.2138  0.2854
 9157SOL     OW39103   2.409   3.372  15.293  0.9871  0.0811  0.2691
 9157SOL    HW139104   2.370   3.327  15.218 -0.5597  3.4787 -0.9401
 9157SOL    HW239105   2.346   3.348  15.361 -0.2213 -1.2820 -1.3014
 9158SOL     OW39106   0.629   3.904   6.328 -0.2859 -0.6071  0.4834
 9158SOL    HW139107   0.684   3.841   6.375 -0.2702  0.4409  1.8830
 9158SOL    HW239108   0.562   3.912   6.397  0.1003 -0.1658  0.8125
 9159SOL     OW39109   3.879   2.803   9.904  0.2179  0.5605  0.5100
 9159SOL    HW139110   3.899   2.751   9.826 -0.0781  0.1353  0.7185
 9159SOL    HW239111   3.888   2.894   9.875 -0.0494  0.0908 -1.0452
 9160SOL     OW39112   3.792   2.068   2.062 -1.1014 -0.1751 -0.3210
 9160SOL    HW139113   3.841   2.146   2.086  0.9569 -1.5366 -0.0752
 9160SOL    HW239114   3.715   2.112   2.027  0.5335  1.3145 -2.0954
 9161SOL     OW39115   2.997   0.364   2.126  0.1703 -0.6205  0.1055
 9161SOL    HW139116   2.933   0.314   2.074 -0.3819 -0.8377  0.9879
 9161SOL    HW239117   3.075   0.375   2.072 -0.2695 -2.2414 -0.8751
 9162SOL     OW39118   1.285   3.784  12.922 -0.1010  0.3168  0.8497
 9162SOL    HW139119   1.244   3.867  12.897 -2.4101 -1.5953 -1.7072
 9162SOL    HW239120   1.237   3.760  13.001  0.9613 -1.2009  1.0312
 9163SOL     OW39121   2.200   3.211   0.707 -0.0652 -0.3731  0.1318
 9163SOL    HW139122   2.262   3.200   0.634  1.9873 -0.0812  1.8420
 9163SOL    HW239123   2.220   3.138   0.764 -2.5678 -0.6007  0.6859
 9164SOL     OW39124   2.524   0.517   6.522  0.0016 -0.9576 -0.3660
 9164SOL    HW139125   2.458   0.455   6.491 -0.7494 -0.0300 -0.6343
 9164SOL    HW239126   2.510   0.516   6.616  0.3096 -0.5294 -0.3122
 9165SOL     OW39127   2.377   0.648   9.242  0.1311 -0.1115  0.2290
 9165SOL    HW139128   2.312   0.693   9.296 -2.3752 -2.5598 -0.7045
 9165SOL    HW239129   2.388   0.568   9.294  0.2082  0.2711  0.7928
 9166SOL     OW39130   3.720   2.604   2.025  0.0244  0.0338  0.1145
 9166SOL    HW139131   3.644   2.547   2.034  1.4424 -2.2651 -2.1170
 9166SOL    HW239132   3.691   2.689   2.055  1.5211  0.9178 -0.9446
 9167SOL     OW39133   1.563   2.263  11.204 -0.2373 -0.0348 -0.2181
 9167SOL    HW139134   1.476   2.289  11.234 -0.1023  0.8437 -0.5871
 9167SOL    HW239135   1.618   2.327  11.249  1.3948 -1.8726  0.4007
 9168SOL     OW39136   4.546   1.326   9.572 -0.5778  0.0474 -0.0206
 9168SOL    HW139137   4.494   1.255   9.610  0.1541 -0.2392  0.4459
 9168SOL    HW239138   4.634   1.292   9.585 -0.9704 -0.7969  0.4807
 9169SOL     OW39139   0.939   1.070  15.208 -0.8375  0.3064  0.6424
 9169SOL    HW139140   0.856   1.021  15.209 -1.0570  0.6726 -0.3460
 9169SOL    HW239141   0.979   1.026  15.283  1.2306  1.3166  0.1321
 9170SOL     OW39142   2.618   3.376   9.420  0.3756 -0.7018 -0.3577
 9170SOL    HW139143   2.609   3.386   9.326  0.7410 -0.4989 -0.3708
 9170SOL    HW239144   2.690   3.313   9.428  1.4023  0.3061 -1.6565
 9171SOL     OW39145   2.365   0.963  12.290 -0.8683  0.0430 -0.0999
 9171SOL    HW139146   2.435   1.024  12.312 -0.6782 -0.3084  0.2579
 9171SOL    HW239147   2.355   0.988  12.198  0.4891 -0.8252 -0.4798
 9172SOL     OW39148   3.479   0.294   7.287  0.2173 -0.4647 -0.1963
 9172SOL    HW139149   3.515   0.247   7.212  0.7057 -1.8734  0.9136
 9172SOL    HW239150   3.552   0.278   7.346 -0.3050 -2.6463 -0.1512
 9173SOL     OW39151   4.022   4.186   5.434  0.5393  0.0104 -0.2210
 9173SOL    HW139152   3.966   4.108   5.433 -0.9353  1.1048 -1.9573
 9173SOL    HW239153   4.016   4.229   5.519  0.9552 -3.1080  1.4219
 9174SOL     OW39154   4.167   0.042   3.849 -0.0737 -0.7204  0.1211
 9174SOL    HW139155   4.249   0.009   3.813  1.1659  4.0322 -1.4232
 9174SOL    HW239156   4.159   0.122   3.796  1.1611 -0.5316  0.2123
 9175SOL     OW39157   1.277   1.681  14.753 -0.8709 -0.1901  0.1458
 9175SOL    HW139158   1.192   1.726  14.751  0.2170  1.9361  1.8185
 9175SOL    HW239159   1.243   1.599  14.787  0.5699 -0.0329  1.9671
 9176SOL     OW39160   2.049   0.184   4.006  0.7994  0.5467  0.0766
 9176SOL    HW139161   2.048   0.112   4.069 -1.4210  0.7685  0.3052
 9176SOL    HW239162   1.997   0.251   4.051  2.0337  1.6604 -0.1535
 9177SOL     OW39163   2.062   1.705  13.450 -0.3716 -0.2201  0.1939
 9177SOL    HW139164   2.049   1.653  13.371 -1.6861  1.3347 -0.6055
 9177SOL    HW239165   2.133   1.657  13.493  0.4706  0.4989 -0.3840
 9178SOL     OW39166   3.075   2.213   7.772 -0.2555 -0.6501 -0.2847
 9178SOL    HW139167   3.123   2.146   7.725  1.0516  0.0255  0.0761
 9178SOL    HW239168   3.072   2.166   7.855  0.5305  1.9934  1.2687
 9179SOL     OW39169   1.117   4.175   8.003 -0.0038 -0.1964 -0.2669
 9179SOL    HW139170   1.175   4.250   7.989 -0.3617 -0.2392 -1.9700
 9179SOL    HW239171   1.086   4.164   7.913 -1.2519 -0.7199  0.2252
 9180SOL     OW39172   0.771   3.049   3.043  0.7118 -0.0716 -0.0489
 9180SOL    HW139173   0.703   2.994   3.007 -0.0868  0.3482  0.8113
 9180SOL    HW239174   0.735   3.096   3.119  1.6509  0.1470  0.2654
 9181SOL     OW39175   1.685   3.123   8.083  0.2673 -0.0295 -0.1010
 9181SOL    HW139176   1.650   3.085   8.164 -1.0229  2.3450  0.4440
 9181SOL    HW239177   1.659   3.051   8.025  2.0045 -0.1335 -0.7500
 9182SOL     OW39178   0.775   3.129   4.649  0.5031  0.0032  1.4876
 9182SOL    HW139179   0.709   3.103   4.713  0.6454 -2.5433  0.6076
 9182SOL    HW239180   0.829   3.051   4.637  0.7716  0.3387  0.4960
 9183SOL     OW39181   1.353   3.898   6.111 -0.5283  0.3222  0.2014
 9183SOL    HW139182   1.290   3.869   6.046 -2.1072 -1.3094  2.4646
 9183SOL    HW239183   1.391   3.971   6.062 -0.2037 -1.8897 -2.7993
 9184SOL     OW39184   0.577   1.867   5.903 -0.1517 -0.5306 -0.7966
 9184SOL    HW139185   0.657   1.846   5.854  2.6536  0.8176  3.1956
 9184SOL    HW239186   0.537   1.932   5.846 -2.2774 -2.0684 -1.0556
 9185SOL     OW39187   0.853   0.500   6.756  0.7297 -0.5357 -0.7769
 9185SOL    HW139188   0.781   0.513   6.694  0.8317  2.0930 -0.3236
 9185SOL    HW239189   0.924   0.524   6.697  2.1589  1.9972  1.9761
 9186SOL     OW39190   4.728   1.679   9.352 -0.2607  0.7099 -0.1479
 9186SOL    HW139191   4.715   1.739   9.425  3.3988 -0.2930  1.2949
 9186SOL    HW239192   4.638   1.658   9.325 -0.5039  0.1057  1.1315
 9187SOL     OW39193   1.379   2.854   6.361 -0.4657  0.1293 -0.2135
 9187SOL    HW139194   1.432   2.931   6.383 -1.2467  0.3710  0.8084
 9187SOL    HW239195   1.290   2.886   6.377 -0.8469 -0.0490 -1.8855
 9188SOL     OW39196   1.324   4.406  16.799 -0.7118 -0.4071 -0.1081
 9188SOL    HW139197   1.239   4.361  16.799 -0.9635  0.0662  1.0366
 9188SOL    HW239198   1.382   4.342  16.841  0.7356 -0.3127 -1.9758
 9189SOL     OW39199   0.470   1.353   8.614 -0.2656  0.0251 -0.3037
 9189SOL    HW139200   0.381   1.323   8.595  0.2869  0.7660 -3.9679
 9189SOL    HW239201   0.505   1.297   8.684  0.4902  1.0940  0.1739
 9190SOL     OW39202   0.247   3.595   3.108  0.0233 -0.1991 -0.1842
 9190SOL    HW139203   0.274   3.514   3.151  1.4244  0.5323  0.3145
 9190SOL    HW239204   0.287   3.654   3.173  1.7670 -1.5401 -0.0511
 9191SOL     OW39205   2.439   1.500   8.770 -0.0262  0.6642 -0.5457
 9191SOL    HW139206   2.442   1.408   8.797 -0.7761  1.2380  1.4944
 9191SOL    HW239207   2.394   1.536   8.846 -0.6343  0.3663 -0.7641
 9192SOL     OW39208   3.095   0.447  10.295  0.2272  0.5928  0.3074
 9192SOL    HW139209   3.178   0.494  10.297  0.9703 -0.6808 -0.5445
 9192SOL    HW239210   3.117   0.358  10.323 -1.0714  0.1437 -0.0911
 9193SOL     OW39211   0.136   3.492  10.107 -0.0303 -0.1517  0.3812
 9193SOL    HW139212   0.223   3.463  10.135 -0.7289 -0.0304  2.6696
 9193SOL    HW239213   0.102   3.409  10.074  2.0148 -0.4617 -0.9267
 9194SOL     OW39214   0.877   0.483   3.723  0.5511 -0.3283 -0.4952
 9194SOL    HW139215   0.851   0.432   3.800 -0.9289  1.4359  0.1810
 9194SOL    HW239216   0.830   0.564   3.741  2.2363  0.0050  2.4719
 9195SOL     OW39217   0.375   1.033   1.855 -0.4541 -0.3189  0.3901
 9195SOL    HW139218   0.333   0.967   1.800 -0.7060 -0.3975  0.6773
 9195SOL    HW239219   0.340   1.020   1.943 -2.2995 -1.1522 -0.4772
 9196SOL     OW39220   4.378   3.089   2.112  0.1249  0.3706 -0.7845
 9196SOL    HW139221   4.354   3.130   2.194  0.0791  2.3198 -1.7810
 9196SOL    HW239222   4.447   3.029   2.142 -0.1415  0.9135  0.8944
 9197SOL     OW39223   2.335   0.521  15.839 -0.2945  0.3031  0.1022
 9197SOL    HW139224   2.343   0.463  15.764  1.7282 -0.5060  0.9458
 9197SOL    HW239225   2.416   0.571  15.847  1.5905 -2.6193 -1.0963
 9198SOL     OW39226   3.526   0.157   2.568 -0.0873  0.3797 -0.4275
 9198SOL    HW139227   3.432   0.179   2.564 -0.7930 -2.4114  1.3381
 9198SOL    HW239228   3.552   0.231   2.623 -0.5436 -0.3324  0.7425
 9199SOL     OW39229   4.000   0.693   2.901 -0.1445  0.0056 -0.0289
 9199SOL    HW139230   4.092   0.674   2.886  0.2018  0.7593  1.1614
 9199SOL    HW239231   3.967   0.605   2.917 -1.7907  0.6041 -0.0422
 9200SOL     OW39232   1.313   1.254  13.103 -0.1283  0.0173  0.2323
 9200SOL    HW139233   1.374   1.199  13.152  1.0844  1.8249  0.7621
 9200SOL    HW239234   1.259   1.289  13.174  0.6265 -3.7071  2.6126
 9201SOL     OW39235   3.830   2.108   3.101  0.5465  0.0444  0.2353
 9201SOL    HW139236   3.794   2.193   3.077  0.7629 -0.2672 -1.1882
 9201SOL    HW239237   3.921   2.121   3.129  0.0840  0.6257  1.4364
 9202SOL     OW39238   1.755   0.121   9.456  0.7531  0.2059  0.1453
 9202SOL    HW139239   1.748   0.187   9.525 -2.8239  1.8273 -1.7474
 9202SOL    HW239240   1.741   0.043   9.509 -0.9430  0.3373 -0.1017
 9203SOL     OW39241   3.255   0.304   9.749 -0.1225 -0.2384 -0.0336
 9203SOL    HW139242   3.276   0.213   9.728 -1.5398 -0.5040 -0.3050
 9203SOL    HW239243   3.197   0.292   9.824 -1.0189  0.5323 -0.6034
 9204SOL     OW39244   2.180   1.240   7.360  0.1068  0.2238 -0.2584
 9204SOL    HW139245   2.269   1.208   7.345  0.7941  2.3075 -0.6231
 9204SOL    HW239246   2.155   1.200   7.443 -0.5331 -0.2689 -0.6919
 9205SOL     OW39247   3.669   3.139   8.162 -0.2132  0.2081 -0.1755
 9205SOL    HW139248   3.579   3.106   8.154 -0.7701  1.5007  0.7505
 9205SOL    HW239249   3.670   3.234   8.161  3.4494  0.1378  0.1883
 9206SOL     OW39250   0.035   4.678   5.956  0.1605 -0.2292  0.1827
 9206SOL    HW139251   0.007   4.707   5.869 -0.6900 -0.2738  0.4399
 9206SOL    HW239252   0.036   0.028   5.996 -1.2834  0.4130 -1.1842
 9207SOL     OW39253   0.678   4.428   0.608  0.1650  0.1700 -0.0977
 9207SOL    HW139254   0.695   4.392   0.695  1.2631  0.9294  0.0090
 9207SOL    HW239255   0.583   4.430   0.607  0.1262 -1.0700  1.3681
 9208SOL     OW39256   2.346   4.659   1.736 -0.5622  0.5762  0.1334
 9208SOL    HW139257   2.278   4.625   1.793  2.2738 -0.0845  3.1121
 9208SOL    HW239258   2.345   0.017   1.748 -1.9115  0.7019 -0.9704
 9209SOL     OW39259   3.372   4.383   0.721  0.2838  0.1104  0.1737
 9209SOL    HW139260   3.458   4.349   0.697 -0.1320  0.1322 -1.3549
 9209SOL    HW239261   3.313   4.309   0.703  0.2883  0.1620 -0.0470
 9210SOL     OW39262   3.194   1.889   2.656  0.1709 -0.2473  0.4428
 9210SOL    HW139263   3.147   1.812   2.625  2.2227 -0.7951 -1.3137
 9210SOL    HW239264   3.197   1.945   2.579  0.2907  0.8687  1.2602
 9211SOL     OW39265   3.166   2.044   8.018  0.3021 -0.1429 -0.2101
 9211SOL    HW139266   3.238   1.987   7.991  0.8352 -1.2531  3.5917
 9211SOL    HW239267   3.088   2.006   7.977 -0.9983  1.8480  0.4301
 9212SOL     OW39268   1.459   4.428   9.420 -0.4162  0.1787 -1.2449
 9212SOL    HW139269   1.373   4.426   9.380 -1.5652 -2.4492  1.3514
 9212SOL    HW239270   1.515   4.403   9.346 -0.2516 -1.5612 -0.5298
 9213SOL     OW39271   0.423   1.077   0.363 -0.3871  0.5681 -0.1184
 9213SOL    HW139272   0.360   1.147   0.344 -0.1901  1.4834  2.5635
 9213SOL    HW239273   0.503   1.129   0.359 -0.0610  0.1489  1.0196
 9214SOL     OW39274   3.821   0.494   5.355 -0.8140 -0.4268  0.1946
 9214SOL    HW139275   3.798   0.494   5.448 -0.0586  1.8910  0.3780
 9214SOL    HW239276   3.860   0.407   5.350 -1.0128 -0.5339  0.5534
 9215SOL     OW39277   0.571   4.012   5.560 -0.1848 -0.2418 -0.4431
 9215SOL    HW139278   0.548   4.103   5.539 -0.2769 -0.4952 -1.4646
 9215SOL    HW239279   0.505   4.004   5.628 -2.1730 -0.6555 -2.4118
 9216SOL     OW39280   2.764   1.100   9.017  0.3522 -0.1901 -0.1277
 9216SOL    HW139281   2.705   1.120   8.943 -0.5947 -0.2950  0.5938
 9216SOL    HW239282   2.759   1.182   9.065  3.5647  0.9226 -1.7290
 9217SOL     OW39283   1.018   0.140   6.109 -0.0135  0.0841 -0.4113
 9217SOL    HW139284   0.979   0.225   6.132  0.4267 -0.0442  0.8122
 9217SOL    HW239285   0.949   0.080   6.137 -0.6677  0.7995 -0.4876
 9218SOL     OW39286   2.748   3.714   7.164 -0.4577  0.4693 -0.5186
 9218SOL    HW139287   2.690   3.704   7.239 -1.2601  1.9098 -0.9444
 9218SOL    HW239288   2.690   3.671   7.101 -1.0673  0.0390  0.3345
 9219SOL     OW39289   2.393   1.010   4.920 -0.0390 -0.2214  0.8760
 9219SOL    HW139290   2.470   1.037   4.870 -0.6027  0.0357  0.1505
 9219SOL    HW239291   2.351   1.094   4.939 -0.5156 -0.2003 -0.3191
 9220SOL     OW39292   1.433   0.821  12.349  0.1549  0.6044 -0.1094
 9220SOL    HW139293   1.410   0.730  12.367  2.1851  0.0354 -0.3443
 9220SOL    HW239294   1.452   0.813  12.255  3.5791 -1.0299  0.7060
 9221SOL     OW39295   3.647   3.788  11.731 -0.1438  0.2416  0.1714
 9221SOL    HW139296   3.608   3.757  11.813  0.0621 -2.2935 -0.6641
 9221SOL    HW239297   3.601   3.869  11.712 -1.6524 -0.1857  1.9945
 9222SOL     OW39298   3.190   4.153   4.175  0.1818  0.5202  0.1329
 9222SOL    HW139299   3.160   4.234   4.134 -1.8013  0.0538  0.6235
 9222SOL    HW239300   3.190   4.085   4.107 -1.3545  0.1990  0.4436
 9223SOL     OW39301   1.577   4.494   2.689 -0.2744  0.2701  0.4109
 9223SOL    HW139302   1.541   4.423   2.636 -1.7910  0.1448  1.6060
 9223SOL    HW239303   1.667   4.463   2.697 -0.0929  0.3551 -1.1941
 9224SOL     OW39304   1.216   0.526   0.419 -0.2769 -0.0367  0.6101
 9224SOL    HW139305   1.130   0.498   0.449 -0.9255 -0.3510 -1.5417
 9224SOL    HW239306   1.212   0.621   0.414 -0.4858 -0.1103 -0.6693
 9225SOL     OW39307   3.262   2.215   9.597  0.4459  0.1464  0.5365
 9225SOL    HW139308   3.249   2.292   9.541 -0.9900  0.1428  0.8656
 9225SOL    HW239309   3.281   2.257   9.681 -2.4477  2.6298 -0.0471
 9226SOL     OW39310   0.307   2.204   1.620  0.0744  0.3248 -0.5577
 9226SOL    HW139311   0.230   2.181   1.671  0.0051 -0.8673 -1.2136
 9226SOL    HW239312   0.356   2.122   1.623  1.2150  1.0210 -0.1047
 9227SOL     OW39313   3.194   0.097  13.374 -0.5450 -0.1546 -0.3671
 9227SOL    HW139314   3.161   0.187  13.376 -1.1279 -0.4217  1.6133
 9227SOL    HW239315   3.285   0.111  13.348 -0.2540  1.4534  1.5216
 9228SOL     OW39316   0.098   4.047   5.386  0.0822 -0.1636 -0.2536
 9228SOL    HW139317   0.042   3.970   5.378 -0.6609  0.4211 -0.7180
 9228SOL    HW239318   0.090   4.072   5.293 -1.8173  0.7007  0.1471
 9229SOL     OW39319   0.963   4.633  16.402  0.2989  0.3758 -0.5355
 9229SOL    HW139320   0.911   4.628  16.483 -0.5775 -0.4335 -1.1441
 9229SOL    HW239321   0.944   4.724  16.380  1.6440  0.9480  0.7158
 9230SOL     OW39322   0.919   1.890   5.928 -0.5883  0.3723  0.4670
 9230SOL    HW139323   0.904   1.849   5.843  0.5681  1.7683 -0.4208
 9230SOL    HW239324   0.987   1.954   5.909  1.8486 -1.8981  1.5636
 9231SOL     OW39325   1.219   3.516   2.764  0.4244  0.1861  0.2898
 9231SOL    HW139326   1.231   3.527   2.858  1.3919 -2.6837  0.4919
 9231SOL    HW239327   1.126   3.493   2.768  1.0094 -2.2871 -0.5148
 9232SOL     OW39328   3.523   3.907   2.789  0.4859  0.0179 -0.4542
 9232SOL    HW139329   3.497   3.851   2.862  2.4455  1.3000  1.2170
 9232SOL    HW239330   3.600   3.861   2.757  0.6806 -1.0711  1.5811
 9233SOL     OW39331   0.384   1.105   3.829 -0.2465 -0.3746  0.0207
 9233SOL    HW139332   0.378   1.041   3.758 -2.1362 -0.7377  0.5169
 9233SOL    HW239333   0.467   1.149   3.811  0.1749 -0.9593  0.5107
 9234SOL     OW39334   3.069   1.990  11.970 -0.1753 -0.5496 -0.2963
 9234SOL    HW139335   3.074   2.039  12.051  3.4202 -1.3323 -0.0521
 9234SOL    HW239336   3.158   1.988  11.935  0.2769 -1.4002  0.9127
 9235SOL     OW39337   2.099   0.161   2.490  0.4363  0.1305 -0.3869
 9235SOL    HW139338   2.177   0.217   2.488  0.3883  0.2222  0.3687
 9235SOL    HW239339   2.042   0.203   2.554  1.7112  3.0237 -1.1671
 9236SOL     OW39340   2.127   0.603   8.018  0.4146 -0.3472  0.4484
 9236SOL    HW139341   2.144   0.685   7.972 -0.3648 -1.2461 -1.4883
 9236SOL    HW239342   2.210   0.582   8.060 -0.3001 -2.5067  0.8241
 9237SOL     OW39343   2.163   1.267   6.081  0.0398 -0.2321 -0.4681
 9237SOL    HW139344   2.255   1.293   6.070 -0.5818  2.7945  1.3622
 9237SOL    HW239345   2.114   1.309   6.010  0.4620  1.8426  0.4714
 9238SOL     OW39346   0.882   1.995  11.532  0.1964 -0.6115  0.6070
 9238SOL    HW139347   0.830   2.004  11.612 -1.2407  0.7391 -0.4655
 9238SOL    HW239348   0.906   1.903  11.537 -1.2498 -1.0787 -0.9127
 9239SOL     OW39349   0.498   1.165   5.590 -0.0735  0.1265  0.5131
 9239SOL    HW139350   0.545   1.249   5.587  0.0171  0.0512 -0.2850
 9239SOL    HW239351   0.570   1.106   5.565  0.5213  0.0556  2.3654
 9240SOL     OW39352   2.860   0.577  15.683  0.1403  0.1109 -0.0913
 9240SOL    HW139353   2.779   0.532  15.706  0.2487 -0.4542 -0.8272
 9240SOL    HW239354   2.842   0.641  15.614 -3.2873 -1.1484 -0.3387
 9241SOL     OW39355   2.263   2.585   0.251  0.6545 -0.1342  0.5820
 9241SOL    HW139356   2.249   2.494   0.279  1.0646 -0.6323 -0.8594
 9241SOL    HW239357   2.194   2.582   0.185  0.6742  1.6113  0.4790
 9242SOL     OW39358   2.921   1.224   6.324 -0.8733 -0.0448 -0.0725
 9242SOL    HW139359   2.963   1.147   6.286  0.1464 -0.0604  1.0942
 9242SOL    HW239360   2.918   1.195   6.415  0.4625 -0.9455 -0.3232
 9243SOL     OW39361   3.904   1.735   2.257  0.2138 -0.1535  0.5630
 9243SOL    HW139362   3.964   1.670   2.293  0.9676  0.6501  0.7544
 9243SOL    HW239363   3.922   1.801   2.325 -1.0861 -0.4433  1.1935
 9244SOL     OW39364   2.462   4.459   4.471 -0.1268 -0.0493  0.0327
 9244SOL    HW139365   2.383   4.437   4.421 -0.9270  1.5062  0.6046
 9244SOL    HW239366   2.509   4.376   4.480 -2.4301 -0.9878  3.1406
 9245SOL     OW39367   2.685   4.324   6.593  0.2626 -0.4953  0.5606
 9245SOL    HW139368   2.619   4.260   6.567 -0.2250 -0.4687  1.7373
 9245SOL    HW239369   2.635   4.405   6.592  0.0903 -0.6100 -0.5765
 9246SOL     OW39370   1.276   2.626   6.455 -0.0119 -0.0044  0.1249
 9246SOL    HW139371   1.287   2.572   6.376 -0.1623 -0.4100  0.3845
 9246SOL    HW239372   1.313   2.709   6.424  0.7160  0.4712  2.2864
 9247SOL     OW39373   2.738   2.292  17.716  0.4325  0.0131 -0.4056
 9247SOL    HW139374   2.737   2.386  17.731  0.8043 -0.1561  0.6897
 9247SOL    HW239375   2.713   2.256   0.055  1.2548  0.1666 -0.0981
 9248SOL     OW39376   0.652   1.268   8.824  0.9663 -0.3069 -0.4517
 9248SOL    HW139377   0.632   1.257   8.917  1.4406 -0.1426 -0.3325
 9248SOL    HW239378   0.715   1.339   8.836  0.7620 -0.4650  1.5405
 9249SOL     OW39379   1.574   1.906  10.827 -0.2254 -0.0740 -0.3522
 9249SOL    HW139380   1.525   1.967  10.882 -1.3940 -0.4863 -0.9180
 9249SOL    HW239381   1.616   1.966  10.765  0.7763  0.4890  0.8873
 9250SOL     OW39382   2.110   2.515   7.842  0.1563  0.1951 -0.2158
 9250SOL    HW139383   2.200   2.533   7.814  0.7006  0.1746  1.5098
 9250SOL    HW239384   2.092   2.429   7.805  0.2865  0.4539 -0.8814
 9251SOL     OW39385   3.802   0.874  12.302 -0.0507  0.0706 -0.3158
 9251SOL    HW139386   3.769   0.916  12.223  1.0561 -2.3732 -2.0745
 9251SOL    HW239387   3.893   0.899  12.287  0.1081  0.1558  0.8152
 9252SOL     OW39388   1.578   1.283   2.134  0.1635  0.1205  0.0477
 9252SOL    HW139389   1.540   1.329   2.059  0.0885  0.0323  0.0316
 9252SOL    HW239390   1.503   1.237   2.171 -0.0445  0.5725  0.1967
 9253SOL     OW39391   3.736   3.876  12.946  0.4470 -0.9283 -0.7374
 9253SOL    HW139392   3.745   3.870  13.041 -0.0026 -0.6829 -0.6786
 9253SOL    HW239393   3.827   3.881  12.918  0.3870  0.3153 -0.7061
 9254SOL     OW39394   0.710   4.024   7.432  0.0314  0.0640  0.6939
 9254SOL    HW139395   0.802   4.001   7.438 -0.3796 -1.7407  0.1818
 9254SOL    HW239396   0.670   3.942   7.402 -0.9607  0.6059  0.5133
 9255SOL     OW39397   0.062   2.795   3.220  0.2552  0.5497 -0.0592
 9255SOL    HW139398   0.098   2.881   3.241 -2.0444  2.0547 -2.4223
 9255SOL    HW239399   0.093   2.736   3.290  0.5160  0.9281  0.1435
 9256SOL     OW39400   3.826   1.769   4.031 -0.6057  0.4360 -0.2660
 9256SOL    HW139401   3.848   1.805   4.117 -2.3579 -1.2085  0.8544
 9256SOL    HW239402   3.762   1.704   4.058 -0.9126  0.3702 -1.1550
 9257SOL     OW39403   1.961   2.231   8.413 -0.0995 -0.2505  0.0856
 9257SOL    HW139404   2.039   2.275   8.444 -0.1672  0.6275 -1.0009
 9257SOL    HW239405   1.951   2.162   8.479  0.1417  0.4680  0.8719
 9258SOL     OW39406   1.924   2.326   8.163  0.5039 -0.0662  0.1814
 9258SOL    HW139407   1.939   2.287   8.250 -0.5636 -1.5285 -0.2883
 9258SOL    HW239408   1.996   2.388   8.158  1.4730 -1.1755  0.3133
 9259SOL     OW39409   3.212   4.268  13.470 -0.6285  0.3511  0.5668
 9259SOL    HW139410   3.188   4.355  13.436 -1.0516  0.8906  2.2362
 9259SOL    HW239411   3.269   4.233  13.403  0.6516  1.5124  1.0490
 9260SOL     OW39412   2.751   0.918   7.680  0.1760  0.1928 -0.2721
 9260SOL    HW139413   2.812   0.879   7.618 -1.5667 -0.3464 -1.6764
 9260SOL    HW239414   2.675   0.867   7.652 -0.9241  1.7491 -0.1378
 9261SOL     OW39415   2.088   2.992   2.120  0.0175 -0.9163  0.6788
 9261SOL    HW139416   2.070   2.995   2.026  3.6208 -0.6588  0.0090
 9261SOL    HW239417   2.049   2.906   2.138 -1.7051  0.1796  2.1406
 9262SOL     OW39418   3.262   1.624  17.652 -0.3181 -0.1380 -0.0329
 9262SOL    HW139419   3.241   1.667  17.735  4.1046  0.0445  0.9561
 9262SOL    HW239420   3.336   1.679  17.627 -0.2825 -0.1684  0.0068
 9263SOL     OW39421   4.578   1.118   4.285  0.2269 -0.3596  0.0907
 9263SOL    HW139422   4.549   1.043   4.337  2.0446 -1.0916  0.0623
 9263SOL    HW239423   4.593   1.077   4.200  0.9559  0.2289 -0.0603
 9264SOL     OW39424   1.871   2.836  13.895  0.7254  0.3430  0.0539
 9264SOL    HW139425   1.796   2.849  13.838  0.6409  1.2689  0.3690
 9264SOL    HW239426   1.915   2.756  13.867  0.6627  0.3064  0.0616
 9265SOL     OW39427   3.657   2.541   5.303 -0.0895 -0.2361  0.2687
 9265SOL    HW139428   3.735   2.489   5.322 -0.8660 -1.5249 -0.0474
 9265SOL    HW239429   3.639   2.567   5.393 -0.6156 -2.3113  0.7723
 9266SOL     OW39430   2.947   0.413   9.628  0.1582  0.1773  0.0550
 9266SOL    HW139431   3.034   0.452   9.623 -0.2153  0.7082 -2.5493
 9266SOL    HW239432   2.899   0.448   9.703 -1.0276  3.2544 -2.1146
 9267SOL     OW39433   1.954   0.935   1.934  0.6052  0.3134  0.0012
 9267SOL    HW139434   1.934   0.922   1.841 -3.1459  1.7502  0.5898
 9267SOL    HW239435   1.868   0.945   1.975 -0.3038  2.4977 -2.4433
 9268SOL     OW39436   1.132   3.423  14.440 -0.0806 -0.0124  0.2592
 9268SOL    HW139437   1.114   3.353  14.503  0.9665 -1.9905 -1.6631
 9268SOL    HW239438   1.224   3.448  14.446 -0.0732  0.5157 -2.0722
 9269SOL     OW39439   3.585   3.149   6.237 -0.4244  0.1947 -0.3506
 9269SOL    HW139440   3.645   3.213   6.276  1.0458 -0.7592 -1.0620
 9269SOL    HW239441   3.507   3.191   6.273  0.8726  0.2840  2.3845
 9270SOL     OW39442   2.256   4.674   3.560 -0.8186 -0.4626 -0.2146
 9270SOL    HW139443   2.196   4.654   3.632  2.3565  0.1629  2.6089
 9270SOL    HW239444   2.322   4.607   3.577 -0.9809 -0.3410  0.8891
 9271SOL     OW39445   2.924   4.187  10.345  0.0370 -0.3412  0.1809
 9271SOL    HW139446   2.899   4.181  10.437 -2.2716 -1.2787 -0.5056
 9271SOL    HW239447   2.842   4.171  10.299  0.2422 -1.3880  0.1626
 9272SOL     OW39448   1.943   4.013   4.324 -0.3830  0.4330  0.5275
 9272SOL    HW139449   1.879   4.013   4.253  1.2765  0.9724 -0.9683
 9272SOL    HW239450   2.021   4.001   4.271 -1.8571 -0.7290 -1.3748
 9273SOL     OW39451   1.606   4.433  15.724 -0.0476  0.2048  0.5317
 9273SOL    HW139452   1.587   4.365  15.789  2.3835  0.6067  1.7010
 9273SOL    HW239453   1.561   4.508  15.763  0.6890  0.1483  1.5190
 9274SOL     OW39454   3.100   2.093  17.015  0.3893 -0.5318 -0.2395
 9274SOL    HW139455   3.045   2.025  16.975 -0.4436  0.8815 -1.5038
 9274SOL    HW239456   3.077   2.172  16.966  0.6277 -0.9428 -1.0118
 9275SOL     OW39457   0.722   2.113   1.677  0.1733 -0.7373 -0.1629
 9275SOL    HW139458   0.635   2.074   1.682 -0.5843  0.5795 -3.0431
 9275SOL    HW239459   0.743   2.100   1.584 -2.7110  0.3094 -0.9393
 9276SOL     OW39460   0.835   0.460   7.426 -0.3661  0.6337 -0.4375
 9276SOL    HW139461   0.791   0.516   7.361 -0.0111  1.6916  0.2467
 9276SOL    HW239462   0.771   0.477   7.496  1.3137 -0.3163  1.3193
 9277SOL     OW39463   2.463   1.962   7.766 -0.1040  0.3027 -0.5604
 9277SOL    HW139464   2.391   1.966   7.703 -2.3440 -0.2347  1.9943
 9277SOL    HW239465   2.488   1.870   7.765 -0.2929  0.2540 -0.9940
 9278SOL     OW39466   0.748   0.153  10.727  0.4010  0.9350 -0.0766
 9278SOL    HW139467   0.843   0.166  10.733  0.1542  0.4109  5.0351
 9278SOL    HW239468   0.722   0.213  10.796  0.3671  2.4540 -1.4115
 9279SOL     OW39469   3.113   1.736   4.898  0.1998  0.1178 -0.2544
 9279SOL    HW139470   3.037   1.720   4.842 -0.7578 -0.4600  1.2145
 9279SOL    HW239471   3.066   1.793   4.959 -0.1187 -0.9391  0.4944
 9280SOL     OW39472   4.175   3.189   0.385  0.3656 -0.0498 -0.1603
 9280SOL    HW139473   4.121   3.110   0.381  0.2966 -0.0306  0.3562
 9280SOL    HW239474   4.247   3.148   0.338  0.5998  1.6226 -1.2592
 9281SOL     OW39475   2.144   0.151  11.603  0.2114 -0.4054 -0.0820
 9281SOL    HW139476   2.190   0.089  11.659 -1.4713 -1.2722  0.3679
 9281SOL    HW239477   2.168   0.237  11.637  0.2102  0.1532 -1.4769
 9282SOL     OW39478   3.150   1.352   8.557  0.0500  0.2649  0.3533
 9282SOL    HW139479   3.239   1.368   8.526  0.3308  1.7479  1.8939
 9282SOL    HW239480   3.129   1.437   8.597 -0.6330  0.1929  0.1445
 9283SOL     OW39481   2.086   1.670   7.904 -0.0970 -0.2895 -0.8765
 9283SOL    HW139482   2.077   1.591   7.850 -1.0533  0.0966 -1.2741
 9283SOL    HW239483   2.137   1.646   7.981  1.7216  1.1667 -1.6246
 9284SOL     OW39484   1.198   3.727   9.019  0.1250 -0.1222 -0.1110
 9284SOL    HW139485   1.206   3.719   8.924  1.0451  1.2459 -0.1612
 9284SOL    HW239486   1.266   3.667   9.050 -0.6689 -0.6781  0.5662
 9285SOL     OW39487   4.532   4.184   6.574 -0.1929  0.2529  0.3373
 9285SOL    HW139488   4.562   4.094   6.585  3.1698  1.3005 -0.3626
 9285SOL    HW239489   4.539   4.209   6.482 -0.5913  3.2443  1.0868
 9286SOL     OW39490   3.353   2.593   2.365 -0.2489 -0.3257  0.0897
 9286SOL    HW139491   3.338   2.652   2.291 -0.1477  0.6694  0.8745
 9286SOL    HW239492   3.334   2.515   2.313 -0.4233 -0.4854  0.3937
 9287SOL     OW39493   2.523   3.926   3.318 -0.1472  0.4685  0.9580
 9287SOL    HW139494   2.476   3.891   3.242  0.6121 -2.1243  1.6841
 9287SOL    HW239495   2.500   4.016   3.294 -0.3097 -0.2793 -1.6968
 9288SOL     OW39496   0.012   4.668   0.768  0.2263 -0.2405 -1.0300
 9288SOL    HW139497   4.723   4.727   0.697 -3.7338  0.1275  0.7643
 9288SOL    HW239498   0.040   4.725   0.840  1.6070 -1.8798 -0.2870
 9289SOL     OW39499   0.023   2.836   0.970 -0.2071 -0.3055 -0.4413
 9289SOL    HW139500   0.024   2.903   0.902 -2.0832  0.7291  0.5547
 9289SOL    HW239501   4.673   2.849   1.008 -0.2825 -0.3076 -0.6171
 9290SOL     OW39502   3.090   4.195   6.698  0.4945  1.1036 -0.4136
 9290SOL    HW139503   3.180   4.195   6.664  0.1364  0.0859 -1.3476
 9290SOL    HW239504   3.081   4.102   6.715  1.1912  1.0621 -0.2666
 9291SOL     OW39505   1.824   0.237  15.114 -0.0753 -0.1267 -0.2781
 9291SOL    HW139506   1.908   0.282  15.102 -1.3144  2.4354  0.8134
 9291SOL    HW239507   1.862   0.166  15.166  1.2805  0.9349  0.1706
 9292SOL     OW39508   0.124   2.928   7.316 -0.0864  0.0123 -0.0087
 9292SOL    HW139509   0.162   2.887   7.238  0.0769  2.2233 -1.0910
 9292SOL    HW239510   0.041   2.884   7.329  0.8886 -1.4730  1.2818
 9293SOL     OW39511   4.599   1.491  16.042 -0.1357 -0.0459  0.2160
 9293SOL    HW139512   4.609   1.402  16.075  2.8350  1.1815  2.5455
 9293SOL    HW239513   4.688   1.523  16.052 -1.1933  3.8477 -2.4392
 9294SOL     OW39514   1.838   0.674   4.485 -0.3132  0.0520  0.1052
 9294SOL    HW139515   1.773   0.728   4.441  0.5438  1.8336  0.9866
 9294SOL    HW239516   1.800   0.654   4.570  0.8247 -4.1248 -0.3650
 9295SOL     OW39517   0.076   0.546   2.659 -0.1608 -0.4765 -0.0309
 9295SOL    HW139518   0.071   0.589   2.574 -0.4211 -0.6796 -0.1206
 9295SOL    HW239519   0.171   0.543   2.669 -0.0591  3.2435 -0.1330
 9296SOL     OW39520   3.310   3.691   7.440 -0.0643  0.4709  0.2737
 9296SOL    HW139521   3.251   3.757   7.404 -0.0979 -0.1960 -0.8995
 9296SOL    HW239522   3.279   3.610   7.400  1.0921  0.1912 -0.0688
 9297SOL     OW39523   2.452   4.258   6.210  1.2010 -0.2040 -0.5653
 9297SOL    HW139524   2.417   4.212   6.135 -0.1434 -1.5983  0.9253
 9297SOL    HW239525   2.484   4.185   6.264 -1.9722 -0.6439  0.7073
 9298SOL     OW39526   0.186   3.711   7.455  0.6848 -0.2208  0.9912
 9298SOL    HW139527   0.116   3.724   7.391 -0.2728 -0.0320  2.0687
 9298SOL    HW239528   0.184   3.791   7.507  0.5061  1.9255 -2.3419
 9299SOL     OW39529   1.276   0.734   2.329  0.2289  0.3254 -0.2129
 9299SOL    HW139530   1.363   0.745   2.368  0.2564 -1.9741  0.3540
 9299SOL    HW239531   1.306   0.664   2.271 -2.7797 -0.7281 -0.4715
 9300SOL     OW39532   3.788   0.881   5.896  0.4747  0.0272  0.6999
 9300SOL    HW139533   3.761   0.963   5.855 -2.2891 -0.1906  2.1089
 9300SOL    HW239534   3.792   0.905   5.989 -1.5600 -2.2558  1.3659
 9301SOL     OW39535   0.651   1.229   4.987  0.0509  0.4166 -0.3143
 9301SOL    HW139536   0.732   1.280   4.983  0.1588  0.0736 -2.6821
 9301SOL    HW239537   0.590   1.302   4.996 -0.8682 -0.1817 -1.7077
 9302SOL     OW39538   2.215   4.723   2.162  0.1929 -0.3054 -0.7297
 9302SOL    HW139539   2.157   0.036   2.104 -0.6281  0.9185  1.1605
 9302SOL    HW239540   2.153   4.711   2.234 -0.3566  0.3633 -1.0841
 9303SOL     OW39541   3.483   1.750   1.943  0.2995  0.0146 -0.3458
 9303SOL    HW139542   3.436   1.760   2.026  0.4864 -0.1530 -0.2206
 9303SOL    HW239543   3.478   1.838   1.906  1.7536  0.3480  0.2649
 9304SOL     OW39544   3.093   1.248   7.405  0.1253 -0.2913  0.0691
 9304SOL    HW139545   3.069   1.333   7.368  0.6553 -1.2255 -2.4470
 9304SOL    HW239546   3.036   1.244   7.482 -2.3407  0.4900 -1.7241
 9305SOL     OW39547   3.449   2.806   5.547 -0.1089 -0.0490  0.4588
 9305SOL    HW139548   3.535   2.818   5.588  0.7132 -0.7261 -1.0513
 9305SOL    HW239549   3.449   2.870   5.475 -3.5215 -0.8576 -0.2605
 9306SOL     OW39550   4.394   3.537   6.117  1.0229  0.3661 -0.7952
 9306SOL    HW139551   4.347   3.502   6.193  1.3427  0.9890 -0.3130
 9306SOL    HW239552   4.420   3.621   6.155  1.0782  0.2006 -0.4617
 9307SOL     OW39553   0.691   3.892   5.004 -0.0238 -0.4037  0.0108
 9307SOL    HW139554   0.695   3.947   5.083  1.2975  3.2272 -2.5953
 9307SOL    HW239555   0.656   3.942   4.931  2.5685 -0.4586 -1.2587
 9308SOL     OW39556   2.715   2.822   4.831  0.3259  0.2868  0.8081
 9308SOL    HW139557   2.801   2.857   4.806  1.1040 -0.8206  2.0111
 9308SOL    HW239558   2.741   2.730   4.838 -1.4868 -0.1505  1.8218
 9309SOL     OW39559   3.072   1.542   2.775 -0.1406  0.8166  0.2532
 9309SOL    HW139560   3.079   1.622   2.722  3.2213  0.7205  0.5463
 9309SOL    HW239561   3.057   1.581   2.861  1.9058 -0.2880  1.1049
 9310SOL     OW39562   0.268   0.474   2.231  0.4559  0.0978  0.1996
 9310SOL    HW139563   0.327   0.420   2.177  0.4650  0.5610 -0.2509
 9310SOL    HW239564   0.301   0.446   2.317 -1.9115 -2.6810  0.1994
 9311SOL     OW39565   4.099   1.090  16.280 -0.1458 -0.2569 -0.6675
 9311SOL    HW139566   4.046   1.078  16.358  1.8430 -1.1207  0.5615
 9311SOL    HW239567   4.101   0.995  16.263  2.8079 -0.4785  0.8237
 9312SOL     OW39568   0.391   2.350   5.443 -1.0291  0.1855  0.2568
 9312SOL    HW139569   0.398   2.337   5.348  2.4865  1.8329  0.2953
 9312SOL    HW239570   0.478   2.380   5.468 -1.1091  0.9039 -0.3269
 9313SOL     OW39571   0.109   4.337   5.322  0.2202 -0.5830 -0.4224
 9313SOL    HW139572   0.111   4.281   5.399  0.7471 -0.9910 -0.7306
 9313SOL    HW239573   0.015   4.339   5.304  0.4698  1.6123 -1.5919
 9314SOL     OW39574   4.361   4.131   8.956 -0.8084 -0.2175  0.2301
 9314SOL    HW139575   4.424   4.143   9.027  1.2988  0.9467 -1.8751
 9314SOL    HW239576   4.336   4.222   8.941  0.9187  0.1109 -0.6454
 9315SOL     OW39577   2.102   1.680  17.527 -0.7078 -0.2937  0.0293
 9315SOL    HW139578   2.178   1.636  17.566 -0.4585  0.7906  0.7459
 9315SOL    HW239579   2.046   1.609  17.495  1.3773 -2.7507  1.8186
 9316SOL     OW39580   2.184   3.908   3.258  0.1151 -0.0637 -0.9030
 9316SOL    HW139581   2.204   3.989   3.213  0.4212 -1.5687 -3.4793
 9316SOL    HW239582   2.257   3.858   3.221 -2.6967 -4.5734 -0.3750
 9317SOL     OW39583   2.442   0.024   9.065  0.0713  0.3175  0.1433
 9317SOL    HW139584   2.475   4.675   9.041  0.7605  0.9678 -1.2329
 9317SOL    HW239585   2.363   0.005   9.115 -0.2971  2.8184  0.5330
 9318SOL     OW39586   3.366   4.548   3.330 -0.2731  0.2360  0.1095
 9318SOL    HW139587   3.384   4.638   3.303  2.1540 -0.2427  0.1361
 9318SOL    HW239588   3.383   4.559   3.424  1.8632  2.8221 -0.5832
 9319SOL     OW39589   0.578   1.153   9.056  0.3406 -0.1145  0.6664
 9319SOL    HW139590   0.483   1.148   9.051  0.4738 -0.3288 -1.6228
 9319SOL    HW239591   0.588   1.163   9.151 -0.2629  1.7871  0.5202
 9320SOL     OW39592   2.479   4.436   1.652  0.2481 -0.0198 -0.4706
 9320SOL    HW139593   2.569   4.468   1.650 -0.3768  1.8295  0.5960
 9320SOL    HW239594   2.429   4.504   1.698 -2.1628 -0.5966 -2.2649
 9321SOL     OW39595   1.808   1.166   6.607 -0.3976  0.0288 -0.8250
 9321SOL    HW139596   1.837   1.250   6.572 -2.2894 -0.2259 -2.9801
 9321SOL    HW239597   1.876   1.162   6.675 -2.4857  2.3700  1.4089
 9322SOL     OW39598   1.909   3.250   3.021  0.3530  0.0859  0.8252
 9322SOL    HW139599   1.968   3.293   3.083  0.0762  0.8581  0.5472
 9322SOL    HW239600   1.937   3.297   2.943 -1.4046  0.7238  0.5845
 9323SOL     OW39601   0.811   3.621  14.603 -0.3017  0.3127  0.4852
 9323SOL    HW139602   0.717   3.615  14.585  0.0284 -1.3097 -0.6856
 9323SOL    HW239603   0.828   3.527  14.607 -3.5083 -0.3132 -0.3278
 9324SOL     OW39604   3.826   3.793   3.782  0.7991  0.1707 -0.2632
 9324SOL    HW139605   3.779   3.782   3.700  1.3536 -1.4202 -0.3664
 9324SOL    HW239606   3.818   3.887   3.792 -0.7288 -0.1121  1.3099
 9325SOL     OW39607   1.320   0.308   8.256  0.5208  0.6506  0.0624
 9325SOL    HW139608   1.318   0.273   8.345 -0.4780 -0.5434 -0.4250
 9325SOL    HW239609   1.366   0.235   8.214  0.7556  2.4057 -2.7473
 9326SOL     OW39610   1.472   0.231  10.870 -0.4226  0.0673 -0.4596
 9326SOL    HW139611   1.509   0.293  10.932  2.4635 -2.1667  0.0776
 9326SOL    HW239612   1.472   0.154  10.927  1.6012 -0.0946 -0.6737
 9327SOL     OW39613   0.815   2.877   7.593  0.9395 -0.5920 -0.1406
 9327SOL    HW139614   0.873   2.945   7.557  2.8946 -0.5016  3.2374
 9327SOL    HW239615   0.817   2.816   7.519 -0.3600 -0.3028 -0.4120
 9328SOL     OW39616   2.893   0.917  11.028 -0.1827  0.0917  0.0764
 9328SOL    HW139617   2.814   0.885  11.071  0.0990 -0.9979 -0.2124
 9328SOL    HW239618   2.956   0.889  11.095 -1.4123 -0.5506  0.9761
 9329SOL     OW39619   2.347   4.112  15.843 -0.4659  0.3926  0.3978
 9329SOL    HW139620   2.292   4.190  15.836 -1.1716 -0.2113 -0.8218
 9329SOL    HW239621   2.312   4.055  15.775  3.1096  2.6664 -3.3372
 9330SOL     OW39622   2.447   1.260   7.907 -0.2451  0.1558 -0.1682
 9330SOL    HW139623   2.512   1.283   7.974  1.9928 -0.2170 -2.2032
 9330SOL    HW239624   2.463   1.168   7.888 -0.9541 -0.3094  1.4767
 9331SOL     OW39625   1.314   3.739   6.859 -0.3545 -0.0597 -0.0432
 9331SOL    HW139626   1.305   3.770   6.769  0.3187  1.5667  0.4500
 9331SOL    HW239627   1.360   3.810   6.905 -1.4417 -0.1113  1.1250
 9332SOL     OW39628   2.937   2.635   1.464 -0.0647 -0.5228 -0.3187
 9332SOL    HW139629   2.871   2.574   1.494 -0.0497  0.4481  1.6485
 9332SOL    HW239630   2.876   2.709   1.459  0.1755 -0.3214 -0.3206
 9333SOL     OW39631   1.345   2.627  10.329 -0.2778 -0.1638 -0.1169
 9333SOL    HW139632   1.345   2.565  10.256  1.4339  0.7003 -0.8556
 9333SOL    HW239633   1.265   2.677  10.311 -0.6481 -0.2371  1.3282
 9334SOL     OW39634   1.742   0.749  16.905 -0.5201 -0.0727 -0.2546
 9334SOL    HW139635   1.713   0.831  16.945 -2.9617 -0.1024 -1.9679
 9334SOL    HW239636   1.664   0.697  16.924 -0.6705  0.3188  0.1731
 9335SOL     OW39637   3.002   3.708   4.020 -0.2725 -0.0751 -0.2993
 9335SOL    HW139638   2.943   3.772   3.979  0.4317 -0.2766 -1.6449
 9335SOL    HW239639   3.081   3.756   4.045  0.6996 -1.7412 -0.1426
 9336SOL     OW39640   3.558   1.920   4.764  0.5929  0.0728 -0.0968
 9336SOL    HW139641   3.571   1.912   4.859  4.0650 -0.7375 -0.6336
 9336SOL    HW239642   3.463   1.907   4.766  0.2997  2.6658  3.3576
 9337SOL     OW39643   2.310   2.467   9.045  0.1693  0.1013 -0.1305
 9337SOL    HW139644   2.235   2.491   8.992 -0.3582 -0.1495  0.5061
 9337SOL    HW239645   2.378   2.521   9.004 -1.5995  1.7603 -0.8728
 9338SOL     OW39646   2.557   2.670   9.510 -1.2778 -0.6810 -0.3543
 9338SOL    HW139647   2.630   2.648   9.569 -3.2259 -3.2129  1.1213
 9338SOL    HW239648   2.544   2.587   9.464 -1.8914 -0.3788 -0.7133
 9339SOL     OW39649   4.575   2.692   7.332  0.2448 -0.1470  0.1158
 9339SOL    HW139650   4.657   2.673   7.376 -0.9442 -3.5433  0.8606
 9339SOL    HW239651   4.512   2.625   7.358 -0.4928  0.3809 -0.3167
 9340SOL     OW39652   1.104   1.883   2.744 -0.2304 -0.0482  0.0743
 9340SOL    HW139653   1.188   1.924   2.765 -0.4223 -0.2479  1.2262
 9340SOL    HW239654   1.124   1.791   2.726 -3.7372 -0.8898  0.5816
 9341SOL     OW39655   0.199   3.967   3.990 -0.1424  0.5600 -0.0585
 9341SOL    HW139656   0.244   3.894   3.946 -1.6533 -0.6472  0.3814
 9341SOL    HW239657   0.276   3.983   4.044 -1.2141  2.0739  1.0121
 9342SOL     OW39658   1.234   1.759   7.246 -0.2632 -0.1008 -0.1298
 9342SOL    HW139659   1.243   1.786   7.338  2.0051  0.5271 -0.5461
 9342SOL    HW239660   1.167   1.824   7.229 -0.1621  0.5533  1.8960
 9343SOL     OW39661   2.169   3.803   6.390  0.3206 -0.0093 -0.8459
 9343SOL    HW139662   2.244   3.771   6.340  1.3069 -0.8957  1.2083
 9343SOL    HW239663   2.153   3.727   6.445  1.5464  0.4662  0.1769
 9344SOL     OW39664   2.433   4.059   8.194 -0.3961  0.0604  0.1850
 9344SOL    HW139665   2.399   4.086   8.279  1.6521  2.5504  0.2302
 9344SOL    HW239666   2.394   4.122   8.133  0.2134  0.5730  0.3206
 9345SOL     OW39667   2.976   4.284   8.618  0.0328 -0.2247 -0.0476
 9345SOL    HW139668   2.960   4.194   8.646  1.6396 -1.0233 -1.6876
 9345SOL    HW239669   3.060   4.277   8.572 -0.2559  0.2856 -0.6516
 9346SOL     OW39670   1.844   3.036   8.420 -0.8863  0.2359  0.3425
 9346SOL    HW139671   1.841   3.123   8.460  2.0921  1.3409 -1.8130
 9346SOL    HW239672   1.754   3.027   8.391 -1.1057 -0.5312  1.2846
 9347SOL     OW39673   3.784   2.801  11.576  0.2438 -0.1296  0.2235
 9347SOL    HW139674   3.809   2.882  11.532  0.4300  0.6669  1.7840
 9347SOL    HW239675   3.866   2.752  11.567 -0.6642 -1.6219  0.0316
 9348SOL     OW39676   1.347   0.340  12.633  0.5703 -0.5247  0.6025
 9348SOL    HW139677   1.442   0.325  12.633  0.5405 -0.7026  0.3617
 9348SOL    HW239678   1.348   0.332  12.729 -3.4422 -0.8014  0.6011
 9349SOL     OW39679   0.302   4.460  15.410 -0.1420 -0.3167  0.0498
 9349SOL    HW139680   0.315   4.491  15.500 -1.2923 -0.1908  0.1757
 9349SOL    HW239681   0.375   4.399  15.415 -0.1833 -0.3161  0.6451
 9350SOL     OW39682   1.610   1.463  16.784 -0.2756 -0.1720  0.5702
 9350SOL    HW139683   1.658   1.536  16.745 -1.0750  0.8770  1.5227
 9350SOL    HW239684   1.650   1.390  16.738  0.1269  1.8843 -2.3814
 9351SOL     OW39685   3.077   3.369   1.930 -0.2734  0.2957  0.5954
 9351SOL    HW139686   3.009   3.330   1.984 -0.0981 -0.0616  0.5617
 9351SOL    HW239687   3.027   3.446   1.906  0.3370 -0.2357 -2.3938
 9352SOL     OW39688   0.742   1.163  10.999  0.4726 -0.1978 -0.4864
 9352SOL    HW139689   0.827   1.162  10.956  0.2278 -2.0359 -0.9283
 9352SOL    HW239690   0.747   1.119  11.083  2.3332 -1.7196 -1.4026
 9353SOL     OW39691   2.298   1.734   2.338 -0.0878 -0.2758  0.5699
 9353SOL    HW139692   2.237   1.684   2.284 -0.3051  0.4597  0.1311
 9353SOL    HW239693   2.255   1.819   2.329 -2.1777 -1.3033  0.6339
 9354SOL     OW39694   4.454   0.183  10.293  0.0379  0.4743  0.3404
 9354SOL    HW139695   4.396   0.258  10.307 -2.5749 -1.7868  1.7805
 9354SOL    HW239696   4.509   0.171  10.370  2.2143  0.9058 -1.1363
 9355SOL     OW39697   3.764   3.282  11.221 -0.0884  0.4265  0.6497
 9355SOL    HW139698   3.835   3.299  11.284  1.8823  2.3064 -2.0660
 9355SOL    HW239699   3.813   3.232  11.155 -0.1783 -1.3570  1.9463
 9356SOL     OW39700   3.216   4.132   8.934  0.4473  0.1567  0.2210
 9356SOL    HW139701   3.143   4.075   8.907  0.6327  0.0374 -0.0229
 9356SOL    HW239702   3.256   4.080   9.004 -1.8616 -0.9057  0.7556
 9357SOL     OW39703   1.966   4.291  12.020 -0.3728  0.2678  0.5843
 9357SOL    HW139704   2.003   4.329  12.100  1.2328 -2.5992  1.2056
 9357SOL    HW239705   2.046   4.252  11.986 -1.0759  0.3985 -1.2184
 9358SOL     OW39706   1.151   3.611  15.342 -0.3605 -0.5629 -0.0716
 9358SOL    HW139707   1.205   3.554  15.398 -1.3190 -0.1999  1.2376
 9358SOL    HW239708   1.154   3.687  15.400  1.2413  1.4285 -2.7722
 9359SOL     OW39709   0.633   3.794   8.050  0.7323 -0.1729  0.2999
 9359SOL    HW139710   0.717   3.798   8.005  0.0813  0.0150 -0.8989
 9359SOL    HW239711   0.656   3.799   8.143 -0.8055 -0.6860  0.7252
 9360SOL     OW39712   3.521   0.821   8.320  0.0176 -0.4717 -0.2709
 9360SOL    HW139713   3.557   0.874   8.249  1.4981  0.4511  1.1570
 9360SOL    HW239714   3.568   0.844   8.401  0.5000  0.2205 -0.7563
 9361SOL     OW39715   1.849   2.624   7.190 -0.2651 -0.1799 -0.2285
 9361SOL    HW139716   1.780   2.596   7.250 -0.1640  1.4421  0.6364
 9361SOL    HW239717   1.934   2.590   7.217 -0.0651 -0.7551 -1.5806
 9362SOL     OW39718   1.749   1.895   5.790  0.1493 -0.0887 -0.1196
 9362SOL    HW139719   1.817   1.962   5.801 -0.0164 -0.3482  2.4479
 9362SOL    HW239720   1.748   1.879   5.696  2.5707 -0.9080  0.0048
 9363SOL     OW39721   1.892   0.225   6.080  0.5037  0.4699  0.2321
 9363SOL    HW139722   1.837   0.190   6.010  1.7863 -1.8163  0.3421
 9363SOL    HW239723   1.836   0.297   6.107 -2.2330 -1.7122  0.3948
 9364SOL     OW39724   1.654   1.533   3.072 -0.2814  0.1715  0.1638
 9364SOL    HW139725   1.727   1.591   3.052  0.4038 -0.1245  1.8424
 9364SOL    HW239726   1.629   1.568   3.157 -2.3079  0.2128 -0.4268
 9365SOL     OW39727   3.413   3.485   1.627  0.3809 -0.3839 -0.6328
 9365SOL    HW139728   3.452   3.414   1.576 -1.3402 -0.1215 -2.3605
 9365SOL    HW239729   3.489   3.528   1.665 -1.2380  0.6855  1.3912
 9366SOL     OW39730   1.359   3.105   9.676 -0.2612 -0.6009  0.3267
 9366SOL    HW139731   1.384   3.174   9.737 -0.2274 -0.8319  0.5753
 9366SOL    HW239732   1.283   3.150   9.638 -0.8472 -1.8145  0.0604
 9367SOL     OW39733   3.795   2.399   0.758 -0.8238 -0.4626 -0.1978
 9367SOL    HW139734   3.795   2.429   0.667  2.4833 -0.0879 -0.0970
 9367SOL    HW239735   3.810   2.482   0.803 -1.2548  1.2607 -3.2343
 9368SOL     OW39736   1.958   3.553  14.148  0.2259 -0.0728  0.3003
 9368SOL    HW139737   2.024   3.489  14.123  1.4243  1.8917 -1.5971
 9368SOL    HW239738   1.900   3.539  14.073  1.2989  1.1184 -0.7592
 9369SOL     OW39739   2.192   2.621   5.512  0.5164  0.3251 -0.3518
 9369SOL    HW139740   2.277   2.637   5.555 -0.3168 -1.2051  1.8576
 9369SOL    HW239741   2.234   2.583   5.435 -1.4245 -0.5823 -0.9569
 9370SOL     OW39742   3.586   2.204   6.669  0.2598 -0.0150  0.7160
 9370SOL    HW139743   3.617   2.220   6.758 -0.0372 -0.3376  0.8794
 9370SOL    HW239744   3.517   2.139   6.686  0.9775 -0.5354  1.6507
 9371SOL     OW39745   0.942   0.254  10.368 -0.0724  0.6336  0.2756
 9371SOL    HW139746   0.950   0.161  10.347 -1.8308  0.3853  0.7641
 9371SOL    HW239747   0.930   0.237  10.461 -0.3077 -0.7533 -0.0066
 9372SOL     OW39748   1.731   0.053   4.729  0.0484  0.0362 -0.1926
 9372SOL    HW139749   1.822   0.060   4.701  0.3459 -1.0014  0.5041
 9372SOL    HW239750   1.747   0.069   4.822  0.0846 -1.8389  0.1326
 9373SOL     OW39751   4.659   3.996  14.822 -0.0841 -0.2496  0.4445
 9373SOL    HW139752   0.009   3.987  14.860  1.4657 -0.5341 -3.1279
 9373SOL    HW239753   4.663   3.916  14.769 -2.0120 -0.3324  0.4261
 9374SOL     OW39754   4.454   2.910   3.802  0.6698 -0.0540 -0.4976
 9374SOL    HW139755   4.375   2.858   3.784  1.3129 -1.0295 -0.5192
 9374SOL    HW239756   4.521   2.850   3.769 -1.1271 -1.3509 -1.8117
 9375SOL     OW39757   2.230   3.035   3.777  0.2713 -0.0141 -0.0389
 9375SOL    HW139758   2.283   3.079   3.844 -1.7666 -2.1269  2.9720
 9375SOL    HW239759   2.194   2.967   3.834 -0.5743 -0.8086 -1.5159
 9376SOL     OW39760   2.785   0.059  16.681 -0.4917 -0.0343  0.0533
 9376SOL    HW139761   2.879   0.068  16.694 -0.5384 -0.7209  0.8613
 9376SOL    HW239762   2.759   0.069  16.772 -1.5309  1.6072 -0.4289
 9377SOL     OW39763   2.038   0.643   2.930 -0.7687 -0.0196 -0.6689
 9377SOL    HW139764   2.010   0.552   2.940  0.8358 -0.3488  0.6626
 9377SOL    HW239765   2.099   0.639   2.856 -0.7909 -1.0411 -0.6369
 9378SOL     OW39766   3.225   3.923   7.122 -0.2698  0.4143 -0.0937
 9378SOL    HW139767   3.170   3.856   7.162 -0.5724  0.0704 -1.0933
 9378SOL    HW239768   3.228   3.981   7.198 -1.3256 -1.9387  1.7161
 9379SOL     OW39769   0.112   1.568   5.935 -0.0041  0.3103 -0.5986
 9379SOL    HW139770   0.121   1.595   5.844 -1.0335 -0.8639 -1.0376
 9379SOL    HW239771   0.204   1.550   5.954 -0.3469  1.1754  1.8931
 9380SOL     OW39772   3.491   2.937   5.841  0.0102 -0.1407  0.3037
 9380SOL    HW139773   3.411   2.904   5.801 -1.5626  3.5408  0.3420
 9380SOL    HW239774   3.513   3.010   5.783 -1.9482  0.0176 -0.2444
 9381SOL     OW39775   3.027   4.676  11.163  0.2823  0.1757 -0.1083
 9381SOL    HW139776   3.030   4.643  11.074 -1.3336 -2.0787  0.6877
 9381SOL    HW239777   3.110   4.656  11.206 -1.4341 -0.8383  2.7345
 9382SOL     OW39778   1.903   2.745   4.192 -0.0928  0.0809 -0.4461
 9382SOL    HW139779   1.915   2.748   4.098 -0.7405  0.3987 -0.5235
 9382SOL    HW239780   1.941   2.660   4.211 -1.8979 -0.9470 -1.4340
 9383SOL     OW39781   2.803   4.213   2.992  0.1500 -0.4965 -0.6251
 9383SOL    HW139782   2.770   4.299   2.966  0.2575 -0.4496 -0.6049
 9383SOL    HW239783   2.743   4.158   2.941  0.3542 -1.5920  0.3144
 9384SOL     OW39784   1.923   1.761   4.210  0.5113 -0.3143 -0.1360
 9384SOL    HW139785   1.953   1.670   4.213  1.6809  0.1395  1.8047
 9384SOL    HW239786   1.913   1.776   4.116  0.6397  0.5364 -0.0075
 9385SOL     OW39787   0.902   0.389   2.169 -0.0673 -0.0201 -0.0472
 9385SOL    HW139788   0.860   0.475   2.164  2.4761  1.1824 -0.7108
 9385SOL    HW239789   0.866   0.345   2.245 -0.2459  5.5336  3.0476
 9386SOL     OW39790   2.726   1.164  11.542 -0.2278 -0.3323  0.3189
 9386SOL    HW139791   2.816   1.188  11.522 -0.4607  0.3603  0.0859
 9386SOL    HW239792   2.687   1.196  11.460  0.6455 -0.5878 -0.1953
 9387SOL     OW39793   4.299   2.168  17.272  0.2210 -0.1003 -0.3433
 9387SOL    HW139794   4.262   2.208  17.193  3.3767  0.4972 -1.5252
 9387SOL    HW239795   4.361   2.236  17.300  0.3297  0.9684 -3.1729
 9388SOL     OW39796   4.585   1.042   3.262  0.3466 -0.6394  0.1714
 9388SOL    HW139797   4.520   1.102   3.226  1.0422 -0.2590 -0.4451
 9388SOL    HW239798   4.567   0.966   3.206 -0.9314  0.2220 -0.5790
 9389SOL     OW39799   4.575   3.019   5.533  0.3010 -0.2019  0.5616
 9389SOL    HW139800   4.567   3.082   5.462  2.4133 -1.5359 -0.8550
 9389SOL    HW239801   4.668   3.032   5.552  0.5325 -1.9549  0.6164
 9390SOL     OW39802   0.604   0.668   9.322  0.3078  0.0509 -0.0885
 9390SOL    HW139803   0.561   0.586   9.297  1.0687  0.5224 -2.9840
 9390SOL    HW239804   0.644   0.638   9.404  0.1892 -2.1828 -0.8487
 9391SOL     OW39805   3.640   0.772   6.402  0.1395 -0.2470 -0.9664
 9391SOL    HW139806   3.609   0.689   6.440 -0.8971  1.6192  2.2640
 9391SOL    HW239807   3.555   0.801   6.368 -0.4299 -0.1211  0.5194
 9392SOL     OW39808   1.288   2.823   0.849  0.1448  0.1302  0.5165
 9392SOL    HW139809   1.196   2.846   0.862 -0.1718 -0.6217 -0.4385
 9392SOL    HW239810   1.304   2.750   0.909  0.6933  1.7003  2.3001
 9393SOL     OW39811   3.530   1.099   6.871  0.0906  0.2417 -0.3341
 9393SOL    HW139812   3.509   1.151   6.948 -0.3645  0.2380 -0.4576
 9393SOL    HW239813   3.442   1.106   6.835 -0.6909 -2.3591  1.0516
 9394SOL     OW39814   2.047   3.936   7.330  0.2578 -0.3732 -0.5306
 9394SOL    HW139815   1.977   3.999   7.348 -0.9314 -1.4168 -1.5356
 9394SOL    HW239816   2.036   3.878   7.406  1.3085  0.3662  0.1811
 9395SOL     OW39817   1.356   2.749   0.327  0.0723 -0.1413  0.1468
 9395SOL    HW139818   1.424   2.726   0.264 -0.9749  1.6732 -1.6378
 9395SOL    HW239819   1.303   2.805   0.270 -0.5140 -0.6708  0.1652
 9396SOL     OW39820   0.236   2.898  10.900 -0.2567  0.2878 -0.3945
 9396SOL    HW139821   0.199   2.810  10.909 -0.2796  0.1752 -1.5857
 9396SOL    HW239822   0.330   2.883  10.888 -0.1108 -0.0531  1.2764
 9397SOL     OW39823   1.915   0.970   6.257 -0.4251  0.4877 -0.5628
 9397SOL    HW139824   1.926   0.897   6.196  0.7248 -1.1568  1.5990
 9397SOL    HW239825   1.857   0.932   6.322  1.2774 -1.6339 -0.2857
 9398SOL     OW39826   4.387   0.550   2.207  0.0594 -0.0244  0.0805
 9398SOL    HW139827   4.455   0.487   2.184  0.7746  0.0104  2.1153
 9398SOL    HW239828   4.306   0.526   2.161  1.0251 -4.0976  0.4961
 9399SOL     OW39829   4.259   3.681   9.718  0.3277  0.4772 -0.2253
 9399SOL    HW139830   4.323   3.738   9.676  0.7042  0.0455 -0.2360
 9399SOL    HW239831   4.282   3.701   9.809  0.9945  2.4248 -0.8217
 9400SOL     OW39832   3.617   2.653   7.572  0.6766  0.0568 -0.3105
 9400SOL    HW139833   3.611   2.748   7.570 -3.1910 -0.1475  1.0854
 9400SOL    HW239834   3.608   2.619   7.483  1.6271 -0.5603 -0.1759
 9401SOL     OW39835   3.707   1.099   9.187 -0.6381 -0.4953 -0.0483
 9401SOL    HW139836   3.799   1.097   9.162 -0.4823  2.4125  0.3102
 9401SOL    HW239837   3.697   1.185   9.228 -0.0165 -1.1912  1.5620
 9402SOL     OW39838   2.161   3.268   8.818 -0.4356 -0.2623 -0.0972
 9402SOL    HW139839   2.141   3.325   8.892 -1.3700 -0.1900 -0.4026
 9402SOL    HW239840   2.120   3.314   8.745  1.0992  0.9073 -0.2263
 9403SOL     OW39841   3.170   3.787   2.003 -0.1771 -0.5658  0.0538
 9403SOL    HW139842   3.082   3.777   1.967 -0.5929 -0.0659  0.9133
 9403SOL    HW239843   3.151   3.846   2.076 -0.6230  0.0527 -0.5695
 9404SOL     OW39844   2.745   3.349   4.335  0.4879 -0.3922 -0.3661
 9404SOL    HW139845   2.813   3.331   4.270  0.7253 -2.0145  0.3310
 9404SOL    HW239846   2.725   3.441   4.320 -2.3323 -0.9751 -0.1680
 9405SOL     OW39847   3.553   2.862   1.557 -0.0744  0.2382  0.7520
 9405SOL    HW139848   3.596   2.867   1.642 -1.6422 -0.6000  1.5885
 9405SOL    HW239849   3.516   2.950   1.554  2.8950  1.4871  0.8375
 9406SOL     OW39850   1.093   3.920   2.143  0.1668 -0.2821  0.0592
 9406SOL    HW139851   1.048   3.927   2.227 -2.1715  0.3885 -1.2364
 9406SOL    HW239852   1.020   3.909   2.081  1.6824  0.6693 -1.8884
 9407SOL     OW39853   1.811   1.913   5.236  0.4584  0.8230  0.0746
 9407SOL    HW139854   1.788   1.877   5.151  0.8766  2.0113 -0.5484
 9407SOL    HW239855   1.836   2.002   5.211  1.8271  0.4017 -0.0818
 9408SOL     OW39856   3.785   2.758   4.898 -0.6725 -0.1186  0.4826
 9408SOL    HW139857   3.803   2.704   4.975  0.1503 -0.5703 -0.0300
 9408SOL    HW239858   3.867   2.746   4.849 -0.8862 -3.0795  0.8979
 9409SOL     OW39859   0.714   0.152  16.524  0.1831 -0.3856  0.0582
 9409SOL    HW139860   0.667   0.145  16.441 -0.2647 -0.9849  0.3678
 9409SOL    HW239861   0.769   0.228  16.505  0.5409 -0.0567  2.3708
 9410SOL     OW39862   3.357   2.571   3.210 -0.5079 -0.3233 -0.3925
 9410SOL    HW139863   3.303   2.633   3.160  0.2859  0.8870  0.2660
 9410SOL    HW239864   3.320   2.576   3.298 -1.6111  0.0170 -0.8711
 9411SOL     OW39865   3.511   0.434   5.621 -0.0750  0.3352  0.5160
 9411SOL    HW139866   3.480   0.433   5.712 -1.0717 -0.8238  0.1653
 9411SOL    HW239867   3.511   0.341   5.601  0.4414  0.4198  0.1173
 9412SOL     OW39868   2.129   1.385   1.609  0.5250  0.0780 -0.5619
 9412SOL    HW139869   2.038   1.397   1.581 -0.2054 -0.5571  1.5404
 9412SOL    HW239870   2.174   1.400   1.526  0.5944  0.9746 -0.3698
 9413SOL     OW39871   3.966   3.119   9.808  0.1007  0.7931 -0.5859
 9413SOL    HW139872   4.007   3.114   9.894  1.6654 -2.6585 -1.5477
 9413SOL    HW239873   4.016   3.190   9.769  1.2347 -0.7062 -1.8899
 9414SOL     OW39874   4.447   0.027   7.182  0.1250 -0.1003  0.3730
 9414SOL    HW139875   4.515   4.734   7.122 -0.2064  1.4161 -0.7583
 9414SOL    HW239876   4.502   0.047   7.258  1.8778 -2.3710 -0.2882
 9415SOL     OW39877   2.325   3.056   4.544 -0.3800  0.1987 -0.2761
 9415SOL    HW139878   2.347   2.983   4.601 -0.3006  0.4839  0.0569
 9415SOL    HW239879   2.397   3.036   4.485 -0.3495 -2.4419  0.6452
 9416SOL     OW39880   0.202   1.641   9.194 -0.2989 -0.2273 -0.1845
 9416SOL    HW139881   0.163   1.560   9.161  0.7539  0.0944 -2.2291
 9416SOL    HW239882   0.136   1.656   9.261  2.6514  0.3289  2.6035
 9417SOL     OW39883   4.116   2.075   9.647 -0.2311  0.0096  0.1884
 9417SOL    HW139884   4.141   2.012   9.715  0.0715 -0.7583 -0.6357
 9417SOL    HW239885   4.055   2.124   9.702 -0.4258 -0.3095  0.2606
 9418SOL     OW39886   3.173   4.725   7.298  0.1480  0.5072  0.2704
 9418SOL    HW139887   3.099   0.045   7.277 -1.4047 -1.3971  0.6969
 9418SOL    HW239888   3.186   4.667   7.223  0.8679 -0.6011  1.2405
 9419SOL     OW39889   4.002   1.451   9.313 -0.4443 -0.5081  0.1462
 9419SOL    HW139890   4.076   1.404   9.275 -0.8041 -1.7210  0.9227
 9419SOL    HW239891   3.992   1.397   9.392 -0.8129 -0.4231  0.1590
 9420SOL     OW39892   1.908   2.396   7.354  0.9553 -0.5493  0.3506
 9420SOL    HW139893   1.989   2.371   7.398  0.8069 -0.5654  0.6146
 9420SOL    HW239894   1.852   2.391   7.431  1.9423 -0.0776  1.0970
 9421SOL     OW39895   1.984   3.117   6.753  0.3851 -0.2045  0.1069
 9421SOL    HW139896   2.001   3.030   6.715  1.1550  0.2796 -0.6658
 9421SOL    HW239897   2.054   3.114   6.819 -0.3689  0.3716  0.9240
 9422SOL     OW39898   3.547   1.327   6.584 -0.1253  0.4641  0.2290
 9422SOL    HW139899   3.452   1.324   6.595  0.0377  1.3541  1.8597
 9422SOL    HW239900   3.575   1.238   6.602 -1.1007  0.3223  1.0486
 9423SOL     OW39901   2.117   3.876   7.668  0.2469 -0.1454  0.1162
 9423SOL    HW139902   2.089   3.967   7.658  1.7224  0.2136 -0.5746
 9423SOL    HW239903   2.039   3.835   7.631  1.0970 -1.3447 -0.3310
 9424SOL     OW39904   0.020   2.917  14.607  0.9728 -0.2217  0.6127
 9424SOL    HW139905   4.725   2.878  14.526  3.2791 -2.5637  0.8487
 9424SOL    HW239906   0.079   2.982  14.569  1.1527 -0.7819 -0.0578
 9425SOL     OW39907   2.791   1.542   1.778 -0.1452 -0.0810  0.2686
 9425SOL    HW139908   2.785   1.549   1.683  1.9559  1.2381  0.2378
 9425SOL    HW239909   2.706   1.506   1.803  0.6920 -1.3286  1.3417
 9426SOL     OW39910   1.788   3.488   3.428 -0.1798 -0.1653 -0.0286
 9426SOL    HW139911   1.867   3.536   3.402  0.1475 -0.5600  0.2508
 9426SOL    HW239912   1.790   3.408   3.375 -0.5338 -0.7487  0.8336
 9427SOL     OW39913   4.483   0.419  12.346 -0.1642  0.3706 -0.2411
 9427SOL    HW139914   4.556   0.383  12.295  1.1190 -2.2827  3.5140
 9427SOL    HW239915   4.525   0.490  12.394 -0.6349  0.7409 -0.3789
 9428SOL     OW39916   3.175   1.720   7.696  0.3111 -0.7408  0.3190
 9428SOL    HW139917   3.131   1.660   7.757  1.4210 -1.4567  0.4260
 9428SOL    HW239918   3.266   1.694   7.708  0.2085 -0.9268  0.7378
 9429SOL     OW39919   1.343   2.817   9.717 -0.2315 -0.1547  0.1327
 9429SOL    HW139920   1.348   2.904   9.679  0.0745 -0.7669 -1.2439
 9429SOL    HW239921   1.425   2.819   9.767 -1.6828 -0.3065  2.4889
 9430SOL     OW39922   3.064   1.565   5.273  0.1344 -0.4877 -0.1923
 9430SOL    HW139923   3.051   1.487   5.219 -0.6511  1.8064 -3.3782
 9430SOL    HW239924   3.154   1.542   5.296 -0.4374 -2.8209 -0.2996
 9431SOL     OW39925   1.232   3.906   9.978 -0.0238  0.4005 -0.0621
 9431SOL    HW139926   1.145   3.941   9.996 -0.7310 -0.4719 -1.8185
 9431SOL    HW239927   1.281   3.964  10.036  1.9893 -1.3545  0.0048
 9432SOL     OW39928   1.110   0.364   1.865  0.2562 -0.4677  0.0190
 9432SOL    HW139929   1.206   0.369   1.862  0.3375 -1.2154  1.4227
 9432SOL    HW239930   1.091   0.456   1.885  1.7395 -0.0632 -0.4207
 9433SOL     OW39931   2.815   1.468   7.635  0.3474 -0.0851 -0.3959
 9433SOL    HW139932   2.846   1.536   7.575 -1.8445  2.5709  1.4602
 9433SOL    HW239933   2.871   1.474   7.712  0.9718  1.4215 -0.9677
 9434SOL     OW39934   2.963   4.602   8.765 -0.4179  0.2118  0.0831
 9434SOL    HW139935   3.052   4.635   8.750 -0.4974  0.0768 -0.6759
 9434SOL    HW239936   2.915   4.672   8.721 -1.6774 -0.4096  0.4680
 9435SOL     OW39937   3.661   4.298   9.652  0.0358 -0.0290 -0.3048
 9435SOL    HW139938   3.740   4.346   9.626  0.5120 -0.6361  0.0222
 9435SOL    HW239939   3.675   4.330   9.742  0.5142 -0.8821 -0.0772
 9436SOL     OW39940   3.621   1.125   6.300 -0.5375 -0.5184  0.2007
 9436SOL    HW139941   3.636   1.150   6.391  0.2321 -0.1544 -0.0301
 9436SOL    HW239942   3.533   1.161   6.292 -0.2590  0.0978 -0.0985
 9437SOL     OW39943   1.724   4.578   8.916  1.0555  0.6550  0.1426
 9437SOL    HW139944   1.794   4.634   8.950  0.6625  1.0486  0.3201
 9437SOL    HW239945   1.774   4.524   8.855 -1.1652  1.4116 -2.3212
 9438SOL     OW39946   0.542   3.946   1.471 -0.8851 -0.2923 -0.1513
 9438SOL    HW139947   0.584   3.860   1.473 -4.5485 -2.1206 -0.9331
 9438SOL    HW239948   0.616   3.999   1.444  0.0681 -0.1059  2.8888
 9439SOL     OW39949   2.609   3.585   6.931 -0.3201  0.0805  0.3859
 9439SOL    HW139950   2.567   3.566   6.847 -0.4824  1.3801  0.1711
 9439SOL    HW239951   2.602   3.502   6.979 -1.9669  0.5462  0.9680
 9440SOL     OW39952   4.297   0.355   7.406 -0.4605  0.0865  0.5625
 9440SOL    HW139953   4.346   0.391   7.333  0.0298  0.0077  0.8503
 9440SOL    HW239954   4.364   0.356   7.475 -0.3659 -0.6365  0.4773
 9441SOL     OW39955   3.759   0.893  11.580 -0.1007 -0.4807  0.0654
 9441SOL    HW139956   3.731   0.876  11.669 -1.4084  1.2196 -0.0199
 9441SOL    HW239957   3.833   0.833  11.576  0.1438 -0.1280 -0.7570
 9442SOL     OW39958   4.699   1.386   4.354 -0.3551 -0.3998 -0.0257
 9442SOL    HW139959   4.715   1.384   4.259 -0.3488  3.5826 -0.0889
 9442SOL    HW239960   4.633   1.316   4.357 -1.8924  1.0374 -0.5711
 9443SOL     OW39961   3.602   4.554   5.825 -0.1928  0.4226  0.3072
 9443SOL    HW139962   3.653   4.474   5.810  1.1769  1.1087  1.2769
 9443SOL    HW239963   3.594   4.543   5.920  1.9838  0.7950  0.5252
 9444SOL     OW39964   0.830   2.860   1.844 -0.3244 -0.2412 -0.1345
 9444SOL    HW139965   0.863   2.902   1.765 -0.0715 -1.9075 -0.9339
 9444SOL    HW239966   0.808   2.778   1.800  2.9179 -1.3147  0.1757
 9445SOL     OW39967   1.317   2.118   4.245  0.0775  0.7260 -0.5646
 9445SOL    HW139968   1.407   2.118   4.212  0.5916  2.2654  0.8432
 9445SOL    HW239969   1.328   2.152   4.334  0.5566  0.3752 -0.4864
 9446SOL     OW39970   3.122   0.107   8.283  0.5667 -0.3790  0.6064
 9446SOL    HW139971   3.053   0.169   8.309  0.9549  0.9011 -1.3469
 9446SOL    HW239972   3.162   0.157   8.212 -0.9155 -0.5301 -0.3388
 9447SOL     OW39973   0.445   2.271   6.086  0.5680  0.3222 -0.1413
 9447SOL    HW139974   0.397   2.192   6.061  0.4962  0.4733 -0.4925
 9447SOL    HW239975   0.371   2.333   6.088 -0.3248 -0.6883 -1.4035
 9448SOL     OW39976   0.857   0.625  15.378  0.5944 -0.2939 -0.9618
 9448SOL    HW139977   0.902   0.567  15.439 -2.8148  0.7860  2.5944
 9448SOL    HW239978   0.896   0.609  15.292  0.7032 -1.4381 -0.6941
 9449SOL     OW39979   1.217   0.441   4.808 -0.6287 -0.3134 -0.1060
 9449SOL    HW139980   1.271   0.513   4.841  1.4363 -1.3261 -1.2648
 9449SOL    HW239981   1.154   0.451   4.880  1.0691  0.2682  1.3156
 9450SOL     OW39982   1.247   0.038   1.863 -0.1735 -0.5748 -0.3477
 9450SOL    HW139983   1.228   0.018   1.771 -0.4621  0.8053 -0.5761
 9450SOL    HW239984   1.340   0.014   1.866 -0.5444 -1.8545  1.1036
 9451SOL     OW39985   3.536   3.836   8.485 -0.4926 -0.3320  0.3295
 9451SOL    HW139986   3.574   3.859   8.570  2.1742 -0.4191 -0.8106
 9451SOL    HW239987   3.614   3.843   8.429 -1.2561 -2.3355 -0.9854
 9452SOL     OW39988   2.562   3.870   8.845  0.1160  0.0808  0.2242
 9452SOL    HW139989   2.624   3.940   8.865  0.7415 -0.1581 -0.9022
 9452SOL    HW239990   2.559   3.882   8.750 -1.4495  0.7119  0.3608
 9453SOL     OW39991   1.834   3.866   5.435 -0.2856  0.4244  0.0917
 9453SOL    HW139992   1.885   3.929   5.485  0.9560 -1.7793  1.6174
 9453SOL    HW239993   1.786   3.819   5.503 -0.3001  2.2129  1.3131
 9454SOL     OW39994   0.757   4.413   8.638  0.0702  0.5625  0.9623
 9454SOL    HW139995   0.690   4.431   8.704 -0.0811  0.7168  0.7638
 9454SOL    HW239996   0.751   4.489   8.581  2.2653  0.7723  1.0186
 9455SOL     OW39997   4.415   2.165  10.598 -0.9275 -0.0854  0.0493
 9455SOL    HW139998   4.370   2.102  10.542 -0.4669 -1.6282  1.4322
 9455SOL    HW239999   4.432   2.237  10.537  2.2639 -1.0966 -0.2760
 9456SOL     OW40000   1.613   0.411   7.964  0.8363 -0.6519 -0.0660
 9456SOL    HW140001   1.622   0.507   7.964  0.9481 -0.6588 -0.5774
 9456SOL    HW240002   1.699   0.391   8.000  1.6196  0.5873 -1.2187
 9457SOL     OW40003   1.278   4.495   3.741  0.5289 -0.3104 -0.3233
 9457SOL    HW140004   1.316   4.554   3.676 -1.8805  2.3029  0.6272
 9457SOL    HW240005   1.293   4.555   3.814 -1.5832  0.6676 -0.7070
 9458SOL     OW40006   0.031   0.506  10.888  0.9735  0.1801  0.3706
 9458SOL    HW140007   0.117   0.474  10.915  2.1423  0.6926 -2.8035
 9458SOL    HW240008   0.061   0.566  10.820  1.0084 -0.4257 -0.1396
 9459SOL     OW40009   2.200   4.627  12.826 -0.6969 -0.3108  0.2785
 9459SOL    HW140010   2.183   4.537  12.854  0.2170 -0.3104  0.8161
 9459SOL    HW240011   2.150   4.683  12.885 -1.0018 -1.4100  1.0728
 9460SOL     OW40012   3.999   0.217   3.215 -0.1558  0.1434 -0.2247
 9460SOL    HW140013   4.057   0.172   3.275 -0.5465  0.3735  0.3277
 9460SOL    HW240014   3.965   0.137   3.175  0.7854 -0.6926  0.6769
 9461SOL     OW40015   1.579   4.078   2.063  0.5077 -0.0125 -0.4885
 9461SOL    HW140016   1.507   4.090   2.125 -0.0353 -0.3911 -1.0351
 9461SOL    HW240017   1.644   4.077   2.133  2.9613 -2.0138 -2.8179
 9462SOL     OW40018   2.512   2.445   4.519 -0.5572  0.3535 -0.2585
 9462SOL    HW140019   2.420   2.429   4.538  0.2550 -2.3902  1.3549
 9462SOL    HW240020   2.544   2.355   4.514 -1.0995  0.2064 -1.0942
 9463SOL     OW40021   0.906   4.615   6.195  0.7175  0.4863  0.1568
 9463SOL    HW140022   0.845   4.542   6.206 -0.3415  1.6655  2.1263
 9463SOL    HW240023   0.982   4.558   6.183 -0.4035 -0.7632 -0.8671
 9464SOL     OW40024   3.432   0.229   0.754 -0.0704 -0.2694  0.2643
 9464SOL    HW140025   3.477   0.308   0.785 -2.5371  0.1860  2.7756
 9464SOL    HW240026   3.450   0.225   0.661  2.6660  0.8432  0.7456
 9465SOL     OW40027   4.147   4.214   3.590 -0.1223 -0.1313  0.6391
 9465SOL    HW140028   4.134   4.284   3.527 -1.9127 -1.2365 -0.2078
 9465SOL    HW240029   4.159   4.269   3.668  0.3061 -0.8504  1.0815
 9466SOL     OW40030   0.860   1.596   3.393 -0.6394  0.0687 -0.5378
 9466SOL    HW140031   0.825   1.534   3.457 -1.7870  1.7637  0.4900
 9466SOL    HW240032   0.949   1.612   3.424 -0.7202  0.8547 -0.7179
 9467SOL     OW40033   2.609   3.217   0.730  0.3478  0.2386  0.4630
 9467SOL    HW140034   2.613   3.135   0.681 -2.7064  0.1701  0.3138
 9467SOL    HW240035   2.699   3.243   0.751  0.8295  0.3603 -1.7984
 9468SOL     OW40036   1.942   0.428   6.333 -0.5243 -0.1905 -0.1031
 9468SOL    HW140037   1.862   0.457   6.377  1.0336  1.3117  1.7069
 9468SOL    HW240038   1.928   0.333   6.342 -2.3626  0.2310  1.4145
 9469SOL     OW40039   0.666   4.561   2.858 -0.2260 -0.3144  0.1865
 9469SOL    HW140040   0.752   4.555   2.899  0.3715  1.5039 -0.7704
 9469SOL    HW240041   0.653   4.656   2.862 -0.1272 -0.3014  0.2020
 9470SOL     OW40042   2.335   2.711   1.213  0.1367  0.4430 -0.0010
 9470SOL    HW140043   2.362   2.631   1.257  0.4832 -0.0814 -1.1575
 9470SOL    HW240044   2.408   2.760   1.252  0.9421  0.0871 -1.0591
 9471SOL     OW40045   4.489   1.723   6.184 -0.0757 -0.3287 -0.3857
 9471SOL    HW140046   4.444   1.643   6.157  0.9744 -0.0693 -2.8486
 9471SOL    HW240047   4.512   1.758   6.098  0.3215  0.1612 -0.0832
 9472SOL     OW40048   2.693   0.535   4.490 -0.7441  0.2178  0.7353
 9472SOL    HW140049   2.782   0.562   4.466 -1.2680  0.6451 -0.7058
 9472SOL    HW240050   2.675   0.596   4.561  3.2471  0.6706  1.3682
 9473SOL     OW40051   1.550   3.930   9.283  0.1559  0.4396 -0.4953
 9473SOL    HW140052   1.462   3.903   9.306  0.3241 -1.1421 -1.6650
 9473SOL    HW240053   1.596   3.846   9.270  1.7725  0.9020  2.3377
 9474SOL     OW40054   3.792   0.997   4.228  0.0957  0.3307  0.1584
 9474SOL    HW140055   3.887   0.984   4.224 -0.0273 -1.1072  2.1106
 9474SOL    HW240056   3.778   1.048   4.148 -1.3033 -0.1347  0.0949
 9475SOL     OW40057   0.947   0.799   8.809 -0.3447  0.3721  0.4311
 9475SOL    HW140058   0.892   0.868   8.844 -3.0151 -0.7053 -1.5886
 9475SOL    HW240059   0.891   0.768   8.738 -1.4226 -0.0207  1.4626
 9476SOL     OW40060   4.388   4.589   4.328  0.6538 -0.6403  0.2902
 9476SOL    HW140061   4.363   4.572   4.419 -1.1057  1.2336  0.1615
 9476SOL    HW240062   4.326   4.535   4.279 -0.8119  1.5526 -0.2706
 9477SOL     OW40063   3.318   3.653   8.072  0.0543 -0.3502  0.0855
 9477SOL    HW140064   3.335   3.744   8.048 -0.4834 -0.3170 -0.1713
 9477SOL    HW240065   3.379   3.606   8.014  2.5836  0.2353  2.2817
 9478SOL     OW40066   2.348   2.200   3.912  0.0272 -0.3506 -0.2085
 9478SOL    HW140067   2.384   2.142   3.846  1.1144 -1.8506  1.6898
 9478SOL    HW240068   2.379   2.155   3.990  1.1708 -0.8911 -0.9865
 9479SOL     OW40069   2.604   0.501   2.896 -0.5111 -0.3153  0.1673
 9479SOL    HW140070   2.659   0.433   2.933 -0.5582 -1.0779 -1.1434
 9479SOL    HW240071   2.650   0.506   2.812  0.0915 -1.0808  0.4545
 9480SOL     OW40072   0.789   1.385   7.541  0.4052  0.7099  0.0900
 9480SOL    HW140073   0.704   1.398   7.583  0.6827  1.1200  0.5266
 9480SOL    HW240074   0.824   1.324   7.606 -0.3186 -0.4998 -0.6466
 9481SOL     OW40075   4.618   2.432   3.169  0.2139 -0.2589  0.0451
 9481SOL    HW140076   4.687   2.403   3.229 -1.8539 -3.0467  1.1168
 9481SOL    HW240077   4.591   2.355   3.120 -3.0789  1.7025 -1.2464
 9482SOL     OW40078   2.746   4.250  10.551  0.1592  0.0361  0.3721
 9482SOL    HW140079   2.722   4.157  10.551 -0.0173  0.0821 -0.4936
 9482SOL    HW240080   2.674   4.283  10.605  1.3747  2.6132  0.4264
 9483SOL     OW40081   0.561   0.407   9.252  0.1490 -0.2513  0.3404
 9483SOL    HW140082   0.507   0.363   9.186 -1.4913  0.2478  1.3626
 9483SOL    HW240083   0.615   0.338   9.289  0.3660  0.4299  1.3089
 9484SOL     OW40084   2.530   2.215   7.848 -0.4496  0.0620  0.3533
 9484SOL    HW140085   2.621   2.208   7.818  0.2318  0.6941  2.3060
 9484SOL    HW240086   2.508   2.126   7.876 -0.9085  0.9081  2.6315
 9485SOL     OW40087   4.451   3.017   5.957  0.3847 -0.3275 -0.0198
 9485SOL    HW140088   4.419   2.940   6.003 -0.0811 -0.3265 -0.3437
 9485SOL    HW240089   4.428   3.002   5.865 -0.8411 -0.2213  0.2633
 9486SOL     OW40090   1.026   2.031   3.167 -0.0948 -0.2193  0.5649
 9486SOL    HW140091   1.052   1.946   3.203 -0.3765 -1.6754 -2.6870
 9486SOL    HW240092   1.111   2.061   3.134 -1.1096 -0.1129 -1.9055
 9487SOL     OW40093   1.076   0.607   7.451 -0.3864 -0.5145  0.4017
 9487SOL    HW140094   0.995   0.650   7.424 -0.3048 -0.1321  0.7659
 9487SOL    HW240095   1.044   0.519   7.470 -1.0151 -0.4163 -0.1911
 9488SOL     OW40096   3.560   0.388   6.966  0.8296  0.0962  0.6212
 9488SOL    HW140097   3.468   0.412   6.981  0.6345 -1.8872  2.6122
 9488SOL    HW240098   3.555   0.389   6.870  0.9690 -1.3239  0.5893
 9489SOL     OW40099   3.899   1.809   4.360 -0.3009 -1.2096 -0.3938
 9489SOL    HW140100   3.947   1.860   4.425 -2.2861  1.1441 -0.7283
 9489SOL    HW240101   3.811   1.840   4.380  0.5677  0.8832  0.2384
 9490SOL     OW40102   0.937   0.042   6.440  0.1546 -0.2042 -0.1320
 9490SOL    HW140103   1.005   0.109   6.432  2.2582 -2.1489  1.6049
 9490SOL    HW240104   0.935   0.015   6.348  0.6574  2.0781 -0.8068
 9491SOL     OW40105   0.333   1.510   6.073  0.0776 -0.4433 -0.4875
 9491SOL    HW140106   0.416   1.537   6.110  0.0170  1.1160 -1.4996
 9491SOL    HW240107   0.289   1.476   6.152  0.3045  0.5029  0.0390
 9492SOL     OW40108   0.805   0.766   5.169  0.1459  0.0473 -0.2225
 9492SOL    HW140109   0.898   0.772   5.189  0.2932  0.0434 -0.9074
 9492SOL    HW240110   0.794   0.671   5.176 -0.4534  0.1244 -0.0807
 9493SOL     OW40111   4.468   0.275   2.096 -0.0081 -0.5063 -0.2319
 9493SOL    HW140112   4.413   0.288   2.018 -2.3811 -1.4155  1.2976
 9493SOL    HW240113   4.434   0.193   2.130  0.7344 -1.2117 -1.2094
 9494SOL     OW40114   1.064   2.354   5.717  0.4184  0.0473  0.8348
 9494SOL    HW140115   1.054   2.438   5.761  0.3673  0.1713  0.5912
 9494SOL    HW240116   0.972   2.330   5.704  0.3446  2.6965 -3.5448
 9495SOL     OW40117   1.876   1.048  10.312 -0.1265  0.6509 -0.3944
 9495SOL    HW140118   1.953   1.096  10.346 -0.1279 -0.5102  1.2591
 9495SOL    HW240119   1.899   1.051  10.220 -0.6645 -1.8389 -0.6032
 9496SOL     OW40120   0.718   3.730   9.834  0.4357  0.5479  0.2060
 9496SOL    HW140121   0.728   3.651   9.781  2.3489  1.0427 -0.1638
 9496SOL    HW240122   0.785   3.713   9.900  0.2403  0.3510  0.3547
 9497SOL     OW40123   3.434   0.326   8.038  0.6536 -0.2999 -1.1418
 9497SOL    HW140124   3.381   0.331   8.117 -0.7983 -1.8789 -2.0244
 9497SOL    HW240125   3.488   0.403   8.053  1.2996 -1.3330  1.8439
 9498SOL     OW40126   4.122   0.128  16.731  0.2107 -0.1409  0.0776
 9498SOL    HW140127   4.087   0.214  16.708  1.6800  0.1289 -1.1023
 9498SOL    HW240128   4.151   0.082  16.652  1.6926  1.7822 -0.4943
 9499SOL     OW40129   2.201   2.810   8.337  0.1269  0.1488 -0.4139
 9499SOL    HW140130   2.290   2.811   8.373 -0.0016 -1.1437 -0.0323
 9499SOL    HW240131   2.219   2.782   8.248 -0.3924 -0.1908 -0.4161
 9500SOL     OW40132   2.561   0.767  13.606  0.3020 -0.6259  0.3914
 9500SOL    HW140133   2.655   0.778  13.594  0.0286  3.3477  1.7971
 9500SOL    HW240134   2.563   0.709  13.683 -2.5822 -0.7439  0.3818
 9501SOL     OW40135   4.017   0.724   0.710  0.0026 -0.2446 -0.3187
 9501SOL    HW140136   4.042   0.639   0.674 -0.0559 -0.5739  0.4215
 9501SOL    HW240137   3.922   0.722   0.700 -0.2925  0.7090  2.1900
 9502SOL     OW40138   0.601   1.368   2.301  0.3103 -0.0758  0.0128
 9502SOL    HW140139   0.601   1.391   2.394  2.4796  0.8214 -0.2234
 9502SOL    HW240140   0.547   1.289   2.302  0.3131 -0.0771  0.0628
 9503SOL     OW40141   1.631   3.424   5.089  0.1017  0.3477  0.3728
 9503SOL    HW140142   1.579   3.492   5.046 -0.1311 -0.6769 -0.9472
 9503SOL    HW240143   1.605   3.345   5.042 -0.9276  0.5460  0.5998
 9504SOL     OW40144   4.296   0.465   0.246 -0.2796 -0.1189  0.1596
 9504SOL    HW140145   4.240   0.388   0.237  0.0779 -0.4519  0.7761
 9504SOL    HW240146   4.366   0.447   0.182 -0.6549  0.3796 -0.3893
 9505SOL     OW40147   2.325   2.637   6.467 -0.0419 -0.3624 -0.4492
 9505SOL    HW140148   2.362   2.717   6.430  0.9196 -1.2889 -1.4776
 9505SOL    HW240149   2.338   2.574   6.396  1.9610 -0.0668 -0.3399
 9506SOL     OW40150   2.183   1.082   1.946  0.7909 -0.5171  0.0414
 9506SOL    HW140151   2.101   1.035   1.930  2.4467 -3.6609  0.6456
 9506SOL    HW240152   2.198   1.114   1.857 -0.2496  0.1827  0.1171
 9507SOL     OW40153   4.554   4.623   3.105  0.0645  0.1940 -0.2327
 9507SOL    HW140154   4.574   4.697   3.162 -0.8845  0.7514 -0.6082
 9507SOL    HW240155   4.539   4.674   3.024  1.5087 -2.2059 -1.9990
 9508SOL     OW40156   3.274   0.847   7.135  0.2023  0.3092  0.1019
 9508SOL    HW140157   3.274   0.942   7.124 -1.8508  0.3891  0.6496
 9508SOL    HW240158   3.342   0.840   7.202 -0.1433  0.5554  0.4777
 9509SOL     OW40159   0.192   2.132   6.662  0.2276 -0.4392 -0.7713
 9509SOL    HW140160   0.251   2.099   6.595  1.4243  0.8484 -0.3514
 9509SOL    HW240161   0.194   2.228   6.664 -0.0451 -0.3920 -2.5926
 9510SOL     OW40162   1.225   0.408   9.641  0.0955 -0.6875  0.2322
 9510SOL    HW140163   1.190   0.337   9.587 -0.0826 -0.7554  0.4367
 9510SOL    HW240164   1.292   0.453   9.590  0.7230  0.1786  1.8174
 9511SOL     OW40165   4.331   0.367   1.320  0.0129 -0.2177  0.0393
 9511SOL    HW140166   4.239   0.355   1.343  0.2261 -0.4109  0.7906
 9511SOL    HW240167   4.343   0.449   1.369 -0.7034  0.9116 -1.6798
 9512SOL     OW40168   3.694   1.737   7.818 -0.4378 -0.6166 -0.1143
 9512SOL    HW140169   3.781   1.771   7.796 -0.0177 -2.4722 -1.2774
 9512SOL    HW240170   3.718   1.678   7.890 -0.1582  0.2857  0.5322
 9513SOL     OW40171   4.075   0.419   1.410 -0.3377 -0.5884 -0.0210
 9513SOL    HW140172   4.065   0.325   1.397  0.5969 -0.5698 -0.9064
 9513SOL    HW240173   4.056   0.434   1.502  1.7423 -1.3476  0.5374
 9514SOL     OW40174   1.086   4.564   5.074  0.0586  0.2629  0.1671
 9514SOL    HW140175   1.034   4.641   5.097 -0.4119 -0.4105  1.3685
 9514SOL    HW240176   1.120   4.598   4.991  0.5849 -2.3078 -0.6567
 9515SOL     OW40177   1.173   0.845   6.902 -0.3776 -0.1797  0.2377
 9515SOL    HW140178   1.175   0.750   6.915 -0.2927 -0.3442 -0.9799
 9515SOL    HW240179   1.163   0.879   6.991  1.6024  2.4193 -0.5583
 9516SOL     OW40180   1.773   0.238   9.711 -0.5898  0.1543 -0.0935
 9516SOL    HW140181   1.681   0.260   9.725 -0.1873  1.4793  0.4481
 9516SOL    HW240182   1.777   0.157   9.762 -0.8894 -1.9818 -3.4237
 9517SOL     OW40183   0.550   4.400   7.889  0.3012 -0.4588 -0.4577
 9517SOL    HW140184   0.611   4.412   7.962 -1.2223 -0.6605  0.8528
 9517SOL    HW240185   0.534   4.492   7.867 -0.4033 -0.5594 -0.3599
 9518SOL     OW40186   1.327   3.494  10.856 -0.2264 -0.1532 -0.8272
 9518SOL    HW140187   1.394   3.520  10.793 -0.5353 -2.8571 -2.2759
 9518SOL    HW240188   1.359   3.523  10.942 -3.6016 -0.1695  0.4568
 9519SOL     OW40189   2.370   3.946   3.970 -0.0680 -0.0631 -0.0608
 9519SOL    HW140190   2.412   4.025   3.937  2.0667 -0.6548  1.2783
 9519SOL    HW240191   2.427   3.924   4.043 -0.4132 -2.2793 -0.4705
 9520SOL     OW40192   0.237   2.452   6.655 -0.2827 -0.3652 -0.5422
 9520SOL    HW140193   0.160   2.498   6.688 -1.5645 -1.7984 -1.5084
 9520SOL    HW240194   0.300   2.501   6.707  0.1340  0.4100 -1.7641
 9521SOL     OW40195   2.012   0.522   5.077  0.2605  0.3289  0.3167
 9521SOL    HW140196   1.937   0.577   5.053 -0.0905  1.3346  3.5789
 9521SOL    HW240197   1.996   0.510   5.171 -1.0331  0.5258  0.1218
 9522SOL     OW40198   1.709   2.395   3.949  0.1668 -0.7034  0.3868
 9522SOL    HW140199   1.731   2.439   3.867 -1.2417 -0.3620  0.1908
 9522SOL    HW240200   1.613   2.400   3.950  0.2909  1.9319  0.6992
 9523SOL     OW40201   4.673   3.720   4.097  0.0721 -0.0795 -0.4024
 9523SOL    HW140202   4.616   3.752   4.027 -2.0632 -0.3667  1.1968
 9523SOL    HW240203   4.679   3.796   4.156 -0.0015 -0.3223 -0.0839
 9524SOL     OW40204   1.048   1.978   6.173  0.1997 -0.3627  0.1462
 9524SOL    HW140205   1.139   1.976   6.203  0.1317  1.0692  0.4500
 9524SOL    HW240206   1.056   2.027   6.092 -0.3655  1.3414  1.1203
 9525SOL     OW40207   1.819   0.796   2.997 -0.2370  0.0082  0.1115
 9525SOL    HW140208   1.800   0.786   2.904  0.2512  1.6136 -0.1565
 9525SOL    HW240209   1.903   0.752   3.008  0.3958  0.9586 -0.9690
 9526SOL     OW40210   2.176   0.412   8.924 -0.4587 -0.1545 -0.3538
 9526SOL    HW140211   2.094   0.458   8.943 -1.4661 -1.6282 -1.1688
 9526SOL    HW240212   2.242   0.471   8.961 -0.0309  0.3935 -1.9817
 9527SOL     OW40213   0.915   0.897   2.684  0.4215 -0.3738 -0.1694
 9527SOL    HW140214   0.957   0.857   2.608  1.0098  0.6749 -0.3934
 9527SOL    HW240215   0.991   0.925   2.734  0.7997  0.6973 -1.3310
 9528SOL     OW40216   3.062   0.802   7.765  0.3815 -0.3243 -0.2730
 9528SOL    HW140217   2.986   0.776   7.712  1.3519 -0.0824 -1.7935
 9528SOL    HW240218   3.105   0.873   7.717  2.4851 -0.5699  1.2564
 9529SOL     OW40219   0.202   1.412   8.408  0.1158 -0.2354  0.2194
 9529SOL    HW140220   0.242   1.464   8.339 -3.8541  1.2461 -0.9556
 9529SOL    HW240221   0.200   1.479   8.477 -2.4890  0.7015 -0.7753
 9530SOL     OW40222   3.377   3.459   4.735 -0.1990 -0.6318  0.3845
 9530SOL    HW140223   3.313   3.530   4.746  0.8347  0.5744 -1.2872
 9530SOL    HW240224   3.427   3.468   4.816  0.3616  0.0643 -0.0312
 9531SOL     OW40225   4.113   0.736   5.163  0.6412  0.1336  0.4542
 9531SOL    HW140226   4.077   0.785   5.237  1.1711  0.1944  0.6783
 9531SOL    HW240227   4.041   0.734   5.100  0.0693 -1.5424  1.1681
 9532SOL     OW40228   1.990   0.395   9.608  0.9693 -0.0327  1.1250
 9532SOL    HW140229   1.925   0.349   9.661 -1.3443  0.4515 -1.3109
 9532SOL    HW240230   1.965   0.385   9.517  0.1650  0.0273  1.3438
 9533SOL     OW40231   4.404   3.387   2.245  0.1465 -0.2455 -0.3370
 9533SOL    HW140232   4.357   3.341   2.314  2.4496  0.2071  1.5370
 9533SOL    HW240233   4.493   3.356   2.265  0.0002  0.0513  0.7883
 9534SOL     OW40234   3.655   3.708   2.950 -0.1226  0.2323  0.0642
 9534SOL    HW140235   3.601   3.741   3.022 -0.5089 -3.7922  1.6430
 9534SOL    HW240236   3.728   3.769   2.943  1.8218 -2.4106 -2.9078
 9535SOL     OW40237   0.342   0.876   8.460  0.2082  0.2282 -0.0794
 9535SOL    HW140238   0.326   0.929   8.382  0.2972  0.3134 -0.0384
 9535SOL    HW240239   0.437   0.875   8.469  0.2441 -0.6054 -0.5037
 9536SOL     OW40240   4.106   1.249  11.464  0.5378  0.4885 -0.7554
 9536SOL    HW140241   4.045   1.275  11.395  0.8071  1.1442 -0.7518
 9536SOL    HW240242   4.072   1.160  11.472 -1.9777  1.2874 -3.0203
 9537SOL     OW40243   4.031   3.224   8.780  0.0501 -0.3624  0.2162
 9537SOL    HW140244   4.112   3.175   8.766  0.3268  0.0973  0.1951
 9537SOL    HW240245   4.012   3.251   8.690  2.9086  0.6459 -0.0655
 9538SOL     OW40246   2.544   3.603  17.424 -0.7894  0.0440 -0.1498
 9538SOL    HW140247   2.470   3.629  17.369  0.5581  1.0145 -1.4908
 9538SOL    HW240248   2.530   3.661  17.499  2.9499  0.1519  0.4213
 9539SOL     OW40249   0.125   4.604   8.827  0.1484 -0.2615  0.3671
 9539SOL    HW140250   0.139   4.640   8.740  0.2827 -0.4381  0.3147
 9539SOL    HW240251   0.043   4.563   8.798  0.4664 -0.4318 -0.2852
 9540SOL     OW40252   1.678   1.701  10.187  0.1819 -0.3950 -0.2568
 9540SOL    HW140253   1.715   1.720  10.101 -0.7093 -0.3178 -0.6248
 9540SOL    HW240254   1.668   1.792  10.216 -1.9004 -0.4252 -0.8895
 9541SOL     OW40255   0.526   0.408  13.111  0.3193  0.0317  0.4636
 9541SOL    HW140256   0.583   0.440  13.181  2.2584  0.1396 -1.1694
 9541SOL    HW240257   0.527   0.489  13.061 -0.1002  0.5054  1.2284
 9542SOL     OW40258   3.978   1.574   1.494 -0.1150  0.4231  0.0514
 9542SOL    HW140259   3.975   1.497   1.550  2.7903 -0.2123 -0.6469
 9542SOL    HW240260   4.066   1.563   1.456 -0.8561  1.6487 -2.0379
 9543SOL     OW40261   2.164   4.589   7.390  0.2878 -0.4722  0.3776
 9543SOL    HW140262   2.237   4.586   7.451 -0.1503 -0.9776  0.8835
 9543SOL    HW240263   2.100   4.625   7.452  0.4803  5.1913 -2.7419
 9544SOL     OW40264   2.421   3.378   7.596  0.0382 -0.1497 -0.1788
 9544SOL    HW140265   2.447   3.366   7.687 -2.2421 -0.6844  0.3965
 9544SOL    HW240266   2.345   3.320   7.594  0.0933 -0.1307 -2.4013
 9545SOL     OW40267   1.062   0.283   4.110 -0.3793 -0.4244  0.3087
 9545SOL    HW140268   0.971   0.293   4.084  0.0238  0.2512 -0.8412
 9545SOL    HW240269   1.108   0.361   4.078  1.8997 -0.8696  2.5546
 9546SOL     OW40270   3.786   1.751  17.154  0.7457  0.2229  0.0129
 9546SOL    HW140271   3.855   1.815  17.140  2.8554 -2.1345 -0.4889
 9546SOL    HW240272   3.833   1.694  17.215 -0.9621  0.0941  1.2148
 9547SOL     OW40273   2.753   1.942  10.557  0.1926 -0.2568 -0.4246
 9547SOL    HW140274   2.698   1.990  10.494  3.5787  3.0229 -0.8482
 9547SOL    HW240275   2.735   1.991  10.637  0.1667  0.6238 -0.9705
 9548SOL     OW40276   3.387   4.007   2.563  0.5278 -0.5020  0.2704
 9548SOL    HW140277   3.433   3.967   2.636  0.4239 -1.9972 -0.4791
 9548SOL    HW240278   3.460   4.051   2.520  0.0951 -0.2342 -0.1987
 9549SOL     OW40279   4.219   2.483   5.770  0.2886 -0.1795 -0.0839
 9549SOL    HW140280   4.306   2.477   5.810  0.8007  1.3252 -0.9608
 9549SOL    HW240281   4.187   2.394   5.787 -1.8371  0.3647 -1.2908
 9550SOL     OW40282   3.602   0.625  11.894  0.2328  0.2323 -0.2751
 9550SOL    HW140283   3.599   0.575  11.813 -2.1963 -0.9946  0.5926
 9550SOL    HW240284   3.650   0.706  11.872  0.0225  1.0567  2.3504
 9551SOL     OW40285   4.686   0.059   4.104 -0.1170 -1.0444  0.6400
 9551SOL    HW140286   4.603   0.096   4.073  0.6536  0.6908  0.6612
 9551SOL    HW240287   4.654   4.718   4.150 -1.1901 -0.9824 -0.0119
 9552SOL     OW40288   1.628   1.365   4.881  0.0513 -0.3076 -0.3211
 9552SOL    HW140289   1.636   1.429   4.810 -0.0325 -0.0094 -0.0624
 9552SOL    HW240290   1.618   1.293   4.818 -0.6629 -0.6559  0.1910
 9553SOL     OW40291   4.678   2.891  14.336  0.0646  0.0990 -0.3248
 9553SOL    HW140292   4.670   2.979  14.300  0.2817  1.3361  2.6658
 9553SOL    HW240293   4.714   2.846  14.260  1.9469  1.8799 -0.4873
 9554SOL     OW40294   3.203   2.986   5.438  0.6346  0.3644  0.0229
 9554SOL    HW140295   3.285   2.984   5.389 -0.0192 -2.6419 -0.9132
 9554SOL    HW240296   3.229   3.057   5.498 -0.5845 -1.0307  2.1908
 9555SOL     OW40297   3.130   0.277   8.017  0.0543  0.1060  0.3971
 9555SOL    HW140298   3.171   0.316   7.940  0.7133 -1.2100  0.0690
 9555SOL    HW240299   3.071   0.214   7.976  0.9760 -0.5038 -0.0063
 9556SOL     OW40300   1.288   3.282   6.539 -0.5392  0.0588 -0.0090
 9556SOL    HW140301   1.351   3.225   6.583 -0.3576 -0.6704 -1.1989
 9556SOL    HW240302   1.331   3.367   6.547  0.4979 -0.4799  0.1188
 9557SOL     OW40303   4.601   1.390   3.151 -0.0615 -0.5243 -0.5452
 9557SOL    HW140304   4.608   1.486   3.145 -0.1329 -0.2488  3.5134
 9557SOL    HW240305   4.556   1.377   3.235 -0.1489  0.1188 -0.4885
 9558SOL     OW40306   0.564   2.232   2.620  0.1240  0.4169 -0.0208
 9558SOL    HW140307   0.554   2.214   2.526 -1.1975  0.5409  0.0936
 9558SOL    HW240308   0.576   2.147   2.663 -0.6874  0.5052  0.3738
 9559SOL     OW40309   1.318   3.766   6.586 -0.2600  0.2116 -0.1864
 9559SOL    HW140310   1.338   3.685   6.539 -1.3312  0.4962 -1.1393
 9559SOL    HW240311   1.280   3.813   6.511  0.4165  1.8411  0.4912
 9560SOL     OW40312   3.244   2.413   2.191 -0.1278 -0.2166 -0.2418
 9560SOL    HW140313   3.176   2.354   2.224 -1.6081  2.9680  2.4860
 9560SOL    HW240314   3.214   2.415   2.100 -1.3062 -2.3247  0.1077
 9561SOL     OW40315   4.286   2.639   6.219 -0.1305 -0.6299  0.2210
 9561SOL    HW140316   4.299   2.570   6.153  0.1704 -0.5510  0.1996
 9561SOL    HW240317   4.292   2.594   6.303  0.2872 -0.5161  0.2515
 9562SOL     OW40318   2.988   1.734  12.560  0.3365 -0.3867 -0.4708
 9562SOL    HW140319   3.067   1.756  12.608 -0.4364  1.3503  0.0241
 9562SOL    HW240320   3.023   1.710  12.474 -1.6476 -3.9219 -0.2827
 9563SOL     OW40321   0.079   1.742   3.616 -0.0217  0.0931  0.0030
 9563SOL    HW140322   0.048   1.813   3.560 -0.4981 -1.9996 -2.4001
 9563SOL    HW240323   0.001   1.687   3.606 -1.4223  1.4913  2.8980
 9564SOL     OW40324   2.405   4.288   9.494  0.3872  0.1344 -0.9593
 9564SOL    HW140325   2.436   4.237   9.419  1.2585 -0.1584 -0.4092
 9564SOL    HW240326   2.457   4.258   9.569  1.1768  2.0720 -0.7432
 9565SOL     OW40327   1.752   0.744   8.298 -0.2083 -0.4608  0.7257
 9565SOL    HW140328   1.814   0.677   8.270 -1.3516 -0.7825 -1.0251
 9565SOL    HW240329   1.682   0.684   8.322 -1.0429  0.9690  1.8805
 9566SOL     OW40330   2.718   2.462   5.262 -0.0649  0.1547 -0.0076
 9566SOL    HW140331   2.714   2.556   5.242 -1.9367 -0.1708 -1.0999
 9566SOL    HW240332   2.710   2.421   5.176  0.1719 -1.6309  0.8304
 9567SOL     OW40333   0.207   1.185   5.749 -0.0321 -0.1486  0.1423
 9567SOL    HW140334   0.265   1.220   5.681 -0.1496  0.8980  0.5669
 9567SOL    HW240335   0.124   1.214   5.712  0.5763  0.6476 -0.6014
 9568SOL     OW40336   3.364   1.453  11.569 -0.6046 -0.4156  0.3921
 9568SOL    HW140337   3.291   1.393  11.584  1.5494 -3.2224 -0.4058
 9568SOL    HW240338   3.390   1.427  11.480  0.1668  3.8625 -0.6318
 9569SOL     OW40339   3.716   3.215   7.497  0.2746  0.4752  0.1965
 9569SOL    HW140340   3.720   3.267   7.578  0.3977  0.5816  0.1218
 9569SOL    HW240341   3.716   3.124   7.526  0.2982  0.1082 -0.9662
 9570SOL     OW40342   1.195   4.402   1.453 -0.1337  0.2186 -0.1944
 9570SOL    HW140343   1.221   4.450   1.374 -2.8134 -1.1890 -1.9305
 9570SOL    HW240344   1.100   4.399   1.440  0.1639 -1.9311 -1.9135
 9571SOL     OW40345   3.053   3.088   7.367  0.2733 -0.3944  0.0564
 9571SOL    HW140346   3.031   3.155   7.432  4.6778  0.0694  1.0172
 9571SOL    HW240347   2.966   3.065   7.333 -0.9286  2.8804  0.8811
   4.73688   4.73688  17.74591
