Membrane in water
40347
    1TMC1    C1    1   3.159   1.028  11.659  0.5506 -0.5659  0.8183
    1TMC1    C2    2   3.283   1.039  11.598  0.6456 -0.1542  0.1573
    1TMC1    C3    3   3.310   1.157  11.540 -0.1315 -0.7068  0.8387
    1TMC1    C4    4   3.070   1.132  11.656  0.3982 -0.5851  0.1069
    1TMC1    C5    5   3.108   1.253  11.601 -0.9971  0.0959  0.6108
    1TMC1    C6    6   3.228   1.268  11.538 -0.7194  0.2738  0.2922
    1TMC1     C    7   3.096   0.896  11.672 -0.1556 -0.2729  0.2180
    1TMC1     O    8   2.976   0.885  11.653  0.2483  0.1626 -0.7997
    1TMC1     H    9   3.318   0.946  11.556 -2.1369  0.0240 -2.5423
    1TMC1    H1   10   2.972   1.132  11.701 -0.2222  0.8249 -1.2410
    1TMC1    H2   11   3.266   1.362  11.500  0.8173  0.0685  1.3461
    1TMC1    C7   12   3.021   1.367  11.623  0.4516 -0.2405 -0.5275
    1TMC1    C8   13   3.424   1.172  11.450 -0.5752 -0.5207 -0.1562
    1TMC1    O1   14   2.903   1.358  11.651  0.1430  0.1772  0.4188
    1TMC1    O2   15   3.431   1.248  11.358  0.8721  0.1203 -0.0018
    1TMC1    O3   16   3.096   1.472  11.633  0.3784 -0.0703  0.1585
    1TMC1    H3   17   3.188   1.445  11.655 -1.2364 -3.1585  3.0446
    1TMC1    O5   18   3.514   1.075  11.479 -0.0669  0.2491 -0.1089
    1TMC1    H5   19   3.507   1.027  11.564 -0.5264  0.2568 -0.1428
    2MPD2     C   20   3.166   0.385  11.719 -0.0201 -0.0231 -0.0756
    2MPD2    C1   21   3.045   0.457  11.736 -0.1550 -0.1333 -0.1900
    2MPD2    C2   22   3.050   0.598  11.724  0.3914  0.5134  0.4534
    2MPD2    C3   23   3.176   0.662  11.726 -0.4717 -0.0348  0.3243
    2MPD2    C4   24   3.288   0.581  11.713  0.1057  0.0687 -0.0498
    2MPD2    C5   25   3.288   0.444  11.715 -0.1923 -0.1647  0.5582
    2MPD2     H   26   2.957   0.654  11.724 -1.3555 -2.3861 -0.1796
    2MPD2    H1   27   3.382   0.632  11.699  0.0122  0.2825  0.0971
    2MPD2    H2   28   3.170   0.277  11.714  1.0138  0.0282 -0.3237
    2MPD2    H3   29   3.374   0.379  11.705  0.0065  0.0005  1.1526
    2MPD2     N   30   3.184   0.807  11.707  0.3457  0.4000 -0.1366
    2MPD2    H5   31   3.278   0.845  11.718 -0.4569  1.7015  2.4167
    2MPD2    N1   32   2.920   0.394  11.762 -0.1778  0.1972 -0.4774
    2MPD2    H7   33   2.850   0.461  11.792 -3.7711 -4.3110  1.2611
    3TMC1    C1   34   2.699   1.328  10.951 -0.3275  0.0858 -0.1215
    3TMC1    C2   35   2.782   1.431  10.908  0.2269 -0.1705  0.2738
    3TMC1    C3   36   2.913   1.402  10.883  0.5296 -0.0369  0.7148
    3TMC1    C4   37   2.748   1.201  10.953 -0.2197  0.0611  0.6828
    3TMC1    C5   38   2.875   1.172  10.914  0.3718  0.1489 -0.6259
    3TMC1    C6   39   2.962   1.274  10.877  0.4138  0.6463 -0.1600
    3TMC1     C   40   2.560   1.359  10.987 -0.0549 -0.0146  0.8882
    3TMC1     O   41   2.474   1.272  10.966  0.0010 -0.0152  0.0556
    3TMC1     H   42   2.751   1.534  10.902 -2.3189 -0.8244  2.3267
    3TMC1    H1   43   2.686   1.117  10.981 -0.0165 -0.7311 -1.2583
    3TMC1    H2   44   3.067   1.248  10.864  0.8100  2.1409  0.1021
    3TMC1    C7   45   2.906   1.033  10.920 -0.2087  1.0795 -0.5109
    3TMC1    C8   46   2.991   1.519  10.843 -0.4155  0.9527 -0.4556
    3TMC1    O1   47   2.871   0.960  11.010 -0.0880  0.2615  0.1907
    3TMC1    O2   48   2.949   1.628  10.807 -0.3431 -0.3731  0.8015
    3TMC1    O3   49   2.993   1.008  10.821  0.0992 -0.3823 -0.6703
    3TMC1    H3   50   2.992   1.084  10.759 -0.9299  0.2115  0.0636
    3TMC1    O5   51   3.114   1.499  10.891 -0.2801 -0.0496 -0.2398
    3TMC1    H5   52   3.129   1.419  10.946  1.4458 -0.9439 -1.9759
    4MPD2     C   53   2.184   1.689  11.114 -0.7354 -0.9708  0.6199
    4MPD2    C1   54   2.308   1.761  11.105  0.0426  0.0396 -0.4593
    4MPD2    C2   55   2.428   1.690  11.080  0.3736 -0.2273  0.5494
    4MPD2    C3   56   2.421   1.548  11.063  0.1523  0.2113  0.3661
    4MPD2    C4   57   2.298   1.480  11.073  0.2004 -0.6027  0.6240
    4MPD2    C5   58   2.189   1.560  11.099 -0.4757 -0.2607 -0.5836
    4MPD2     H   59   2.521   1.743  11.064  0.7866 -1.5716 -1.5359
    4MPD2    H1   60   2.284   1.372  11.080 -0.5064 -0.6239 -1.1276
    4MPD2    H2   61   2.085   1.733  11.117  0.5298  1.9681 -0.6382
    4MPD2    H3   62   2.092   1.514  11.104 -0.1457 -0.8925  0.0781
    4MPD2     N   63   2.546   1.489  11.033 -0.2360  0.2681  0.1434
    4MPD2    H5   64   2.625   1.550  11.054  0.8586 -0.7372 -1.0670
    4MPD2    N1   65   2.316   1.902  11.083 -0.3185  0.1822 -0.0079
    4MPD2    H7   66   2.411   1.935  11.070 -0.1422 -0.7077 -1.0549
    5TCq1    O1   67   2.703   3.894  10.908 -0.0557 -0.3520 -0.0377
    5TCq1    C1   68   2.778   3.860  11.009  0.4381 -0.2474  0.3828
    5TCq1    O2   69   2.875   3.928  11.043 -0.4538  0.0741  0.1019
    5TCq1    C2   70   2.793   3.718  10.994  0.0675  0.2893  0.0138
    5TCq1    C3   71   2.686   3.643  10.971 -0.1674 -0.0739  0.1511
    5TCq1    C4   72   2.707   3.513  10.942  0.0050  0.3562 -0.2583
    5TCq1    C5   73   2.826   3.462  10.936  0.3506 -0.2365  0.8005
    5TCq1    C6   74   2.936   3.545  10.948  0.0514  0.6377 -0.0534
    5TCq1    C7   75   2.924   3.678  10.980  0.7967 -0.9737 -0.3596
    5TCq1    C8   76   3.062   3.476  10.960 -0.8855  0.3879  0.1455
    5TCq1    O4   77   3.067   3.361  10.926  0.8965  0.3699  0.0262
    5TCq1    C9   78   2.595   3.424  10.935  0.5891 -0.0669 -0.2708
    5TCq1    O5   79   2.620   3.305  10.976 -0.2534  0.2413  0.2114
    5TCq1    O6   80   2.477   3.478  10.917  0.0981  0.0350  0.3748
    5TCq1    H1   81   2.640   3.826  10.878  0.6626 -0.4309 -1.3950
    5TCq1    H2   82   2.585   3.676  10.994 -1.1019 -2.2943 -0.7947
    5TCq1    H3   83   2.833   3.355  10.920 -2.7270 -0.5089  1.2715
    5TCq1    H4   84   3.010   3.737  11.012  1.0142 -1.0319 -0.8311
    6MPD2     C   85   3.397   3.612  11.055 -0.0604  0.5754 -0.3009
    6MPD2    C1   86   3.309   3.514  11.015  0.5363 -0.3020  1.1404
    6MPD2    C2   87   3.359   3.395  10.970 -0.4564  0.0278 -1.1486
    6MPD2    C3   88   3.494   3.373  10.961  0.2208 -0.4889 -0.4369
    6MPD2    C4   89   3.581   3.467  11.019 -0.2952  0.9279  0.7820
    6MPD2    C5   90   3.533   3.587  11.062 -0.1592 -0.4879 -1.0234
    6MPD2     H   91   3.293   3.317  10.936  1.4393 -1.0657 -2.3139
    6MPD2    H1   92   3.689   3.459  11.018 -0.2748  1.0223  2.2002
    6MPD2    H2   93   3.361   3.702  11.103  0.7537  1.3254 -1.0951
    6MPD2    H3   94   3.605   3.660  11.097  0.0859 -1.2047 -0.0121
    6MPD2     N   95   3.529   3.261  10.888  0.3162  0.2698 -0.3361
    6MPD2    H5   96   3.453   3.220  10.833 -1.5251 -0.6017  2.8776
    6MPD2    N1   97   3.174   3.554  11.011  0.3503 -0.4890  0.5534
    6MPD2    H7   98   3.145   3.644  11.050 -0.1439 -0.3727 -0.0720
    7TCq1    O1   99   0.824   2.271  12.922  0.2936  0.0433 -0.5342
    7TCq1    C1  100   0.698   2.300  12.879 -0.0502  0.0221 -0.0262
    7TCq1    O2  101   0.662   2.412  12.836 -0.6412  0.1974 -0.3738
    7TCq1    C2  102   0.602   2.179  12.881 -0.6695 -0.0267 -0.4096
    7TCq1    C3  103   0.476   2.218  12.844 -0.2723 -0.5208 -0.0087
    7TCq1    C4  104   0.365   2.139  12.866 -0.3577  0.1388 -0.4938
    7TCq1    C5  105   0.388   2.019  12.917  0.3299  0.1404 -0.3934
    7TCq1    C6  106   0.513   1.982  12.953  0.6007 -0.1075 -0.4266
    7TCq1    C7  107   0.628   2.061  12.937 -0.2482 -0.0954 -0.9677
    7TCq1    C8  108   0.513   1.884  13.067 -0.3064 -0.0644 -0.0266
    7TCq1    O4  109   0.407   1.830  13.101  0.4035 -0.6917 -0.2879
    7TCq1    C9  110   0.233   2.183  12.856 -0.4288 -0.2695  0.1418
    7TCq1    O5  111   0.149   2.129  12.930 -0.2070 -0.3656 -0.1875
    7TCq1    O6  112   0.226   2.289  12.789 -0.5078 -0.4160  0.0305
    7TCq1    H1  113   0.839   2.183  12.963  1.5320 -0.0906 -1.2529
    7TCq1    H2  114   0.459   2.323  12.823 -0.0138 -0.5744 -0.4871
    7TCq1    H3  115   0.313   1.942  12.932  2.5866 -1.7725  1.1119
    7TCq1    H4  116   0.732   2.030  12.939 -0.0255  0.7109  0.9207
    8MPD2     C  117   0.851   1.663  13.387  0.4562  0.3349 -0.1316
    8MPD2    C1  118   0.711   1.686  13.407 -0.8104 -0.1405  0.5495
    8MPD2    C2  119   0.641   1.755  13.319 -0.2211 -0.2183  0.5483
    8MPD2    C3  120   0.706   1.797  13.200 -0.1166 -0.2674 -0.8720
    8MPD2    C4  121   0.844   1.783  13.183 -0.3464  0.0722  0.3952
    8MPD2    C5  122   0.918   1.724  13.281 -0.2807 -0.4453 -0.9655
    8MPD2     H  123   0.536   1.780  13.329  0.4490  2.3868  0.8280
    8MPD2    H1  124   0.896   1.830  13.100 -1.3658 -0.6173 -0.6383
    8MPD2    H2  125   0.911   1.606  13.457  0.1638  0.0479 -0.1134
    8MPD2    H3  126   1.026   1.735  13.288 -0.4040  0.1551  0.1106
    8MPD2     N  127   0.645   1.866  13.096 -0.0432 -0.1050 -0.0472
    8MPD2    H5  128   0.708   1.900  13.025 -2.7673  0.3407 -2.2749
    8MPD2    N1  129   0.644   1.639  13.524 -0.4318 -0.0486 -0.0149
    8MPD2    H7  130   0.706   1.610  13.599  0.3164  1.8989  0.1417
    9TMC1    C1  131   3.136   1.905  11.454  0.5956 -0.4506 -0.0838
    9TMC1    C2  132   3.207   1.791  11.460  0.3433 -0.4441  0.6479
    9TMC1    C3  133   3.342   1.804  11.438 -0.5663  0.2739  0.0005
    9TMC1    C4  134   3.190   2.019  11.405 -0.7748  0.3506  0.0351
    9TMC1    C5  135   3.318   2.021  11.369 -0.5779  0.4048  0.4723
    9TMC1    C6  136   3.404   1.919  11.392  0.1078 -0.7648  0.1527
    9TMC1     C  137   3.006   1.907  11.502 -0.0196 -0.3683  0.2788
    9TMC1     O  138   2.956   2.020  11.498 -0.1332  0.5718  0.0677
    9TMC1     H  139   3.167   1.694  11.487 -1.1249  0.1428  0.5811
    9TMC1    H1  140   3.131   2.107  11.381 -0.2001  0.0831 -2.4225
    9TMC1    H2  141   3.502   1.927  11.347 -0.9480 -0.3901 -2.0796
    9TMC1    C7  142   3.358   2.141  11.287  0.2789  0.4847  0.0983
    9TMC1    C8  143   3.421   1.709  11.510  0.1129  0.1526 -0.6907
    9TMC1    O1  144   3.434   2.138  11.190  0.4418 -0.2570 -0.1443
    9TMC1    O2  145   3.366   1.619  11.578  0.0382 -0.0660  0.1233
    9TMC1    O3  146   3.315   2.255  11.349  0.1278 -0.1486 -0.2513
    9TMC1    H3  147   3.292   2.230  11.441 -1.1407 -0.6898 -0.7208
    9TMC1    O5  148   3.544   1.759  11.534  0.3300 -0.3032 -0.0172
    9TMC1    H5  149   3.554   1.856  11.525 -1.1259 -0.3508 -2.0527
   10MPD2     C  150   2.749   1.872  11.663  0.2286  0.0022  0.3096
   10MPD2    C1  151   2.822   1.773  11.597  0.0227 -0.7776 -0.1535
   10MPD2    C2  152   2.766   1.645  11.604 -0.6720  0.4141 -0.3387
   10MPD2    C3  153   2.655   1.620  11.686  0.0638 -0.8686  0.2234
   10MPD2    C4  154   2.592   1.721  11.754  0.4400  0.1008 -0.5509
   10MPD2    C5  155   2.642   1.850  11.749  0.9415 -0.0868 -0.0020
   10MPD2     H  156   2.813   1.568  11.545 -4.7726 -0.8848 -1.8552
   10MPD2    H1  157   2.498   1.713  11.807 -0.2723  1.4937 -1.5960
   10MPD2    H2  158   2.782   1.975  11.661 -1.0260  0.4002 -0.0018
   10MPD2    H3  159   2.588   1.916  11.817 -2.4805 -1.7823 -1.1102
   10MPD2     N  160   2.614   1.489  11.693  0.2431  0.2054  0.1198
   10MPD2    H5  161   2.689   1.429  11.664  0.9280  1.2433 -0.2590
   10MPD2    N1  162   2.951   1.787  11.534  0.4612  0.1423 -0.0626
   10MPD2    H7  163   2.993   1.699  11.506 -2.9172 -2.5755  3.3097
   11TCq1    O1  164   2.863   1.278  13.655 -0.4465 -0.1284 -0.1117
   11TCq1    C1  165   2.891   1.146  13.671  0.1246 -0.0867 -0.6935
   11TCq1    O2  166   2.938   1.079  13.582 -0.5540 -0.7032  0.0063
   11TCq1    C2  167   2.924   1.129  13.813 -0.7088  0.2600 -0.0817
   11TCq1    C3  168   2.838   1.184  13.910 -1.3196  0.2921  0.5059
   11TCq1    C4  169   2.882   1.210  14.034  0.1216 -0.0949 -0.5835
   11TCq1    C5  170   3.007   1.167  14.076  0.5633 -0.4440  0.3185
   11TCq1    C6  171   3.090   1.113  13.981  0.3304  0.3502 -1.2556
   11TCq1    C7  172   3.052   1.106  13.847 -0.1798 -0.2261 -0.0642
   11TCq1    C8  173   3.227   1.092  14.029  0.1741  0.1896 -0.3559
   11TCq1    O4  174   3.252   1.118  14.148  0.2640 -0.3919 -1.4821
   11TCq1    C9  175   2.808   1.304  14.115  0.2606  0.0121 -0.7311
   11TCq1    O5  176   2.717   1.373  14.056  0.0772 -0.4578  0.3454
   11TCq1    O6  177   2.861   1.342  14.221 -0.2451  0.2546 -0.0370
   11TCq1    H1  178   2.836   1.323  13.738 -1.0261 -0.2780 -0.2160
   11TCq1    H2  179   2.740   1.229  13.892  0.0336  2.2471 -2.0797
   11TCq1    H3  180   3.033   1.190  14.179 -0.6814  2.6626 -0.0858
   11TCq1    H4  181   3.127   1.079  13.773 -0.1891 -0.6521  0.0808
   12MPD2     C  182   3.516   1.067  14.063  0.1482 -0.0023  0.3072
   12MPD2    C1  183   3.448   0.994  13.971  0.4099 -0.2459 -0.6825
   12MPD2    C2  184   3.512   0.894  13.907  0.0477  0.1845  0.5199
   12MPD2    C3  185   3.638   0.859  13.944 -0.0205  0.2409 -0.3360
   12MPD2    C4  186   3.701   0.935  14.047 -0.5138 -0.0672 -0.1480
   12MPD2    C5  187   3.639   1.036  14.110 -0.0396 -0.5365  0.0850
   12MPD2     H  188   3.468   0.851  13.818 -0.2267  3.1505 -0.7759
   12MPD2    H1  189   3.805   0.917  14.074 -0.4322 -1.4126 -1.3438
   12MPD2    H2  190   3.464   1.153  14.103 -2.2624 -1.1323 -0.4031
   12MPD2    H3  191   3.690   1.091  14.188 -1.7632 -0.4104  1.1145
   12MPD2     N  192   3.714   0.749  13.894  0.1071 -0.3340  0.8747
   12MPD2    H5  193   3.810   0.736  13.925  0.1465 -3.0025 -0.3377
   12MPD2    N1  194   3.312   1.037  13.939  0.4717 -0.1394  0.0383
   12MPD2    H7  195   3.275   0.991  13.856 -1.2429  1.8273 -0.2822
   13TCq1    O1  196   2.912   0.754  11.282  0.2038  0.2107 -0.0544
   13TCq1    C1  197   3.029   0.812  11.321 -0.2816  0.0747  0.1948
   13TCq1    O2  198   3.136   0.755  11.319 -0.1058 -0.3175  0.1429
   13TCq1    C2  199   3.031   0.952  11.294  0.3625 -0.9044 -0.5594
   13TCq1    C3  200   3.137   1.003  11.230  0.3622  0.3347 -0.2217
   13TCq1    C4  201   3.119   1.134  11.190  0.8347  0.5819  0.2956
   13TCq1    C5  202   3.009   1.209  11.219 -0.4904  0.6802 -0.0390
   13TCq1    C6  203   2.916   1.152  11.304 -0.1304 -0.1641  0.0662
   13TCq1    C7  204   2.918   1.023  11.326 -0.7161 -0.1558  0.2236
   13TCq1    C8  205   2.802   1.234  11.334 -0.1798  0.0039  0.9805
   13TCq1    O4  206   2.813   1.356  11.323  1.0967 -0.5488 -0.6945
   13TCq1    C9  207   3.218   1.191  11.096 -1.0932 -0.4816  0.6577
   13TCq1    O5  208   3.197   1.306  11.044 -0.3190 -0.6672 -0.6415
   13TCq1    O6  209   3.318   1.119  11.085  0.7677 -0.6306 -0.1233
   13TCq1    H1  210   2.844   0.821  11.257 -0.1510 -0.6785 -1.5160
   13TCq1    H2  211   3.220   0.943  11.193  2.4945  1.5040  2.6168
   13TCq1    H3  212   2.990   1.308  11.178  0.5711  1.0740  0.4194
   13TCq1    H4  213   2.851   0.973  11.395 -2.5252  0.8956 -0.7922
   14MPD2     C  214   2.464   1.107  11.311 -0.0334  0.4241 -0.5066
   14MPD2    C1  215   2.555   1.200  11.325 -0.5429 -0.6310 -0.7059
   14MPD2    C2  216   2.519   1.332  11.361  0.0938 -0.0020 -0.0909
   14MPD2    C3  217   2.383   1.362  11.383  1.1194  0.3775 -0.6153
   14MPD2    C4  218   2.288   1.267  11.348 -0.1014 -0.3216 -0.5144
   14MPD2    C5  219   2.330   1.138  11.328 -0.6507 -1.0628  0.1400
   14MPD2     H  220   2.593   1.409  11.378  0.5921 -0.7896  1.3040
   14MPD2    H1  221   2.180   1.280  11.347  0.1818  2.3487  3.4279
   14MPD2    H2  222   2.486   1.002  11.291  1.2182  0.4859  0.5583
   14MPD2    H3  223   2.258   1.059  11.310 -0.1390 -1.4205 -0.3334
   14MPD2     N  224   2.355   1.487  11.437 -0.6230  0.2113 -0.5154
   14MPD2    H5  225   2.429   1.556  11.427  0.0918 -0.5161 -0.2231
   14MPD2    N1  226   2.688   1.156  11.325 -0.1443 -0.5546  0.4540
   14MPD2    H7  227   2.701   1.056  11.316  3.4794 -0.2170  1.8556
   15TCq1    O1  228   0.440   0.110   1.343  0.0988 -0.3524  0.2190
   15TCq1    C1  229   0.464   0.175   1.230  0.3821 -0.7265 -0.3101
   15TCq1    O2  230   0.466   0.295   1.239 -0.1726 -0.1529 -0.0230
   15TCq1    C2  231   0.384   0.105   1.134  0.7287  0.3105 -0.0217
   15TCq1    C3  232   0.276   0.173   1.080 -1.1579  0.2698 -0.3522
   15TCq1    C4  233   0.197   0.097   1.002  0.4439  0.6258  0.9603
   15TCq1    C5  234   0.220   4.702   0.980 -0.2059 -0.2682  0.4418
   15TCq1    C6  235   0.334   4.648   1.021 -0.1398 -0.1203 -0.0717
   15TCq1    C7  236   0.413   4.719   1.104 -0.3690  0.2941  0.5546
   15TCq1    C8  237   0.355   4.506   1.020 -0.3325 -0.9487  1.2425
   15TCq1    O4  238   0.461   4.468   1.063  0.9636 -0.1799  0.7219
   15TCq1    C9  239   0.086   0.165   0.933 -0.2061  0.0277  0.1284
   15TCq1    O5  240   0.006   0.091   0.870 -0.4799  0.1216  0.3952
   15TCq1    O6  241   0.074   0.289   0.948 -0.1017  0.0839  0.0149
   15TCq1    H1  242   0.423   0.014   1.331  0.1227 -0.3398  0.0821
   15TCq1    H2  243   0.266   0.279   1.099  1.8310  0.2838  1.1850
   15TCq1    H3  244   0.140   4.651   0.929  2.0694  1.2227 -4.5971
   15TCq1    H4  245   0.497   4.675   1.157 -0.3513 -4.1281 -3.1117
   16MPD2     C  246   0.096   4.260   0.922  0.3862 -0.9165 -0.0943
   16MPD2    C1  247   0.224   4.294   0.966  0.0378 -0.6134  0.1147
   16MPD2    C2  248   0.307   4.203   1.029 -0.0400 -0.1790  0.5157
   16MPD2    C3  249   0.269   4.066   1.017 -0.6940  0.0415 -0.3499
   16MPD2    C4  250   0.151   4.032   0.957  0.1332  0.2476 -0.0979
   16MPD2    C5  251   0.062   4.129   0.914  0.1946  0.8207  0.5580
   16MPD2     H  252   0.410   4.225   1.058  0.2312 -0.6155 -0.1036
   16MPD2    H1  253   0.130   3.927   0.942 -1.7543  0.2975  2.1177
   16MPD2    H2  254   0.043   4.342   0.873  1.9939 -0.5234 -1.1744
   16MPD2    H3  255   4.709   4.102   0.868 -0.3198  1.2138  1.3852
   16MPD2     N  256   0.366   3.974   1.060 -0.4863  0.3200 -0.4059
   16MPD2    H5  257   0.445   4.017   1.107  1.7535 -0.3910 -3.5026
   16MPD2    N1  258   0.251   4.439   0.958 -0.3572  0.3393  0.1022
   16MPD2    H7  259   0.171   4.494   0.927 -1.0515  0.2958  1.8256
   17TMC1    C1  260   2.348   4.706  11.567  0.3327  0.0758  0.1865
   17TMC1    C2  261   2.451   4.627  11.618 -0.2783  0.3517  0.0225
   17TMC1    C3  262   2.442   4.487  11.581  0.5216  0.1475 -0.2440
   17TMC1    C4  263   2.249   4.655  11.493  0.0088 -0.0292 -0.7923
   17TMC1    C5  264   2.248   4.523  11.450 -0.6356 -0.6850 -0.7175
   17TMC1    C6  265   2.344   4.432  11.494  0.3628  0.5375 -0.2600
   17TMC1     C  266   2.393   0.091  11.531 -0.9852  0.1339  0.1054
   17TMC1     O  267   2.312   0.182  11.534  0.3388  0.0811 -0.0439
   17TMC1     H  268   2.534   4.662  11.679  0.2220  1.0179 -1.0429
   17TMC1    H1  269   2.166   4.716  11.457 -0.2551 -0.3036 -0.6478
   17TMC1    H2  270   2.327   4.330  11.464 -1.0360  0.2774  1.3974
   17TMC1    C7  271   2.156   4.473  11.356 -0.0587  0.5414  0.1490
   17TMC1    C8  272   2.567   4.417  11.605  0.5298  0.1345  0.0134
   17TMC1    O1  273   2.118   4.359  11.359 -0.2768  0.5781  0.3535
   17TMC1    O2  274   2.658   4.473  11.664  0.3848  0.5202  0.0808
   17TMC1    O3  275   2.115   4.566  11.270 -0.6847  0.5032  0.9336
   17TMC1    H3  276   2.164   4.651  11.277 -0.8527  0.8544 -2.3698
   17TMC1    O5  277   2.573   4.294  11.541 -0.3510  0.4465 -0.0985
   17TMC1    H5  278   2.491   4.252  11.507  1.6594 -1.0716 -3.0944
   18MPD2     C  279   2.566   0.314  11.449 -0.0018  0.0985  0.4920
   18MPD2    C1  280   2.612   0.185  11.471  0.6410 -0.1687  0.3548
   18MPD2    C2  281   2.745   0.158  11.441  0.1200  0.8746  0.4772
   18MPD2    C3  282   2.831   0.263  11.410  0.1998  0.7937  0.1326
   18MPD2    C4  283   2.784   0.391  11.411 -0.2168  1.2301  0.0598
   18MPD2    C5  284   2.655   0.415  11.423  0.8158  0.2070 -0.3598
   18MPD2     H  285   2.777   0.055  11.445  0.5268  0.9366 -0.9028
   18MPD2    H1  286   2.857   0.470  11.396  1.2062  0.5833  3.6718
   18MPD2    H2  287   2.462   0.342  11.444  0.6272  1.9897 -1.5712
   18MPD2    H3  288   2.622   0.518  11.429 -1.2094 -0.5717  1.4613
   18MPD2     N  289   2.957   0.229  11.356 -0.1061 -0.0676 -0.1926
   18MPD2    H5  290   3.026   0.304  11.354  1.2572 -1.2139  4.4881
   18MPD2    N1  291   2.528   0.084  11.503 -0.3374 -0.1115  0.3565
   18MPD2    H7  292   2.567   4.733  11.492  1.5028  0.6186  0.6335
   19TMC2    C1  293   0.082   0.010  13.590 -0.7715 -0.5009  0.2542
   19TMC2    C2  294   0.058   4.683  13.475  0.8254  0.2058 -0.2374
   19TMC2    C3  295   4.707   4.583  13.473  0.0920  0.0588 -0.0841
   19TMC2    C4  296   0.003   4.740  13.702 -0.1273 -0.2726  0.2380
   19TMC2    C5  297   4.652   4.640  13.698  0.0747 -0.2033  0.1374
   19TMC2    C6  298   4.633   4.552  13.589 -0.3866  0.5650  0.9379
   19TMC2     C  299   0.198   0.094  13.592  0.1869  0.5705 -0.1387
   19TMC2     O  300   0.237   0.146  13.484  0.3708 -0.2204 -0.2197
   19TMC2     H  301   0.119   4.695  13.386 -0.1575 -0.4235 -0.9995
   19TMC2    H1  302   0.026   0.058  13.790 -0.0750 -0.8241  0.5953
   19TMC2    H2  303   4.550   4.484  13.577 -0.3358  1.0727 -2.3930
   19TMC2    C7  304   4.592   4.609  13.824 -0.0133 -0.9467  0.3938
   19TMC2    C8  305   4.739   4.464  13.403  0.1148 -0.2443 -0.1769
   19TMC2    O1  306   4.580   4.695  13.908  0.8345 -0.0464 -0.2780
   19TMC2    O2  307   0.046   4.370  13.461  0.0892  0.3021 -0.2249
   19TMC2    O5  308   0.036   4.506  13.284  0.3933  0.2392  0.2956
   19TMC2    H5  309   0.001   4.595  13.263  0.1476 -0.1326 -0.8735
   20MPD2     C  310   0.440   0.270  13.669 -0.2243 -0.2917  0.3316
   20MPD2    C1  311   0.366   0.186  13.749  0.4444 -0.2907 -0.6495
   20MPD2    C2  312   0.407   0.179  13.887  0.6778  0.2671 -0.2506
   20MPD2    C3  313   0.509   0.259  13.930 -0.0518  0.3814  0.0376
   20MPD2    C4  314   0.580   0.342  13.850 -0.1642 -0.4773 -0.0327
   20MPD2    C5  315   0.555   0.342  13.715 -0.2099 -0.6034  0.3916
   20MPD2     H  316   0.355   0.110  13.953 -0.1224  0.4374 -0.7039
   20MPD2    H1  317   0.661   0.406  13.883  0.7436 -0.2236 -2.7685
   20MPD2    H2  318   0.406   0.283  13.567  2.0678 -0.4991 -0.4588
   20MPD2    H3  319   0.617   0.406  13.653 -0.2624 -0.2962  0.6565
   20MPD2     N  320   0.561   0.252  14.060 -1.0105 -0.5154  0.0353
   20MPD2    H5  321   0.631   0.321  14.083 -3.6910  1.4835  2.1979
   20MPD2    N1  322   0.247   0.109  13.718  0.4786 -0.2324  0.4212
   20MPD2    H7  323   0.207   0.054  13.793  0.8033 -2.2088 -0.8485
   21TMC2    C1  324   2.261   0.792  14.551  0.1023  0.0564  0.1467
   21TMC2    C2  325   2.383   0.735  14.566 -0.7732  0.2831  0.3073
   21TMC2    C3  326   2.380   0.607  14.623 -0.7026  0.0131 -0.0132
   21TMC2    C4  327   2.141   0.727  14.577  0.3987  0.1360 -0.2282
   21TMC2    C5  328   2.151   0.600  14.637  0.0242  0.3864 -0.4143
   21TMC2    C6  329   2.272   0.538  14.650 -0.2009 -0.1267  0.1412
   21TMC2     C  330   2.270   0.923  14.604  0.5827  0.3758  0.3715
   21TMC2     O  331   2.357   0.938  14.691  0.2733 -0.3835  0.0357
   21TMC2     H  332   2.476   0.777  14.531  0.6987 -1.8461  1.6306
   21TMC2    H1  333   2.044   0.766  14.549  0.2195  0.2936  0.6258
   21TMC2    H2  334   2.276   0.436  14.687 -1.3744 -0.1324  0.2695
   21TMC2    C7  335   2.075   0.599  14.765 -0.4465 -0.5688 -0.0685
   21TMC2    C8  336   2.507   0.542  14.634  0.4600  0.1483 -0.2211
   21TMC2    O1  337   2.112   0.520  14.845 -0.3001 -0.6182 -0.0944
   21TMC2    O2  338   2.518   0.420  14.639 -0.5622 -0.2612 -0.5909
   21TMC2    O5  339   2.612   0.629  14.639 -0.4045  0.0729  0.0726
   21TMC2    H5  340   2.594   0.717  14.676 -1.7678 -1.2799  2.6426
   22MPD2     C  341   1.979   1.287  14.800 -0.4594  0.6841 -0.0633
   22MPD2    C1  342   2.071   1.206  14.863 -0.2067 -0.8252 -0.4138
   22MPD2    C2  343   2.142   1.120  14.786  0.1430  0.3824  0.0609
   22MPD2    C3  344   2.099   1.094  14.658 -0.2669  0.6455  0.5229
   22MPD2    C4  345   1.999   1.165  14.601  0.5421  0.6177  0.4252
   22MPD2    C5  346   1.948   1.269  14.670  0.4441 -0.1383  1.0130
   22MPD2     H  347   2.213   1.051  14.830  0.6728  0.7027 -0.3031
   22MPD2    H1  348   1.970   1.159  14.497 -0.0915 -0.5402  0.6685
   22MPD2    H2  349   1.925   1.365  14.852 -0.4146  1.2454 -0.8651
   22MPD2    H3  350   1.878   1.337  14.622  0.3335 -0.6961  0.3878
   22MPD2     N  351   2.154   0.994  14.578  0.2064 -0.0826 -0.1815
   22MPD2    H5  352   2.099   0.967  14.497 -0.8344 -2.5052  1.3374
   22MPD2    N1  353   2.112   1.224  14.995  0.0579 -0.2985  0.2310
   22MPD2    H7  354   2.196   1.169  15.010  0.5417  0.8899  1.8000
   23TMC2    C1  355   3.773   2.024  15.003 -1.1749  0.0470 -0.3472
   23TMC2    C2  356   3.755   2.137  14.919 -0.3105  0.9372  0.2444
   23TMC2    C3  357   3.648   2.130  14.830  0.0202  0.0014 -0.1938
   23TMC2    C4  358   3.686   1.915  14.995  0.2421  0.1839 -0.0423
   23TMC2    C5  359   3.581   1.920  14.903 -0.3184  0.3935  0.0182
   23TMC2    C6  360   3.567   2.021  14.812  0.0921 -0.1139  0.1165
   23TMC2     C  361   3.872   2.018  15.110  0.4560  0.5104 -0.0234
   23TMC2     O  362   3.889   1.908  15.155 -0.1774 -0.2566 -0.6431
   23TMC2     H  363   3.826   2.219  14.912  3.0968 -2.2461 -2.5349
   23TMC2    H1  364   3.701   1.833  15.065  0.3131  1.6670  1.6931
   23TMC2    H2  365   3.508   2.009  14.722  0.1316 -0.1194  0.0913
   23TMC2    C7  366   3.490   1.807  14.904  0.5173  0.3929  0.1163
   23TMC2    C8  367   3.632   2.247  14.752  0.6465 -0.2953 -0.4345
   23TMC2    O1  368   3.521   1.705  14.962 -0.6860 -0.0143  0.3792
   23TMC2    O2  369   3.720   2.305  14.693 -0.2092 -0.4296  0.1402
   23TMC2    O5  370   3.500   2.257  14.713  0.2167  0.0415 -0.5609
   23TMC2    H5  371   3.442   2.201  14.769  0.0570  0.8307  0.0645
   24MPD2     C  372   4.232   2.223  15.412  0.5557  0.1718  1.0399
   24MPD2    C1  373   4.166   2.097  15.418 -0.1806  0.0629 -0.5708
   24MPD2    C2  374   4.065   2.067  15.330 -0.3021  0.4610  1.1541
   24MPD2    C3  375   4.019   2.164  15.243  0.1255  0.2201 -0.5624
   24MPD2    C4  376   4.076   2.288  15.241  0.1468  0.5070  0.2150
   24MPD2    C5  377   4.185   2.316  15.321 -0.7574  0.3703  0.2617
   24MPD2     H  378   4.021   1.968  15.332  1.0914 -0.1905 -0.0513
   24MPD2    H1  379   4.051   2.366  15.170 -0.8023  0.1062  0.1093
   24MPD2    H2  380   4.305   2.262  15.483  1.6884 -0.4237  0.2066
   24MPD2    H3  381   4.229   2.415  15.322  2.1652 -0.9261  0.0632
   24MPD2     N  382   3.921   2.149  15.141  0.4476 -0.5982 -0.3272
   24MPD2    H5  383   3.885   2.232  15.095 -1.5783  0.1715  2.6667
   24MPD2    N1  384   4.203   1.996  15.511  0.1344  0.6924 -0.5702
   24MPD2    H7  385   4.159   1.905  15.500  0.0141  0.7103 -0.2348
   25TMC2    C1  386   2.598   4.526  12.407 -0.0428  0.6418  0.4613
   25TMC2    C2  387   2.677   4.576  12.504  0.8581  0.1861  0.1347
   25TMC2    C3  388   2.667   4.710  12.532 -0.1590 -0.5105  0.5553
   25TMC2    C4  389   2.512   4.608  12.342 -0.2855 -0.1197 -0.0387
   25TMC2    C5  390   2.499   4.740  12.369 -0.4437 -0.5222 -0.0682
   25TMC2    C6  391   2.586   0.052  12.457 -0.0306 -0.4464 -0.4409
   25TMC2     C  392   2.548   4.391  12.428 -0.0008 -0.4574  0.1457
   25TMC2     O  393   2.551   4.354  12.547  0.6044  0.3699  0.1373
   25TMC2     H  394   2.743   4.514  12.564 -0.4555 -1.1068  0.2541
   25TMC2    H1  395   2.461   4.576  12.252  1.0538 -1.3020 -0.3746
   25TMC2    H2  396   2.574   0.159  12.474 -3.2536 -0.8569 -0.2569
   25TMC2    C7  397   2.428   0.082  12.275 -0.5685  0.0808 -0.2093
   25TMC2    C8  398   2.772   0.021  12.621 -0.0122  0.3134  0.2448
   25TMC2    O1  399   2.496   0.165  12.225  0.2200  0.3845  0.0215
   25TMC2    O2  400   2.826   4.686  12.704  0.2832  0.5455  0.5796
   25TMC2    O5  401   2.778   0.158  12.622 -0.2884 -0.1120  0.2130
   25TMC2    H5  402   2.774   0.191  12.530  0.5600  0.8304  0.5041
   26MPD2     C  403   2.209   4.037  12.293  0.3761 -0.3190 -0.2530
   26MPD2    C1  404   2.230   4.119  12.179  0.7225  0.2750  0.5885
   26MPD2    C2  405   2.314   4.222  12.188  0.0242 -0.7618 -0.3973
   26MPD2    C3  406   2.375   4.251  12.310  0.6554  0.1864  0.3293
   26MPD2    C4  407   2.350   4.170  12.423 -0.0700  0.9573 -0.3567
   26MPD2    C5  408   2.270   4.063  12.411  0.8545  0.2570 -0.3854
   26MPD2     H  409   2.344   4.281  12.103 -1.0577 -1.1782 -1.0606
   26MPD2    H1  410   2.393   4.191  12.520 -1.3115 -1.4724  0.7231
   26MPD2    H2  411   2.139   3.955  12.297 -1.7217  1.4820  0.1420
   26MPD2    H3  412   2.272   3.998  12.498 -1.6757  1.6492  0.7388
   26MPD2     N  413   2.473   4.351  12.322 -0.0290 -0.4367  0.4996
   26MPD2    H5  414   2.501   4.392  12.233 -1.6387 -0.7683 -0.1495
   26MPD2    N1  415   2.176   4.072  12.051  0.0717  0.0947  0.1128
   26MPD2    H7  416   2.120   3.988  12.042  2.0474 -1.2317  0.3407
   27TMC2    C1  417   1.211   1.254  12.386 -0.3645 -0.1995 -0.0802
   27TMC2    C2  418   1.342   1.218  12.368  0.1212 -0.4934  0.6621
   27TMC2    C3  419   1.408   1.158  12.470  0.6692 -0.2384  0.3334
   27TMC2    C4  420   1.143   1.214  12.501  0.3411  0.2684 -0.4234
   27TMC2    C5  421   1.207   1.139  12.587  0.0230 -0.5440  0.0211
   27TMC2    C6  422   1.342   1.118  12.581 -0.0361  0.2952 -0.0585
   27TMC2     C  423   1.172   1.371  12.315  0.0366  0.2535  0.3236
   27TMC2     O  424   1.220   1.377  12.200 -0.2321  0.2602  0.1189
   27TMC2     H  425   1.389   1.234  12.271  1.2213 -0.6407  1.1671
   27TMC2    H1  426   1.036   1.227  12.502  0.3337  0.0777  0.7362
   27TMC2    H2  427   1.394   1.068  12.661 -1.3899 -1.8409 -0.5165
   27TMC2    C7  428   1.150   1.126  12.716 -0.7171 -0.2217  0.2949
   27TMC2    C8  429   1.547   1.115  12.464  0.0817  0.1301 -0.3363
   27TMC2    O1  430   1.224   1.109  12.813 -0.1766 -0.3961 -0.3688
   27TMC2    O2  431   1.602   1.069  12.563  0.7206 -0.3118 -0.5356
   27TMC2    O5  432   1.579   1.064  12.340  0.2420  0.0689  0.3318
   27TMC2    H5  433   1.525   1.096  12.265 -0.8958 -1.6117  0.4280
   28MPD2     C  434   0.917   1.805  12.229 -0.7445  0.6155 -0.2613
   28MPD2    C1  435   0.871   1.753  12.348  0.1380 -0.1817  0.2276
   28MPD2    C2  436   0.909   1.618  12.384 -0.2679  0.2319 -0.3942
   28MPD2    C3  437   1.015   1.559  12.316 -0.7762  0.0556 -0.4389
   28MPD2    C4  438   1.054   1.609  12.188  0.2588  0.1583 -0.5817
   28MPD2    C5  439   0.996   1.727  12.146  0.6826 -0.3393 -0.4278
   28MPD2     H  440   0.864   1.567  12.469  1.1854 -0.6143 -0.1374
   28MPD2    H1  441   1.114   1.554  12.116  1.2016 -2.1144  1.9308
   28MPD2    H2  442   0.876   1.895  12.184 -1.7579  0.2717 -0.0363
   28MPD2    H3  443   1.018   1.759  12.045 -3.3724  0.4682 -1.0539
   28MPD2     N  444   1.070   1.440  12.374  0.2139 -0.2041  0.3615
   28MPD2    H5  445   1.028   1.410  12.461  0.2353 -2.7737 -0.5284
   28MPD2    N1  446   0.774   1.823  12.423 -0.1173 -0.1784 -0.2778
   28MPD2    H7  447   0.765   1.921  12.396 -0.7190 -0.0066  0.5532
   29TMC2    C1  448   1.303   3.562  14.576  0.7612  0.9288  0.2138
   29TMC2    C2  449   1.384   3.554  14.689 -0.7581  0.2952 -0.1997
   29TMC2    C3  450   1.429   3.677  14.742  0.5643 -0.7157 -0.1619
   29TMC2    C4  451   1.277   3.685  14.520  0.4166 -0.7071  0.2432
   29TMC2    C5  452   1.333   3.801  14.575 -0.1878  0.5924  0.6769
   29TMC2    C6  453   1.401   3.801  14.689  0.2643  0.1175  0.6204
   29TMC2     C  454   1.245   3.444  14.521  0.3780  0.3590 -0.1341
   29TMC2     O  455   1.304   3.344  14.558  0.2713 -0.1248 -0.3429
   29TMC2     H  456   1.395   3.459  14.741 -0.8082  0.6556  0.4692
   29TMC2    H1  457   1.218   3.689  14.429 -0.7364 -0.9902  0.9784
   29TMC2    H2  458   1.440   3.890  14.736 -1.9369  1.1816  0.4227
   29TMC2    C7  459   1.267   3.922  14.531 -1.6604 -0.3328 -0.9699
   29TMC2    C8  460   1.498   3.678  14.868  0.2453 -0.7103 -0.0427
   29TMC2    O1  461   1.182   3.899  14.448 -0.3335 -0.4418  0.1216
   29TMC2    O2  462   1.578   3.593  14.903  0.0693 -0.6710 -0.5683
   29TMC2    O5  463   1.412   3.742  14.958 -0.0485  0.4951  0.3140
   29TMC2    H5  464   1.332   3.773  14.911 -1.2588  0.8223  2.5911
   30MPD2     C  465   1.005   3.209  14.130 -0.9484  0.6213 -0.2942
   30MPD2    C1  466   1.115   3.170  14.209  0.8786 -0.7237  0.4012
   30MPD2    C2  467   1.145   3.250  14.312 -0.3796 -0.5778  0.3825
   30MPD2    C3  468   1.084   3.367  14.343  0.0232  0.1060  0.3865
   30MPD2    C4  469   0.978   3.406  14.266  0.0102 -0.8720 -0.4654
   30MPD2    C5  470   0.935   3.320  14.164 -0.6980  0.2366 -0.8912
   30MPD2     H  471   1.236   3.223  14.366  0.1118  0.3240 -0.0007
   30MPD2    H1  472   0.927   3.499  14.288  0.9833 -0.2651 -0.7619
   30MPD2    H2  473   0.957   3.158  14.047 -0.1127  2.1648 -1.7540
   30MPD2    H3  474   0.847   3.355  14.112 -0.0196  0.3509 -1.9589
   30MPD2     N  475   1.134   3.457  14.445  0.0801  0.0411  0.6163
   30MPD2    H5  476   1.089   3.548  14.449 -0.7119 -0.2533 -1.3764
   30MPD2    N1  477   1.202   3.063  14.175  0.2611 -0.0069  0.2751
   30MPD2    H7  478   1.295   3.073  14.213  0.4991 -0.0835 -0.2864
   31TMC2    C1  479   3.347   2.425  15.448 -0.1840  0.2301  0.4922
   31TMC2    C2  480   3.212   2.434  15.403 -0.5338  0.1419 -0.1186
   31TMC2    C3  481   3.105   2.454  15.492  0.4294 -0.3156 -0.0807
   31TMC2    C4  482   3.363   2.441  15.581  0.6506  0.2303  0.7001
   31TMC2    C5  483   3.264   2.479  15.664 -0.0846  0.3060 -0.1591
   31TMC2    C6  484   3.133   2.478  15.624 -0.3253  0.0157 -0.8456
   31TMC2     C  485   3.435   2.504  15.371 -0.3075  0.1541  0.1804
   31TMC2     O  486   3.387   2.577  15.285  0.0829  0.1449 -0.3405
   31TMC2     H  487   3.191   2.428  15.297  1.4563  3.6250 -0.7265
   31TMC2    H1  488   3.464   2.441  15.620 -0.0571 -0.6566  2.5165
   31TMC2    H2  489   3.051   2.515  15.684  0.3013 -0.3904  0.2608
   31TMC2    C7  490   3.281   2.489  15.808  0.1653 -0.1653  0.1982
   31TMC2    C8  491   2.978   2.507  15.448  0.7419  0.1891 -0.3644
   31TMC2    O1  492   3.178   2.509  15.870  0.1701  0.1140 -0.3374
   31TMC2    O2  493   2.881   2.519  15.522 -0.6107  0.3138 -0.1944
   31TMC2    O5  494   2.988   2.540  15.312  0.1253 -0.4323 -0.1240
   31TMC2    H5  495   3.077   2.556  15.274  0.0224  0.9169  0.2369
   32MPD2     C  496   3.918   2.672  15.276 -0.0226  0.6879  0.4579
   32MPD2    C1  497   3.797   2.713  15.208 -0.2403 -0.5068  0.3283
   32MPD2    C2  498   3.675   2.654  15.254  0.9328 -0.0821 -0.8077
   32MPD2    C3  499   3.681   2.554  15.343 -0.1249  0.3668  0.2973
   32MPD2    C4  500   3.801   2.516  15.408  0.2323  0.4945  0.6930
   32MPD2    C5  501   3.914   2.575  15.364  0.2086  0.4718  0.1648
   32MPD2     H  502   3.580   2.688  15.217  0.0090  0.4561  2.0463
   32MPD2    H1  503   3.802   2.449  15.493 -0.9517  0.1985  0.4647
   32MPD2    H2  504   4.010   2.709  15.234 -0.1881 -1.2638 -1.5973
   32MPD2    H3  505   4.001   2.536  15.417  1.9839 -0.1686 -3.1966
   32MPD2     N  506   3.572   2.485  15.400  0.7741  0.1818  0.1729
   32MPD2    H5  507   3.593   2.408  15.463 -0.3035 -0.0042  0.3093
   32MPD2    N1  508   3.797   2.828  15.119 -0.2488  0.8632  0.8514
   32MPD2    H7  509   3.883   2.877  15.098  1.1675 -0.8539  2.6622
   33TMC2    C1  510   3.666   4.562  10.461  0.6201 -0.2353  0.3016
   33TMC2    C2  511   3.710   4.443  10.410 -0.3758  0.0626 -0.0904
   33TMC2    C3  512   3.786   4.439  10.304 -0.5104 -0.2261  0.1381
   33TMC2    C4  513   3.712   4.676  10.417  0.2872 -0.3194  0.2037
   33TMC2    C5  514   3.800   4.674  10.316 -0.4459 -0.7519  0.0363
   33TMC2    C6  515   3.836   4.557  10.251 -0.2893  0.0281  0.4146
   33TMC2     C  516   3.606   4.550  10.597  0.5310 -0.6253  0.6191
   33TMC2     O  517   3.599   4.649  10.675 -0.3856  0.1358  0.2170
   33TMC2     H  518   3.677   4.348  10.452 -0.4507 -0.0469 -0.3957
   33TMC2    H1  519   3.695   0.022  10.479 -3.3117  0.1720 -1.4579
   33TMC2    H2  520   3.932   4.550  10.202 -1.1807 -0.6152 -1.2217
   33TMC2    C7  521   3.876   0.056  10.287 -0.3180 -0.4995 -0.0934
   33TMC2    C8  522   3.818   4.307  10.241 -0.2527  0.6096  0.2406
   33TMC2    O1  523   3.888   0.135  10.382 -0.0594 -0.3089  0.0859
   33TMC2    O2  524   3.788   4.195  10.284  0.2137 -0.0143 -0.1352
   33TMC2    O5  525   3.893   4.335  10.131 -0.6069  0.0383 -0.4746
   33TMC2    H5  526   3.881   4.431  10.115 -1.5239 -0.1329 -0.7964
   34MPD2     C  527   3.262   4.334  10.918  0.0088 -0.6671  0.6914
   34MPD2    C1  528   3.329   4.454  10.932  0.0647  0.0794 -0.1371
   34MPD2    C2  529   3.425   4.488  10.829 -0.4549 -0.2442 -0.6557
   34MPD2    C3  530   3.436   4.406  10.714  0.0536 -0.0262  0.6226
   34MPD2    C4  531   3.362   4.293  10.704  0.1016  0.0093 -0.1602
   34MPD2    C5  532   3.281   4.256  10.808 -0.8115 -0.0764  0.5381
   34MPD2     H  533   3.458   4.591  10.832 -0.7617 -0.0968 -2.2417
   34MPD2    H1  534   3.371   4.224  10.621 -1.2962 -0.2124 -0.1218
   34MPD2    H2  535   3.189   4.303  10.993 -0.1385 -0.0358  0.8096
   34MPD2    H3  536   3.224   4.166  10.790  0.5553 -0.8842  0.3140
   34MPD2     N  537   3.526   4.432  10.607  0.0131 -0.5873  0.0688
   34MPD2    H5  538   3.529   4.364  10.532  1.6508 -1.1128  0.6210
   34MPD2    N1  539   3.306   4.540  11.040 -0.4627 -0.4711  0.0309
   34MPD2    H7  540   3.233   4.513  11.106 -0.4208  2.7665  1.3595
   35TMC2    C1  541   4.206   2.093  11.545 -0.5644  0.5880  0.1280
   35TMC2    C2  542   4.116   2.160  11.461 -0.6820  0.5092  0.4140
   35TMC2    C3  543   3.993   2.099  11.424 -0.0465 -0.0929 -0.4145
   35TMC2    C4  544   4.168   1.967  11.598 -0.4715 -0.0075 -0.6982
   35TMC2    C5  545   4.044   1.913  11.557 -0.5562 -0.0961  0.5269
   35TMC2    C6  546   3.951   1.979  11.485  0.5580  0.0405 -0.0204
   35TMC2     C  547   4.284   2.178  11.630 -0.1622  0.7252  0.1452
   35TMC2     O  548   4.250   2.298  11.629  0.0499  0.6920  0.4801
   35TMC2     H  549   4.143   2.252  11.410 -0.9919 -0.2975 -1.2106
   35TMC2    H1  550   4.218   1.921  11.683 -0.5087  0.3603 -0.4773
   35TMC2    H2  551   3.848   1.946  11.487  0.2401  1.0739  0.9085
   35TMC2    C7  552   4.008   1.795  11.632 -0.8444  0.2338  0.1035
   35TMC2    C8  553   3.886   2.184  11.379  0.0504  0.2029 -0.4440
   35TMC2    O1  554   4.061   1.775  11.739 -0.2685 -0.3146 -0.3195
   35TMC2    O2  555   3.772   2.157  11.415  0.5589 -1.0004 -0.1152
   35TMC2    O5  556   3.935   2.272  11.295  0.5043  0.1707 -0.2419
   35TMC2    H5  557   4.032   2.264  11.280  0.4486 -0.2545 -0.3628
   36MPD2     C  558   4.519   2.260  12.062 -0.0112 -0.9301  0.0783
   36MPD2    C1  559   4.546   2.129  12.038  0.2238  0.0852 -0.9360
   36MPD2    C2  560   4.491   2.074  11.919 -0.4404  0.5167 -0.2355
   36MPD2    C3  561   4.424   2.159  11.831  0.0861 -0.2059  0.6733
   36MPD2    C4  562   4.411   2.290  11.856  0.4051 -0.7891 -0.6385
   36MPD2    C5  563   4.465   2.344  11.971 -0.0471 -0.3284  0.6005
   36MPD2     H  564   4.498   1.972  11.884  1.7228  0.3695  0.6425
   36MPD2    H1  565   4.371   2.363  11.787 -1.4904 -1.5800 -0.3806
   36MPD2    H2  566   4.554   2.301  12.156 -0.8638 -2.9046  1.2593
   36MPD2    H3  567   4.467   2.450  11.991  1.2237  0.1930 -2.2926
   36MPD2     N  568   4.356   2.104  11.719  0.2356  0.5572  0.2050
   36MPD2    H5  569   4.374   2.008  11.693  0.6711  0.9126 -0.8280
   36MPD2    N1  570   4.620   2.059  12.134 -0.8108 -0.2379  0.0749
   36MPD2    H7  571   4.683   2.112  12.193  0.4561  1.9117 -3.2303
   37TMC2    C1  572   2.049   2.114  12.150  0.1599  0.3171 -0.5049
   37TMC2    C2  573   1.971   2.203  12.078 -1.0030  0.1247  0.4587
   37TMC2    C3  574   2.022   2.278  11.977  0.7185 -0.2513 -0.3411
   37TMC2    C4  575   2.180   2.107  12.124 -0.7915 -0.5340 -0.1155
   37TMC2    C5  576   2.231   2.172  12.021  0.5438 -0.6463  0.5336
   37TMC2    C6  577   2.153   2.261  11.950  0.1318 -0.3636 -0.4912
   37TMC2     C  578   1.993   2.084  12.279 -0.2622  0.7612  0.4669
   37TMC2     O  579   1.897   2.152  12.315  0.3299 -0.2396  0.4401
   37TMC2     H  580   1.867   2.212  12.110 -0.9917  0.9072  0.2653
   37TMC2    H1  581   2.250   2.052  12.186 -1.4053 -0.7365  0.3997
   37TMC2    H2  582   2.199   2.333  11.882  0.0703  0.5295  0.4157
   37TMC2    C7  583   2.371   2.168  11.989 -0.2384 -0.5017  0.3388
   37TMC2    C8  584   1.951   2.382  11.907 -0.4653  0.1544  0.0531
   37TMC2    O1  585   2.446   2.126  12.081  0.1762  0.4439 -0.2205
   37TMC2    O2  586   1.847   2.426  11.955 -0.1315  0.4590  0.0197
   37TMC2    O5  587   1.988   2.396  11.784 -0.0859  0.2387  0.1913
   37TMC2    H5  588   2.066   2.350  11.747  0.3506  1.1803 -0.0327
   38MPD2     C  589   1.894   1.778  12.682 -0.5581 -0.2975 -0.6394
   38MPD2    C1  590   2.034   1.777  12.652 -0.0515  0.2012 -0.4363
   38MPD2    C2  591   2.079   1.824  12.531  0.1477 -0.4917 -0.3862
   38MPD2    C3  592   1.998   1.908  12.457  0.3796 -0.6269 -0.1559
   38MPD2    C4  593   1.866   1.912  12.487  0.7347 -0.7712 -0.0284
   38MPD2    C5  594   1.808   1.856  12.598  0.5724  0.4127 -0.2457
   38MPD2     H  595   2.186   1.815  12.515  0.4462 -0.9845  1.9311
   38MPD2    H1  596   1.804   1.975  12.425  1.6391 -2.4091 -2.6219
   38MPD2    H2  597   1.855   1.718  12.764  1.0031 -0.7486 -0.2265
   38MPD2    H3  598   1.700   1.860  12.608  0.3483 -2.0700 -1.5205
   38MPD2     N  599   2.055   1.984  12.351 -0.0346  0.0349 -0.0291
   38MPD2    H5  600   2.142   1.946  12.315  0.3915  2.1761 -1.3327
   38MPD2    N1  601   2.121   1.719  12.742  0.2090 -0.2439  0.2945
   38MPD2    H7  602   2.218   1.718  12.712 -0.5152 -1.1421 -2.0217
   39TMC2    C1  603   1.256   3.675   1.386  0.5659  0.3028 -0.8085
   39TMC2    C2  604   1.379   3.658   1.327  1.1809  0.5807 -0.4035
   39TMC2    C3  605   1.466   3.763   1.343 -0.6661  0.5514 -0.3089
   39TMC2    C4  606   1.228   3.771   1.478  0.0651  0.4994 -0.6742
   39TMC2    C5  607   1.310   3.880   1.481 -0.1201 -0.3257  0.4945
   39TMC2    C6  608   1.423   3.883   1.401 -0.2771 -0.1950 -0.7598
   39TMC2     C  609   1.150   3.581   1.357  0.1039  0.2833  0.1644
   39TMC2     O  610   1.049   3.610   1.413  0.3626  0.4391  0.3641
   39TMC2     H  611   1.404   3.582   1.255  0.5990 -0.5119  0.5409
   39TMC2    H1  612   1.132   3.761   1.526  0.9209 -2.7447  0.4264
   39TMC2    H2  613   1.482   3.974   1.392 -1.5408  0.4936 -2.0983
   39TMC2    C7  614   1.255   3.999   1.542  0.3101 -1.1964 -0.2787
   39TMC2    C8  615   1.553   3.778   1.224  0.1321  0.1369  0.3780
   39TMC2    O1  616   1.150   3.980   1.606  0.1956 -1.0243 -0.6557
   39TMC2    O2  617   1.527   3.728   1.116 -0.3781 -0.1621  0.1368
   39TMC2    O5  618   1.624   3.893   1.239  0.4791  0.0232  0.1666
   39TMC2    H5  619   1.663   3.890   1.329  1.8495  0.2990 -0.4224
   40MPD2     C  620   1.159   3.264   1.173 -0.1907 -0.2646  0.7765
   40MPD2    C1  621   1.096   3.373   1.234  0.6019  0.6067  0.4014
   40MPD2    C2  622   0.958   3.358   1.249  0.0662 -0.1252 -0.2657
   40MPD2    C3  623   0.879   3.248   1.199 -0.2642 -0.9618 -0.5135
   40MPD2    C4  624   0.948   3.153   1.126  0.7133 -0.2990  0.1971
   40MPD2    C5  625   1.079   3.168   1.118 -0.5683 -0.7414  0.7645
   40MPD2     H  626   0.909   3.438   1.302  0.0433  1.1004 -2.1531
   40MPD2    H1  627   0.902   3.060   1.094  0.7726 -0.4821  0.6465
   40MPD2    H2  628   1.266   3.266   1.154 -0.5057 -0.5606 -1.0990
   40MPD2    H3  629   1.127   3.091   1.058 -2.9520 -0.6761 -1.2586
   40MPD2     N  630   0.737   3.234   1.219 -0.4276 -0.0479 -0.0140
   40MPD2    H5  631   0.692   3.153   1.176  1.7308 -1.8722  1.1539
   40MPD2    N1  632   1.184   3.473   1.280  0.3344 -0.0849  0.2715
   40MPD2    H7  633   1.280   3.457   1.249 -0.7255 -0.8279 -2.6271
   41TMC2    C1  634   4.219   1.633  14.005 -0.5384  0.5261  0.5327
   41TMC2    C2  635   4.116   1.556  13.958 -0.7820  0.2015  0.1901
   41TMC2    C3  636   4.097   1.537  13.826  0.0226  0.6523  0.6041
   41TMC2    C4  637   4.314   1.677  13.922 -0.0318  0.0373 -0.2063
   41TMC2    C5  638   4.296   1.657  13.785  0.2071  0.1504  0.2870
   41TMC2    C6  639   4.182   1.591  13.733  1.0535 -0.0276  0.2447
   41TMC2     C  640   4.230   1.666  14.142  0.5290  0.4968  0.1499
   41TMC2     O  641   4.182   1.582  14.216 -0.3571 -0.2914  0.3448
   41TMC2     H  642   4.049   1.509  14.030 -1.6220  0.3925 -0.4665
   41TMC2    H1  643   4.413   1.705  13.956 -0.9789  1.8373  1.0167
   41TMC2    H2  644   4.171   1.554  13.632  0.0251  2.7685 -0.6513
   41TMC2    C7  645   4.390   1.722  13.690  0.3794  0.3604 -0.2612
   41TMC2    C8  646   4.033   1.415  13.782  0.2146  0.1233  0.1868
   41TMC2    O1  647   4.500   1.745  13.740 -0.4259 -0.1839  0.2664
   41TMC2    O2  648   4.052   1.304  13.837 -0.5865 -0.5840 -0.4319
   41TMC2    O5  649   3.952   1.442  13.679 -0.1262 -0.0087  0.0118
   41TMC2    H5  650   3.944   1.538  13.664  2.7844  0.0923 -0.9249
   42MPD2     C  651   4.266   1.782  14.409  0.6864 -0.2633 -0.1817
   42MPD2    C1  652   4.296   1.845  14.288 -0.6896  0.4687 -0.0515
   42MPD2    C2  653   4.359   1.970  14.297  0.4955 -0.0922 -0.0539
   42MPD2    C3  654   4.370   2.035  14.418 -0.1197 -0.0658  0.4752
   42MPD2    C4  655   4.339   1.974  14.536  0.3969 -0.5660  0.2171
   42MPD2    C5  656   4.289   1.848  14.531 -0.5617  0.2584 -0.3718
   42MPD2     H  657   4.386   2.019  14.204 -0.0256 -0.4191 -0.3812
   42MPD2    H1  658   4.350   2.025  14.630 -0.1662 -1.8941  1.0078
   42MPD2    H2  659   4.216   1.686  14.414  1.1624 -0.4719  0.4962
   42MPD2    H3  660   4.258   1.792  14.618  0.9605  1.6531  1.0683
   42MPD2     N  661   4.408   2.171  14.431  0.0690  0.0726  0.0679
   42MPD2    H5  662   4.410   2.211  14.525  1.4373  3.0648 -1.2081
   42MPD2    N1  663   4.284   1.784  14.170  0.2911 -0.2717 -0.1134
   42MPD2    H7  664   4.331   1.821  14.087 -2.1262  0.5830 -1.1093
   43TMC2    C1  665   0.841   0.141   0.345 -0.1391 -0.5308  0.0973
   43TMC2    C2  666   0.721   0.125   0.279  0.3476 -1.0016  0.0910
   43TMC2    C3  667   0.617   0.190   0.322 -0.2774  0.2185  0.0462
   43TMC2    C4  668   0.849   0.215   0.461 -0.9493 -0.4555  0.2007
   43TMC2    C5  669   0.731   0.276   0.509  0.1034  0.1951  1.1002
   43TMC2    C6  670   0.611   0.273   0.437 -0.6274  0.6728  0.1569
   43TMC2     C  671   0.966   0.128   0.280 -0.3493  0.3006 -0.2585
   43TMC2     O  672   1.069   0.117   0.348 -0.3568  0.2485 -0.0012
   43TMC2     H  673   0.709   0.060   0.192 -0.2673 -1.2454  0.3602
   43TMC2    H1  674   0.942   0.208   0.516  0.0140 -0.2355 -1.3819
   43TMC2    H2  675   0.518   0.316   0.470 -2.0241 -2.0439 -0.2235
   43TMC2    C7  676   0.742   0.392   0.600 -0.6086 -0.8737  0.6083
   43TMC2    C8  677   0.501   0.178   0.238 -0.3210  0.3191 -0.1605
   43TMC2    O1  678   0.650   0.473   0.590  0.2385 -0.0377 -0.3297
   43TMC2    O2  679   0.474   0.074   0.182 -0.0453 -0.2636 -0.1267
   43TMC2    O5  680   0.424   0.283   0.249 -0.6424  0.1064  0.2140
   43TMC2    H5  681   0.458   0.370   0.280  1.2289 -0.6907  0.3686
   44MPD2     C  682   1.227   0.047  17.617  0.5388 -1.0117  0.2600
   44MPD2    C1  683   1.271   0.038  17.747 -0.9182 -0.1418 -0.4088
   44MPD2    C2  684   1.177   0.078   0.076 -0.0065  0.3705  0.0154
   44MPD2    C3  685   1.042   0.096   0.042 -0.2165  0.6405  0.2777
   44MPD2    C4  686   1.012   0.093  17.669  0.1704 -0.3230 -0.3953
   44MPD2    C5  687   1.102   0.067  17.573  0.2825  0.6265  0.2951
   44MPD2     H  688   1.211   0.077   0.179 -1.0528  0.5379  0.3667
   44MPD2    H1  689   0.907   0.103  17.644  0.2376 -0.8198 -0.8772
   44MPD2    H2  690   1.294   0.018  17.536  1.7763  1.5228  0.3531
   44MPD2    H3  691   1.070   0.061  17.469 -3.5413 -0.3038  1.5323
   44MPD2     N  692   0.947   0.118   0.143 -0.3040  0.2285  0.1284
   44MPD2    H5  693   0.849   0.125   0.115  0.5956 -0.0230 -3.0953
   44MPD2    N1  694   1.413   0.024   0.012  0.5487 -0.1608  0.0849
   44MPD2    H7  695   1.450   0.043   0.104  1.7410 -0.9516 -0.2371
   45TMC2    C1  696   1.413   2.807  10.114  0.1603 -0.9366  0.3908
   45TMC2    C2  697   1.363   2.876  10.003  0.1471 -0.4841 -0.0438
   45TMC2    C3  698   1.355   3.009  10.007  0.8223  0.2803 -0.0972
   45TMC2    C4  699   1.463   2.875  10.217  0.6162  0.4511 -0.5221
   45TMC2    C5  700   1.456   3.009  10.212  0.1094 -0.0834 -0.3810
   45TMC2    C6  701   1.404   3.085  10.109  0.3749  0.5085 -0.6219
   45TMC2     C  702   1.335   2.695  10.150 -0.5623  0.3616 -0.1399
   45TMC2     O  703   1.356   2.653  10.259 -0.9686  0.3835  0.1378
   45TMC2     H  704   1.310   2.834   9.919 -1.6573  0.0189  0.8297
   45TMC2    H1  705   1.472   2.831  10.315 -0.6311 -0.8806 -1.0139
   45TMC2    H2  706   1.436   3.188  10.105  2.2009  0.0356  1.8999
   45TMC2    C7  707   1.540   3.087  10.295  1.2525  1.4872  0.4016
   45TMC2    C8  708   1.366   3.067   9.876 -0.5795  0.1777 -0.2403
   45TMC2    O1  709   1.518   3.203  10.320 -0.0082  0.1452  0.3257
   45TMC2    O2  710   1.329   3.183   9.848 -0.2505 -0.3511  0.4527
   45TMC2    O5  711   1.458   3.001   9.802  0.4521  0.1888 -0.1505
   45TMC2    H5  712   1.477   2.911   9.838  0.2484  0.3005  0.2383
   46MPD2     C  713   1.199   2.432  10.129 -0.0179 -0.1784  0.1187
   46MPD2    C1  714   1.142   2.552  10.097 -0.3465 -0.6673  0.1382
   46MPD2    C2  715   1.003   2.561  10.092 -0.0981  0.5342  0.2677
   46MPD2    C3  716   0.926   2.451  10.126 -0.4370 -0.0733  0.4468
   46MPD2    C4  717   0.980   2.328  10.154  0.9083  0.0089  0.5221
   46MPD2    C5  718   1.117   2.322  10.157 -0.0414  0.7833 -0.0872
   46MPD2     H  719   0.960   2.660  10.079 -0.3605  0.4463  0.4604
   46MPD2    H1  720   0.928   2.236  10.179  1.0165  0.3042  1.8596
   46MPD2    H2  721   1.307   2.426  10.137  0.0144  0.5209  0.1923
   46MPD2    H3  722   1.171   2.231  10.177  0.4075  0.8971 -0.7677
   46MPD2     N  723   0.787   2.482  10.151  0.4784 -0.3268 -0.3450
   46MPD2    H5  724   0.756   2.573  10.120 -2.2430 -0.5726  1.7203
   46MPD2    N1  725   1.217   2.673  10.082  0.2588  0.6796 -0.2049
   46MPD2    H7  726   1.176   2.755  10.038 -1.2802  1.0648  1.9182
   47TMC2    C1  727   4.562   2.369   9.188 -0.1799 -0.1943  0.0492
   47TMC2    C2  728   4.582   2.451   9.083  0.3744  0.6772 -1.0095
   47TMC2    C3  729   4.466   2.504   9.023  0.6483 -0.4767 -0.1047
   47TMC2    C4  730   4.435   2.341   9.238  0.5110  0.3058  0.0883
   47TMC2    C5  731   4.328   2.402   9.180  0.2617  0.5183  0.7071
   47TMC2    C6  732   4.339   2.473   9.061  0.0895  0.2434 -0.0980
   47TMC2     C  733   4.676   2.316   9.256  0.4689  0.4304  0.1176
   47TMC2     O  734   0.042   2.347   9.209  0.3167  0.0369 -0.0160
   47TMC2     H  735   4.683   2.469   9.048  0.5883  0.6133 -0.4220
   47TMC2    H1  736   4.423   2.298   9.337  0.5140  0.2384  0.0591
   47TMC2    H2  737   4.251   2.519   9.017  0.0797 -0.5172 -0.8789
   47TMC2    C7  738   4.196   2.333   9.185  0.0294 -0.3139 -0.3480
   47TMC2    C8  739   4.487   2.599   8.917 -0.2893 -0.2627 -0.2110
   47TMC2    O1  740   4.106   2.388   9.123 -0.5284 -0.0806 -0.4227
   47TMC2    O2  741   4.592   2.659   8.925 -0.3565  0.3483 -0.1529
   47TMC2    O5  742   4.451   2.539   8.799  0.2659  0.4596 -0.5110
   47TMC2    H5  743   4.384   2.467   8.803  0.3515  0.4477  0.7589
   48MPD2     C  744   0.145   2.224   9.446  0.0979 -0.2796 -0.2649
   48MPD2    C1  745   0.013   2.207   9.465 -0.0053  0.8734 -0.7786
   48MPD2    C2  746   4.710   2.147   9.581  0.3101  0.0803  0.2355
   48MPD2    C3  747   0.052   2.101   9.679 -0.0994 -0.0438 -0.7401
   48MPD2    C4  748   0.184   2.115   9.657 -0.1186 -0.3927  0.3677
   48MPD2    C5  749   0.229   2.172   9.541 -0.0766 -0.0134  0.7329
   48MPD2     H  750   4.602   2.145   9.586  0.3278  1.4670  1.3148
   48MPD2    H1  751   0.254   2.085   9.734  1.1758 -1.4948 -1.2210
   48MPD2    H2  752   0.197   2.280   9.369 -1.6750  1.2089 -0.4066
   48MPD2    H3  753   0.337   2.163   9.542 -0.1775 -1.1276  1.8265
   48MPD2     N  754   4.730   2.033   9.787  0.2821 -0.4675 -0.6205
   48MPD2    H5  755   4.630   2.037   9.799 -0.0095  0.7706 -3.4265
   48MPD2    N1  756   4.656   2.241   9.368 -0.1758  0.3087  0.0184
   48MPD2    H7  757   4.560   2.219   9.394  0.8064 -1.9916  1.7058
   49TMC2    C1  758   1.073   4.363  10.643 -0.1012  0.0778  0.3828
   49TMC2    C2  759   1.049   4.304  10.519  0.0568 -0.0560 -0.6900
   49TMC2    C3  760   0.949   4.208  10.517 -0.1855  0.4220  0.0780
   49TMC2    C4  761   1.002   4.329  10.755  0.0565 -0.0133 -0.1528
   49TMC2    C5  762   0.912   4.222  10.747 -0.0216 -0.3905 -0.1391
   49TMC2    C6  763   0.886   4.165  10.630  0.9317  0.1381  0.1125
   49TMC2     C  764   1.185   4.442  10.648  0.4139  0.7064  0.1112
   49TMC2     O  765   1.213   4.500  10.541  0.2951  0.0867  0.0989
   49TMC2     H  766   1.086   4.339  10.423 -1.5047  0.5718 -1.0647
   49TMC2    H1  767   1.014   4.389  10.845 -0.1900 -2.7599  1.7104
   49TMC2    H2  768   0.813   4.086  10.623  0.8865  0.2159 -0.3220
   49TMC2    C7  769   0.802   4.224  10.834 -0.3653 -0.7020 -0.0741
   49TMC2    C8  770   0.915   4.165  10.384  0.3067 -0.0262 -0.1475
   49TMC2    O1  771   0.692   4.186  10.791  0.5656 -0.0982  0.0185
   49TMC2    O2  772   0.924   4.244  10.292  1.1284 -0.0621 -0.5868
   49TMC2    O5  773   0.878   4.036  10.379 -0.0741 -0.0623 -0.0109
   49TMC2    H5  774   0.909   3.981  10.455  0.7965  0.8385  0.2858
   50MPD2     C  775   1.437   4.580  10.734 -0.1105 -0.2946 -0.5938
   50MPD2    C1  776   1.381   4.474  10.801 -0.7805 -0.1544  0.5555
   50MPD2    C2  777   1.431   4.440  10.926 -0.2238  0.1020  0.5013
   50MPD2    C3  778   1.553   4.487  10.971 -0.0860  0.3331  0.2791
   50MPD2    C4  779   1.609   4.584  10.894  0.3791 -0.1384 -0.5797
   50MPD2    C5  780   1.556   4.627  10.779  0.5942  0.4237  0.2144
   50MPD2     H  781   1.375   4.363  10.978  0.6599 -1.4146 -0.7966
   50MPD2    H1  782   1.711   4.614  10.919 -0.5568  3.2642 -0.8931
   50MPD2    H2  783   1.417   4.622  10.635  3.4232 -0.3111 -1.3008
   50MPD2    H3  784   1.619   4.683  10.711  1.1584 -0.5210 -0.0309
   50MPD2     N  785   1.629   4.448  11.084  0.6487  0.1045  0.1065
   50MPD2    H5  786   1.712   4.507  11.089 -0.8384  2.3298 -1.6106
   50MPD2    N1  787   1.253   4.417  10.765 -0.4541 -0.3104  0.2049
   50MPD2    H7  788   1.212   4.353  10.832 -0.3900  0.0216  0.5598
   51TMC2    C1  789   4.110   2.861   1.360 -1.1040 -0.1004 -0.4339
   51TMC2    C2  790   4.234   2.905   1.407 -0.6089  0.5213 -0.0415
   51TMC2    C3  791   4.236   3.012   1.487 -0.0082  0.4714 -0.5434
   51TMC2    C4  792   4.002   2.934   1.389  0.5293  0.0083 -0.0545
   51TMC2    C5  793   4.000   3.038   1.474  0.1873 -0.5434 -0.2072
   51TMC2    C6  794   4.124   3.091   1.513  0.4785 -0.5431 -0.3544
   51TMC2     C  795   4.090   2.737   1.291 -0.4233  0.8844  0.4880
   51TMC2     O  796   3.992   2.729   1.223 -0.4783 -0.5630 -0.4104
   51TMC2     H  797   4.326   2.851   1.388 -0.0692  0.7997  1.7817
   51TMC2    H1  798   3.905   2.890   1.366  0.5281  0.3053 -0.6094
   51TMC2    H2  799   4.125   3.184   1.569 -1.7378 -1.4763  1.2598
   51TMC2    C7  800   3.898   3.138   1.444 -0.3366  0.0665  0.2399
   51TMC2    C8  801   4.363   3.076   1.535 -0.3803 -0.6612  0.5072
   51TMC2    O1  802   3.935   3.253   1.459 -0.0967  0.1254 -0.6771
   51TMC2    O2  803   4.372   3.155   1.630 -0.1551  0.0939 -0.1730
   51TMC2    O5  804   4.441   3.088   1.430  0.3010  0.0741 -0.2835
   51TMC2    H5  805   4.410   3.051   1.344 -0.2047  2.5624 -1.1714
   52MPD2     C  806   4.189   2.277   1.099  0.3362 -0.3989  0.2644
   52MPD2    C1  807   4.072   2.336   1.133  0.4426 -0.1950  0.1233
   52MPD2    C2  808   4.081   2.450   1.202  0.3712 -0.1692  0.8475
   52MPD2    C3  809   4.196   2.521   1.226  0.5148  0.5784  0.3843
   52MPD2    C4  810   4.315   2.455   1.191  0.2050 -0.9730  1.0415
   52MPD2    C5  811   4.306   2.332   1.138 -0.0788 -0.2692  0.3155
   52MPD2     H  812   3.991   2.508   1.215 -0.3652 -0.2618 -3.7394
   52MPD2    H1  813   4.415   2.492   1.212 -0.2398  2.7465 -3.2194
   52MPD2    H2  814   4.197   2.183   1.044 -1.1510  0.0662 -0.7673
   52MPD2    H3  815   4.398   2.276   1.129  0.5390  0.7942 -0.0281
   52MPD2     N  816   4.195   2.647   1.296  0.1335 -0.0961  0.3392
   52MPD2    H5  817   4.281   2.670   1.345  0.8724 -0.1348 -0.9466
   52MPD2    N1  818   3.944   2.279   1.101  0.4634 -0.2161  0.1311
   52MPD2    H7  819   3.864   2.339   1.120 -1.6583 -3.1628  0.5561
   53TMC2    C1  820   3.054   2.043  11.946  0.4602 -0.3695 -0.6532
   53TMC2    C2  821   3.078   1.924  11.896  0.1842  0.1599 -0.5852
   53TMC2    C3  822   3.038   1.816  11.966  0.0079 -0.6450 -0.3164
   53TMC2    C4  823   3.023   2.059  12.079  1.1599 -0.4111 -0.5732
   53TMC2    C5  824   2.982   1.948  12.153 -0.2116 -0.2493  0.2308
   53TMC2    C6  825   2.983   1.829  12.091  0.0694 -0.1053 -0.5979
   53TMC2     C  826   3.006   2.149  11.864  0.7160 -0.1604 -0.1542
   53TMC2     O  827   3.058   2.167  11.756 -0.0780 -0.4499 -0.0343
   53TMC2     H  828   3.086   1.916  11.788 -0.2710 -1.2621 -0.5159
   53TMC2    H1  829   3.014   2.157  12.124 -0.2547 -1.0450  0.5080
   53TMC2    H2  830   2.965   1.743  12.154  0.1259  0.3779  0.0707
   53TMC2    C7  831   2.864   1.966  12.226  0.0703  0.1072  0.3823
   53TMC2    C8  832   3.036   1.691  11.904  1.2472 -0.6102  0.3895
   53TMC2    O1  833   2.799   2.067  12.201  0.0319  0.3612 -0.6009
   53TMC2    O2  834   2.965   1.595  11.935  0.1122  0.1213  0.5825
   53TMC2    O5  835   3.160   1.684  11.850  0.0437  0.5879  0.1275
   53TMC2    H5  836   3.210   1.766  11.832  0.3072  0.1440 -1.1424
   54MPD2     C  837   2.781   2.295  11.720 -0.0463  0.4866 -0.4714
   54MPD2    C1  838   2.774   2.232  11.841 -0.3954  0.1187  0.2593
   54MPD2    C2  839   2.646   2.199  11.890 -0.7081 -0.0523 -0.1398
   54MPD2    C3  840   2.533   2.230  11.813 -0.2335 -0.2377 -0.1639
   54MPD2    C4  841   2.554   2.297  11.693  0.2872  0.2709  0.3055
   54MPD2    C5  842   2.676   2.337  11.646  0.5897 -0.4679  0.4627
   54MPD2     H  843   2.641   2.156  11.989 -3.3827 -0.3030 -0.3727
   54MPD2    H1  844   2.469   2.297  11.626  0.5440  3.3852  0.0029
   54MPD2    H2  845   2.873   2.342  11.684  0.4253 -0.7234 -0.8439
   54MPD2    H3  846   2.691   2.387  11.551  0.1884 -0.4918  0.3894
   54MPD2     N  847   2.401   2.213  11.866  0.0408 -0.4849 -0.3926
   54MPD2    H5  848   2.325   2.231  11.802  0.7335 -0.2060 -1.1391
   54MPD2    N1  849   2.883   2.177  11.910  0.0496 -0.5501 -0.3790
   54MPD2    H7  850   2.858   2.131  11.997 -0.0932  0.2228 -0.0057
   55TMC2    C1  851   4.104   0.666   1.311 -0.0795  0.1967 -0.4620
   55TMC2    C2  852   4.167   0.762   1.390 -0.0152 -0.2974  0.2521
   55TMC2    C3  853   4.305   0.761   1.404  0.0980  1.0419  0.0502
   55TMC2    C4  854   4.177   0.564   1.250 -0.5727  0.2127  0.5715
   55TMC2    C5  855   4.311   0.559   1.275  0.0160 -0.1426  0.1514
   55TMC2    C6  856   4.380   0.661   1.345 -0.0335  0.3788  0.0919
   55TMC2     C  857   3.962   0.662   1.308  0.0064  0.3249 -1.1003
   55TMC2     O  858   3.913   0.552   1.301 -0.3622  0.3202  0.2053
   55TMC2     H  859   4.099   0.818   1.453  1.0159 -1.7973  2.7081
   55TMC2    H1  860   4.123   0.486   1.197 -0.2855  1.1348 -1.0906
   55TMC2    H2  861   4.488   0.667   1.348 -0.0248 -0.3565  1.1329
   55TMC2    C7  862   4.392   0.447   1.227 -0.1592  0.5970  0.5113
   55TMC2    C8  863   4.357   0.819   1.519 -0.4066 -0.6196  0.3895
   55TMC2    O1  864   4.503   0.467   1.178 -0.2749  0.2620  0.0871
   55TMC2    O2  865   4.438   0.764   1.593 -0.6525 -0.0077  0.1974
   55TMC2    O5  866   4.293   0.931   1.548  0.3841  0.7561 -0.3362
   55TMC2    H5  867   4.226   0.960   1.482 -0.3784 -1.3713 -0.4855
   56MPD2     C  868   3.763   0.940   1.198  0.8522  0.2597  0.0415
   56MPD2    C1  869   3.780   0.817   1.248  0.1385  0.0963 -0.5141
   56MPD2    C2  870   3.674   0.727   1.240  0.3243 -0.5714 -0.2786
   56MPD2    C3  871   3.554   0.764   1.182  0.4425 -0.1883  0.1545
   56MPD2    C4  872   3.535   0.893   1.137 -0.0452  0.6615 -0.1011
   56MPD2    C5  873   3.644   0.978   1.142  0.4468 -0.1510  0.3933
   56MPD2     H  874   3.680   0.625   1.275 -0.9215 -0.9281 -1.1275
   56MPD2    H1  875   3.442   0.935   1.099 -0.7170 -0.1080  0.6903
   56MPD2    H2  876   3.846   1.010   1.198  0.6683  0.4756  0.0693
   56MPD2    H3  877   3.635   1.077   1.099 -2.0436 -0.3916  0.3820
   56MPD2     N  878   3.448   0.676   1.161 -0.3211  0.5351  0.0226
   56MPD2    H5  879   3.374   0.715   1.105 -1.5403  2.4397  2.9567
   56MPD2    N1  880   3.906   0.785   1.304  0.1757 -0.9998 -0.9074
   56MPD2    H7  881   3.973   0.860   1.306 -0.4804 -0.3957 -1.8643
   57TMC2    C1  882   3.167   0.729  14.025 -0.3788  0.2702 -0.3975
   57TMC2    C2  883   3.263   0.663  14.096  0.0996  0.3241  0.2704
   57TMC2    C3  884   3.343   0.579  14.024 -0.3453  0.5769  0.3559
   57TMC2    C4  885   3.158   0.717  13.885  0.1465 -0.0524 -0.3442
   57TMC2    C5  886   3.235   0.625  13.823 -0.3910 -0.1570  0.0704
   57TMC2    C6  887   3.328   0.549  13.890  0.0547  1.0023 -0.0179
   57TMC2     C  888   3.049   0.800  14.079 -0.1078  0.5734  0.4578
   57TMC2     O  889   2.960   0.807  13.997 -0.6364  0.1373  0.1548
   57TMC2     H  890   3.264   0.675  14.204  0.0099 -1.4465  0.4664
   57TMC2    H1  891   3.094   0.782  13.826 -1.3171  2.1253  3.6152
   57TMC2    H2  892   3.378   0.465  13.842 -1.0779  0.3567 -0.0655
   57TMC2    C7  893   3.215   0.615  13.683  0.0189  0.4602  0.1497
   57TMC2    C8  894   3.434   0.484  14.091  0.1580  0.3745 -0.4484
   57TMC2    O1  895   3.098   0.627  13.652 -0.3458  0.1296  0.5611
   57TMC2    O2  896   3.446   0.369  14.046 -0.6732 -0.2851 -0.2190
   57TMC2    O5  897   3.468   0.526  14.214  0.7562 -0.0244  0.1836
   57TMC2    H5  898   3.441   0.619  14.231 -2.5418 -1.0378  0.5496
   58MPD2     C  899   2.706   0.971  14.424 -0.2471 -0.2108  0.2635
   58MPD2    C1  900   2.699   0.946  14.288 -0.0250 -0.6065  0.1124
   58MPD2    C2  901   2.810   0.893  14.220  0.0301  0.3398 -0.3538
   58MPD2    C3  902   2.930   0.867  14.281 -0.1355  0.9974  0.7052
   58MPD2    C4  903   2.935   0.888  14.417  0.3491  0.1474  0.6271
   58MPD2    C5  904   2.823   0.936  14.483 -0.1384  0.3062 -0.0078
   58MPD2     H  905   2.801   0.880  14.113  0.7400  0.2603 -0.4023
   58MPD2    H1  906   3.026   0.862  14.469  0.2814  1.8293  1.5846
   58MPD2    H2  907   2.622   1.016  14.476 -0.3387  0.5718 -0.5604
   58MPD2    H3  908   2.824   0.949  14.590 -2.0590 -2.6939  0.3821
   58MPD2     N  909   3.041   0.810  14.219 -0.2509 -0.7715 -0.6207
   58MPD2    H5  910   3.119   0.797  14.282 -2.2117 -0.5468  1.8228
   58MPD2    N1  911   2.579   0.968  14.213  0.4489 -0.1573  0.2593
   58MPD2    H7  912   2.573   0.946  14.114  0.4985  0.6075  0.0911
   59TMC2    C1  913   0.500   1.305  13.247  0.2830  0.6919 -1.2033
   59TMC2    C2  914   0.593   1.394  13.195 -0.0866 -0.0692 -0.5115
   59TMC2    C3  915   0.562   1.451  13.072 -0.5489  0.4821 -0.0058
   59TMC2    C4  916   0.384   1.271  13.176  0.1412  0.6988  0.0390
   59TMC2    C5  917   0.363   1.331  13.051  0.4925  0.2131 -0.7385
   59TMC2    C6  918   0.449   1.422  12.997 -0.1276 -0.3277  0.3652
   59TMC2     C  919   0.489   1.261  13.385  0.6173  0.3482  0.2879
   59TMC2     O  920   0.383   1.219  13.425  0.5557 -0.2897 -0.1699
   59TMC2     H  921   0.677   1.437  13.249 -0.6111  1.0847 -0.6277
   59TMC2    H1  922   0.313   1.199  13.216  0.3606  1.6011  2.0892
   59TMC2    H2  923   0.432   1.482  12.908  0.3118  0.3690  0.7477
   59TMC2    C7  924   0.246   1.296  12.974 -0.8828  0.1509  0.2241
   59TMC2    C8  925   0.661   1.517  12.989  0.4872 -0.5384 -0.0628
   59TMC2    O1  926   0.160   1.229  13.032 -0.6328 -0.2754  0.1252
   59TMC2    O2  927   0.631   1.583  12.892  0.2149  0.4688 -0.5142
   59TMC2    O5  928   0.787   1.476  13.030  0.5062 -0.1620  0.0249
   59TMC2    H5  929   0.784   1.415  13.108 -0.0566  0.8445  0.7895
   60MPD2     C  930   0.560   1.162  13.643  0.0937 -0.4483  0.5500
   60MPD2    C1  931   0.651   1.230  13.568  0.0559  0.0328  0.4413
   60MPD2    C2  932   0.772   1.265  13.626  0.6028  0.4117  0.4652
   60MPD2    C3  933   0.810   1.206  13.754  1.2469 -0.1226  0.5545
   60MPD2    C4  934   0.719   1.126  13.817  0.7623 -0.1847  0.6631
   60MPD2    C5  935   0.591   1.105  13.767 -0.3470 -0.1080  0.3463
   60MPD2     H  936   0.847   1.312  13.563 -0.3390  0.5251 -0.5790
   60MPD2    H1  937   0.755   1.071  13.904  1.4131 -0.0606  0.4702
   60MPD2    H2  938   0.457   1.138  13.620 -0.1645  2.1019 -0.9290
   60MPD2    H3  939   0.524   1.041  13.823  0.8048 -1.9858 -0.4295
   60MPD2     N  940   0.933   1.215  13.817 -0.0079  0.0783  0.0889
   60MPD2    H5  941   0.940   1.170  13.908 -4.9952  1.4816  1.1419
   60MPD2    N1  942   0.616   1.281  13.446  0.0374  0.2890  0.5359
   60MPD2    H7  943   0.692   1.324  13.395  0.8666 -1.4242  0.3482
   61TMC2    C1  944   0.259   2.307  14.770 -0.7613  0.1470 -0.6374
   61TMC2    C2  945   0.394   2.301  14.785  0.4212  0.2589  0.1617
   61TMC2    C3  946   0.463   2.384  14.871 -0.3969 -0.7342 -0.6009
   61TMC2    C4  947   0.187   2.406  14.837 -0.9089  0.7700 -0.3126
   61TMC2    C5  948   0.254   2.486  14.924  0.7284 -0.1693  0.0389
   61TMC2    C6  949   0.393   2.473  14.947 -0.1033  0.0292  0.3279
   61TMC2     C  950   0.195   2.251  14.650 -0.2471 -0.0090  0.1444
   61TMC2     O  951   0.074   2.243  14.652  0.4572 -0.0730  0.5964
   61TMC2     H  952   0.455   2.225  14.737 -0.5464  0.4197 -1.2980
   61TMC2    H1  953   0.080   2.409  14.824 -0.8048  2.5085 -0.6947
   61TMC2    H2  954   0.437   2.552  15.006 -1.5909  0.9943  0.1387
   61TMC2    C7  955   0.204   2.610  14.979 -0.5559  0.8026  0.2688
   61TMC2    C8  956   0.609   2.379  14.868  0.6269  0.2320  1.1288
   61TMC2    O1  957   0.264   2.659  15.070  0.1175  0.0993 -0.4433
   61TMC2    O2  958   0.670   2.306  14.790  0.3397 -0.4421  0.3701
   61TMC2    O5  959   0.656   2.447  14.974 -0.2585 -0.1886  0.6654
   61TMC2    H5  960   0.591   2.510  15.012  0.7884  0.8861  0.6788
   62MPD2     C  961   0.118   2.145  14.391  0.0999  1.0976 -0.2642
   62MPD2    C1  962   0.243   2.200  14.413  1.0001 -0.3557 -0.1232
   62MPD2    C2  963   0.334   2.211  14.306  0.3178  0.6897 -0.1564
   62MPD2    C3  964   0.299   2.169  14.171 -0.1330 -0.4320 -0.2140
   62MPD2    C4  965   0.172   2.118  14.156  1.2407 -0.2330  0.2190
   62MPD2    C5  966   0.086   2.099  14.263 -0.7418  0.3646 -0.5473
   62MPD2     H  967   0.425   2.267  14.322  0.4988  0.2374  0.3884
   62MPD2    H1  968   0.140   2.074  14.062  2.2836 -1.9543  0.6744
   62MPD2    H2  969   0.048   2.124  14.471 -0.0878  1.0810 -0.4306
   62MPD2    H3  970   4.733   2.053  14.240 -1.8749  2.5623 -0.2988
   62MPD2     N  971   0.389   2.182  14.061  0.2985 -0.8931  0.6861
   62MPD2    H5  972   0.354   2.170  13.966  2.2746 -0.7712 -0.0579
   62MPD2    N1  973   0.284   2.248  14.544  0.0889 -0.2403  0.2543
   62MPD2    H7  974   0.380   2.277  14.557  0.0758  0.6889 -1.6350
   63TMC2    C1  975   4.054   2.833  10.201  0.9489 -0.3627 -0.0461
   63TMC2    C2  976   4.145   2.910  10.270 -0.7711 -0.1326 -0.1437
   63TMC2    C3  977   4.155   3.043  10.227 -0.6190  0.7544 -0.1794
   63TMC2    C4  978   3.999   2.877  10.092 -0.9066  0.3398  0.3544
   63TMC2    C5  979   4.007   3.012  10.049 -0.3535  0.6591 -0.3346
   63TMC2    C6  980   4.090   3.097  10.119  0.0812  0.1350  0.3561
   63TMC2     C  981   3.967   2.743  10.272 -0.0731  0.4260  0.4932
   63TMC2     O  982   3.858   2.718  10.232  0.5299  0.1593 -0.5960
   63TMC2     H  983   4.186   2.880  10.366 -0.5193 -0.7017 -0.4289
   63TMC2    H1  984   3.925   2.818  10.040 -0.1216 -0.2754 -0.0536
   63TMC2    H2  985   4.091   3.201  10.089 -0.4479 -0.6406 -2.3299
   63TMC2    C7  986   3.891   3.062   9.982  0.3775 -0.5782  0.4588
   63TMC2    C8  987   4.261   3.123  10.292  0.8022  0.1647  0.2415
   63TMC2    O1  988   3.799   2.984   9.962 -0.4629 -1.0381 -0.2002
   63TMC2    O2  989   4.357   3.067  10.345  0.2008  0.1327  0.5653
   63TMC2    O5  990   4.250   3.250  10.249  0.2500  0.5015  0.2451
   63TMC2    H5  991   4.162   3.290  10.236 -0.2989 -0.4507  0.9605
   64MPD2     C  992   3.852   2.446  10.682  0.0377  0.0210 -0.4076
   64MPD2    C1  993   3.987   2.441  10.661  0.3311  0.3627 -0.7179
   64MPD2    C2  994   4.044   2.530  10.574 -0.4022 -0.0779 -0.5740
   64MPD2    C3  995   3.964   2.606  10.482 -0.3998  0.3542  0.5170
   64MPD2    C4  996   3.825   2.612  10.505  0.1137  0.0548 -0.2820
   64MPD2    C5  997   3.775   2.536  10.605 -0.6382 -0.0420  0.3467
   64MPD2     H  998   4.152   2.532  10.566 -0.3347  0.6162  0.5757
   64MPD2    H1  999   3.756   2.655  10.434  1.1031  0.7006 -0.8602
   64MPD2    H2 1000   3.789   2.382  10.745  0.3433  0.7001  0.5873
   64MPD2    H3 1001   3.667   2.534  10.612 -0.5958 -1.1801  0.7195
   64MPD2     N 1002   4.025   2.692  10.386  0.4143 -0.1252  0.5646
   64MPD2    H5 1003   4.127   2.698  10.388  0.4130  0.8290 -1.6275
   64MPD2    N1 1004   4.061   2.340  10.719 -0.0675  0.5519  0.0617
   64MPD2    H7 1005   4.158   2.344  10.689 -0.6635 -1.1802 -2.1566
   65TMC2    C1 1006   1.048   1.902  15.352 -0.5260  0.0249  0.0087
   65TMC2    C2 1007   1.075   1.851  15.222 -0.5899 -0.3939  0.6987
   65TMC2    C3 1008   1.052   1.937  15.121  0.2095  0.3435  0.4151
   65TMC2    C4 1009   1.013   2.032  15.371  0.1143 -0.0869  0.1519
   65TMC2    C5 1010   0.992   2.115  15.263 -0.4494  0.6301 -0.4805
   65TMC2    C6 1011   1.007   2.065  15.133  1.0431  0.0135  0.2440
   65TMC2     C 1012   1.077   1.814  15.471  0.4673 -0.6479  0.4664
   65TMC2     O 1013   1.097   1.867  15.581  0.4210 -0.5753 -0.0722
   65TMC2     H 1014   1.117   1.752  15.207  0.4685 -0.0368  1.3432
   65TMC2    H1 1015   1.015   2.066  15.474 -2.5475  1.6670 -0.3827
   65TMC2    H2 1016   0.993   2.127  15.045  1.9136 -1.4436 -0.9178
   65TMC2    C7 1017   0.922   2.239  15.274 -0.2929 -0.1929 -0.8918
   65TMC2    C8 1018   1.101   1.890  14.992 -0.4151 -0.6878 -0.0674
   65TMC2    O1 1019   0.880   2.294  15.179  0.1484 -0.4225  0.1424
   65TMC2    O2 1020   1.180   1.797  14.985  0.3198 -0.3077  0.1051
   65TMC2    O5 1021   1.001   1.926  14.913  0.5222 -0.3066  0.0787
   65TMC2    H5 1022   0.929   1.988  14.938  0.1062 -1.0650  0.7821
   66MPD2     C 1023   1.162   1.579  15.623 -0.2426  0.3110  0.7697
   66MPD2    C1 1024   1.069   1.577  15.523  0.0205 -0.5224 -0.4656
   66MPD2    C2 1025   1.009   1.460  15.489 -0.7163  0.1835 -0.0184
   66MPD2    C3 1026   1.021   1.348  15.571  0.5788 -0.0384  0.1897
   66MPD2    C4 1027   1.096   1.353  15.688  0.6369  0.0849  0.2805
   66MPD2    C5 1028   1.170   1.468  15.708 -0.5470 -0.7587 -0.1638
   66MPD2     H 1029   0.936   1.463  15.410 -1.1370 -0.9551  0.3241
   66MPD2    H1 1030   1.096   1.280  15.768  1.1659 -1.5801 -1.2483
   66MPD2    H2 1031   1.224   1.665  15.641 -0.1763  0.2301  0.9297
   66MPD2    H3 1032   1.238   1.464  15.791 -0.8091  0.1122  0.1007
   66MPD2     N 1033   0.947   1.228  15.545 -0.4650  0.9453 -0.6361
   66MPD2    H5 1034   0.924   1.165  15.621 -0.0713  1.0693 -0.4112
   66MPD2    N1 1035   1.035   1.688  15.439  0.1998  0.1245 -0.2070
   66MPD2    H7 1036   0.980   1.670  15.355 -2.4509  1.1344  1.3200
   67TMC2    C1 1037   0.459   1.001  14.566 -0.1289  0.0205 -0.3568
   67TMC2    C2 1038   0.400   1.086  14.653  0.1522  0.1912 -0.5297
   67TMC2    C3 1039   0.475   1.114  14.766  0.0094 -0.4865 -0.2915
   67TMC2    C4 1040   0.597   0.971  14.574  0.1234  0.2123  0.3286
   67TMC2    C5 1041   0.667   1.024  14.679  0.4794  0.6039  0.3423
   67TMC2    C6 1042   0.609   1.084  14.784  0.2534  0.1223 -0.5998
   67TMC2     C 1043   0.387   0.924  14.457  0.5188 -0.2154 -0.4725
   67TMC2     O 1044   0.454   0.838  14.398 -0.9115  0.3207 -0.2252
   67TMC2     H 1045   0.296   1.107  14.634 -0.4274  0.0685  2.4334
   67TMC2    H1 1046   0.641   0.914  14.493  0.8578 -1.1963  1.7211
   67TMC2    H2 1047   0.666   1.124  14.867  0.0585 -0.4156 -0.2045
   67TMC2    C7 1048   0.813   1.001  14.673 -0.4441 -0.9522  0.1387
   67TMC2    C8 1049   0.407   1.182  14.876 -0.3826 -0.8747 -0.0128
   67TMC2    O1 1050   0.855   0.977  14.561 -0.0857  0.3553  0.0265
   67TMC2    O2 1051   0.468   1.228  14.972  0.2052 -0.5315 -0.2338
   67TMC2    O5 1052   0.276   1.163  14.860  0.1862  0.0910 -0.3994
   67TMC2    H5 1053   0.255   1.089  14.798  0.5816 -1.3780  1.2075
   68MPD2     C 1054   0.189   0.787  14.281  0.0614  0.7265  0.1299
   68MPD2    C1 1055   0.170   0.915  14.334  0.0962 -0.6528 -0.4770
   68MPD2    C2 1056   0.057   0.979  14.299 -0.4205 -0.2038 -0.0645
   68MPD2    C3 1057   4.709   0.929  14.211 -0.5544  0.5823 -0.1534
   68MPD2    C4 1058   4.726   0.809  14.154 -0.8564  0.1225  0.2180
   68MPD2    C5 1059   0.094   0.743  14.186  0.3849  0.5962  0.1732
   68MPD2     H 1060   0.033   1.074  14.346  0.4872 -1.4484  2.8734
   68MPD2    H1 1061   4.651   0.767  14.088  0.8515  0.3868 -1.8993
   68MPD2    H2 1062   0.277   0.728  14.307 -1.1798 -1.0479  0.3583
   68MPD2    H3 1063   0.117   0.649  14.137 -1.0832  0.9232 -1.1332
   68MPD2     N 1064   4.592   0.998  14.165 -0.9846  0.5561 -0.0295
   68MPD2    H5 1065   4.531   0.945  14.104 -0.8051  0.1462  0.1485
   68MPD2    N1 1066   0.259   0.972  14.429 -0.0054  0.0897  0.3715
   68MPD2    H7 1067   0.231   1.061  14.468  1.7749  1.1081 -0.6731
   69TMC2    C1 1068   2.743   2.768  12.271 -0.1456  0.1849  0.3334
   69TMC2    C2 1069   2.624   2.803  12.214 -0.2474 -0.1259  0.1658
   69TMC2    C3 1070   2.636   2.882  12.099  0.4949  0.0798  0.3913
   69TMC2    C4 1071   2.861   2.817  12.228  0.1443  0.3714 -0.0089
   69TMC2    C5 1072   2.870   2.889  12.115  0.2517 -0.2478 -0.2928
   69TMC2    C6 1073   2.757   2.920  12.045  0.0858 -0.0240  0.2439
   69TMC2     C 1074   2.746   2.647  12.357 -0.0731  0.2704 -0.0652
   69TMC2     O 1075   2.647   2.613  12.426  0.1044  0.1138 -0.3805
   69TMC2     H 1076   2.533   2.760  12.257 -1.5006  3.0009  0.6769
   69TMC2    H1 1077   2.956   2.798  12.277 -1.0720 -1.7565  1.4980
   69TMC2    H2 1078   2.758   2.945  11.939  1.2705  0.5677  0.3887
   69TMC2    C7 1079   2.998   2.926  12.066 -0.2631 -0.7891 -0.4423
   69TMC2    C8 1080   2.516   2.913  12.031 -0.2755  0.3237 -0.1604
   69TMC2    O1 1081   3.094   2.867  12.121 -0.1350 -0.5676 -0.1713
   69TMC2    O2 1082   2.406   2.881  12.077 -1.1015  1.0656 -0.6658
   69TMC2    O5 1083   2.529   3.027  11.968  0.7855  0.3022 -0.2536
   69TMC2    H5 1084   2.618   3.067  11.951 -0.1849  2.4275 -0.3998
   70MPD2     C 1085   2.995   2.386  12.297  1.2241  0.0174  0.2334
   70MPD2    C1 1086   2.890   2.448  12.367 -0.6372  0.1072 -0.3937
   70MPD2    C2 1087   2.839   2.395  12.485  0.0472  0.1251  0.7154
   70MPD2    C3 1088   2.896   2.280  12.534  0.0505 -0.3419 -0.5713
   70MPD2    C4 1089   3.007   2.227  12.466  0.3061 -0.3719 -0.4652
   70MPD2    C5 1090   3.056   2.279  12.351  0.7771  0.1352 -0.2763
   70MPD2     H 1091   2.756   2.443  12.537 -1.6021  0.9132 -2.5976
   70MPD2    H1 1092   3.053   2.138  12.508  0.3926  0.1967  0.6436
   70MPD2    H2 1093   3.037   2.427  12.206  1.6162  1.0606  0.8873
   70MPD2    H3 1094   3.141   2.233  12.303  1.1221 -1.1465  1.5867
   70MPD2     N 1095   2.870   2.221  12.654  0.1186 -0.3021  0.4990
   70MPD2    H5 1096   2.932   2.143  12.675 -1.1874 -1.7718 -1.1484
   70MPD2    N1 1097   2.845   2.571  12.311 -0.4112 -0.0106 -0.3128
   70MPD2    H7 1098   2.893   2.610  12.231  0.0906  0.4056  0.1920
   71TMC2    C1 1099   0.070   3.206   1.538  0.9333  0.4193  0.1519
   71TMC2    C2 1100   0.167   3.260   1.623  0.0034  0.6392 -0.3937
   71TMC2    C3 1101   0.141   3.377   1.686  0.3674  0.3406  0.2666
   71TMC2    C4 1102   4.702   3.275   1.494  0.0536 -0.1311  0.2087
   71TMC2    C5 1103   4.680   3.398   1.553  1.5151  0.0896 -0.0536
   71TMC2    C6 1104   0.028   3.446   1.647 -0.4481 -0.5653  0.5028
   71TMC2     C 1105   0.117   3.098   1.457 -0.4434 -0.3858  0.0818
   71TMC2     O 1106   0.238   3.078   1.457  0.0726 -0.8404 -0.4003
   71TMC2     H 1107   0.255   3.205   1.655 -0.7906 -0.5111 -0.1561
   71TMC2    H1 1108   4.639   3.237   1.414  0.2396  2.1661 -1.0344
   71TMC2    H2 1109   0.011   3.546   1.687 -0.6782  0.1767 -1.4528
   71TMC2    C7 1110   4.565   3.481   1.518  1.1636  0.1746 -0.4711
   71TMC2    C8 1111   0.255   3.454   1.737 -0.0433 -0.5215  0.1720
   71TMC2    O1 1112   4.563   3.593   1.570 -0.0898 -0.4858  0.1837
   71TMC2    O2 1113   0.368   3.427   1.695 -0.2901  0.5612  0.1616
   71TMC2    O5 1114   0.224   3.533   1.842  0.2224  0.4625 -0.5101
   71TMC2    H5 1115   0.129   3.542   1.865 -0.1219 -1.4905 -1.1778
   72MPD2     C 1116   0.038   2.709   1.121  0.5205  0.5988 -0.1237
   72MPD2    C1 1117   0.147   2.787   1.151  0.3942  0.0640  0.6543
   72MPD2    C2 1118   0.143   2.887   1.247 -0.4050 -0.4421  0.1175
   72MPD2    C3 1119   0.025   2.913   1.311  0.4921  0.2652 -0.3981
   72MPD2    C4 1120   4.657   2.837   1.277 -0.2975  0.4538  0.2434
   72MPD2    C5 1121   4.669   2.731   1.197 -0.0884  0.0202  0.5639
   72MPD2     H 1122   0.234   2.940   1.272  0.3656 -2.3511  1.3112
   72MPD2    H1 1123   4.561   2.858   1.323 -0.4254 -1.9038  1.0743
   72MPD2    H2 1124   0.038   2.627   1.050  1.6073 -0.6363  1.3070
   72MPD2    H3 1125   4.587   2.664   1.175 -0.7196  0.6341  1.0626
   72MPD2     N 1126   0.011   3.017   1.404 -0.6151 -0.3585 -0.1077
   72MPD2    H5 1127   4.659   3.041   1.436 -0.9061 -3.8835  1.6767
   72MPD2    N1 1128   0.272   2.766   1.091  0.0399 -0.3822  0.2636
   72MPD2    H7 1129   0.346   2.832   1.109  0.6144  0.0435 -3.6621
   73TMC2    C1 1130   0.405   4.130  14.391 -0.0643 -0.2331  0.6756
   73TMC2    C2 1131   0.304   4.123  14.483 -0.1476 -0.1549  0.0777
   73TMC2    C3 1132   0.328   4.160  14.609  0.1707  0.3656 -0.5752
   73TMC2    C4 1133   0.529   4.167  14.423 -0.9268  0.0443  0.2235
   73TMC2    C5 1134   0.552   4.212  14.548 -0.9274 -0.9421 -0.3545
   73TMC2    C6 1135   0.451   4.214  14.644 -0.1832  1.1951 -0.0697
   73TMC2     C 1136   0.371   4.212  14.277 -0.3221  0.6352  0.2488
   73TMC2     O 1137   0.449   4.307  14.266  0.1940 -0.1858 -0.0683
   73TMC2     H 1138   0.201   4.103  14.455  0.0986  0.9557 -1.5717
   73TMC2    H1 1139   0.603   4.149  14.345 -0.0099  2.4131  0.5553
   73TMC2    H2 1140   0.474   4.254  14.743  0.2518  1.3664 -0.2413
   73TMC2    C7 1141   0.658   4.317  14.557 -0.5691  0.3037  0.3782
   73TMC2    C8 1142   0.235   4.136  14.719 -0.1229 -0.5921  0.4974
   73TMC2    O1 1143   0.715   4.331  14.663 -0.2199 -0.2590 -0.0237
   73TMC2    O2 1144   0.113   4.140  14.715 -0.2525  0.5384  0.0031
   73TMC2    O5 1145   0.310   4.062  14.798 -0.1274 -0.0136  0.4363
   73TMC2    H5 1146   0.397   4.031  14.764 -0.5022 -0.1939 -0.3692
   74MPD2     C 1147   0.182   4.296  13.807  0.0756 -0.0484  0.7734
   74MPD2    C1 1148   0.298   4.350  13.869  0.1577  0.3854 -1.2566
   74MPD2    C2 1149   0.317   4.309  14.002 -0.1818  0.2291 -0.1174
   74MPD2    C3 1150   0.238   4.210  14.065 -0.2162 -0.3746 -0.5713
   74MPD2    C4 1151   0.130   4.153  14.001 -0.5481  0.2278 -1.7787
   74MPD2    C5 1152   0.103   4.203  13.873  0.3918  0.1665  0.2543
   74MPD2     H 1153   0.398   4.351  14.060 -0.1198 -1.1449  0.7927
   74MPD2    H1 1154   0.067   4.078  14.046 -1.4574  2.0949  0.0188
   74MPD2    H2 1155   0.151   4.315  13.705 -1.0894 -2.8228  0.6244
   74MPD2    H3 1156   0.033   4.148  13.811  1.0425  0.9861 -1.2089
   74MPD2     N 1157   0.266   4.163  14.195  0.0474  0.1882 -0.4395
   74MPD2    H5 1158   0.203   4.092  14.231 -1.2775  1.9381  0.6981
   74MPD2    N1 1159   0.375   4.454  13.808 -0.0847 -0.0936  0.1046
   74MPD2    H7 1160   0.358   4.482  13.711 -0.9515  1.4228  0.6939
   75TMC2    C1 1161   4.444   1.157  14.109  0.1385 -0.7576 -0.3500
   75TMC2    C2 1162   4.358   1.057  14.087  0.4595  0.1816  0.0503
   75TMC2    C3 1163   4.279   1.070  13.983 -0.4187  0.1647 -0.3739
   75TMC2    C4 1164   4.469   1.261  14.021  0.1416  0.1076  0.7444
   75TMC2    C5 1165   4.399   1.252  13.900  0.9023  0.4577  0.0345
   75TMC2    C6 1166   4.302   1.154  13.881  0.8055 -0.0277 -0.1527
   75TMC2     C 1167   4.556   1.125  14.199 -0.2028  0.4997 -0.6140
   75TMC2     O 1168   4.632   1.215  14.233  0.0257  0.6616 -0.1796
   75TMC2     H 1169   4.341   0.981  14.162 -1.4524 -1.5592 -2.1678
   75TMC2    H1 1170   4.551   1.326  14.048 -1.2573  2.6352 -1.0900
   75TMC2    H2 1171   4.242   1.148  13.791  1.1286  0.1926 -0.3826
   75TMC2    C7 1172   4.443   1.306  13.780  0.0019 -0.1587 -0.3873
   75TMC2    C8 1173   4.166   0.978  13.974 -0.3130  0.1747  0.0179
   75TMC2    O1 1174   4.360   1.298  13.690  0.2537 -0.1860 -0.2674
   75TMC2    O2 1175   4.162   0.870  14.027  0.4984 -0.4167  0.2736
   75TMC2    O5 1176   4.055   1.032  13.920  0.0756 -0.1754  0.4083
   75TMC2    H5 1177   4.051   1.113  13.864  0.9801 -0.7839 -0.5224
   76TMC2    C1 1178   3.654   1.649  11.934 -0.0287 -0.1830  0.1858
   76TMC2    C2 1179   3.577   1.573  11.852 -0.2655  0.8406  0.1938
   76TMC2    C3 1180   3.553   1.445  11.894 -0.2127 -0.6218  0.7258
   76TMC2    C4 1181   3.698   1.611  12.055  0.3293 -0.4646  0.4495
   76TMC2    C5 1182   3.672   1.476  12.094  0.1069 -0.7904 -0.7250
   76TMC2    C6 1183   3.595   1.390  12.014  0.1024  0.5599  0.1146
   76TMC2     C 1184   3.682   1.780  11.880  0.4062 -0.7715 -0.6491
   76TMC2     O 1185   3.611   1.833  11.797  0.6770  0.5663  0.0513
   76TMC2     H 1186   3.542   1.615  11.758  2.0899  1.8096 -0.2407
   76TMC2    H1 1187   3.741   1.678  12.128 -1.7648  2.0617 -0.6510
   76TMC2    H2 1188   3.568   1.287  12.036 -1.6401  1.3907  1.8931
   76TMC2    C7 1189   3.719   1.436  12.224 -0.2402 -0.1665  0.1356
   76TMC2    C8 1190   3.459   1.353  11.827 -0.1743  0.3078 -0.3384
   76TMC2    O1 1191   3.681   1.323  12.252  0.4036  0.4603  0.3634
   76TMC2    O2 1192   3.468   1.233  11.846  0.1301 -0.2254 -0.2456
   76TMC2    O5 1193   3.384   1.421  11.737 -0.2693  0.2330  0.1056
   76TMC2    H5 1194   3.402   1.513  11.706  0.4836 -0.6549 -2.1090
   77MPD2     C 1195   3.986   2.189  11.833  0.5581  0.7153  0.4746
   77MPD2    C1 1196   3.850   2.183  11.808 -0.1004  0.0102 -0.6325
   77MPD2    C2 1197   3.786   2.062  11.839 -0.2487 -0.0063 -0.5018
   77MPD2    C3 1198   3.852   1.962  11.901 -0.6473 -0.4360  0.1244
   77MPD2    C4 1199   3.975   1.986  11.956  0.6775 -0.5388 -0.4063
   77MPD2    C5 1200   4.043   2.097  11.920 -0.1400  0.6468  0.1466
   77MPD2     H 1201   3.683   2.043  11.809 -0.5388 -0.9074  1.0508
   77MPD2    H1 1202   4.016   1.915  12.028 -1.3176  1.0371  2.2588
   77MPD2    H2 1203   4.041   2.281  11.814 -1.4738  1.4036 -1.9497
   77MPD2    H3 1204   4.144   2.119  11.952  0.6133 -0.3976 -1.5463
   77MPD2     N 1205   3.798   1.832  11.931  0.5534  0.2153 -0.0166
   77MPD2    H5 1206   3.860   1.782  11.994  1.3881  0.5395 -0.5786
   77MPD2    N1 1207   3.798   2.301  11.751  0.5143 -0.4690 -0.1569
   77MPD2    H7 1208   3.855   2.376  11.713 -0.0063  0.6272  1.2492
   78TMC2    C1 1209   0.098   2.666   1.556  0.8380 -0.4125  0.4390
   78TMC2    C2 1210   0.047   2.537   1.544  0.0642 -0.1126  0.4526
   78TMC2    C3 1211   0.129   2.454   1.463 -0.0675 -0.1703 -0.9473
   78TMC2    C4 1212   0.218   2.708   1.507 -0.6885 -0.1421  0.1479
   78TMC2    C5 1213   0.291   2.619   1.419  0.1063  0.1316 -0.5053
   78TMC2    C6 1214   0.240   2.495   1.395  0.0995  0.3369  0.7147
   78TMC2     C 1215   0.017   2.755   1.634 -0.2545 -0.0021 -0.4699
   78TMC2     O 1216   4.644   2.717   1.650 -0.2065 -0.5880  0.8474
   78TMC2     H 1217   4.707   2.499   1.603 -0.8971  0.3174 -0.5994
   78TMC2    H1 1218   0.236   2.815   1.511 -2.5468  0.1443  0.6916
   78TMC2    H2 1219   0.303   2.426   1.342  0.4565  2.1998 -1.2909
   78TMC2    C7 1220   0.418   2.667   1.364  0.0286 -0.1051 -0.1759
   78TMC2    C8 1221   0.118   2.314   1.483 -0.2776  0.9915  0.6290
   78TMC2    O1 1222   0.459   2.611   1.268 -0.5794 -0.3483  0.4691
   78TMC2    O2 1223   0.121   2.263   1.594 -0.6002 -0.7808  0.0642
   78TMC2    O5 1224   0.138   2.243   1.371  0.0560  0.2023  0.3663
   78TMC2    H5 1225   0.139   2.296   1.289  0.3333 -1.9668 -1.0342
   79MPD1     C 1226   4.713   3.181   1.935 -0.7098 -0.2571 -0.6542
   79MPD1    C1 1227   4.620   3.115   1.855 -0.9498  0.5943 -0.7489
   79MPD1    C2 1228   4.655   2.999   1.787  0.5058 -0.5744 -1.0460
   79MPD1    C3 1229   0.043   2.957   1.784  0.2536  0.0382  0.3416
   79MPD1    C4 1230   0.136   3.029   1.857 -0.1471  0.2984 -0.4734
   79MPD1    C5 1231   0.098   3.136   1.922 -0.3491  0.5297  0.8092
   79MPD1     H 1232   4.586   2.953   1.718  0.1137 -2.8047  0.8511
   79MPD1    H1 1233   0.242   3.011   1.849 -0.1037  0.5560 -0.4814
   79MPD1    H2 1234   4.707   3.282   1.974  0.4572 -0.3800 -0.1690
   79MPD1    H3 1235   0.173   3.189   1.979  1.4339 -1.8752  0.7307
   79MPD1     N 1236   0.088   2.855   1.694  0.3634  0.5761  0.0877
   79MPD1    H5 1237   0.189   2.843   1.688  0.0792 -1.8209  0.0238
   79MPD1    N1 1238   4.486   3.147   1.870 -0.4203 -0.3612 -0.7365
   79MPD1    H6 1239   4.434   3.119   1.787  0.6398  1.8771 -2.1662
   79MPD1    H7 1240   4.476   3.247   1.883 -0.2518 -0.5899  1.2306
   80TMC2    C1 1241   2.983   1.414  12.369  0.5533  0.2389 -0.1511
   80TMC2    C2 1242   3.074   1.415  12.271  0.5546  0.0562  0.4256
   80TMC2    C3 1243   3.032   1.376  12.145  0.0790 -0.0061 -0.1193
   80TMC2    C4 1244   2.853   1.371  12.346 -0.2433 -0.9944  0.6905
   80TMC2    C5 1245   2.811   1.341  12.214 -0.5733  0.2267 -0.0573
   80TMC2    C6 1246   2.901   1.352  12.112  0.0647  0.0576 -0.2071
   80TMC2     C 1247   3.032   1.431  12.507 -0.5008  0.6364 -0.1909
   80TMC2     O 1248   3.154   1.434  12.522  0.5363 -0.1241  0.3963
   80TMC2     H 1249   3.175   1.445  12.294  0.1552 -0.3380  2.6864
   80TMC2    H1 1250   2.779   1.365  12.424  0.4974 -1.3226  1.3614
   80TMC2    H2 1251   2.862   1.350  12.011 -1.5358  0.5080  0.4017
   80TMC2    C7 1252   2.677   1.296  12.187  0.2118 -0.0124  0.4139
   80TMC2    C8 1253   3.142   1.348  12.056  0.4671 -0.0708  0.3340
   80TMC2    O1 1254   2.620   1.327  12.084  0.0438  0.7031 -0.0163
   80TMC2    O2 1255   3.261   1.365  12.085  0.6730  0.3627  0.3166
   80TMC2    O5 1256   3.096   1.237  11.994 -0.7805  0.0529 -0.3248
   80TMC2    H5 1257   2.998   1.235  11.987 -0.8463 -0.2585  0.6438
   81MPD2     C 1258   3.054   1.494  12.795 -0.2289  0.4012  0.1149
   81MPD2    C1 1259   2.938   1.515  12.714 -0.6957  0.2326  0.0011
   81MPD2    C2 1260   2.816   1.543  12.773  0.2415  0.5739  0.5622
   81MPD2    C3 1261   2.807   1.571  12.910 -0.0810  0.2629  0.1712
   81MPD2    C4 1262   2.919   1.570  12.981 -0.3051 -0.7000  0.1433
   81MPD2    C5 1263   3.039   1.518  12.926 -0.1601  0.6190  0.5239
   81MPD2     H 1264   2.732   1.540  12.705  1.5650  1.0047 -1.0968
   81MPD2    H1 1265   2.918   1.585  13.088  2.2001  1.3603 -0.1214
   81MPD2    H2 1266   3.151   1.465  12.756  0.2440  2.1854 -0.0365
   81MPD2    H3 1267   3.126   1.508  12.989 -1.0672  2.2366  2.0104
   81MPD2     N 1268   2.680   1.597  12.965 -0.8121 -0.1294 -0.1765
   81MPD2    H5 1269   2.677   1.598  13.067  2.6657 -4.2320 -0.0289
   81MPD2    N1 1270   2.933   1.481  12.581 -0.3506  0.0330 -0.0770
   81MPD2    H7 1271   2.850   1.491  12.523 -0.8537 -1.0676  0.4510
   82TMC2    C1 1272   1.495   1.676  11.664 -0.4101  0.5620  0.3258
   82TMC2    C2 1273   1.602   1.698  11.749  0.2327 -0.4325  0.1343
   82TMC2    C3 1274   1.689   1.592  11.764  0.5539 -0.2258  0.1681
   82TMC2    C4 1275   1.477   1.554  11.601 -0.6393  0.0324  1.2246
   82TMC2    C5 1276   1.577   1.458  11.621 -0.7749  0.0582  0.0470
   82TMC2    C6 1277   1.682   1.467  11.704 -0.8377  0.2814 -0.1120
   82TMC2     C 1278   1.372   1.749  11.673  0.3578  0.2319 -0.5699
   82TMC2     O 1279   1.291   1.739  11.585  0.1592 -0.6195  0.3588
   82TMC2     H 1280   1.600   1.785  11.814  2.9883 -0.4993  0.3400
   82TMC2    H1 1281   1.402   1.549  11.523  1.5878  0.3829 -0.9180
   82TMC2    H2 1282   1.758   1.392  11.725  0.8646  1.5952 -1.5272
   82TMC2    C7 1283   1.514   1.330  11.613  0.8031  0.0145  0.2919
   82TMC2    C8 1284   1.791   1.605  11.863  0.6742 -0.6549  0.2568
   82TMC2    O1 1285   1.571   1.243  11.675 -0.0212 -0.3983  0.0267
   82TMC2    O2 1286   1.813   1.512  11.941  0.2655 -0.0201  0.4599
   82TMC2    O5 1287   1.882   1.689  11.807 -0.0701 -0.2120 -0.5985
   82TMC2    H5 1288   1.845   1.758  11.748  2.2234 -0.7271 -2.6679
   83MPD2     C 1289   1.018   2.002  11.956  0.1702 -0.7578  0.3517
   83MPD2    C1 1290   1.007   1.928  11.839  0.1801 -0.1762  0.4052
   83MPD2    C2 1291   1.124   1.875  11.779 -0.5962 -0.3903 -0.5051
   83MPD2    C3 1292   1.246   1.888  11.835 -0.5487  0.8417  0.1118
   83MPD2    C4 1293   1.261   1.978  11.939  0.0060  1.1102 -0.1471
   83MPD2    C5 1294   1.149   2.037  11.997  0.2404 -0.2060  0.5626
   83MPD2     H 1295   1.115   1.806  11.696  1.0877  1.8330 -2.5265
   83MPD2    H1 1296   1.357   1.986  11.989 -0.1307  2.0910 -0.0426
   83MPD2    H2 1297   0.938   2.048  12.013  0.8044  2.6869 -1.5490
   83MPD2    H3 1298   1.160   2.101  12.084  1.6629  0.0995  0.1582
   83MPD2     N 1299   1.357   1.819  11.789  0.2857 -0.5985 -0.4482
   83MPD2    H5 1300   1.443   1.823  11.843  0.2898  0.0715 -0.4954
   83MPD2    N1 1301   0.880   1.894  11.792  0.1679  0.4123 -0.2251
   83MPD2    H7 1302   0.800   1.930  11.842  0.4455 -0.6602  0.9883
   84TMC2    C1 1303   1.824   4.389  11.442  0.4636  0.3547  0.2395
   84TMC2    C2 1304   1.837   4.257  11.487  0.1560 -0.1217 -0.0960
   84TMC2    C3 1305   1.771   4.162  11.427 -0.3708 -0.0741 -0.6853
   84TMC2    C4 1306   1.734   4.421  11.347  0.3037 -0.6228 -0.3144
   84TMC2    C5 1307   1.679   4.316  11.279  0.1230  0.0737 -0.4876
   84TMC2    C6 1308   1.691   4.187  11.323 -0.1411  0.1521 -0.6611
   84TMC2     C 1309   1.877   4.502  11.514  0.3722 -0.2529 -0.6937
   84TMC2     O 1310   1.857   4.613  11.462 -0.0522 -0.0417 -0.0629
   84TMC2     H 1311   1.906   4.225  11.564  0.2731 -0.0477 -0.1705
   84TMC2    H1 1312   1.717   4.523  11.317  0.5446 -0.8829 -1.3215
   84TMC2    H2 1313   1.634   4.112  11.270 -0.9698  0.0214  0.3960
   84TMC2    C7 1314   1.590   4.339  11.165  0.0416  0.0296 -0.1180
   84TMC2    C8 1315   1.806   4.027  11.458 -0.2134  0.0717  0.2229
   84TMC2    O1 1316   1.485   4.280  11.166  0.3386 -0.5843 -0.2306
   84TMC2    O2 1317   1.837   3.996  11.570 -0.2110  0.2225 -0.1438
   84TMC2    O5 1318   1.867   3.991  11.343 -0.6436 -0.0235  0.5391
   84TMC2    H5 1319   1.827   4.023  11.259 -0.0040  0.3624  0.3798
   85TMC2    C1 1320   3.103   3.066  16.126 -0.5666  0.2781  0.0769
   85TMC2    C2 1321   2.972   3.046  16.087  0.2875 -0.5631 -0.1587
   85TMC2    C3 1322   2.926   3.130  15.988  0.6100  0.2761  0.4844
   85TMC2    C4 1323   3.177   3.174  16.082  0.2514 -0.5285  0.3268
   85TMC2    C5 1324   3.113   3.253  15.988 -0.3930 -0.0546 -0.0926
   85TMC2    C6 1325   2.990   3.242  15.945  0.2603 -0.1719  0.3634
   85TMC2     C 1326   3.155   2.985  16.227 -0.0666 -0.2633 -0.2770
   85TMC2     O 1327   3.222   3.041  16.312 -0.1890  0.1231  0.3648
   85TMC2     H 1328   2.896   2.986  16.135 -1.9340 -0.3864 -3.3973
   85TMC2    H1 1329   3.278   3.199  16.112  0.8886 -2.4458 -0.1971
   85TMC2    H2 1330   2.932   3.304  15.877  1.4208 -2.0081 -2.3075
   85TMC2    C7 1331   3.187   3.367  15.941  0.3179 -0.0952 -0.4528
   85TMC2    C8 1332   2.804   3.088  15.920 -0.0525 -0.4361 -0.1677
   85TMC2    O1 1333   3.310   3.363  15.941  0.3335  0.4692 -0.2453
   85TMC2    O2 1334   2.728   3.155  15.854 -0.2841 -0.4824 -0.1828
   85TMC2    O5 1335   2.797   2.952  15.930 -0.3947 -0.2188 -0.0734
   85TMC2    H5 1336   2.879   2.901  15.945 -0.5325 -0.3944  0.0926
   86MPD2     C 1337   3.138   2.551  16.493  0.0448 -0.3716  0.5750
   86MPD2    C1 1338   3.054   2.533  16.378  0.0342 -0.1059 -0.4842
   86MPD2    C2 1339   3.047   2.633  16.284 -0.6910 -0.4850  0.8890
   86MPD2    C3 1340   3.120   2.750  16.304 -0.0912  0.0422 -0.5791
   86MPD2    C4 1341   3.208   2.757  16.415  0.6743  0.3497 -0.0393
   86MPD2    C5 1342   3.208   2.663  16.509  0.4669 -0.4221  0.0003
   86MPD2     H 1343   2.979   2.631  16.200  0.4530  2.1205 -0.0785
   86MPD2    H1 1344   3.262   2.850  16.427  0.8445  0.4908 -1.8520
   86MPD2    H2 1345   3.158   2.474  16.567 -1.1891  0.5487  1.8636
   86MPD2    H3 1346   3.260   2.676  16.604  1.2165 -1.2393 -0.2887
   86MPD2     N 1347   3.101   2.859  16.215  0.4151  0.3324 -0.3591
   86MPD2    H5 1348   3.056   2.837  16.127 -1.6268  0.2340  0.6985
   86MPD2    N1 1349   2.986   2.420  16.342 -0.0132 -0.2691 -0.2685
   86MPD2    H7 1350   2.932   2.423  16.256 -0.5974  0.2986  0.1256
   87TMC2    C1 1351   0.795   1.107   1.372 -0.5484  0.2788 -0.1746
   87TMC2    C2 1352   0.919   1.089   1.423 -0.1586 -0.4741 -0.6592
   87TMC2    C3 1353   0.987   1.186   1.489 -1.0402  0.1526 -0.0980
   87TMC2    C4 1354   0.735   1.227   1.388 -0.7112  0.3271 -0.6081
   87TMC2    C5 1355   0.801   1.317   1.461 -0.1378  0.6930 -0.2326
   87TMC2    C6 1356   0.924   1.298   1.510 -0.8160 -0.1070 -0.0826
   87TMC2     C 1357   0.776   1.040   1.253 -0.1240  0.0919 -1.0204
   87TMC2     O 1358   0.873   0.984   1.202 -0.0980 -0.4422 -0.3214
   87TMC2     H 1359   0.971   0.994   1.421 -0.4245 -0.6082 -1.2748
   87TMC2    H1 1360   0.648   1.252   1.328  0.6644 -1.0288 -3.1679
   87TMC2    H2 1361   0.973   1.367   1.577  1.7274 -1.8701 -0.1138
   87TMC2    C7 1362   0.743   1.453   1.465 -0.4787 -0.2896  0.4796
   87TMC2    C8 1363   1.133   1.189   1.500  0.2010 -0.1424 -0.1231
   87TMC2    O1 1364   0.619   1.447   1.465 -0.2812 -0.0245 -0.2327
   87TMC2    O2 1365   1.190   1.292   1.478  0.0190  0.0720  0.4491
   87TMC2    O5 1366   1.187   1.063   1.510 -0.2494  0.1867 -0.2933
   87TMC2    H5 1367   1.127   1.005   1.561  1.1787 -1.9380 -1.0122
   88MPD2     C 1368   0.901   1.776   1.477 -0.5922  0.7154 -0.2685
   88MPD2    C1 1369   0.796   1.693   1.452 -0.3781  0.1084  0.1425
   88MPD2    C2 1370   0.681   1.742   1.386  0.3070  0.3135 -0.1962
   88MPD2    C3 1371   0.671   1.880   1.363  0.2917  0.9582 -0.3100
   88MPD2    C4 1372   0.783   1.957   1.393 -0.0040 -0.0320 -0.7404
   88MPD2    C5 1373   0.892   1.904   1.450  0.2743  0.2897 -0.0808
   88MPD2     H 1374   0.597   1.679   1.362  1.8202 -1.7326 -0.1821
   88MPD2    H1 1375   0.787   2.065   1.390 -0.1223  0.0321  1.3296
   88MPD2    H2 1376   0.992   1.730   1.513 -0.9907  0.0313 -0.1386
   88MPD2    H3 1377   0.972   1.971   1.479 -0.4069 -0.2716  3.0573
   88MPD2     N 1378   0.567   1.944   1.290 -0.4298 -0.4931 -0.1044
   88MPD2    H5 1379   0.577   2.044   1.280  1.3146 -0.4254  2.3091
   88MPD2    N1 1380   0.832   1.557   1.480  0.5394 -0.2083 -0.1268
   88MPD2    H7 1381   0.933   1.546   1.488  0.4567 -0.4071  0.5711
   89TMC2    C1 1382   1.567   0.050   1.618  0.1050 -0.4523 -0.2246
   89TMC2    C2 1383   1.687   4.736   1.587  0.1845 -0.4126 -0.1685
   89TMC2    C3 1384   1.794   0.078   1.564 -0.4515 -0.1595  0.1018
   89TMC2    C4 1385   1.557   0.187   1.606  0.3021 -0.9131 -0.9119
   89TMC2    C5 1386   1.665   0.264   1.584  0.2047 -0.5174  0.4639
   89TMC2    C6 1387   1.788   0.212   1.562  0.4010  0.2455  0.8530
   89TMC2     C 1388   1.452   4.709   1.635 -1.0586 -0.0621 -0.5367
   89TMC2     O 1389   1.345   0.022   1.651  0.1023  0.0339  0.6574
   89TMC2     H 1390   1.711   4.631   1.578 -2.5019 -0.8617 -2.1650
   89TMC2    H1 1391   1.462   0.236   1.621  1.3999  1.0905 -0.4897
   89TMC2    H2 1392   1.879   0.268   1.582  1.0155 -0.4057 -0.1351
   89TMC2    C7 1393   1.652   0.406   1.564 -0.0667 -0.1281  0.6881
   89TMC2    C8 1394   1.923   0.016   1.566  0.0545 -0.4512  0.4570
   89TMC2    O1 1395   1.588   0.458   1.658 -0.4134  0.3288 -0.3982
   89TMC2    O2 1396   1.942   4.646   1.607 -0.0727 -0.5147 -0.1115
   89TMC2    O5 1397   1.987   0.047   1.453 -0.0108  0.3143  0.1017
   89TMC2    H5 1398   1.962   0.135   1.420 -0.9298 -0.0224 -0.0929
   90MPD2     C 1399   1.167   4.278   1.612  0.3556 -1.1465  0.0563
   90MPD2    C1 1400   1.293   4.243   1.574 -1.0736  0.1087  0.5972
   90MPD2    C2 1401   1.391   4.338   1.574 -0.0746 -0.3288  0.2944
   90MPD2    C3 1402   1.360   4.469   1.610  0.0583 -0.0010 -0.2408
   90MPD2    C4 1403   1.229   4.505   1.646 -0.1768 -0.5121  0.3332
   90MPD2    C5 1404   1.135   4.407   1.640  0.0575  0.0237  0.3373
   90MPD2     H 1405   1.493   4.316   1.545 -0.2574 -2.2262  1.0777
   90MPD2    H1 1406   1.197   4.598   1.692 -2.4004 -1.9406  1.6706
   90MPD2    H2 1407   1.085   4.207   1.618  0.6191 -1.6010 -1.7589
   90MPD2    H3 1408   1.037   4.425   1.683 -0.5244 -0.1049 -0.9557
   90MPD2     N 1409   1.464   4.571   1.617 -0.3375  0.5138  0.2701
   90MPD2    H5 1410   1.560   4.543   1.599 -0.1934  0.0998  1.7035
   90MPD2    N1 1411   1.332   4.110   1.537 -0.5850 -0.4587  0.1964
   90MPD2    H7 1412   1.424   4.094   1.496 -0.7762 -0.7222 -0.1360
   91TMC2    C1 1413   3.523   3.315  16.806 -0.1690 -0.3062  0.3551
   91TMC2    C2 1414   3.630   3.274  16.882 -0.1090 -0.1476 -0.1699
   91TMC2    C3 1415   3.606   3.255  17.015  0.3210  0.2074  0.0424
   91TMC2    C4 1416   3.398   3.328  16.848 -0.1897  0.0854 -0.5474
   91TMC2    C5 1417   3.375   3.306  16.985  0.6130 -0.7119 -0.5207
   91TMC2    C6 1418   3.480   3.273  17.065 -0.1864 -0.1446  0.0303
   91TMC2     C 1419   3.553   3.373  16.682 -0.5252 -1.1166  0.2260
   91TMC2     O 1420   3.465   3.375  16.595 -0.4956 -0.7881  0.9155
   91TMC2     H 1421   3.726   3.257  16.834 -0.0600  1.0596 -0.4799
   91TMC2    H1 1422   3.319   3.339  16.775 -1.3667 -0.4057  0.6628
   91TMC2    H2 1423   3.458   3.236  17.165  0.5255  1.0118  0.6085
   91TMC2    C7 1424   3.240   3.313  17.045 -0.0256  0.0608  0.0211
   91TMC2    C8 1425   3.718   3.232  17.110 -0.7201  0.7178  0.3678
   91TMC2    O1 1426   3.222   3.248  17.145 -0.0742 -0.2168  0.0759
   91TMC2    O2 1427   3.712   3.248  17.231 -0.5931 -0.4196  0.4679
   91TMC2    O5 1428   3.813   3.158  17.053  1.3458  0.4132 -0.1205
   91TMC2    H5 1429   3.809   3.144  16.956 -1.3352 -0.9409  0.1993
   92MPD2     C 1430   3.681   3.523  16.466  0.3332  0.5878 -0.7642
   92MPD2    C1 1431   3.710   3.544  16.595 -0.4067  0.4992 -0.4749
   92MPD2    C2 1432   3.792   3.652  16.627 -0.6702 -0.7713 -0.1460
   92MPD2    C3 1433   3.838   3.743  16.529 -0.7617 -0.0181 -0.4601
   92MPD2    C4 1434   3.817   3.706  16.395 -0.1265  0.9856  0.3066
   92MPD2    C5 1435   3.737   3.601  16.374  0.8042 -0.7599  0.3115
   92MPD2     H 1436   3.809   3.666  16.733  0.4307  0.1187 -0.4506
   92MPD2    H1 1437   3.846   3.769  16.312  1.3336 -1.3434 -0.9472
   92MPD2    H2 1438   3.622   3.439  16.431  1.1283  0.9876 -3.0803
   92MPD2    H3 1439   3.707   3.584  16.272  0.3117 -0.2533  0.3663
   92MPD2     N 1440   3.912   3.849  16.572  0.0735  0.0395 -0.2539
   92MPD2    H5 1441   3.907   3.881  16.668  1.4386  1.0704 -0.5279
   92MPD2    N1 1442   3.662   3.458  16.696  0.0605 -0.6939 -0.0716
   92MPD2    H7 1443   3.693   3.481  16.790  0.1675 -0.3428 -0.1882
   93TMC2    C1 1444   0.437   3.898  13.962 -0.0010 -0.3724  0.3764
   93TMC2    C2 1445   0.405   3.942  13.837 -0.3755 -0.2791  0.6020
   93TMC2    C3 1446   0.478   4.044  13.790 -0.1487  0.4136  0.2702
   93TMC2    C4 1447   0.540   3.948  14.031 -0.4176 -0.4961  0.1324
   93TMC2    C5 1448   0.618   4.046  13.976  0.0822 -0.1846  0.1571
   93TMC2    C6 1449   0.581   4.106  13.858  0.6716  0.6071  0.4426
   93TMC2     C 1450   0.347   3.813  14.036 -0.5711 -0.2468 -0.5687
   93TMC2     O 1451   0.372   3.764  14.144  0.5250 -0.3278  0.3241
   93TMC2     H 1452   0.363   3.872  13.766  0.0199 -0.1062  0.1962
   93TMC2    H1 1453   0.554   3.916  14.134  1.5040 -1.2186 -0.3595
   93TMC2    H2 1454   0.642   4.184  13.814  1.1226 -0.4343 -0.7710
   93TMC2    C7 1455   0.746   4.081  14.032 -0.7067 -0.2226 -0.1234
   93TMC2    C8 1456   0.452   4.097  13.658 -0.7938 -0.8069  0.1008
   93TMC2    O1 1457   0.809   3.993  14.086  0.1076 -0.2589 -0.0871
   93TMC2    O2 1458   0.536   4.172  13.610 -0.3366 -0.3657  0.2285
   93TMC2    O5 1459   0.328   4.076  13.613 -0.1719  0.8561  0.1145
   93TMC2    H5 1460   0.284   4.014  13.675  0.7603 -0.0004 -0.0932
   94MPD2     C 1461   0.101   3.670  14.149  0.4485 -1.1094 -0.5635
   94MPD2    C1 1462   0.100   3.761  14.042 -0.0321 -0.0656 -0.2426
   94MPD2    C2 1463   4.718   3.786  13.979 -0.7330 -0.1826 -0.6644
   94MPD2    C3 1464   4.607   3.717  14.023 -0.0731  0.1658  0.2682
   94MPD2    C4 1465   4.614   3.629  14.126 -0.3055  1.2481 -0.1362
   94MPD2    C5 1466   4.732   3.604  14.187 -0.6032 -0.0698 -0.2405
   94MPD2     H 1467   4.707   3.860  13.901 -2.6578 -0.7854 -0.9635
   94MPD2    H1 1468   4.525   3.573  14.152  0.4186  0.9003  1.5729
   94MPD2    H2 1469   0.195   3.638  14.194  0.3105 -1.6408 -0.6548
   94MPD2    H3 1470   4.733   3.528  14.264 -0.1763  0.2092  0.0286
   94MPD2     N 1471   4.476   3.743  13.973 -0.8747 -0.2463 -0.1852
   94MPD2    H5 1472   4.405   3.681  14.011  0.8317 -3.6050 -2.4657
   94MPD2    N1 1473   0.222   3.820  13.983 -0.2542  0.5253  0.0191
   94MPD2    H7 1474   0.214   3.872  13.897  0.3202 -0.6081 -0.7204
   95TMC2    C1 1475   0.232   0.802  16.163  0.2048 -0.2083  0.0262
   95TMC2    C2 1476   0.187   0.689  16.229 -0.7131 -0.8316 -0.0089
   95TMC2    C3 1477   0.155   0.698  16.355 -0.3629 -0.8503 -0.6211
   95TMC2    C4 1478   0.251   0.918  16.225 -0.3701  0.1556  0.8339
   95TMC2    C5 1479   0.230   0.919  16.358  0.1375  0.2382  0.2590
   95TMC2    C6 1480   0.184   0.811  16.426 -0.0214  0.1089  0.5891
   95TMC2     C 1481   0.295   0.787  16.032 -0.2374  0.1193  0.4675
   95TMC2     O 1482   0.373   0.883  16.002  0.5474 -0.3865 -0.5306
   95TMC2     H 1483   0.161   0.605  16.166 -1.9738 -0.2307 -0.2996
   95TMC2    H1 1484   0.288   1.005  16.172  0.9143 -0.1716  1.1793
   95TMC2    H2 1485   0.157   0.818  16.531 -0.8872 -2.2401  0.5196
   95TMC2    C7 1486   0.235   1.050  16.424  0.0882 -0.0416  0.0899
   95TMC2    C8 1487   0.075   0.590  16.412  0.2371 -0.2097 -0.2523
   95TMC2    O1 1488   0.262   1.052  16.546 -0.1099 -0.0497  0.6214
   95TMC2    O2 1489   0.016   0.511  16.342  0.7191  0.2567  0.0329
   95TMC2    O5 1490   0.118   0.574  16.540 -0.4480 -0.2848 -0.3958
   95TMC2    H5 1491   0.191   0.635  16.564  0.1878 -0.6871 -1.2654
   96MPD2     C 1492   0.433   0.532  15.616  0.5722 -0.1787 -0.3082
   96MPD2    C1 1493   0.481   0.655  15.660 -0.2739 -0.3322 -0.0545
   96MPD2    C2 1494   0.435   0.697  15.786 -0.3529 -0.1705  0.0206
   96MPD2    C3 1495   0.328   0.626  15.849  0.9404 -0.3088 -0.4437
   96MPD2    C4 1496   0.283   0.501  15.802 -0.5283  0.2339 -0.5490
   96MPD2    C5 1497   0.341   0.454  15.691 -0.0961 -0.5456  0.5009
   96MPD2     H 1498   0.472   0.790  15.829  1.7496 -0.1119 -1.9286
   96MPD2    H1 1499   0.201   0.449  15.850 -0.8630  0.2931 -1.0702
   96MPD2    H2 1500   0.451   0.491  15.517 -1.1560 -2.1827  0.2116
   96MPD2    H3 1501   0.321   0.354  15.656 -0.8482  0.2191 -1.2670
   96MPD2     N 1502   0.266   0.675  15.963 -0.5064  0.8062  0.0256
   96MPD2    H5 1503   0.198   0.612  16.005 -2.1641  0.1880 -3.6053
   96MPD2    N1 1504   0.559   0.733  15.569 -0.3389  0.0723 -0.0075
   96MPD2    H7 1505   0.590   0.694  15.480  1.3020 -0.7471  0.9232
   97TMC2    C1 1506   2.271   3.860  17.449 -0.1643 -0.7930  0.4950
   97TMC2    C2 1507   2.193   3.912  17.351  0.4649  0.8658 -0.5569
   97TMC2    C3 1508   2.198   4.051  17.323 -0.0692  0.1054 -0.0373
   97TMC2    C4 1509   2.371   3.926  17.504  0.2640 -0.1914 -0.5211
   97TMC2    C5 1510   2.382   4.057  17.476  0.1466 -0.1911  1.1622
   97TMC2    C6 1511   2.302   4.118  17.386  1.4050 -0.1498  0.0548
   97TMC2     C 1512   2.266   3.726  17.501 -0.7189 -0.3845  0.1833
   97TMC2     O 1513   2.333   3.701  17.605  0.1239 -0.4092  0.5427
   97TMC2     H 1514   2.117   3.854  17.299  0.4795  1.6639 -1.4713
   97TMC2    H1 1515   2.439   3.885  17.578  0.6005 -0.2500 -0.8601
   97TMC2    H2 1516   2.298   4.226  17.385  2.2416 -0.1161 -0.1574
   97TMC2    C7 1517   2.491   4.133  17.534 -0.0415 -0.2296 -0.1788
   97TMC2    C8 1518   2.069   4.118  17.329  0.2661 -1.0114  0.0740
   97TMC2    O1 1519   2.502   4.121  17.658 -0.0995  0.3722  0.6351
   97TMC2    O2 1520   2.028   4.164  17.435  0.4860 -0.0091 -0.1400
   97TMC2    O5 1521   1.998   4.065  17.225  0.4430  0.0968  0.1840
   97TMC2    H5 1522   2.058   4.017  17.164  3.1607  0.1365  2.8338
   98MPD2     C 1523   2.053   3.278  17.536 -0.0883  0.0220 -0.0971
   98MPD2    C1 1524   2.106   3.360  17.632 -0.5177 -0.2270 -0.4504
   98MPD2    C2 1525   2.152   3.480  17.594  0.0905  0.0867 -0.1533
   98MPD2    C3 1526   2.150   3.521  17.462  0.0721 -0.4714 -0.1953
   98MPD2    C4 1527   2.084   3.446  17.365  0.5432 -0.3167 -0.7245
   98MPD2    C5 1528   2.044   3.317  17.405 -0.4284 -0.2016  0.1921
   98MPD2     H 1529   2.193   3.543  17.673 -0.7571 -0.6346  0.8615
   98MPD2    H1 1530   2.064   3.463  17.260 -0.6373  2.9831  0.0318
   98MPD2    H2 1531   2.011   3.181  17.562 -0.2463 -0.2488 -1.3446
   98MPD2    H3 1532   1.986   3.259  17.333  1.0767 -1.1465 -0.2581
   98MPD2     N 1533   2.193   3.646  17.423  0.0847  0.9028  0.1995
   98MPD2    H5 1534   2.179   3.677  17.328  1.6118 -0.8671 -0.5948
   98MPD2    N1 1535   2.099   3.313   0.000  0.0185  0.2698 -0.4266
   98MPD2    H7 1536   2.069   3.216   0.010 -1.1775  0.9879  2.8078
   99TMC2    C1 1537   1.436   0.743   0.916 -0.5413 -0.2016 -0.3295
   99TMC2    C2 1538   1.505   0.863   0.923 -0.3289 -0.1333 -0.2409
   99TMC2    C3 1539   1.629   0.859   0.975 -0.2119 -0.1045 -0.3714
   99TMC2    C4 1540   1.482   0.625   0.970  0.1530  0.1555 -0.7684
   99TMC2    C5 1541   1.605   0.635   1.027  0.1904  0.3572 -0.0149
   99TMC2    C6 1542   1.675   0.750   1.031 -0.2291 -0.1465  0.6473
   99TMC2     C 1543   1.290   0.760   0.898  0.1048  0.5165 -0.2702
   99TMC2     O 1544   1.237   0.874   0.914  0.0835 -0.2044  0.2595
   99TMC2     H 1545   1.461   0.945   0.867 -0.4357  0.1549  0.2586
   99TMC2    H1 1546   1.422   0.535   0.966 -1.2262  1.0317 -0.0265
   99TMC2    H2 1547   1.769   0.750   1.087  0.7242 -0.2725 -0.9494
   99TMC2    C7 1548   1.660   0.514   1.088 -0.2513 -0.8505 -0.0533
   99TMC2    C8 1549   1.706   0.977   0.996  0.1068  0.4156  0.0535
   99TMC2    O1 1550   1.783   0.511   1.100  0.3343 -0.2611  0.3570
   99TMC2    O2 1551   1.798   0.983   1.073 -0.6326 -0.1621  0.0112
   99TMC2    O5 1552   1.669   1.074   0.913 -0.1493 -0.1638  0.0614
   99TMC2    H5 1553   1.617   1.044   0.836  1.1212 -0.5906 -0.6310
  100MPD2     C 1554   0.998   0.717   0.898  0.0562 -0.0525 -0.5435
  100MPD2    C1 1555   1.092   0.636   0.840  0.8972 -0.1534  0.1517
  100MPD2    C2 1556   1.046   0.521   0.769  0.5709 -0.0026  0.3597
  100MPD2    C3 1557   0.909   0.505   0.744 -0.6027 -0.1371 -0.1556
  100MPD2    C4 1558   0.820   0.589   0.803  0.4526  0.4211  0.3629
  100MPD2    C5 1559   0.863   0.693   0.881 -0.4037  0.1486  0.0912
  100MPD2     H 1560   1.121   0.448   0.742 -0.4235 -1.1549  0.6888
  100MPD2    H1 1561   0.714   0.569   0.793  0.7369 -0.8504 -0.0773
  100MPD2    H2 1562   1.022   0.802   0.960  0.2506 -1.0092  0.7005
  100MPD2    H3 1563   0.796   0.763   0.930  0.0092  0.3688  0.3372
  100MPD2     N 1564   0.867   0.402   0.660  0.5304  0.0928 -0.4803
  100MPD2    H5 1565   0.929   0.328   0.628  3.0132  1.6423  0.7285
  100MPD2    N1 1566   1.226   0.646   0.856  0.5801 -0.0026  0.1682
  100MPD2    H7 1567   1.279   0.573   0.809  0.1849  1.2925 -2.2750
  101TMC2    C1 1568   1.394   1.665  13.083 -0.1615  0.7446 -0.0142
  101TMC2    C2 1569   1.277   1.637  13.023  0.6265  0.6600  0.7546
  101TMC2    C3 1570   1.240   1.674  12.891 -0.5761  0.0173  0.6743
  101TMC2    C4 1571   1.488   1.742  13.013  0.1829 -0.5942 -0.3282
  101TMC2    C5 1572   1.450   1.788  12.887 -0.1140 -0.6709  0.0495
  101TMC2    C6 1573   1.329   1.756  12.823 -0.0993 -0.7636  0.1529
  101TMC2     C 1574   1.417   1.628  13.218 -0.4639  0.1456 -0.1335
  101TMC2     O 1575   1.315   1.589  13.276 -0.1282 -0.1578  1.0173
  101TMC2     H 1576   1.206   1.584  13.085 -0.4475 -2.6669 -3.3531
  101TMC2    H1 1577   1.588   1.758  13.052 -0.5222  1.3254  0.6879
  101TMC2    H2 1578   1.312   1.779  12.719 -1.4410 -2.2719  0.0275
  101TMC2    C7 1579   1.529   1.896  12.836 -0.7376 -1.0358  0.6204
  101TMC2    C8 1580   1.129   1.611  12.820 -0.3390 -0.1053 -0.3395
  101TMC2    O1 1581   1.632   1.916  12.897  0.6909  0.2786  0.2166
  101TMC2    O2 1582   1.093   1.493  12.841 -0.2634  0.4629 -0.1155
  101TMC2    O5 1583   1.073   1.705  12.733  0.2712 -0.3007  0.0477
  101TMC2    H5 1584   1.110   1.796  12.735  0.5505 -0.4436  1.3705
  102MPD2     C 1585   1.718   1.629  13.433  0.3666  0.3356  0.0607
  102MPD2    C1 1586   1.588   1.614  13.402  0.1436 -0.0182 -0.6167
  102MPD2    C2 1587   1.500   1.565  13.500  0.0481  0.2706  0.1683
  102MPD2    C3 1588   1.555   1.535  13.624 -0.1884 -0.7422  0.3572
  102MPD2    C4 1589   1.688   1.559  13.658 -0.2802 -0.2667  0.7606
  102MPD2    C5 1590   1.769   1.608  13.560 -0.7634  0.2544 -0.5091
  102MPD2     H 1591   1.394   1.566  13.476  0.0673 -0.9273  0.0015
  102MPD2    H1 1592   1.739   1.531  13.750 -3.0782 -1.1664  2.0456
  102MPD2    H2 1593   1.784   1.667  13.355  0.3329 -0.6961 -0.4757
  102MPD2    H3 1594   1.873   1.632  13.579  0.1917 -3.4279 -1.2645
  102MPD2     N 1595   1.469   1.469  13.712  0.1096  0.2844 -0.1148
  102MPD2    H5 1596   1.382   1.435  13.672 -1.7633  4.1030  0.6554
  102MPD2    N1 1597   1.547   1.648  13.268 -0.0624 -0.2155  0.4572
  102MPD2    H7 1598   1.629   1.682  13.220 -1.2832  1.9186 -0.1092
  103TMC2    C1 1599   4.185   1.862  12.674 -0.0175  0.1140  0.2511
  103TMC2    C2 1600   4.227   1.986  12.639  0.8385 -0.5569 -0.2628
  103TMC2    C3 1601   4.301   2.056  12.730 -0.5105  0.0335 -0.8730
  103TMC2    C4 1602   4.209   1.810  12.804 -0.6026 -0.1985  0.0573
  103TMC2    C5 1603   4.280   1.881  12.888 -0.4246 -0.1415  0.1859
  103TMC2    C6 1604   4.325   2.008  12.857 -0.5391  0.1668 -0.4556
  103TMC2     C 1605   4.125   1.778  12.572 -0.4325 -0.3342 -0.2999
  103TMC2     O 1606   4.063   1.831  12.483 -0.1568 -1.3895 -0.3181
  103TMC2     H 1607   4.207   2.029  12.542 -2.2990 -0.6299  0.3503
  103TMC2    H1 1608   4.180   1.713  12.842  1.4604 -0.2702  1.4996
  103TMC2    H2 1609   4.366   2.075  12.932 -0.6654 -0.9174  0.5740
  103TMC2    C7 1610   4.295   1.844  13.023  0.2582 -0.2833  0.1115
  103TMC2    C8 1611   4.325   2.193  12.710 -1.1862  0.2389  0.0887
  103TMC2    O1 1612   4.213   1.761  13.066  0.2319 -0.5629  0.2242
  103TMC2    O2 1613   4.262   2.260  12.629 -0.3744 -0.0972  0.4485
  103TMC2    O5 1614   4.411   2.248  12.799  0.1526  0.3245 -0.3229
  103TMC2    H5 1615   4.457   2.177  12.849 -1.5730  0.8279  1.9578
  104MPD2     C 1616   4.029   1.430  12.623  0.0263 -0.0919 -0.5907
  104MPD2    C1 1617   4.046   1.547  12.548 -0.8733  0.0975  0.3581
  104MPD2    C2 1618   3.977   1.562  12.432 -0.0120 -0.4405  0.6106
  104MPD2    C3 1619   3.878   1.477  12.402  0.0121 -0.2533 -0.1129
  104MPD2    C4 1620   3.850   1.369  12.481 -0.3933 -0.5337 -0.0175
  104MPD2    C5 1621   3.934   1.340  12.589  0.0950  0.0247 -0.8397
  104MPD2     H 1622   4.005   1.639  12.362 -3.1966  0.0149 -0.1329
  104MPD2    H1 1623   3.765   1.307  12.459  0.3667 -0.2734 -3.5974
  104MPD2    H2 1624   4.083   1.421  12.717 -0.0014  0.5203 -0.5180
  104MPD2    H3 1625   3.907   1.252  12.648  0.8669  0.8111  0.6841
  104MPD2     N 1626   3.814   1.510  12.280  0.3514 -0.0957 -0.0402
  104MPD2    H5 1627   3.856   1.595  12.241  0.1437 -1.3354 -2.9592
  104MPD2    N1 1628   4.127   1.647  12.613  0.5374  0.2736  0.2666
  104MPD2    H7 1629   4.172   1.624  12.702  1.8929  2.5388  0.1534
  105TMC2    C1 1630   0.992   0.784   0.368 -0.3567  0.1715 -0.1001
  105TMC2    C2 1631   1.108   0.857   0.392  0.1697  0.3701  0.4802
  105TMC2    C3 1632   1.092   0.951   0.493  0.1197  0.4251 -0.1639
  105TMC2    C4 1633   0.872   0.798   0.431 -0.5760  0.1344  0.4018
  105TMC2    C5 1634   0.871   0.897   0.526  0.5061 -0.3779  0.3069
  105TMC2    C6 1635   0.975   0.978   0.555 -0.1047  0.2687 -0.2380
  105TMC2     C 1636   0.994   0.683   0.263 -0.2880  0.9617 -0.6073
  105TMC2     O 1637   0.933   0.575   0.281 -0.3012  0.4671  0.6441
  105TMC2     H 1638   1.199   0.834   0.338 -0.3538  0.9352 -0.6437
  105TMC2    H1 1639   0.795   0.722   0.422 -1.1366  1.1016 -2.8837
  105TMC2    H2 1640   0.973   1.051   0.635 -0.2494  0.0590 -0.0481
  105TMC2    C7 1641   0.748   0.923   0.598 -0.4334 -1.3333  0.0200
  105TMC2    C8 1642   1.206   1.009   0.553 -0.3747  0.4580  0.3067
  105TMC2    O1 1643   0.639   0.884   0.553 -0.0455 -0.1397  0.3650
  105TMC2    O2 1644   1.265   0.944   0.638  0.3859  0.1679  0.2632
  105TMC2    O5 1645   1.253   1.059   0.436  0.4751  0.7593  0.5764
  105TMC2    H5 1646   1.180   1.100   0.385  0.0626 -0.6331  0.0430
  106MPD2     C 1647   1.139   0.526  17.562 -0.2331  0.3223 -0.2627
  106MPD2    C1 1648   1.199   0.651  17.581  0.0445 -0.0869 -0.0349
  106MPD2    C2 1649   1.160   0.705  17.702 -0.3244  0.2757 -0.1767
  106MPD2    C3 1650   1.073   0.656   0.030 -0.0267 -0.5755  0.0593
  106MPD2    C4 1651   1.027   0.527   0.008 -0.1063 -0.5485  0.0244
  106MPD2    C5 1652   1.079   0.463  17.663 -0.5489 -0.3208 -0.7577
  106MPD2     H 1653   1.204   0.802  17.723 -1.5245  0.4891  1.4008
  106MPD2    H1 1654   0.967   0.467   0.075 -1.1420  0.8084  0.3174
  106MPD2    H2 1655   1.179   0.464  17.483 -0.7173  1.5872 -1.5016
  106MPD2    H3 1656   1.050   0.360  17.649  0.3618 -0.8526  1.2602
  106MPD2     N 1657   1.053   0.730   0.148  0.1169 -0.4923 -0.2297
  106MPD2    H5 1658   1.094   0.822   0.143  0.6043 -0.5101  3.5826
  106MPD2    N1 1659   1.294   0.712  17.498 -0.0624 -0.0111  0.3758
  106MPD2    H7 1660   1.337   0.803  17.512 -0.2160  0.0986  0.1245
  107TMC2    C1 1661   2.058   0.596  11.988  0.0213  0.1722 -0.0466
  107TMC2    C2 1662   1.986   0.638  11.880  0.3529  0.2894  0.6666
  107TMC2    C3 1663   1.966   0.552  11.775  0.4003  0.5611  0.0295
  107TMC2    C4 1664   2.111   0.471  11.994 -0.6484  0.1176  0.1415
  107TMC2    C5 1665   2.089   0.387  11.882 -0.5204  0.8438 -1.3831
  107TMC2    C6 1666   2.010   0.424  11.773 -0.3130  0.0964 -0.1071
  107TMC2     C 1667   2.041   0.657  12.125 -0.8650  0.1484  0.4709
  107TMC2     O 1668   2.058   0.580  12.218  0.1181 -0.0499 -0.4222
  107TMC2     H 1669   1.917   0.721  11.877 -1.0508 -0.8801  0.2993
  107TMC2    H1 1670   2.174   0.440  12.077 -1.2980  1.3021  1.0777
  107TMC2    H2 1671   2.002   0.353  11.691 -2.1984  1.0157 -0.7246
  107TMC2    C7 1672   2.118   0.246  11.912  0.9608  0.3255  0.6928
  107TMC2    C8 1673   1.897   0.597  11.652  0.8925  0.1313  0.1067
  107TMC2    O1 1674   2.174   0.229  12.017 -0.1063 -0.3904  0.1679
  107TMC2    O2 1675   1.861   0.526  11.562  0.5134  0.2586  0.0039
  107TMC2    O5 1676   1.909   0.734  11.650  0.3417 -0.3215 -0.6058
  107TMC2    H5 1677   1.969   0.758  11.723  1.1513  0.6033 -1.5843
  108MPD2     C 1678   1.940   1.003  12.222 -0.4901  0.2261  1.1035
  108MPD2    C1 1679   1.978   0.866  12.236 -0.0442  0.4085 -0.0369
  108MPD2    C2 1680   1.969   0.812  12.365  0.6142  0.2889 -0.3715
  108MPD2    C3 1681   1.928   0.889  12.473  0.5713  0.0396  0.5432
  108MPD2    C4 1682   1.914   1.026  12.458 -0.0759 -0.2363 -0.0741
  108MPD2    C5 1683   1.918   1.086  12.333 -0.0273  0.1059 -0.2728
  108MPD2     H 1684   1.990   0.707  12.375 -0.8073  0.0128 -0.2672
  108MPD2    H1 1685   1.912   1.087  12.548  0.5274  2.2017 -1.7185
  108MPD2    H2 1686   1.920   1.051  12.127 -1.5019 -0.8584  0.7628
  108MPD2    H3 1687   1.896   1.191  12.322  2.1840  0.5793 -0.2410
  108MPD2     N 1688   1.912   0.840  12.604 -1.0079 -0.5573 -0.5879
  108MPD2    H5 1689   1.865   0.908  12.663  0.9291 -0.2820  0.6133
  108MPD2    N1 1690   1.996   0.785  12.126  0.0253  0.2605  0.1118
  108MPD2    H7 1691   1.988   0.825  12.033  0.6699 -1.1664 -0.5575
  109TMC2    C1 1692   1.586   2.156   0.401 -0.1387 -0.5793  0.2203
  109TMC2    C2 1693   1.621   2.098   0.284  0.1691 -0.2065  0.2942
  109TMC2    C3 1694   1.711   2.163   0.196 -0.0992  0.1116  0.4205
  109TMC2    C4 1695   1.637   2.281   0.435  0.5185  0.4165  0.4948
  109TMC2    C5 1696   1.716   2.345   0.347  0.0690 -0.6351  0.5431
  109TMC2    C6 1697   1.764   2.288   0.233  0.5936  0.5273  0.4639
  109TMC2     C 1698   1.455   2.117   0.455 -0.8154 -0.6279  0.0034
  109TMC2     O 1699   1.385   2.045   0.383 -0.0378 -0.0970  0.2160
  109TMC2     H 1700   1.582   2.000   0.258 -0.0151  0.3094 -1.3624
  109TMC2    H1 1701   1.617   2.325   0.532 -0.9374 -1.7734  1.1760
  109TMC2    H2 1702   1.826   2.338   0.160 -0.2922 -0.3719 -0.8892
  109TMC2    C7 1703   1.745   2.488   0.358  0.1235  0.6921 -0.6262
  109TMC2    C8 1704   1.729   2.104   0.061  0.1837 -0.2375 -0.3418
  109TMC2    O1 1705   1.831   2.540   0.289 -0.2491  0.0682  0.3921
  109TMC2    O2 1706   1.723   1.986   0.035  0.0561  0.2128 -0.2388
  109TMC2    O5 1707   1.723   2.202  17.735 -0.5716 -0.2338  0.4381
  109TMC2    H5 1708   1.706   2.295  17.762 -2.2466 -0.2480 -0.4973
  110MPD2     C 1709   1.065   2.241   0.773  0.4139 -0.1222  0.5745
  110MPD2    C1 1710   1.185   2.287   0.827 -0.2367 -0.0677  0.2379
  110MPD2    C2 1711   1.303   2.252   0.762 -0.0536 -0.5535 -0.2940
  110MPD2    C3 1712   1.308   2.178   0.645 -0.2207 -0.2563 -0.3794
  110MPD2    C4 1713   1.186   2.147   0.590 -0.0492 -0.3482  0.8371
  110MPD2    C5 1714   1.069   2.185   0.648  0.3638 -0.5050 -0.7680
  110MPD2     H 1715   1.396   2.300   0.790  1.1732 -2.7505 -0.6109
  110MPD2    H1 1716   1.183   2.115   0.486  1.7080  1.2346  0.3055
  110MPD2    H2 1717   0.968   2.249   0.821  0.8174  1.4563  1.1480
  110MPD2    H3 1718   0.977   2.154   0.601 -0.2006 -0.4626  0.2995
  110MPD2     N 1719   1.436   2.157   0.587  0.0254  0.1779 -0.2934
  110MPD2    H5 1720   1.514   2.199   0.637  0.4043  0.9030 -1.4953
  110MPD2    N1 1721   1.177   2.374   0.936  0.1339 -0.7350 -0.0191
  110MPD2    H7 1722   1.084   2.403   0.967 -0.5879 -3.4617  0.4454
  111TMC2    C1 1723   1.875   2.878  11.664  0.7623 -0.1637  0.1855
  111TMC2    C2 1724   1.945   2.898  11.548  0.3438 -1.2006 -0.4778
  111TMC2    C3 1725   2.062   2.828  11.543  0.0580  0.1550 -0.5590
  111TMC2    C4 1726   1.916   2.798  11.768  0.2719 -0.0329 -0.2283
  111TMC2    C5 1727   2.040   2.745  11.756 -0.2615 -0.4241  0.4574
  111TMC2    C6 1728   2.115   2.751  11.642  0.1074 -0.3712 -0.2026
  111TMC2     C 1729   1.754   2.957  11.676  0.6674  0.4857 -0.2693
  111TMC2     O 1730   1.733   3.055  11.604  0.2196  0.4749 -0.5003
  111TMC2     H 1731   1.906   2.966  11.473  0.0152 -0.9373 -0.0693
  111TMC2    H1 1732   1.857   2.782  11.858 -0.8459 -0.0768 -0.9668
  111TMC2    H2 1733   2.200   2.694  11.607  0.9397  1.2859 -0.8801
  111TMC2    C7 1734   2.111   2.717  11.877  0.2396 -0.5961  0.2967
  111TMC2    C8 1735   2.147   2.857  11.431 -0.2252  0.1781 -0.1954
  111TMC2    O1 1736   2.042   2.695  11.974 -0.2388  0.2587 -0.5315
  111TMC2    O2 1737   2.219   2.766  11.385  0.1198 -0.0783  0.3361
  111TMC2    O5 1738   2.150   2.988  11.403 -0.0788  0.0763  0.2385
  111TMC2    H5 1739   2.096   3.035  11.471 -1.9902 -0.9600 -0.5634
  112MPD2     C 1740   1.251   2.981  11.789 -0.4866 -0.6365 -0.2771
  112MPD2    C1 1741   1.325   3.059  11.709  0.5887 -0.8373  0.0987
  112MPD2    C2 1742   1.459   3.028  11.697  0.6801  0.7270  0.1200
  112MPD2    C3 1743   1.525   2.932  11.771 -0.3642  0.5605  0.3154
  112MPD2    C4 1744   1.450   2.849  11.845 -0.1710 -0.0404  0.5774
  112MPD2    C5 1745   1.315   2.872  11.846 -0.2333 -0.0516  0.7856
  112MPD2     H 1746   1.519   3.091  11.632 -0.3037  1.6193  0.0583
  112MPD2    H1 1747   1.487   2.754  11.881 -2.7504 -2.4774 -3.2523
  112MPD2    H2 1748   1.145   2.988  11.810 -0.5598 -0.0650 -0.8463
  112MPD2    H3 1749   1.247   2.796  11.883  1.4911 -1.2727  1.4685
  112MPD2     N 1750   1.658   2.896  11.750  0.2873 -0.4165  0.2068
  112MPD2    H5 1751   1.689   2.802  11.773  1.1922 -0.0689  0.4143
  112MPD2    N1 1752   1.273   3.169  11.636 -0.1192 -0.1752 -0.3870
  112MPD2    H7 1753   1.334   3.215  11.569 -2.4711  0.2071 -2.2831
  113TMC2    C1 1754   0.106   0.308   0.571  1.0375  0.5136 -0.0104
  113TMC2    C2 1755   0.062   0.429   0.528 -0.4663 -0.1682  0.4147
  113TMC2    C3 1756   4.678   0.430   0.475  0.2676 -0.5812 -0.3643
  113TMC2    C4 1757   0.033   0.202   0.576 -0.8382  0.1488 -0.3208
  113TMC2    C5 1758   4.646   0.208   0.532  0.5615  0.7805 -0.1560
  113TMC2    C6 1759   4.589   0.322   0.473 -0.0500 -0.3307 -0.4531
  113TMC2     C 1760   0.241   0.308   0.618 -0.6379 -0.1690  0.7134
  113TMC2     O 1761   0.306   0.413   0.640 -0.0098  0.0683  0.1503
  113TMC2     H 1762   0.126   0.517   0.518 -0.6553 -0.3085 -2.1015
  113TMC2    H1 1763   0.073   0.112   0.621  1.6382  1.1981 -0.4354
  113TMC2    H2 1764   4.487   0.321   0.438  0.3259  1.6188 -1.5604
  113TMC2    C7 1765   4.562   0.088   0.556 -0.3774  0.0627  0.5044
  113TMC2    C8 1766   4.617   0.562   0.510  0.4227  0.3164 -0.5116
  113TMC2    O1 1767   4.459   0.084   0.487  0.0955 -0.2318 -0.7611
  113TMC2    O2 1768   4.679   0.625   0.595  0.2346 -0.5586  0.0143
  113TMC2    O5 1769   4.488   0.553   0.498 -0.4361  0.3192 -0.0053
  113TMC2    H5 1770   4.459   0.524   0.409 -1.4659 -0.9164  0.7324
  114MPD2     C 1771   0.623   0.096   0.887 -0.0582  1.2749  0.9013
  114MPD2    C1 1772   0.584   0.224   0.875  0.6506  0.6626 -0.2506
  114MPD2    C2 1773   0.477   0.250   0.794  0.6703 -0.3823  0.5385
  114MPD2    C3 1774   0.415   0.158   0.709  0.1532  0.0593  0.4856
  114MPD2    C4 1775   0.461   0.032   0.722 -0.1423 -0.7399  0.6872
  114MPD2    C5 1776   0.567   0.003   0.806  0.3346 -0.1260 -0.1642
  114MPD2     H 1777   0.434   0.349   0.805  1.0126 -0.0871 -0.7908
  114MPD2    H1 1778   0.420   4.693   0.662  0.5077 -0.2211 -0.4658
  114MPD2    H2 1779   0.699   0.071   0.960  1.5662  0.3714 -1.0954
  114MPD2    H3 1780   0.604   4.642   0.805  1.6983  0.3701  0.1346
  114MPD2     N 1781   0.300   0.188   0.632  0.4931  0.1424  0.3273
  114MPD2    H5 1782   0.268   0.114   0.570 -2.0586 -0.4853  2.4178
  114MPD2    N1 1783   0.628   0.329   0.958  0.4674  0.5084  0.0178
  114MPD2    H7 1784   0.584   0.420   0.959  1.3693  0.9471 -1.3471
  115TMC2    C1 1785   1.009   2.827  17.692  0.4768  0.2975  0.4868
  115TMC2    C2 1786   1.141   2.799  17.685 -0.0380 -0.0998  0.8440
  115TMC2    C3 1787   1.230   2.902  17.704 -0.3979 -0.2498 -0.3193
  115TMC2    C4 1788   0.964   2.952  17.729 -0.4170 -0.6435  0.3130
  115TMC2    C5 1789   1.059   3.052  17.735  0.1937  0.6089 -0.6935
  115TMC2    C6 1790   1.190   3.032  17.722  0.0370 -0.0333 -1.1242
  115TMC2     C 1791   0.909   2.723  17.655  0.5089  0.4101 -0.1829
  115TMC2     O 1792   0.952   2.625  17.597 -0.0110  0.7685 -0.4252
  115TMC2     H 1793   1.170   2.695  17.670  0.6654 -0.3469  3.8305
  115TMC2    H1 1794   0.860   2.980  17.742 -0.0650  0.3332  1.0245
  115TMC2    H2 1795   1.254   3.117  17.741  0.4759 -0.6340  0.1156
  115TMC2    C7 1796   1.004   3.190  17.738  0.4010  0.2730 -1.2696
  115TMC2    C8 1797   1.369   2.880  17.711  0.0763 -0.6889  0.2759
  115TMC2    O1 1798   0.890   3.189   0.020 -0.5343 -0.2405 -0.5629
  115TMC2    O2 1799   1.441   2.942   0.028 -0.5873 -0.4708 -0.0943
  115TMC2    O5 1800   1.398   2.776  17.634  0.4395  0.0162 -0.4495
  115TMC2    H5 1801   1.336   2.773  17.559  0.6005  1.1257 -0.6180
  116MPD2     C 1802   0.418   2.592  17.581 -0.3767  0.3923 -0.4239
  116MPD2    C1 1803   0.534   2.517  17.540  0.3431 -1.0007 -0.3954
  116MPD2    C2 1804   0.658   2.582  17.561  0.0909 -0.1533 -0.0027
  116MPD2    C3 1805   0.671   2.702  17.635  0.0240 -1.1719 -0.8618
  116MPD2    C4 1806   0.558   2.768  17.679  0.5791 -0.4522  0.1475
  116MPD2    C5 1807   0.436   2.703  17.663 -0.2727  0.9083  0.9114
  116MPD2     H 1808   0.750   2.527  17.544  0.5495  0.8668 -0.8503
  116MPD2    H1 1809   0.567   2.863  17.731  1.6837 -0.9159  0.7971
  116MPD2    H2 1810   0.318   2.553  17.567 -0.6617  1.5726 -1.6442
  116MPD2    H3 1811   0.346   2.743  17.709  1.0438  2.3574  2.2128
  116MPD2     N 1812   0.783   2.775  17.668  0.3049 -0.2651  0.3353
  116MPD2    H5 1813   0.775   2.862  17.720 -1.0852 -0.5445  0.5952
  116MPD2    N1 1814   0.527   2.392  17.466  0.6476  0.5144  0.0415
  116MPD2    H7 1815   0.433   2.376  17.431  0.9111  0.0757 -0.4690
  117TMC2    C1 1816   4.104   4.631  14.532 -0.6439  0.8540 -0.0134
  117TMC2    C2 1817   4.132   0.009  14.593  0.0226 -0.3767  0.1999
  117TMC2    C3 1818   4.240   0.077  14.554  0.7572 -0.2396 -0.2717
  117TMC2    C4 1819   4.184   4.572  14.443  0.0678 -0.4953 -0.1252
  117TMC2    C5 1820   4.296   4.638  14.411 -0.1726  0.4557 -0.0304
  117TMC2    C6 1821   4.327   0.020  14.467 -0.3817 -0.2669 -0.1226
  117TMC2     C 1822   3.969   4.608  14.490 -0.0289  0.1678  0.3850
  117TMC2     O 1823   3.928   4.496  14.501 -0.0369  0.4502  0.7941
  117TMC2     H 1824   4.057   0.056  14.656 -0.7220 -1.3425  0.0215
  117TMC2    H1 1825   4.148   4.486  14.387  0.8681  1.1818 -3.2268
  117TMC2    H2 1826   4.420   0.071  14.445 -0.3473  0.6950  2.2480
  117TMC2    C7 1827   4.367   4.603  14.296 -0.1341 -0.5819  0.5844
  117TMC2    C8 1828   4.278   0.174  14.650 -0.3896  0.3363 -0.0436
  117TMC2    O1 1829   4.438   4.692  14.242 -0.1933  0.0960  0.5798
  117TMC2    O2 1830   4.246   0.168  14.765 -0.0400  0.0758  0.0865
  117TMC2    O5 1831   4.352   0.274  14.594 -0.3065  0.4201 -0.3528
  117TMC2    H5 1832   4.357   0.271  14.496 -1.4678 -1.9078 -0.3570
  118MPD2     C 1833   4.407   4.253  14.136  1.4741 -0.1426  0.7734
  118MPD2    C1 1834   4.405   4.394  14.154 -0.6764 -0.4000 -0.1728
  118MPD2    C2 1835   4.464   4.469  14.054 -0.5109 -1.3554  0.0923
  118MPD2    C3 1836   4.511   4.399  13.940 -0.1946 -0.0725 -0.8573
  118MPD2    C4 1837   4.495   4.261  13.927 -0.0184  0.2527 -0.7807
  118MPD2    C5 1838   4.448   4.184  14.023 -0.5134 -0.2266  0.0599
  118MPD2     H 1839   4.453   4.577  14.051 -0.0170 -1.3088  0.0663
  118MPD2    H1 1840   4.532   4.210  13.839 -0.7490 -1.3703 -0.1252
  118MPD2    H2 1841   4.377   4.200  14.225  1.0777  0.4282  0.9749
  118MPD2    H3 1842   4.432   4.081  13.996  1.7143 -0.5486  0.0351
  118MPD2     N 1843   4.559   4.475  13.829 -0.0711  0.4934  0.3977
  118MPD2    H5 1844   4.590   4.415  13.753  1.4456 -0.0175  1.4331
  118MPD2    N1 1845   4.357   4.463  14.273 -0.1780 -0.0660  0.4658
  118MPD2    H7 1846   4.323   4.404  14.348  1.0451  2.4928  3.0313
  119TMC2    C1 1847   2.534   0.654  13.334  0.2687 -0.1872 -0.0751
  119TMC2    C2 1848   2.578   0.529  13.368  0.0102  0.1535  0.0664
  119TMC2    C3 1849   2.501   0.423  13.333  0.8327 -0.7305 -0.8640
  119TMC2    C4 1850   2.414   0.674  13.263  0.1092 -0.2331 -0.6732
  119TMC2    C5 1851   2.343   0.561  13.227 -0.4053 -0.9339 -0.4316
  119TMC2    C6 1852   2.385   0.434  13.263 -0.0914  0.6223  0.3235
  119TMC2     C 1853   2.597   0.762  13.402  0.8903 -0.0749 -0.3231
  119TMC2     O 1854   2.648   0.738  13.508  0.2347 -0.3956 -0.4946
  119TMC2     H 1855   2.666   0.512  13.429 -0.6191 -4.0951 -0.1990
  119TMC2    H1 1856   2.364   0.768  13.245  0.7367  0.9280  3.7672
  119TMC2    H2 1857   2.325   0.354  13.221  1.4711 -0.1802 -0.3920
  119TMC2    C7 1858   2.205   0.575  13.214  0.4875  0.5177 -0.5604
  119TMC2    C8 1859   2.554   0.291  13.311 -0.2755 -0.2581 -0.2481
  119TMC2    O1 1860   2.149   0.573  13.105 -0.2044 -0.8406  0.1666
  119TMC2    O2 1861   2.488   0.203  13.253  0.4509 -0.4882  0.4102
  119TMC2    O5 1862   2.688   0.298  13.295 -0.1821  0.1838 -0.5773
  119TMC2    H5 1863   2.717   0.391  13.311  1.6373  0.1423 -3.7615
  120MPD2     C 1864   2.576   1.262  13.561 -0.3799 -0.3320  0.4371
  120MPD2    C1 1865   2.569   1.145  13.636 -0.8847 -0.4689  0.5640
  120MPD2    C2 1866   2.575   1.021  13.568  0.2618  0.2043  0.4786
  120MPD2    C3 1867   2.568   1.009  13.431  0.8295 -0.6822 -0.1586
  120MPD2    C4 1868   2.581   1.129  13.358 -0.0899  0.0408  0.7908
  120MPD2    C5 1869   2.579   1.253  13.417  0.3497 -0.3080 -0.4115
  120MPD2     H 1870   2.571   0.927  13.621 -0.2164  0.2746  0.5658
  120MPD2    H1 1871   2.579   1.122  13.249  2.1270  1.0557  0.7023
  120MPD2    H2 1872   2.581   1.359  13.609 -3.2219 -0.6371  1.3300
  120MPD2    H3 1873   2.571   1.343  13.358  0.9828 -0.2061 -0.3336
  120MPD2     N 1874   2.558   0.886  13.358  0.0904  0.6578 -0.1770
  120MPD2    H5 1875   2.528   0.886  13.261 -1.3662 -0.4638  0.2728
  120MPD2    N1 1876   2.534   1.152  13.776 -0.0629 -0.2764 -0.7697
  120MPD2    H7 1877   2.541   1.064  13.827 -0.1847 -0.3203 -0.8271
  121TMC2    C1 1878   4.303   2.702  13.945  0.3835 -0.1148 -0.3311
  121TMC2    C2 1879   4.302   2.834  13.930  0.4752 -0.0908 -0.1107
  121TMC2    C3 1880   4.248   2.911  14.023 -0.0250 -0.2332  0.9209
  121TMC2    C4 1881   4.240   2.643  14.050 -0.5570 -0.3299  0.5253
  121TMC2    C5 1882   4.179   2.722  14.138  0.0181  0.1438 -0.3604
  121TMC2    C6 1883   4.185   2.859  14.128  0.0573 -0.3399  0.1811
  121TMC2     C 1884   4.365   2.615  13.855  0.1347  0.2620 -0.2446
  121TMC2     O 1885   4.378   2.499  13.896 -0.6732  0.5529 -0.0493
  121TMC2     H 1886   4.362   2.881  13.852  1.1912  0.4587  0.7772
  121TMC2    H1 1887   4.237   2.535  14.062 -1.1745 -0.3080  0.5750
  121TMC2    H2 1888   4.129   2.905  14.208  1.0001  0.3620  0.4291
  121TMC2    C7 1889   4.054   2.671  14.181 -0.6148 -0.2880  0.1097
  121TMC2    C8 1890   4.251   3.050  13.988 -0.5290  0.2651  0.6264
  121TMC2    O1 1891   4.058   2.570  14.248 -0.1124  0.1846 -0.0362
  121TMC2    O2 1892   4.218   3.071  13.870 -0.1716 -0.6339  0.7116
  121TMC2    O5 1893   4.204   3.125  14.084 -0.2535 -0.0559  0.3224
  121TMC2    H5 1894   4.243   3.104  14.171 -1.0638  0.3682  0.7930
  122MPD2     C 1895   4.550   2.498  13.659 -0.1479 -0.3487  0.5103
  122MPD2    C1 1896   4.462   2.603  13.632  0.4234 -0.5963  0.0644
  122MPD2    C2 1897   4.459   2.653  13.498  0.0382 -0.1611  0.2335
  122MPD2    C3 1898   4.546   2.600  13.405  0.2278  0.5634  0.3289
  122MPD2    C4 1899   4.630   2.495  13.436  0.3610 -0.3035 -0.1811
  122MPD2    C5 1900   4.628   2.446  13.559 -0.0914 -0.1101 -0.7933
  122MPD2     H 1901   4.400   2.740  13.472  0.2333  0.3939  1.6381
  122MPD2    H1 1902   4.692   2.438  13.368  0.4868  1.1715 -1.3053
  122MPD2    H2 1903   4.551   2.452  13.757  0.5034  0.3331  0.8182
  122MPD2    H3 1904   4.701   2.368  13.578  1.0399  1.1812  0.1289
  122MPD2     N 1905   4.558   2.656  13.274 -0.0287  0.7353 -0.1276
  122MPD2    H5 1906   4.636   2.626  13.216 -1.0336  0.9704 -1.5897
  122MPD2    N1 1907   4.380   2.668  13.729  0.4639  0.5916  0.0808
  122MPD2    H7 1908   4.335   2.755  13.701  1.3185  0.9153 -0.2841
  123TMC2    C1 1909   2.561   1.763  10.095 -0.0945 -0.3403  0.2448
  123TMC2    C2 1910   2.652   1.773   9.989 -0.4335  0.1052 -0.6585
  123TMC2    C3 1911   2.609   1.753   9.860  0.2374 -0.0367  0.4511
  123TMC2    C4 1912   2.428   1.764  10.064 -0.2877  0.0119  0.5078
  123TMC2    C5 1913   2.386   1.752   9.934  0.6369 -0.5396  0.1666
  123TMC2    C6 1914   2.476   1.736   9.829 -0.2707  0.6051  0.3229
  123TMC2     C 1915   2.614   1.699  10.221  0.2175  0.2813  0.2946
  123TMC2     O 1916   2.737   1.687  10.219  0.6555 -0.5863  0.5691
  123TMC2     H 1917   2.759   1.758  10.001 -0.1796  1.3498 -1.3850
  123TMC2    H1 1918   2.349   1.780  10.137  1.5614  1.4923  2.2035
  123TMC2    H2 1919   2.445   1.709   9.729  1.2173 -1.3064  0.3725
  123TMC2    C7 1920   2.276   1.655   9.918 -0.3518  0.5966  0.4941
  123TMC2    C8 1921   2.701   1.737   9.750  0.5229 -0.0300 -0.0491
  123TMC2    O1 1922   2.310   1.554   9.856  0.0158 -0.4947  0.9741
  123TMC2    O2 1923   2.821   1.721   9.777 -0.6083  0.0318 -0.4113
  123TMC2    O5 1924   2.644   1.707   9.628  0.0562  0.1773  0.1190
  123TMC2    H5 1925   2.551   1.736   9.620  0.7735  1.4906 -3.5741
  124MPD2     C 1926   2.508   1.356  10.603 -0.0977 -0.5845  0.0272
  124MPD2    C1 1927   2.391   1.420  10.566 -0.3271  0.1178 -0.1700
  124MPD2    C2 1928   2.399   1.512  10.462 -0.2864  0.1874 -0.1446
  124MPD2    C3 1929   2.517   1.549  10.402 -0.4344 -0.4294  0.5343
  124MPD2    C4 1930   2.635   1.493  10.447 -0.3258  0.7344  0.0621
  124MPD2    C5 1931   2.626   1.395  10.547 -0.3275 -0.1760 -0.4071
  124MPD2     H 1932   2.308   1.561  10.427  0.4256 -0.0726 -2.4045
  124MPD2    H1 1933   2.725   1.527  10.397  1.6706 -2.6197  1.3800
  124MPD2    H2 1934   2.498   1.272  10.671  4.6713 -2.2931 -1.4310
  124MPD2    H3 1935   2.719   1.347  10.577 -1.6042 -1.3360  1.6246
  124MPD2     N 1936   2.512   1.640  10.298  0.6560 -0.1417  0.2156
  124MPD2    H5 1937   2.418   1.674  10.281  0.8876  0.6364  0.5216
  124MPD2    N1 1938   2.264   1.382  10.618  0.9736  0.2102  0.3679
  124MPD2    H7 1939   2.265   1.301  10.679  1.2952 -0.1635 -0.1305
  125TMC2    C1 1940   3.334   2.097   9.167  0.0149 -0.4855 -0.1800
  125TMC2    C2 1941   3.280   2.173   9.067  0.0784  0.3546 -0.4258
  125TMC2    C3 1942   3.366   2.232   8.977  0.3694 -0.6534 -0.1219
  125TMC2    C4 1943   3.467   2.090   9.204 -0.0189 -0.2236  0.0194
  125TMC2    C5 1944   3.542   2.162   9.111 -0.5295 -0.2050  0.2612
  125TMC2    C6 1945   3.502   2.218   8.993 -0.1726  1.0407 -0.6011
  125TMC2     C 1946   3.241   2.026   9.251  0.0866  0.0935 -0.6640
  125TMC2     O 1947   3.267   2.020   9.370  0.3245 -0.0231 -0.5962
  125TMC2     H 1948   3.173   2.182   9.054 -0.3348 -1.7471  1.5724
  125TMC2    H1 1949   3.496   2.048   9.300  1.0201  0.3813 -0.0294
  125TMC2    H2 1950   3.572   2.278   8.935  1.5422 -0.9541 -0.5691
  125TMC2    C7 1951   3.679   2.191   9.135  0.3975 -0.8048 -0.5111
  125TMC2    C8 1952   3.314   2.310   8.863  0.0409  0.1664 -0.0053
  125TMC2    O1 1953   3.720   2.302   9.123 -0.3141 -0.0256  0.4052
  125TMC2    O2 1954   3.198   2.347   8.858 -0.2327  0.7380 -0.1026
  125TMC2    O5 1955   3.404   2.318   8.761  0.2181 -0.3410 -0.7574
  125TMC2    H5 1956   3.483   2.260   8.763  0.1683 -0.3920 -0.3389
  126MPD1     C 1957   2.779   1.844   9.347  0.2067 -0.4394 -0.3829
  126MPD1    C1 1958   2.801   1.845   9.209 -0.2222  0.0356 -0.0149
  126MPD1    C2 1959   2.925   1.882   9.164 -0.4270  0.0251 -0.8310
  126MPD1    C3 1960   3.021   1.941   9.241 -0.2272  0.7231 -0.4847
  126MPD1    C4 1961   2.984   1.962   9.371 -0.2913  0.0072 -0.5077
  126MPD1    C5 1962   2.868   1.913   9.426 -0.0243 -0.2297 -0.3578
  126MPD1     H 1963   2.946   1.852   9.062 -1.9949  2.6522 -1.9372
  126MPD1    H1 1964   3.051   2.009   9.441 -0.4530 -0.2407 -0.1865
  126MPD1    H2 1965   2.682   1.811   9.383  1.0748 -1.8308  0.7040
  126MPD1    H3 1966   2.846   1.933   9.530  1.5754  2.3641 -0.5201
  126MPD1     N 1967   3.139   1.978   9.179  0.6615  0.5590  0.4164
  126MPD1    H5 1968   3.144   1.973   9.078  2.7335  1.8755  0.4660
  126MPD1    N1 1969   2.718   1.760   9.134  0.1715 -0.5517  0.2970
  126MPD1    H6 1970   2.722   1.784   9.035 -0.4097  0.2624  0.4653
  126MPD1    H7 1971   2.621   1.761   9.166  0.9108 -0.3876  2.5027
  127TMC2    C1 1972   4.116   1.001  10.134 -0.3484 -0.2615  0.3084
  127TMC2    C2 1973   4.153   1.011  10.265 -0.1222  0.0062 -0.7701
  127TMC2    C3 1974   4.177   0.892  10.329 -0.4931 -0.2738 -0.1169
  127TMC2    C4 1975   4.079   0.882  10.071  0.4893  0.1772  0.0833
  127TMC2    C5 1976   4.084   0.766  10.147 -0.5111 -0.1424  0.1179
  127TMC2    C6 1977   4.130   0.769  10.278 -0.9164  0.5188  0.6389
  127TMC2     C 1978   4.076   1.121  10.060 -0.0462  0.3558  0.8635
  127TMC2     O 1979   3.991   1.100   9.976 -0.0369 -0.1110 -0.3243
  127TMC2     H 1980   4.162   1.108  10.312 -0.2107  0.2481 -1.2446
  127TMC2    H1 1981   4.062   0.882   9.964 -1.3902  0.5240  0.3672
  127TMC2    H2 1982   4.138   0.683  10.343 -1.7031 -0.5380 -0.6681
  127TMC2    C7 1983   4.082   0.643  10.074 -0.5680  0.4634  0.1598
  127TMC2    C8 1984   4.192   0.908  10.472 -0.2522 -0.2788  0.0453
  127TMC2    O1 1985   4.065   0.651   9.950  0.4111  0.0298  0.0112
  127TMC2    O2 1986   4.300   0.927  10.533 -0.4176 -0.0475  0.9531
  127TMC2    O5 1987   4.068   0.897  10.521  0.2020 -0.4680  0.4338
  127TMC2    H5 1988   3.997   0.876  10.457 -0.2464  0.2843  0.6837
  128MPD2     C 1989   4.033   1.403   9.960 -0.0185 -0.7798 -0.0048
  128MPD2    C1 1990   4.131   1.357  10.048  0.2050 -0.2414  0.2044
  128MPD2    C2 1991   4.228   1.449  10.084 -0.3346 -0.4457 -0.1337
  128MPD2    C3 1992   4.228   1.570  10.019 -1.0326  0.0269 -0.2140
  128MPD2    C4 1993   4.140   1.609   9.922  0.3585  0.3637  0.3211
  128MPD2    C5 1994   4.039   1.520   9.898 -0.0991 -0.3419  0.2790
  128MPD2     H 1995   4.294   1.427  10.167 -1.8068 -0.6746  0.9731
  128MPD2    H1 1996   4.145   1.707   9.877  0.8123  1.5892  3.0009
  128MPD2    H2 1997   3.952   1.339   9.925 -1.7964  1.5139 -0.0571
  128MPD2    H3 1998   3.955   1.550   9.836 -0.6303 -1.4988  0.4371
  128MPD2     N 1999   4.328   1.667  10.057  0.1247 -0.1102  0.3933
  128MPD2    H5 2000   4.364   1.650  10.150 -0.0067  0.2057  0.4999
  128MPD2    N1 2001   4.136   1.233  10.110 -0.9317  0.1016 -0.3394
  128MPD2    H7 2002   4.199   1.222  10.189 -1.1293  0.9788 -0.0634
  129TMC2    C1 2003   2.719   2.559   1.171 -0.0270  0.7411  0.6689
  129TMC2    C2 2004   2.778   2.663   1.232  0.4945 -0.2916 -0.0459
  129TMC2    C3 2005   2.704   2.776   1.234 -0.2577 -0.1682 -0.7111
  129TMC2    C4 2006   2.586   2.557   1.137 -0.0097  0.7247 -0.3034
  129TMC2    C5 2007   2.517   2.671   1.152 -1.0167  0.3371 -0.3701
  129TMC2    C6 2008   2.579   2.790   1.193 -0.0232  0.0895  0.0976
  129TMC2     C 2009   2.776   2.431   1.191  0.3039  0.1233  0.0170
  129TMC2     O 2010   2.699   2.334   1.209  0.2933  0.3053 -0.4478
  129TMC2     H 2011   2.878   2.660   1.275  0.5074  2.0821  0.0847
  129TMC2    H1 2012   2.547   2.464   1.096  0.7562  0.1763  0.2254
  129TMC2    H2 2013   2.513   2.871   1.223 -0.5175 -0.1100 -0.4426
  129TMC2    C7 2014   2.373   2.655   1.178  0.4921  0.3157  0.1831
  129TMC2    C8 2015   2.747   2.909   1.286 -0.9977 -0.1108 -0.1786
  129TMC2    O1 2016   2.326   2.544   1.180 -0.2157  0.7282 -0.2328
  129TMC2    O2 2017   2.683   3.015   1.268 -0.1082  0.3761 -0.3514
  129TMC2    O5 2018   2.853   2.886   1.375  0.4904 -0.1396  0.1644
  129TMC2    H5 2019   2.897   2.800   1.388  2.0943  0.7209  0.4120
  130MPD2     C 2020   2.953   2.204   1.265 -0.1861  0.5745 -0.4894
  130MPD2    C1 2021   2.993   2.318   1.200  0.0248  0.3222 -0.0190
  130MPD2    C2 2022   3.123   2.325   1.155  0.0517  0.0081  0.0044
  130MPD2    C3 2023   3.216   2.223   1.171  0.4841 -0.9866 -0.3451
  130MPD2    C4 2024   3.171   2.111   1.241  0.2104 -0.1645  0.2594
  130MPD2    C5 2025   3.043   2.100   1.288 -0.0752  0.5486 -0.3808
  130MPD2     H 2026   3.148   2.416   1.103 -0.4865 -1.2987 -2.5558
  130MPD2    H1 2027   3.231   2.021   1.249 -0.6730 -0.3505  4.8708
  130MPD2    H2 2028   2.858   2.180   1.311 -0.6096  1.0718 -1.1133
  130MPD2    H3 2029   3.010   2.021   1.354  2.6677  0.4248  0.8184
  130MPD2     N 2030   3.343   2.239   1.107 -0.5455 -0.0591  0.0298
  130MPD2    H5 2031   3.356   2.318   1.044  0.0941 -0.0632  0.1610
  130MPD2    N1 2032   2.913   2.429   1.185  0.4302  0.2256 -0.2519
  130MPD2    H7 2033   2.961   2.513   1.156 -0.7494  0.6280 -1.0682
  131TMC2    C1 2034   1.546   2.137  10.346  0.1647  0.1420  0.0279
  131TMC2    C2 2035   1.435   2.197  10.397 -0.0144 -0.1893  0.0787
  131TMC2    C3 2036   1.436   2.331  10.394 -0.5229  0.2202 -0.1637
  131TMC2    C4 2037   1.651   2.205  10.296 -0.3487 -0.7349  0.6860
  131TMC2    C5 2038   1.638   2.340  10.277  0.4367 -0.3179  0.0466
  131TMC2    C6 2039   1.535   2.407  10.331 -0.6624 -0.9492 -0.0332
  131TMC2     C 2040   1.567   1.988  10.361  0.1034  0.1284  0.6624
  131TMC2     O 2041   1.660   1.940  10.300  0.0251 -0.4029  0.5464
  131TMC2     H 2042   1.378   2.150  10.476 -1.3142  0.9023 -0.2129
  131TMC2    H1 2043   1.732   2.145  10.255 -2.0622 -1.6978 -1.3122
  131TMC2    H2 2044   1.536   2.515  10.324 -0.4465 -0.9648 -0.2232
  131TMC2    C7 2045   1.745   2.417  10.207 -0.6525  0.5079 -0.6289
  131TMC2    C8 2046   1.317   2.395  10.439  0.2599  0.5956  0.0364
  131TMC2    O1 2047   1.717   2.534  10.175 -0.2042 -0.4671  0.8842
  131TMC2    O2 2048   1.215   2.331  10.451 -0.0836 -0.1330  0.7968
  131TMC2    O5 2049   1.369   2.475  10.533 -0.0293  0.6938 -0.5057
  131TMC2    H5 2050   1.467   2.476  10.524 -0.1053 -1.3148 -1.4853
  132MPD2     C 2051   1.322   1.734  10.459  0.0230  0.0577  0.4013
  132MPD2    C1 2052   1.445   1.791  10.444 -0.4002 -0.3790  0.1626
  132MPD2    C2 2053   1.554   1.718  10.482  0.1051 -0.1485  0.3849
  132MPD2    C3 2054   1.545   1.591  10.527 -0.1248  0.5958  0.9439
  132MPD2    C4 2055   1.421   1.534  10.533  0.1625 -0.3545  0.8437
  132MPD2    C5 2056   1.311   1.603  10.493 -0.8768 -0.2006 -0.8055
  132MPD2     H 2057   1.649   1.770  10.482  0.8102 -1.4579  0.7555
  132MPD2    H1 2058   1.403   1.429  10.548 -3.2252  0.3343  1.7359
  132MPD2    H2 2059   1.237   1.802  10.451  1.1435  0.9594 -3.7439
  132MPD2    H3 2060   1.219   1.547  10.494 -0.5054 -0.8187 -1.4888
  132MPD2     N 2061   1.662   1.520  10.556 -0.3676 -0.3027  0.4162
  132MPD2    H5 2062   1.749   1.570  10.542  0.2624 -0.7641  2.5563
  132MPD2    N1 2063   1.456   1.925  10.416 -0.0353 -0.0897  0.3060
  132MPD2    H7 2064   1.371   1.979  10.429 -0.4062  0.0200 -2.6522
  133TMC2    C1 2065   4.606   2.819   9.648 -0.6897 -0.1081 -0.3598
  133TMC2    C2 2066   4.553   2.690   9.652  0.1393 -0.3685  0.2875
  133TMC2    C3 2067   4.441   2.668   9.576 -0.0444  0.1135  0.8631
  133TMC2    C4 2068   4.561   2.910   9.562  0.2312 -0.8440 -0.1454
  133TMC2    C5 2069   4.455   2.879   9.480 -0.8492 -0.4927  0.5029
  133TMC2    C6 2070   4.380   2.760   9.491 -0.0768 -0.2227  0.1081
  133TMC2     C 2071   4.723   2.835   9.737 -0.1439  0.1192 -0.1001
  133TMC2     O 2072   0.035   2.739   9.788 -0.5838 -0.0635 -0.6932
  133TMC2     H 2073   4.604   2.615   9.711  1.2539 -0.2507 -0.5219
  133TMC2    H1 2074   4.618   3.002   9.550 -0.6164 -0.6491 -2.8064
  133TMC2    H2 2075   4.296   2.733   9.428  0.7879 -1.5482 -0.4558
  133TMC2    C7 2076   4.405   2.993   9.404  0.8703 -0.1805  0.2713
  133TMC2    C8 2077   4.395   2.532   9.570  0.2293  0.5616  0.0969
  133TMC2    O1 2078   4.473   3.096   9.408 -1.0037  0.2827  0.0083
  133TMC2    O2 2079   4.290   2.502   9.518  0.1709 -0.3932 -0.4247
  133TMC2    O5 2080   4.502   2.451   9.569  0.0281 -0.0216  0.4933
  133TMC2    H5 2081   4.590   2.493   9.565 -1.0722  1.8908 -3.4016
  134MPD2     C 2082   0.102   3.145   9.922 -0.3981 -0.4591 -0.6289
  134MPD2    C1 2083   0.105   3.011   9.869 -0.0450  0.1123 -1.1087
  134MPD2    C2 2084   0.207   2.923   9.915 -0.1439  0.6291 -0.0886
  134MPD2    C3 2085   0.282   2.964  10.030  0.4273 -0.0625  0.0233
  134MPD2    C4 2086   0.269   3.093  10.084 -0.0590 -0.4528  0.1727
  134MPD2    C5 2087   0.186   3.185  10.025 -0.6718  0.0412  0.1788
  134MPD2     H 2088   0.227   2.835   9.856 -2.6805 -0.6279  0.9556
  134MPD2    H1 2089   0.313   3.119  10.180  0.5466  1.9490 -0.7480
  134MPD2    H2 2090   0.024   3.215   9.895 -1.4361 -1.0269  0.8836
  134MPD2    H3 2091   0.183   3.284  10.070  1.4484  0.7463 -1.2149
  134MPD2     N 2092   0.352   2.865  10.111 -0.0082 -0.0590  0.2281
  134MPD2    H5 2093   0.382   2.914  10.194  0.6625  0.1710 -0.1512
  134MPD2    N1 2094   0.001   2.964   9.776 -0.5135 -0.4095 -0.0090
  134MPD2    H7 2095   4.684   3.028   9.725  0.4672 -0.0781 -0.7240
  135TMC2    C1 2096   3.194   2.499   9.783  1.0525  0.4017  0.8196
  135TMC2    C2 2097   3.078   2.503   9.847 -0.0724 -0.2146  0.0412
  135TMC2    C3 2098   3.054   2.411   9.943  0.3203  0.0733  0.0367
  135TMC2    C4 2099   3.290   2.418   9.818  0.3951 -0.3583  0.3241
  135TMC2    C5 2100   3.274   2.348   9.932 -0.5726  0.3292  0.9508
  135TMC2    C6 2101   3.156   2.334   9.999  0.0691 -0.0978 -0.4533
  135TMC2     C 2102   3.195   2.562   9.657 -0.2807 -0.0863  1.0815
  135TMC2     O 2103   3.088   2.565   9.592  0.0659  0.5167  0.5352
  135TMC2     H 2104   3.009   2.580   9.813 -0.3622  0.9173  3.1558
  135TMC2    H1 2105   3.383   2.411   9.763  0.5718  0.6001  0.4957
  135TMC2    H2 2106   3.137   2.264  10.080  1.0613  0.4488  0.2534
  135TMC2    C7 2107   3.386   2.274   9.973 -0.2082  0.0265  0.3398
  135TMC2    C8 2108   2.934   2.435  10.019  0.3662  0.6988  0.8037
  135TMC2    O1 2109   3.498   2.313   9.932  0.1611  0.1984 -0.2925
  135TMC2    O2 2110   2.914   2.369  10.121  0.1380 -0.1047  0.0828
  135TMC2    O5 2111   2.865   2.543   9.983 -0.7129 -0.4675 -0.6687
  135TMC2    H5 2112   2.860   2.551   9.885 -0.3055 -0.4394 -0.6883
  136MPD2     C 2113   3.209   2.781   9.454 -0.0205 -0.3057 -0.0121
  136MPD2    C1 2114   3.310   2.741   9.535  0.0943 -0.6659 -0.3390
  136MPD2    C2 2115   3.435   2.799   9.515  0.4896 -0.2892  0.3700
  136MPD2    C3 2116   3.449   2.899   9.423  0.1908 -0.1136 -0.2016
  136MPD2    C4 2117   3.340   2.940   9.345  0.6193 -0.7250  0.4122
  136MPD2    C5 2118   3.215   2.881   9.358  0.3904  0.2092  0.2574
  136MPD2     H 2119   3.523   2.769   9.569  0.6887 -2.5857 -1.2418
  136MPD2    H1 2120   3.351   3.018   9.271 -2.2382 -1.4079 -0.7254
  136MPD2    H2 2121   3.108   2.743   9.457  0.5334 -1.7404  0.4090
  136MPD2    H3 2122   3.133   2.906   9.291  0.9798 -0.1880 -0.6123
  136MPD2     N 2123   3.578   2.964   9.417 -0.2306  0.0368 -0.4238
  136MPD2    H5 2124   3.643   2.927   9.486 -0.0030 -1.3881 -1.4177
  136MPD2    N1 2125   3.299   2.649   9.636  0.0123  0.3230 -0.0629
  136MPD2    H7 2126   3.376   2.644   9.703  0.8754 -1.3332 -1.1710
  137TMC2    C1 2127   3.401   2.432   9.316 -0.7816 -0.6708  0.4626
  137TMC2    C2 2128   3.445   2.510   9.214  0.4003  0.2456 -0.4651
  137TMC2    C3 2129   3.345   2.569   9.130 -0.7929  0.3915 -0.4373
  137TMC2    C4 2130   3.267   2.415   9.338 -0.3189  0.1300 -0.7701
  137TMC2    C5 2131   3.174   2.459   9.244 -0.6608 -0.1955  0.6481
  137TMC2    C6 2132   3.214   2.542   9.138  0.0625  0.3390  0.2130
  137TMC2     C 2133   3.483   2.390   9.429  0.4756  0.1341 -0.9391
  137TMC2     O 2134   3.427   2.325   9.514  0.0526  0.3570  0.0691
  137TMC2     H 2135   3.551   2.516   9.193  0.4397  1.7854  0.2380
  137TMC2    H1 2136   3.228   2.356   9.420  0.5353  1.7529  0.7886
  137TMC2    H2 2137   3.143   2.575   9.063  1.0174 -0.2248 -0.9396
  137TMC2    C7 2138   3.035   2.418   9.256 -0.9296  0.2649  0.2681
  137TMC2    C8 2139   3.391   2.630   9.010  0.3787  0.6034  0.6337
  137TMC2    O1 2140   2.962   2.444   9.161  0.8629 -0.2095  0.0706
  137TMC2    O2 2141   3.505   2.609   8.971 -0.3992 -0.5646 -0.1702
  137TMC2    O5 2142   3.308   2.736   8.986 -0.0401  0.5210  0.2926
  137TMC2    H5 2143   3.223   2.753   9.032  1.2648 -1.8825  3.5879
  138MPD2     C 2144   3.856   2.393   9.467  0.0600  0.0648  0.4628
  138MPD2    C1 2145   3.720   2.383   9.510 -0.3985 -0.1186  0.1987
  138MPD2    C2 2146   3.697   2.371   9.651  0.2200 -0.6117 -0.4070
  138MPD2    C3 2147   3.801   2.365   9.740  0.5339 -1.0445 -0.0722
  138MPD2    C4 2148   3.933   2.361   9.691  0.0903  0.0780 -0.0198
  138MPD2    C5 2149   3.960   2.384   9.556  0.5434 -0.1039  0.2271
  138MPD2     H 2150   3.596   2.386   9.688 -0.3341 -1.9276 -1.4126
  138MPD2    H1 2151   4.018   2.369   9.758 -0.5072 -0.4211  0.7911
  138MPD2    H2 2152   3.886   2.412   9.365 -0.4591 -0.2924  0.2460
  138MPD2    H3 2153   4.063   2.389   9.522  0.6579 -1.4454  0.3629
  138MPD2     N 2154   3.774   2.360   9.877  0.3315  0.6353  0.2351
  138MPD2    H5 2155   3.675   2.356   9.898  0.1691  0.9338 -0.4892
  138MPD2    N1 2156   3.615   2.405   9.411 -0.5065 -0.4605  0.1643
  138MPD2    H7 2157   3.648   2.447   9.325  1.0404  0.7006  1.3217
  139TMC2    C1 2158   3.664   0.854  13.489 -0.4252  0.0509 -0.0330
  139TMC2    C2 2159   3.580   0.793  13.394  0.5782  0.2334 -0.4100
  139TMC2    C3 2160   3.475   0.867  13.347 -0.2537 -0.1553 -0.1712
  139TMC2    C4 2161   3.637   0.977  13.554 -0.1818 -0.5569  0.1618
  139TMC2    C5 2162   3.524   1.036  13.510  0.3593 -0.4394  0.2799
  139TMC2    C6 2163   3.448   0.984  13.409  0.5453  0.6858 -0.0736
  139TMC2     C 2164   3.799   0.788  13.512 -0.8149 -0.4667  0.4991
  139TMC2     O 2165   3.813   0.678  13.464  0.0850  0.0302 -0.3578
  139TMC2     H 2166   3.617   0.705  13.343  0.9525 -1.2427  2.4353
  139TMC2    H1 2167   3.700   1.014  13.634 -1.5758  1.1041  0.4982
  139TMC2    H2 2168   3.370   1.051  13.375 -0.2667  0.1086  0.6278
  139TMC2    C7 2169   3.470   1.147  13.585  0.0942  0.2561  0.1480
  139TMC2    C8 2170   3.445   0.852  13.211 -0.6088 -0.6472  0.6386
  139TMC2    O1 2171   3.350   1.164  13.590  0.0681  0.0853  0.1761
  139TMC2    O2 2172   3.520   0.819  13.123 -0.1557  0.4255  0.0750
  139TMC2    O5 2173   3.311   0.868  13.198  0.3456 -0.1949  0.5643
  139TMC2    H5 2174   3.261   0.881  13.281 -0.7216 -0.1750 -0.0760
  140MPD2     C 2175   4.110   0.943  13.602 -0.6447  0.4286 -0.2348
  140MPD2    C1 2176   4.019   0.839  13.601  0.1078  0.0060 -0.5146
  140MPD2    C2 2177   4.061   0.713  13.622 -0.0875  0.1455 -0.2245
  140MPD2    C3 2178   4.196   0.682  13.655 -0.1023 -0.8259  0.6939
  140MPD2    C4 2179   4.286   0.786  13.655  0.1453  0.1861  0.7674
  140MPD2    C5 2180   4.242   0.915  13.624 -0.0526 -0.0244  1.0558
  140MPD2     H 2181   3.991   0.630  13.619 -0.1626  0.1635  1.2055
  140MPD2    H1 2182   4.392   0.782  13.681 -0.0713 -0.9666  1.4968
  140MPD2    H2 2183   4.076   1.044  13.579 -0.5862  0.2604 -1.0468
  140MPD2    H3 2184   4.311   0.997  13.607  1.0385 -0.4702  3.3156
  140MPD2     N 2185   4.239   0.553  13.686  0.5328  0.1698 -0.2823
  140MPD2    H5 2186   4.169   0.480  13.677  1.6286 -1.0520  1.1536
  140MPD2    N1 2187   3.894   0.873  13.556 -0.0101 -0.0125 -0.1905
  140MPD2    H7 2188   3.876   0.971  13.539  0.9886  0.2672  0.3316
  141TMC2    C1 2189   4.443   2.391  14.367  0.2069  0.5314  0.1815
  141TMC2    C2 2190   4.358   2.444  14.470  0.2039 -0.2348 -0.2343
  141TMC2    C3 2191   4.345   2.580  14.476 -0.0705  0.4314 -0.5030
  141TMC2    C4 2192   4.502   2.474  14.281 -0.2100 -0.3675 -0.8567
  141TMC2    C5 2193   4.496   2.609  14.297  0.1833 -0.2095  1.0362
  141TMC2    C6 2194   4.416   2.665  14.397  0.7865  0.0393 -0.6249
  141TMC2     C 2195   4.423   2.256  14.323  0.0728  0.3121 -0.4469
  141TMC2     O 2196   4.449   2.231  14.204  0.3442  0.3092 -0.2834
  141TMC2     H 2197   4.306   2.383  14.543 -1.0293 -1.0973 -1.8537
  141TMC2    H1 2198   4.548   2.440  14.188  2.0662  0.0843  0.0966
  141TMC2    H2 2199   4.412   2.773  14.403 -2.0925 -0.0779 -0.3190
  141TMC2    C7 2200   4.560   2.695  14.198 -0.4203  0.3175 -0.3087
  141TMC2    C8 2201   4.279   2.639  14.585  0.2724 -0.5434  1.1303
  141TMC2    O1 2202   4.514   2.805  14.169  0.5066 -0.0579 -0.1862
  141TMC2    O2 2203   4.305   2.752  14.625  0.3702  0.0143 -0.7772
  141TMC2    O5 2204   4.152   2.591  14.584 -0.1793  0.0114  0.3231
  141TMC2    H5 2205   4.143   2.516  14.521 -1.8201  1.1336 -0.8027
  142TMC2    C1 2206   2.327   0.916  10.434 -0.3366 -0.3710  0.0698
  142TMC2    C2 2207   2.440   0.929  10.513 -0.3148 -0.3174  0.4515
  142TMC2    C3 2208   2.536   1.018  10.471  0.4775  0.8600 -0.1304
  142TMC2    C4 2209   2.299   1.002  10.328  0.3489  0.1865  0.0664
  142TMC2    C5 2210   2.386   1.107  10.306 -0.1087  1.1031  0.1695
  142TMC2    C6 2211   2.506   1.111  10.373 -0.2322 -0.1947 -1.0327
  142TMC2     C 2212   2.223   0.823  10.475 -0.0993 -0.4855 -0.2237
  142TMC2     O 2213   2.114   0.832  10.425  0.1230 -0.2575  0.0331
  142TMC2     H 2214   2.470   0.873  10.601 -0.2835 -0.6163  0.2520
  142TMC2    H1 2215   2.210   0.980  10.269 -0.8177  0.9240  1.5672
  142TMC2    H2 2216   2.570   1.197  10.356  0.0789 -0.5335 -1.6124
  142TMC2    C7 2217   2.343   1.216  10.215  0.5241 -0.1302 -0.4162
  142TMC2    C8 2218   2.646   1.037  10.566 -0.5952 -0.3154 -0.1597
  142TMC2    O1 2219   2.426   1.241  10.128 -0.0893 -0.0406  0.0798
  142TMC2    O2 2220   2.653   0.992  10.679  0.1997  0.5012  0.1993
  142TMC2    O5 2221   2.742   1.101  10.508  0.1063  0.1583 -0.0418
  142TMC2    H5 2222   2.729   1.089  10.411  1.2935 -0.2903 -0.1355
  143MPD2     C 2223   2.079   0.385  10.689  0.3235 -0.0457  0.6916
  143MPD2    C1 2224   2.003   0.476  10.629  1.0083  0.2872  0.3121
  143MPD2    C2 2225   2.068   0.590  10.580 -0.7254  0.0251  0.0030
  143MPD2    C3 2226   2.204   0.610  10.592 -0.6956 -0.3521 -0.1871
  143MPD2    C4 2227   2.282   0.504  10.645 -0.2603 -0.1406 -0.1913
  143MPD2    C5 2228   2.215   0.401  10.700 -0.9345 -0.2945  0.4445
  143MPD2     H 2229   2.011   0.674  10.540  0.3338  0.0424 -1.4624
  143MPD2    H1 2230   2.391   0.501  10.647 -0.2552 -0.5747 -1.1911
  143MPD2    H2 2231   2.035   0.298  10.736  0.2214 -0.3046  0.1153
  143MPD2    H3 2232   2.279   0.327  10.746 -0.4732  1.2197  2.2281
  143MPD2     N 2233   2.277   0.721  10.549  0.0015 -0.0921 -0.8506
  143MPD2    H5 2234   2.378   0.707  10.546 -0.0199 -0.0245 -2.1010
  143MPD2    N1 2235   1.864   0.460  10.622  1.5267 -0.3892  0.0664
  143MPD2    H7 2236   1.821   0.375  10.658  0.2789 -0.3303 -1.2842
  144TMC2    C1 2237   0.488   3.855   0.646  0.3400  0.2814 -0.2080
  144TMC2    C2 2238   0.474   3.722   0.622 -0.4509 -0.2931  0.3426
  144TMC2    C3 2239   0.588   3.651   0.626 -0.0707  0.5138 -1.2010
  144TMC2    C4 2240   0.608   3.922   0.668  0.3680 -0.2050 -0.1605
  144TMC2    C5 2241   0.717   3.840   0.676 -0.1443  0.0185  1.6651
  144TMC2    C6 2242   0.713   3.704   0.653  0.4492 -0.1810  0.9033
  144TMC2     C 2243   0.365   3.928   0.626  1.0289 -0.4622 -0.5764
  144TMC2     O 2244   0.280   3.867   0.568 -0.0276  0.1836 -0.5498
  144TMC2     H 2245   0.379   3.680   0.591  0.6434 -1.9793 -0.7841
  144TMC2    H1 2246   0.617   4.029   0.657 -1.8816 -0.2015 -1.9766
  144TMC2    H2 2247   0.805   3.648   0.637  1.0068  1.2864 -0.9397
  144TMC2    C7 2248   0.841   3.889   0.726  0.0142 -0.2996 -0.3690
  144TMC2    C8 2249   0.591   3.508   0.595  0.4160 -0.3304  0.1859
  144TMC2    O1 2250   0.927   3.806   0.721  0.1643 -0.0163 -0.7765
  144TMC2    O2 2251   0.685   3.467   0.533 -0.0693  0.5930 -0.0070
  144TMC2    O5 2252   0.464   3.462   0.573  0.5973 -0.5500 -0.0804
  144TMC2    H5 2253   0.401   3.495   0.641 -0.2167  1.8025 -1.9697
  145MPD2     C 2254   0.089   4.366   0.572  0.0273  0.0480 -0.0922
  145MPD2    C1 2255   0.060   4.234   0.532  0.6056  0.0665  0.1756
  145MPD2    C2 2256   0.154   4.138   0.568  0.0804 -0.5006  0.2683
  145MPD2    C3 2257   0.276   4.168   0.631 -0.4211  0.3625 -0.3496
  145MPD2    C4 2258   0.306   4.295   0.670  0.4430 -0.2065 -0.3869
  145MPD2    C5 2259   0.208   4.389   0.641  0.5371  0.3816  0.3913
  145MPD2     H 2260   0.134   4.036   0.538 -0.4613 -0.0008 -1.1075
  145MPD2    H1 2261   0.396   4.313   0.727 -0.4120  0.1377  0.8265
  145MPD2    H2 2262   0.022   4.450   0.556  0.3056  0.0986 -0.9945
  145MPD2    H3 2263   0.230   4.492   0.663  0.1856 -0.0246  2.7445
  145MPD2     N 2264   0.373   4.061   0.659  0.1910  0.1954  0.8287
  145MPD2    H5 2265   0.458   4.085   0.710  0.6303  3.1704 -1.2727
  145MPD2    N1 2266   4.697   4.186   0.451  0.6171  0.3573  0.0893
  145MPD2    H7 2267   4.695   4.088   0.423 -0.2995  0.6678 -0.9081
  146TMC2    C1 2268   1.288   3.313  12.296 -0.3029 -0.0872 -0.0453
  146TMC2    C2 2269   1.176   3.343  12.216 -0.0506 -0.8618  0.4141
  146TMC2    C3 2270   1.186   3.317  12.084  0.2090 -0.1775  0.6025
  146TMC2    C4 2271   1.405   3.269  12.237 -0.0912  0.1899 -1.1228
  146TMC2    C5 2272   1.415   3.275  12.101 -0.4332  0.4847 -0.2185
  146TMC2    C6 2273   1.310   3.306  12.015  0.0075 -0.1005 -0.4620
  146TMC2     C 2274   1.282   3.347  12.434  0.0404 -0.2904 -0.2505
  146TMC2     O 2275   1.220   3.450  12.446  0.2396 -0.0765  0.0278
  146TMC2     H 2276   1.090   3.372  12.274 -0.2330 -0.1959 -0.1961
  146TMC2    H1 2277   1.501   3.252  12.285  0.1137 -2.1532 -2.3681
  146TMC2    H2 2278   1.316   3.303  11.907  1.4537  2.7303 -0.4467
  146TMC2    C7 2279   1.544   3.253  12.032 -0.2248  0.2874  0.2329
  146TMC2    C8 2280   1.072   3.325  12.002 -0.9410  0.2218 -0.5871
  146TMC2    O1 2281   1.550   3.297  11.921  0.1336 -0.0121 -0.0774
  146TMC2    O2 2282   1.085   3.387  11.894 -0.3745 -0.0015 -0.0425
  146TMC2    O5 2283   0.968   3.350  12.089  0.0351 -0.2998  0.5717
  146TMC2    H5 2284   0.970   3.268  12.143  0.7551 -0.2200  0.6610
  147MPD2     C 2285   2.008   3.021  11.991  0.4867 -0.2118 -0.3950
  147MPD2    C1 2286   1.943   2.974  12.100  0.3129 -0.2956  0.2747
  147MPD2    C2 2287   1.816   3.023  12.140  0.2956 -0.5024  0.5949
  147MPD2    C3 2288   1.753   3.121  12.061 -0.5725 -0.1214 -0.5043
  147MPD2    C4 2289   1.817   3.172  11.952  0.1293  0.3348  0.5022
  147MPD2    C5 2290   1.936   3.111  11.916  0.4751  0.4634 -0.2666
  147MPD2     H 2291   1.767   2.972  12.222 -2.0745 -0.4212 -0.7681
  147MPD2    H1 2292   1.771   3.248  11.890 -0.0809  1.2817  1.8115
  147MPD2    H2 2293   2.106   2.989  11.959  0.4264 -0.9779  0.1802
  147MPD2    H3 2294   1.981   3.146  11.824  3.1015  0.4939  1.0313
  147MPD2     N 2295   1.631   3.174  12.108  0.1023 -0.1041  0.1950
  147MPD2    H5 2296   1.581   3.138  12.188 -2.7194 -2.0318 -2.4193
  147MPD2    N1 2297   2.015   2.882  12.179 -0.0181  0.0667  1.1142
  147MPD2    H7 2298   2.105   2.856  12.140 -0.1538  1.4826 -0.1512
  148TMC2    C1 2299   2.408   2.528  10.408  0.2252 -0.5572 -0.0595
  148TMC2    C2 2300   2.537   2.532  10.418 -0.1946 -0.2134 -0.2076
  148TMC2    C3 2301   2.595   2.408  10.427 -0.0837 -0.3216 -0.8623
  148TMC2    C4 2302   2.323   2.423  10.393 -0.1988  0.2052 -0.2033
  148TMC2    C5 2303   2.381   2.304  10.402 -0.2628  0.0274 -0.2001
  148TMC2    C6 2304   2.515   2.297  10.419 -0.1016  0.1874 -0.2769
  148TMC2     C 2305   2.350   2.650  10.454  0.7375 -0.3387  0.5528
  148TMC2     O 2306   2.410   2.756  10.438 -0.2480 -0.1739  0.1649
  148TMC2     H 2307   2.596   2.623  10.425 -0.4915 -0.0229 -0.1679
  148TMC2    H1 2308   2.221   2.442  10.363  0.3907  0.3943 -2.1055
  148TMC2    H2 2309   2.572   2.216  10.465  0.5386  1.5834  1.3821
  148TMC2    C7 2310   2.294   2.201  10.462 -0.1649 -0.1910 -0.4800
  148TMC2    C8 2311   2.731   2.397  10.487  0.1575 -0.0421  0.3762
  148TMC2    O1 2312   2.177   2.238  10.466 -0.2423  0.6478  0.1780
  148TMC2    O2 2313   2.750   2.339  10.590 -0.2060 -0.0294  0.0885
  148TMC2    O5 2314   2.821   2.468  10.412 -0.4018  0.1702 -0.2499
  148TMC2    H5 2315   2.781   2.519  10.338  0.4094  1.7105  0.3803
  149MPD2     C 2316   2.157   2.822  10.608 -0.2245 -0.2075  0.3817
  149MPD2    C1 2317   2.151   2.685  10.607  0.2222 -0.5533 -0.0299
  149MPD2    C2 2318   2.049   2.625  10.680  0.2825 -0.3225 -0.2314
  149MPD2    C3 2319   1.957   2.698  10.749  0.3361 -0.0910 -0.2058
  149MPD2    C4 2320   1.969   2.836  10.755 -0.1238  0.3095 -0.1977
  149MPD2    C5 2321   2.070   2.895  10.686 -0.6068  0.2509 -0.3296
  149MPD2     H 2322   2.051   2.518  10.661  1.0967 -0.3599  0.0859
  149MPD2    H1 2323   1.894   2.898  10.804 -2.2524 -2.0795 -0.4076
  149MPD2    H2 2324   2.227   2.881  10.550  1.1088 -2.2189 -0.0555
  149MPD2    H3 2325   2.084   3.003  10.686  1.0570  0.0238  2.6370
  149MPD2     N 2326   1.857   2.633  10.823  0.5666 -0.2431 -0.2823
  149MPD2    H5 2327   1.785   2.684  10.873 -1.1527 -1.9580 -1.0089
  149MPD2    N1 2328   2.243   2.610  10.527  0.7041  0.4754  0.3760
  149MPD2    H7 2329   2.241   2.510  10.539  0.2784  0.3080 -1.1008
  150TMC2    C1 2330   3.382   0.770  12.164 -0.1047  0.2118  1.1323
  150TMC2    C2 2331   3.444   0.732  12.044  0.1251  0.3192 -0.0873
  150TMC2    C3 2332   3.581   0.695  12.044 -0.1961  0.3222  0.0953
  150TMC2    C4 2333   3.460   0.801  12.272  0.7719 -0.0766 -0.3748
  150TMC2    C5 2334   3.594   0.775  12.264 -0.1605 -0.7894 -0.8708
  150TMC2    C6 2335   3.658   0.711  12.158  0.3507 -0.1259 -0.1603
  150TMC2     C 2336   3.241   0.754  12.183  0.6708  0.7266  0.7511
  150TMC2     O 2337   3.227   0.704  12.295 -0.6712 -0.6807  0.1818
  150TMC2     H 2338   3.375   0.707  11.964  1.2408 -1.4988 -0.4825
  150TMC2    H1 2339   3.414   0.842  12.361  0.7752 -2.1022  0.5642
  150TMC2    H2 2340   3.766   0.703  12.147  0.4281 -0.8695  1.1545
  150TMC2    C7 2341   3.670   0.821  12.384  0.9783 -0.4559 -0.1093
  150TMC2    C8 2342   3.654   0.666  11.920 -0.4551  0.0945 -0.3877
  150TMC2    O1 2343   3.624   0.922  12.438  0.4610 -0.3788 -0.4128
  150TMC2    O2 2344   3.603   0.709  11.818 -0.7611 -0.2757 -0.0545
  150TMC2    O5 2345   3.694   0.541  11.942  0.9980 -0.0505 -0.4047
  150TMC2    H5 2346   3.700   0.514  12.036 -0.7630  0.2581 -0.2115
  151MPD2     C 2347   2.726   0.790  12.148 -0.4693  0.0595 -0.5387
  151MPD2    C1 2348   2.788   0.871  12.057 -0.0126  0.2334  0.3912
  151MPD2    C2 2349   2.922   0.864  12.038 -0.5639  0.7917  0.1818
  151MPD2    C3 2350   3.004   0.781  12.110 -0.4108 -0.3470  0.3591
  151MPD2    C4 2351   2.942   0.709  12.214  0.0143 -0.4624  0.6748
  151MPD2    C5 2352   2.803   0.704  12.226  0.3535 -0.2272 -0.3615
  151MPD2     H 2353   2.959   0.926  11.958 -1.8890  1.4959  0.1137
  151MPD2    H1 2354   2.999   0.640  12.275 -0.6025 -1.8791 -0.3615
  151MPD2    H2 2355   2.619   0.803  12.163 -0.5041 -0.6007 -0.2262
  151MPD2    H3 2356   2.757   0.636  12.297  0.7409 -0.9665 -0.8103
  151MPD2     N 2357   3.148   0.793  12.089  0.2879  0.0455  0.0621
  151MPD2    H5 2358   3.190   0.845  12.012 -0.2172  0.1937 -0.1163
  151MPD2    N1 2359   2.705   0.952  11.976 -0.7765  0.3457 -0.6689
  151MPD2    H7 2360   2.608   0.924  11.973 -0.8646  0.4552  1.1588
  152TMC2    C1 2361   3.426   0.706  12.775 -0.2013  0.2388  0.7888
  152TMC2    C2 2362   3.521   0.611  12.767 -0.1274 -0.5683  0.9370
  152TMC2    C3 2363   3.651   0.649  12.781  0.2191  0.0159 -0.3877
  152TMC2    C4 2364   3.464   0.840  12.781  0.5643 -0.0522  0.5693
  152TMC2    C5 2365   3.595   0.868  12.797 -0.5381  0.0148 -0.1475
  152TMC2    C6 2366   3.694   0.776  12.789  0.0489  0.0946  0.0413
  152TMC2     C 2367   3.292   0.679  12.812  0.5082 -0.3712 -0.3387
  152TMC2     O 2368   3.229   0.782  12.798 -0.2700  0.8463 -0.2367
  152TMC2     H 2369   3.489   0.508  12.761 -0.4990 -0.4762  1.3772
  152TMC2    H1 2370   3.393   0.921  12.792 -1.1959 -1.5900  0.6138
  152TMC2    H2 2371   3.799   0.792  12.806  0.4398 -2.1401 -0.3150
  152TMC2    C7 2372   3.633   1.005  12.820 -0.2034  0.0535  0.2037
  152TMC2    C8 2373   3.749   0.541  12.775  0.4595  0.7674 -0.2909
  152TMC2    O1 2374   3.575   1.093  12.755 -0.2941  0.0953 -0.8678
  152TMC2    O2 2375   3.857   0.553  12.840  0.1541  0.7299  0.0209
  152TMC2    O5 2376   3.720   0.449  12.685 -0.3470 -0.2465 -0.1386
  152TMC2    H5 2377   3.638   0.463  12.633 -0.1234 -1.6640 -0.8706
  153MPD2     C 2378   3.144   0.381  12.941  0.7022  0.0515  0.4672
  153MPD2    C1 2379   3.140   0.505  12.877 -0.1391  0.9156  0.4978
  153MPD2    C2 2380   3.023   0.568  12.853  0.2348  0.3951  0.4570
  153MPD2    C3 2381   2.903   0.516  12.902 -0.4255 -0.4664 -0.5175
  153MPD2    C4 2382   2.901   0.401  12.978  0.2196  0.7399 -0.3536
  153MPD2    C5 2383   3.020   0.337  12.994 -0.5629  0.3224 -0.7124
  153MPD2     H 2384   3.021   0.662  12.799  2.0047 -0.6801 -1.5089
  153MPD2    H1 2385   2.816   0.349  13.020  1.9860 -0.3780  1.8357
  153MPD2    H2 2386   3.236   0.325  12.945 -1.1786 -3.0977 -0.0936
  153MPD2    H3 2387   3.012   0.245  13.051 -1.5069  1.1838  0.5510
  153MPD2     N 2388   2.781   0.582  12.854  0.2257 -0.0408 -0.1649
  153MPD2    H5 2389   2.795   0.652  12.782  1.2492  1.9138  1.9498
  153MPD2    N1 2390   3.269   0.556  12.862 -0.4608  0.0548 -0.0497
  153MPD2    H7 2391   3.345   0.488  12.858 -2.5567 -2.3779  1.2841
  154TMC2    C1 2392   0.503   0.626  17.734  0.1630 -0.5139 -0.4294
  154TMC2    C2 2393   0.524   0.491  17.714 -0.1752 -0.3882  0.0084
  154TMC2    C3 2394   0.629   0.456  17.638  0.3755  0.5230  0.9068
  154TMC2    C4 2395   0.601   0.715  17.703 -0.0268 -0.0026 -0.3654
  154TMC2    C5 2396   0.718   0.674  17.644 -1.1948  0.0135 -0.3743
  154TMC2    C6 2397   0.731   0.541  17.606  0.5701  0.2034 -0.4186
  154TMC2     C 2398   0.402   0.671   0.060  0.4424  0.3563 -0.5737
  154TMC2     O 2399   0.431   0.761   0.139  0.2931 -0.0963 -0.1537
  154TMC2     H 2400   0.447   0.422  17.747  2.7319 -2.3410  2.6705
  154TMC2    H1 2401   0.578   0.821  17.695  2.3572  0.4885 -0.5906
  154TMC2    H2 2402   0.816   0.513  17.545 -0.8092  1.4885 -2.9451
  154TMC2    C7 2403   0.824   0.772  17.602 -0.1154  0.4905 -0.1557
  154TMC2    C8 2404   0.659   0.315  17.632 -0.5671 -0.3557  0.1388
  154TMC2    O1 2405   0.884   0.757  17.495 -0.3767 -0.6331  0.0837
  154TMC2    O2 2406   0.718   0.264  17.542 -0.0567  0.2317  0.7398
  154TMC2    O5 2407   0.702   0.291   0.001  0.0860 -0.2662  0.6192
  154TMC2    H5 2408   0.670   0.354   0.069  1.2806 -1.6854  2.4840
  155MPD2     C 2409   0.039   0.654   0.026 -0.4908 -0.2877 -0.1275
  155MPD2    C1 2410   0.153   0.668   0.096 -0.5193  0.0523  0.5759
  155MPD2    C2 2411   0.154   0.739   0.214  0.1810 -0.1476  0.6549
  155MPD2    C3 2412   0.028   0.787   0.265  0.4346 -0.2145  1.0284
  155MPD2    C4 2413   4.654   0.762   0.196  0.0563 -0.1715  0.2507
  155MPD2    C5 2414   4.659   0.686   0.079 -0.4201 -0.0801 -0.3958
  155MPD2     H 2415   0.247   0.744   0.270  1.3250  3.2428 -1.5721
  155MPD2    H1 2416   4.554   0.791   0.225 -0.1474  0.4085 -1.0476
  155MPD2    H2 2417   0.035   0.604  17.694 -0.3254 -0.2509 -0.1524
  155MPD2    H3 2418   4.568   0.660   0.025 -0.5614  1.4133 -0.8988
  155MPD2     N 2419   0.030   0.851   0.390  0.0427  0.0099  0.2176
  155MPD2    H5 2420   0.117   0.857   0.441 -0.2657  0.1927  0.7149
  155MPD2    N1 2421   0.276   0.622   0.031 -0.3348  0.0294 -0.5981
  155MPD2    H7 2422   0.269   0.576  17.705 -0.4514  1.8720 -1.5479
  156TMC2    C1 2423   3.729   3.361  11.518  0.9098  0.1095 -0.3415
  156TMC2    C2 2424   3.762   3.266  11.427  0.4185 -1.0429  0.6882
  156TMC2    C3 2425   3.681   3.239  11.322  0.1525  1.0721 -0.2671
  156TMC2    C4 2426   3.624   3.445  11.482  0.3199  0.0242  0.0206
  156TMC2    C5 2427   3.543   3.415  11.380  0.1347 -0.4261 -0.1286
  156TMC2    C6 2428   3.561   3.303  11.299  0.2415 -0.0516 -0.9531
  156TMC2     C 2429   3.710   3.313  11.654  0.6822  0.8050  0.2738
  156TMC2     O 2430   3.624   3.366  11.726 -0.4589  0.1716  0.0487
  156TMC2     H 2431   3.853   3.210  11.444  0.8345 -1.1677 -1.8881
  156TMC2    H1 2432   3.594   3.520  11.554 -0.3277 -0.6890  0.5026
  156TMC2    H2 2433   3.493   3.289  11.216  0.0394  0.3387 -0.8525
  156TMC2    C7 2434   3.416   3.480  11.390  0.6960 -0.1417 -0.4233
  156TMC2    C8 2435   3.679   3.115  11.251 -0.2072  0.2356  0.0303
  156TMC2    O1 2436   3.413   3.585  11.450 -0.2786 -0.2865 -0.1837
  156TMC2    O2 2437   3.576   3.053  11.219  0.1445  0.1397  0.0703
  156TMC2    O5 2438   3.808   3.078  11.223 -0.0490  0.5077 -0.3535
  156TMC2    H5 2439   3.870   3.154  11.221  2.9219 -2.0103 -3.1961
  157MPD2     C 2440   3.803   2.968  11.780  0.9775 -0.0546 -0.3526
  157MPD2    C1 2441   3.739   3.093  11.783 -0.0281 -0.3723  0.3415
  157MPD2    C2 2442   3.646   3.123  11.877 -0.2077  0.1357 -0.2594
  157MPD2    C3 2443   3.607   3.019  11.963  0.2800 -0.2586  0.3707
  157MPD2    C4 2444   3.673   2.899  11.954  0.4631  0.1206  0.5444
  157MPD2    C5 2445   3.775   2.876  11.867  0.1985 -0.3736 -0.1176
  157MPD2     H 2446   3.600   3.219  11.894  0.5086  0.4520 -0.1082
  157MPD2    H1 2447   3.647   2.816  12.018 -0.8883 -0.0632 -0.2473
  157MPD2    H2 2448   3.867   2.938  11.698  0.6826  1.4426 -1.1306
  157MPD2    H3 2449   3.817   2.776  11.858  0.7154 -0.2398  0.8669
  157MPD2     N 2450   3.502   3.049  12.052 -0.0688  0.4416 -0.1766
  157MPD2    H5 2451   3.463   3.143  12.051  2.3946  1.4651 -0.2777
  157MPD2    N1 2452   3.764   3.188  11.674 -0.1107  0.4120 -0.7946
  157MPD2    H7 2453   3.825   3.147  11.604 -0.3410 -0.5438 -0.4391
  158TMC2    C1 2454   3.654   2.424  13.370 -0.3612 -0.1988  0.1484
  158TMC2    C2 2455   3.656   2.475  13.246 -0.6633  0.4380  0.1307
  158TMC2    C3 2456   3.538   2.478  13.174 -0.5496 -0.5659 -0.0272
  158TMC2    C4 2457   3.533   2.393  13.436  0.2859  0.6578  0.6385
  158TMC2    C5 2458   3.415   2.413  13.365  0.3555 -0.4140  0.5847
  158TMC2    C6 2459   3.417   2.460  13.236  0.1594  1.0458  0.2559
  158TMC2     C 2460   3.782   2.421  13.434  0.3744  0.3047 -0.5654
  158TMC2     O 2461   3.883   2.470  13.383  0.3573  0.5239 -0.1335
  158TMC2     H 2462   3.748   2.502  13.196 -0.5455  0.0007  0.1167
  158TMC2    H1 2463   3.526   2.358  13.539  3.0978  0.5704  0.7899
  158TMC2    H2 2464   3.320   2.485  13.194  0.4235  0.9995 -0.3816
  158TMC2    C7 2465   3.285   2.389  13.420 -0.2832  0.7720  0.2974
  158TMC2    C8 2466   3.547   2.575  13.067 -0.3213 -0.2321  0.6248
  158TMC2    O1 2467   3.198   2.454  13.365  0.0624 -0.2130  0.1533
  158TMC2    O2 2468   3.646   2.642  13.038  0.1525  0.4860  0.4117
  158TMC2    O5 2469   3.430   2.582  13.008 -0.2264  0.4494  0.2665
  158TMC2    H5 2470   3.381   2.497  13.014  1.7401 -0.8297 -2.0551
  159MPD2     C 2471   4.075   2.375  13.836 -0.4336 -0.0266  0.1652
  159MPD2    C1 2472   3.946   2.337  13.880  0.1226 -0.3536 -0.0104
  159MPD2    C2 2473   3.855   2.329  13.780 -0.0511  0.3233  0.0536
  159MPD2    C3 2474   3.885   2.351  13.649 -1.1022  0.5548 -0.2681
  159MPD2    C4 2475   4.017   2.359  13.608 -0.2300 -0.3825 -0.3375
  159MPD2    C5 2476   4.111   2.376  13.706 -0.6592  1.2849 -0.3109
  159MPD2     H 2477   3.756   2.292  13.805  0.3420 -0.4483  0.4758
  159MPD2    H1 2478   4.056   2.361  13.507 -2.4966  2.4489 -1.1762
  159MPD2    H2 2479   4.144   2.393  13.918 -0.6538  1.0548  0.1181
  159MPD2    H3 2480   4.214   2.393  13.675 -0.9175 -0.4498 -2.1002
  159MPD2     N 2481   3.772   2.360  13.558  0.4225 -0.1959 -0.1325
  159MPD2    H5 2482   3.680   2.343  13.597  0.7166  1.1208  1.1272
  159MPD2    N1 2483   3.915   2.335  14.017  0.0904 -0.0083 -0.1706
  159MPD2    H7 2484   3.992   2.343  14.083 -1.7830 -0.6091  2.0918
  160TMC2    C1 2485   3.952   0.524   1.730  1.1598  1.1729 -0.2099
  160TMC2    C2 2486   3.843   0.487   1.799  0.2820  1.0849 -0.4924
  160TMC2    C3 2487   3.843   0.359   1.852  0.1741 -0.1491 -0.5323
  160TMC2    C4 2488   4.064   0.446   1.712  0.0371  0.0664 -0.2245
  160TMC2    C5 2489   4.045   0.312   1.745  0.3945  0.3491 -0.9142
  160TMC2    C6 2490   3.938   0.267   1.816  0.1851 -0.1928 -0.0795
  160TMC2     C 2491   3.962   0.667   1.704  0.2291 -0.2922 -0.0137
  160TMC2     O 2492   4.075   0.714   1.702  0.2525 -0.5123 -0.2055
  160TMC2     H 2493   3.778   0.567   1.834 -0.3546 -0.6320  2.2708
  160TMC2    H1 2494   4.147   0.480   1.650  0.7505  1.4784  1.4945
  160TMC2    H2 2495   3.931   0.159   1.830  0.0777 -0.4084 -1.8352
  160TMC2    C7 2496   4.144   0.214   1.716  0.2827 -0.1511  0.2918
  160TMC2    C8 2497   3.733   0.322   1.939 -0.4662 -0.1213  0.2696
  160TMC2    O1 2498   4.120   0.091   1.714  0.2367 -0.3819 -0.1223
  160TMC2    O2 2499   3.640   0.397   1.971  0.3219  0.6491 -0.7600
  160TMC2    O5 2500   3.779   0.218   2.011  0.4463  0.7208  0.4674
  160TMC2    H5 2501   3.875   0.198   2.001  0.2811 -0.3388  0.9529
  161MPD2     C 2502   3.926   0.957   1.622 -0.1332  0.4678 -0.3702
  161MPD2    C1 2503   3.828   0.861   1.617 -0.0984  0.4396  0.1749
  161MPD2    C2 2504   3.705   0.894   1.566 -1.1131 -0.7143 -0.1434
  161MPD2    C3 2505   3.671   1.024   1.531 -0.0108 -0.2140  0.3361
  161MPD2    C4 2506   3.770   1.121   1.545 -0.4393  0.1200  0.1603
  161MPD2    C5 2507   3.892   1.086   1.594 -0.1240  0.2756 -0.1977
  161MPD2     H 2508   3.635   0.815   1.542 -0.5808 -1.4655  0.7539
  161MPD2    H1 2509   3.763   1.225   1.514 -0.7690 -0.0205 -0.2346
  161MPD2    H2 2510   4.024   0.947   1.667  0.9084 -0.1648 -2.8015
  161MPD2    H3 2511   3.972   1.159   1.605 -0.3638  0.3301  1.2117
  161MPD2     N 2512   3.543   1.063   1.480 -0.2404 -0.0360  0.1229
  161MPD2    H5 2513   3.536   1.149   1.427  0.2168  0.6901  1.2511
  161MPD2    N1 2514   3.844   0.728   1.665  0.2384 -0.4039 -0.5229
  161MPD2    H7 2515   3.766   0.665   1.649 -0.4635  0.5415 -0.7928
  162TMC2    C1 2516   0.986   1.866   0.712 -0.6308  0.1678 -1.1268
  162TMC2    C2 2517   0.872   1.827   0.653 -0.0767  0.5859 -0.4263
  162TMC2    C3 2518   0.757   1.846   0.719 -0.5421  0.1123 -0.1004
  162TMC2    C4 2519   0.984   1.925   0.837  0.0144 -0.2544  0.2809
  162TMC2    C5 2520   0.865   1.950   0.896  0.1418  0.1121 -0.2914
  162TMC2    C6 2521   0.747   1.899   0.843  0.9348  0.9156  0.2067
  162TMC2     C 2522   1.114   1.837   0.648  0.1295  0.4132  0.5215
  162TMC2     O 2523   1.109   1.804   0.529  0.2498  0.1212  0.2708
  162TMC2     H 2524   0.881   1.788   0.552 -0.8753  0.8115 -0.5870
  162TMC2    H1 2525   1.079   1.964   0.873 -0.0376  1.5622 -1.5094
  162TMC2    H2 2526   0.653   1.919   0.892 -0.0096 -1.1035 -0.7799
  162TMC2    C7 2527   0.862   2.042   1.010  0.4869 -0.5108  0.3866
  162TMC2    C8 2528   0.632   1.843   0.639 -0.1095  0.1310  0.0797
  162TMC2    O1 2529   0.755   2.086   1.044 -0.4023  0.1610 -0.2122
  162TMC2    O2 2530   0.548   1.930   0.662 -0.1987  0.0104 -0.0355
  162TMC2    O5 2531   0.602   1.714   0.638 -0.1841 -0.0987 -0.1861
  162TMC2    H5 2532   0.676   1.650   0.633 -1.3181 -1.4156 -0.0804
  163MPD2     C 2533   1.612   1.720   0.675 -0.9767 -0.0539 -0.0180
  163MPD2    C1 2534   1.530   1.727   0.562 -0.1186  1.0756  0.7600
  163MPD2    C2 2535   1.396   1.752   0.584 -0.3314  0.1535  0.0606
  163MPD2    C3 2536   1.344   1.764   0.712  0.3071  0.7055 -0.3936
  163MPD2    C4 2537   1.433   1.764   0.816  0.0625 -0.2321 -0.1866
  163MPD2    C5 2538   1.560   1.735   0.798  0.2733  0.3327 -0.1028
  163MPD2     H 2539   1.338   1.763   0.492  1.0052 -0.9104 -0.9004
  163MPD2    H1 2540   1.392   1.778   0.916  1.7367  1.5178  0.2509
  163MPD2    H2 2541   1.718   1.706   0.661 -0.9330 -0.8958  1.0838
  163MPD2    H3 2542   1.624   1.734   0.886 -1.2487 -0.4661  0.9969
  163MPD2     N 2543   1.214   1.804   0.737  0.0796  0.1011  0.3545
  163MPD2    H5 2544   1.190   1.819   0.835 -0.1976  1.2149  0.1207
  163MPD2    N1 2545   1.586   1.710   0.434  1.0491  0.1991  0.3584
  163MPD2    H7 2546   1.685   1.691   0.423  0.8720 -0.4158 -0.1809
  164TMC2    C1 2547   2.254   2.125  11.071  0.6217  0.0548 -0.2957
  164TMC2    C2 2548   2.304   2.140  10.940  0.1692 -0.4958 -0.0578
  164TMC2    C3 2549   2.269   2.259  10.886 -0.0889 -0.7139 -0.1079
  164TMC2    C4 2550   2.191   2.224  11.139 -1.0457 -0.3288 -0.0569
  164TMC2    C5 2551   2.152   2.333  11.071 -0.5182 -0.1101 -0.6643
  164TMC2    C6 2552   2.192   2.357  10.946 -0.2087  0.0166  0.1195
  164TMC2     C 2553   2.218   1.991  11.118  0.4505 -0.2884  0.4121
  164TMC2     O 2554   2.106   1.973  11.169  0.3028 -0.4341  0.1343
  164TMC2     H 2555   2.360   2.065  10.885 -0.0101 -0.1972 -0.6488
  164TMC2    H1 2556   2.149   2.205  11.237 -1.2826  0.3734 -0.0228
  164TMC2    H2 2557   2.171   2.451  10.894  0.8856  1.8730  3.0416
  164TMC2    C7 2558   2.056   2.420  11.137  0.3004 -0.2490 -0.8808
  164TMC2    C8 2559   2.347   2.303  10.777  0.0504 -0.0766 -0.9886
  164TMC2    O1 2560   1.975   2.367  11.213 -0.3441  0.1954  0.0887
  164TMC2    O2 2561   2.316   2.398  10.705  0.2249  0.0869  0.3161
  164TMC2    O5 2562   2.470   2.273  10.822 -0.2534 -0.0617  0.6868
  164TMC2    H5 2563   2.474   2.194  10.879  0.8061 -0.4776  0.0218
  165TMC2    C1 2564   3.654   3.669   1.087 -0.7323 -0.2075 -0.0789
  165TMC2    C2 2565   3.619   3.649   0.959  0.0904 -0.3503  0.0788
  165TMC2    C3 2566   3.676   3.728   0.860  0.3187  0.0924 -0.0163
  165TMC2    C4 2567   3.726   3.776   1.127 -0.3171  0.7250  0.2974
  165TMC2    C5 2568   3.775   3.856   1.029  0.8206 -0.4356  0.6072
  165TMC2    C6 2569   3.756   3.833   0.894  0.4272 -1.0146 -0.0000
  165TMC2     C 2570   3.685   3.548   1.153  0.8103  0.3257 -0.3302
  165TMC2     O 2571   3.801   3.525   1.190  0.0214  0.4646  0.3568
  165TMC2     H 2572   3.568   3.564   0.914  1.8443 -1.6675  0.5607
  165TMC2    H1 2573   3.762   3.764   1.228 -0.7082  0.2473  0.3804
  165TMC2    H2 2574   3.802   3.894   0.817  0.4633 -0.0449  0.7826
  165TMC2    C7 2575   3.869   3.958   1.072  0.0082  0.0093  0.7571
  165TMC2    C8 2576   3.634   3.705   0.726  0.0385  0.3349  1.2077
  165TMC2    O1 2577   3.973   3.956   1.008 -0.0420 -0.2093  0.1427
  165TMC2    O2 2578   3.550   3.619   0.699  0.1152 -0.3056 -0.5198
  165TMC2    O5 2579   3.743   3.724   0.644  0.0974 -0.5688  0.0104
  165TMC2    H5 2580   3.826   3.751   0.688 -0.7026 -0.0689  1.2029
  166MPD2     C 2581   3.572   3.061   1.294  1.0742  0.3345 -0.3431
  166MPD2    C1 2582   3.678   3.141   1.329  0.3734  0.3176 -0.9585
  166MPD2    C2 2583   3.682   3.276   1.293 -0.3960 -0.4578  0.0776
  166MPD2    C3 2584   3.578   3.333   1.217 -0.4443  0.2734 -0.0367
  166MPD2    C4 2585   3.469   3.251   1.189 -0.2324 -0.5149 -0.5738
  166MPD2    C5 2586   3.474   3.116   1.220 -0.5087 -0.0532 -0.2210
  166MPD2     H 2587   3.767   3.334   1.328  0.0571 -0.0602 -1.6496
  166MPD2    H1 2588   3.377   3.282   1.141  0.0071  0.8602 -0.1403
  166MPD2    H2 2589   3.555   2.955   1.312 -1.1261  0.8703  0.7165
  166MPD2    H3 2590   3.402   3.043   1.184  1.0881 -1.1592 -1.2230
  166MPD2     N 2591   3.577   3.466   1.159 -0.1828 -0.7112 -0.0637
  166MPD2    H5 2592   3.494   3.496   1.108 -0.7337 -1.1994  0.5452
  166MPD2    N1 2593   3.782   3.080   1.404  0.0284 -0.1767  0.2788
  166MPD2    H7 2594   3.763   2.985   1.431  0.9237 -0.6969 -0.9404
  167TMC2    C1 2595   0.958   1.038  13.397 -0.0699 -0.1156  0.1317
  167TMC2    C2 2596   0.943   0.966  13.510 -0.6280 -0.0157  0.3026
  167TMC2    C3 2597   1.050   0.947  13.596  1.0034 -0.0318  0.5692
  167TMC2    C4 2598   1.071   1.117  13.380  0.1045 -0.4827  0.4899
  167TMC2    C5 2599   1.176   1.103  13.475 -0.8792 -0.4819 -0.4681
  167TMC2    C6 2600   1.168   1.009  13.579  0.3508  0.5513  0.4212
  167TMC2     C 2601   0.857   1.042  13.296  0.6217  0.4242 -0.4473
  167TMC2     O 2602   0.734   1.022  13.316  0.0070  0.6634  0.6323
  167TMC2     H 2603   0.850   0.919  13.538 -1.5256  2.3141  1.2165
  167TMC2    H1 2604   1.089   1.192  13.304  0.2959 -0.6104  0.4105
  167TMC2    H2 2605   1.253   0.986  13.641 -0.4065  1.2348  1.7200
  167TMC2    C7 2606   1.303   1.168  13.462  0.0258 -0.2295 -0.3302
  167TMC2    C8 2607   1.058   0.842  13.699  0.1457 -0.7463  0.0190
  167TMC2    O1 2608   1.364   1.173  13.568 -0.1784  0.1893  0.2239
  167TMC2    O2 2609   1.138   0.846  13.792 -0.1923 -0.0311 -0.2387
  167TMC2    O5 2610   0.946   0.765  13.688  0.2527 -0.6420  0.0324
  167TMC2    H5 2611   0.907   0.769  13.598  0.4367  1.8942  0.0423
  168MPD2     C 2612   0.730   1.096  13.035  0.8888 -0.2061  0.0652
  168MPD2    C1 2613   0.871   1.071  13.055  0.2226 -0.1348 -0.5465
  168MPD2    C2 2614   0.951   1.083  12.946  0.1709  0.4995  0.1371
  168MPD2    C3 2615   0.913   1.112  12.819  0.1519 -0.7359 -0.1618
  168MPD2    C4 2616   0.778   1.135  12.797 -0.3315 -0.6066  0.4099
  168MPD2    C5 2617   0.692   1.129  12.900 -0.6701  0.1175 -0.9149
  168MPD2     H 2618   1.054   1.054  12.962  0.0143 -1.3275 -2.1351
  168MPD2    H1 2619   0.748   1.169  12.698  2.6800 -0.3926 -0.4139
  168MPD2    H2 2620   0.656   1.089  13.114  0.6000  1.2228 -0.0800
  168MPD2    H3 2621   0.593   1.161  12.870 -0.2966  1.3342 -0.8555
  168MPD2     N 2622   1.005   1.128  12.714 -0.1679 -0.1491  0.6654
  168MPD2    H5 2623   0.966   1.152  12.624 -0.5091 -0.2446  0.7885
  168MPD2    N1 2624   0.924   1.039  13.181 -0.3811  0.4835 -0.2527
  168MPD2    H7 2625   1.026   1.041  13.185 -0.3988  0.5222  0.1868
  169MPD1     C 2626   4.468   0.684  10.018 -0.1727  0.3132 -0.0036
  169MPD1    C1 2627   4.502   0.795  10.086 -0.1409 -0.3662 -0.0229
  169MPD1    C2 2628   4.465   0.919  10.039  0.4880 -0.1009  0.3137
  169MPD1    C3 2629   4.384   0.925   9.924  0.2881 -0.4811 -0.2298
  169MPD1    C4 2630   4.348   0.816   9.856  0.0457  0.5096  0.0521
  169MPD1    C5 2631   4.388   0.696   9.905 -0.1165  0.6530 -0.1850
  169MPD1     H 2632   4.496   1.009  10.092  3.4549 -0.4617 -0.8272
  169MPD1    H1 2633   4.289   0.814   9.765  0.1942 -0.7981 -0.0189
  169MPD1    H2 2634   4.510   0.585  10.030  0.3298  0.5055 -0.1943
  169MPD1    H3 2635   4.357   0.598   9.871 -2.1786  1.0292  0.6291
  169MPD1     N 2636   4.350   1.056   9.875 -0.8139  0.0528  0.2990
  169MPD1    H5 2637   4.395   1.131   9.926  0.9973 -0.8761  0.0855
  169MPD1    N1 2638   4.597   0.787  10.193  0.2751  0.0583 -0.9385
  169MPD1    H6 2639   4.600   0.695  10.236 -3.2252  0.7017  0.6538
  169MPD1    H7 2640   4.584   0.855  10.267 -1.5742 -0.3980 -0.8247
  170MPD1     C 2641   3.013   3.613  12.996  0.5433  0.2127 -0.2388
  170MPD1    C1 2642   3.106   3.618  13.093  0.0421  0.4892  0.5183
  170MPD1    C2 2643   3.064   3.623  13.221 -0.7000  0.9708 -0.3275
  170MPD1    C3 2644   2.933   3.622  13.256 -0.4188 -0.5727  0.0009
  170MPD1    C4 2645   2.837   3.596  13.165 -0.2790 -0.4509  0.0709
  170MPD1    C5 2646   2.879   3.592  13.030 -0.2297 -1.0948 -0.6385
  170MPD1     H 2647   3.128   3.653  13.304 -0.2500  0.4332 -0.4793
  170MPD1    H1 2648   2.733   3.585  13.195 -0.5977 -1.1571 -1.3024
  170MPD1    H2 2649   3.045   3.623  12.893 -0.6357  0.1847 -0.6039
  170MPD1    H3 2650   2.810   3.572  12.949  0.0001  2.0964 -1.6219
  170MPD1     N 2651   2.902   3.658  13.387  1.0456  0.3626 -0.7509
  170MPD1    H5 2652   2.982   3.658  13.449  0.2542 -1.3381  0.2661
  170MPD1    N1 2653   3.239   3.651  13.057  0.9071  0.3915 -0.2327
  170MPD1    H6 2654   3.294   3.619  13.136 -0.0069 -0.2219  0.1585
  170MPD1    H7 2655   3.275   3.607  12.972  0.9351 -1.4407  0.7304
  171MPD1     C 2656   0.546   0.219  15.499 -0.7531 -0.0070  0.1697
  171MPD1    C1 2657   0.498   0.101  15.554  0.5264 -0.8851  0.0191
  171MPD1    C2 2658   0.588   0.036  15.626 -0.4298 -0.3682 -0.1179
  171MPD1    C3 2659   0.721   0.069  15.633 -0.0235  0.0378 -0.2839
  171MPD1    C4 2660   0.767   0.175  15.571  0.0827 -0.3592 -0.8584
  171MPD1    C5 2661   0.682   0.251  15.498  0.0306 -0.4801  0.1245
  171MPD1     H 2662   0.555   4.689  15.678  1.2926 -0.7429  0.3316
  171MPD1    H1 2663   0.873   0.197  15.576  0.1372 -0.1939 -2.7627
  171MPD1    H2 2664   0.481   0.291  15.449 -0.8885 -0.0977  0.2167
  171MPD1    H3 2665   0.713   0.336  15.438 -1.3045  0.0806  0.2290
  171MPD1     N 2666   0.820   4.728  15.681 -0.2093  0.2335 -0.2316
  171MPD1    H5 2667   0.913   0.027  15.677 -1.2589  2.4361 -2.2375
  171MPD1    N1 2668   0.363   0.065  15.557 -0.4663  0.5119 -0.0714
  171MPD1    H6 2669   0.360   4.708  15.582 -0.9410  0.3929 -0.6042
  171MPD1    H7 2670   0.318   0.074  15.466  1.0536  0.0328 -0.8665
  172MPD1     C 2671   0.363   3.762   0.119 -0.0224  0.0617 -0.2624
  172MPD1    C1 2672   0.263   3.842   0.073  1.0840 -0.2743 -0.0623
  172MPD1    C2 2673   0.262   3.975   0.110 -0.7212  0.1955 -0.2410
  172MPD1    C3 2674   0.350   4.011   0.215 -0.3217  0.9024  0.5035
  172MPD1    C4 2675   0.439   3.926   0.267  0.1491 -0.4344  0.0186
  172MPD1    C5 2676   0.448   3.804   0.214 -0.0141  0.0323  0.1329
  172MPD1     H 2677   0.206   4.048   0.055 -0.6394  2.2245  2.3635
  172MPD1    H1 2678   0.493   3.968   0.351 -0.8181  1.3867 -0.2706
  172MPD1    H2 2679   0.357   3.660   0.082  0.5043 -0.0506 -0.0394
  172MPD1    H3 2680   0.517   3.736   0.263  1.4929  0.4075 -1.4999
  172MPD1     N 2681   0.353   4.139   0.268 -0.0629 -0.5462 -0.1505
  172MPD1    H5 2682   0.432   4.161   0.327 -0.2528  1.3398 -0.5741
  172MPD1    N1 2683   0.185   3.798  17.725 -0.1012 -0.2417 -0.1626
  172MPD1    H6 2684   0.104   3.859  17.728 -0.6450 -1.0462  1.7191
  172MPD1    H7 2685   0.151   3.702  17.730  1.6898 -0.8642  0.3529
  173MPD1     C 2686   1.693   4.369  14.490  0.5736  0.3199  0.3702
  173MPD1    C1 2687   1.794   4.330  14.405 -0.1948 -0.2746 -0.1889
  173MPD1    C2 2688   1.836   4.201  14.417 -0.3533 -0.3654 -0.0281
  173MPD1    C3 2689   1.784   4.108  14.509  0.3383 -0.3844  0.3418
  173MPD1    C4 2690   1.685   4.155  14.594  0.6639  0.0950  1.0977
  173MPD1    C5 2691   1.642   4.280  14.578  0.1434  0.2218  0.0562
  173MPD1     H 2692   1.919   4.164  14.358 -1.0558  1.1918 -1.9843
  173MPD1    H1 2693   1.642   4.088  14.668 -1.9790  0.4859 -0.1068
  173MPD1    H2 2694   1.648   4.464  14.464 -2.2380 -1.0833  0.1251
  173MPD1    H3 2695   1.561   4.312  14.643  0.6930 -0.7289  1.1894
  173MPD1     N 2696   1.835   3.976  14.517  0.1278 -0.0102  0.3452
  173MPD1    H5 2697   1.905   3.940  14.452  0.4401  0.6668  0.3057
  173MPD1    N1 2698   1.831   4.412  14.299  0.3608 -0.3989  0.0698
  173MPD1    H6 2699   1.921   4.379  14.265  1.2231  1.1851  0.7658
  173MPD1    H7 2700   1.844   4.507  14.334 -0.7172  0.3420 -1.5362
  174MPD1     C 2701   2.730   3.825  14.539 -0.2455  0.3363  0.2656
  174MPD1    C1 2702   2.678   3.736  14.621 -0.1873  0.6727 -0.0240
  174MPD1    C2 2703   2.537   3.724  14.638 -0.3049  0.0622 -0.1989
  174MPD1    C3 2704   2.454   3.824  14.590  0.2524  0.4245  0.2874
  174MPD1    C4 2705   2.509   3.911  14.494  0.0666 -0.2281 -0.2696
  174MPD1    C5 2706   2.645   3.910  14.466  0.6540 -0.0065  0.2548
  174MPD1     H 2707   2.492   3.644  14.697 -1.1287 -0.7613 -1.9458
  174MPD1    H1 2708   2.440   3.970  14.435  0.0888 -0.5255 -0.5911
  174MPD1    H2 2709   2.837   3.831  14.526 -0.1693  0.8379  1.0852
  174MPD1    H3 2710   2.694   3.966  14.386 -4.7315  1.3703 -2.0764
  174MPD1     N 2711   2.317   3.836  14.614  0.1172  0.2199 -0.4573
  174MPD1    H5 2712   2.266   3.896  14.550 -0.8290 -1.0569 -0.8960
  174MPD1    N1 2713   2.761   3.643  14.680  0.4685 -0.0104 -0.5026
  174MPD1    H6 2714   2.740   3.605  14.772 -0.1235  1.6166  0.0156
  174MPD1    H7 2715   2.860   3.666  14.670  0.7040 -0.9539 -0.3547
  175MPD1     C 2716   0.321   0.605  15.179 -1.1052  0.2672 -0.8543
  175MPD1    C1 2717   0.305   0.472  15.148  0.1179  0.4363  0.3563
  175MPD1    C2 2718   0.239   0.393  15.239 -0.2287  0.1972  0.4119
  175MPD1    C3 2719   0.162   0.442  15.345  0.7134 -0.4676 -0.3236
  175MPD1    C4 2720   0.168   0.580  15.362  0.3264  0.1090  0.2687
  175MPD1    C5 2721   0.249   0.659  15.284  0.1621 -0.5413 -0.3617
  175MPD1     H 2722   0.242   0.291  15.202 -2.5053  0.2739  0.0470
  175MPD1    H1 2723   0.103   0.629  15.435  0.9525  1.0439  0.1994
  175MPD1    H2 2724   0.381   0.672  15.118  1.7807 -2.1023 -0.5888
  175MPD1    H3 2725   0.250   0.765  15.304  0.5409 -0.3564 -1.3654
  175MPD1     N 2726   0.084   0.364  15.432  0.4667 -0.4128 -0.0015
  175MPD1    H5 2727   0.040   0.413  15.509 -0.0096  1.0926 -1.2331
  175MPD1    N1 2728   0.385   0.416  15.053 -0.1232 -0.0255 -0.0674
  175MPD1    H6 2729   0.348   0.324  15.029  2.8627 -1.1701 -0.2269
  175MPD1    H7 2730   0.383   0.477  14.972 -1.7391  0.4656  0.3387
  176MPD1     C 2731   1.268   2.418   0.366 -0.2868  0.4547  0.5220
  176MPD1    C1 2732   1.276   2.556   0.379  0.2979 -0.1271  0.0347
  176MPD1    C2 2733   1.366   2.621   0.296 -0.5269  0.1139 -0.1060
  176MPD1    C3 2734   1.422   2.558   0.187 -0.3169  0.0801 -0.2038
  176MPD1    C4 2735   1.394   2.426   0.160 -0.2575  0.0796 -0.0215
  176MPD1    C5 2736   1.321   2.357   0.255  0.3242 -0.1688  0.0901
  176MPD1     H 2737   1.395   2.724   0.314  0.1212 -0.1352  0.2774
  176MPD1    H1 2738   1.430   2.367   0.078 -1.2748 -1.6455  0.7693
  176MPD1    H2 2739   1.203   2.364   0.433  1.7896 -1.6103  0.8556
  176MPD1    H3 2740   1.303   2.253   0.232 -0.0000 -0.4532  1.6586
  176MPD1     N 2741   1.519   2.629   0.111  0.2405  0.6568  0.6195
  176MPD1    H5 2742   1.541   2.725   0.136  1.6288  0.9374 -1.7381
  176MPD1    N1 2743   1.226   2.616   0.495  0.4007 -0.0713  0.6207
  176MPD1    H6 2744   1.136   2.575   0.520  1.0189 -0.5421  2.0758
  176MPD1    H7 2745   1.220   2.718   0.494  2.2309  0.0442 -0.5117
  177MPD1     C 2746   0.170   2.015  10.773 -0.0142  0.2580 -0.7193
  177MPD1    C1 2747   0.242   2.048  10.658 -0.6614  0.3941 -0.2126
  177MPD1    C2 2748   0.191   2.022  10.533 -0.4113  0.4637  0.2866
  177MPD1    C3 2749   0.060   1.982  10.517  0.0686 -0.4739  0.5712
  177MPD1    C4 2750   4.722   1.970  10.627 -0.4409 -0.2851 -0.1376
  177MPD1    C5 2751   0.038   1.970  10.748  0.4295  0.1503  0.3697
  177MPD1     H 2752   0.249   2.034  10.442 -1.4873 -0.0512 -0.4538
  177MPD1    H1 2753   4.616   1.946  10.632 -0.1792 -1.3690  0.1986
  177MPD1    H2 2754   0.207   2.030  10.874 -1.4146  0.7456 -0.2756
  177MPD1    H3 2755   4.722   1.947  10.837 -0.5007 -0.0794 -0.2913
  177MPD1     N 2756   0.011   1.970  10.387 -0.4407  0.3317  0.1478
  177MPD1    H5 2757   0.078   1.972  10.311 -0.3040 -2.7081  0.1774
  177MPD1    N1 2758   0.380   2.081  10.663  0.7767  0.1237  0.4078
  177MPD1    H6 2759   0.422   2.097  10.571 -0.3953  0.6031 -0.0404
  177MPD1    H7 2760   0.407   2.154  10.729 -0.0225  2.3458 -1.6982
  178MPD1     C 2761   2.116   2.571  17.656  0.2595 -0.5330  0.5070
  178MPD1    C1 2762   2.230   2.632  17.693  0.2917  0.1348 -0.0635
  178MPD1    C2 2763   2.341   2.623  17.605  0.0881  0.5410 -0.1747
  178MPD1    C3 2764   2.333   2.540  17.492  0.1589  1.0976 -0.1765
  178MPD1    C4 2765   2.212   2.484  17.460 -0.1001 -0.1094  0.0091
  178MPD1    C5 2766   2.106   2.499  17.542  0.4049 -0.2331 -0.2179
  178MPD1     H 2767   2.433   2.677  17.624  0.6066 -0.0164 -1.1296
  178MPD1    H1 2768   2.208   2.436  17.363  1.7221 -3.1366  1.4341
  178MPD1    H2 2769   2.023   2.609  17.698 -0.7382 -1.3370 -0.9999
  178MPD1    H3 2770   2.011   2.461  17.509  1.1350 -0.6987 -1.7838
  178MPD1     N 2771   2.430   2.534  17.389 -0.2695  0.0180  0.3288
  178MPD1    H5 2772   2.409   2.467  17.316 -1.3165 -1.6653  2.1732
  178MPD1    N1 2773   2.223   2.734   0.033 -0.3273 -0.8440 -0.1558
  178MPD1    H6 2774   2.172   2.692   0.110 -1.5181 -2.1454 -1.6487
  178MPD1    H7 2775   2.317   2.751   0.066 -0.7770  0.9067  0.1772
  179MPD1     C 2776   2.763   1.191  15.837  0.5815  0.5018 -0.3748
  179MPD1    C1 2777   2.632   1.215  15.878  0.0439  0.4647  0.5439
  179MPD1    C2 2778   2.544   1.110  15.895 -0.1266 -0.1436 -0.0203
  179MPD1    C3 2779   2.581   0.979  15.855  0.5749  0.3405  0.3245
  179MPD1    C4 2780   2.712   0.953  15.820  0.3196  0.1937  0.3538
  179MPD1    C5 2781   2.800   1.060  15.816  0.3890  0.8082 -0.6876
  179MPD1     H 2782   2.445   1.147  15.919 -0.9339 -1.4364 -1.3906
  179MPD1    H1 2783   2.744   0.852  15.800 -0.0075  0.1660 -0.0183
  179MPD1    H2 2784   2.840   1.266  15.822  4.0234 -2.6534  1.5658
  179MPD1    H3 2785   2.899   1.044  15.774  0.9319  3.4981 -0.4928
  179MPD1     N 2786   2.493   0.864  15.862 -0.1159  0.2477 -0.3241
  179MPD1    H5 2787   2.539   0.775  15.851 -1.3922 -0.6244  1.5665
  179MPD1    N1 2788   2.594   1.334  15.935 -0.2305  0.3068  0.5022
  179MPD1    H6 2789   2.656   1.409  15.905 -2.0092  1.9853  0.9998
  179MPD1    H7 2790   2.504   1.363  15.899  0.4598  0.3365 -1.2125
  180MPD1     C 2791   1.769   2.116  15.121 -0.4706 -0.6089  0.5727
  180MPD1    C1 2792   1.791   2.054  15.004  0.3423 -0.0676 -0.3817
  180MPD1    C2 2793   1.828   2.141  14.905 -0.8000  0.5778 -0.3016
  180MPD1    C3 2794   1.854   2.271  14.925 -0.2966 -0.8624  0.0831
  180MPD1    C4 2795   1.818   2.333  15.044 -0.4932 -0.0546 -0.3633
  180MPD1    C5 2796   1.771   2.251  15.137  0.5680 -0.7551 -0.0895
  180MPD1     H 2797   1.828   2.104  14.803  0.9962 -2.7682  0.8889
  180MPD1    H1 2798   1.819   2.438  15.070 -1.3207 -0.7686  2.6164
  180MPD1    H2 2799   1.713   2.055  15.191 -2.2190  1.0551  0.6228
  180MPD1    H3 2800   1.763   2.290  15.238  2.0425  0.6963 -0.5408
  180MPD1     N 2801   1.891   2.344  14.817  0.5154  0.4296 -0.1468
  180MPD1    H5 2802   1.912   2.300  14.728  2.6689  1.1285  0.0003
  180MPD1    N1 2803   1.768   1.919  14.975  0.1730  0.7015  0.4018
  180MPD1    H6 2804   1.843   1.886  14.915  0.2696 -0.1580  0.9950
  180MPD1    H7 2805   1.766   1.859  15.057 -1.7023 -2.5369 -2.0613
  181MPD1     C 2806   4.672   0.381   9.675  0.2014 -0.5428 -0.9031
  181MPD1    C1 2807   4.579   0.279   9.690  0.8964 -0.6374  0.8699
  181MPD1    C2 2808   4.515   0.257   9.812 -0.0924  0.3562 -0.3047
  181MPD1    C3 2809   4.560   0.320   9.925 -0.4768 -0.1511  0.8175
  181MPD1    C4 2810   4.651   0.416   9.919 -0.1648 -0.0362 -0.8315
  181MPD1    C5 2811   4.708   0.446   9.795 -0.1392  0.0865 -0.3157
  181MPD1     H 2812   4.424   0.199   9.817  0.1237 -0.0369 -0.9746
  181MPD1    H1 2813   4.691   0.465  10.008 -1.1397  0.2845 -0.5656
  181MPD1    H2 2814   4.707   0.418   9.580 -2.1673  0.9983 -1.1909
  181MPD1    H3 2815   0.038   0.527   9.786 -0.4706  0.6327  2.1241
  181MPD1     N 2816   4.502   0.294  10.048 -0.4112 -0.0269 -0.1118
  181MPD1    H5 2817   4.532   0.352  10.126  2.8459 -0.6052 -0.8990
  181MPD1    N1 2818   4.534   0.219   9.573  0.8508  0.1867  0.7056
  181MPD1    H6 2819   4.612   0.223   9.508  0.8936 -1.5913  0.6473
  181MPD1    H7 2820   4.513   0.120   9.582 -0.5392  0.2835 -1.5517
  182MPD1     C 2821   4.455   3.788   1.192 -0.0494 -0.1171 -0.7378
  182MPD1    C1 2822   4.564   3.832   1.125 -0.3145 -0.8018 -0.4673
  182MPD1    C2 2823   4.542   3.872   0.990  0.7607  0.6439  0.4349
  182MPD1    C3 2824   4.417   3.891   0.937  0.1379  0.5131  0.1323
  182MPD1    C4 2825   4.312   3.878   1.019 -0.1995  0.2449 -0.6827
  182MPD1    C5 2826   4.330   3.826   1.147 -0.8329 -0.1250  0.1293
  182MPD1     H 2827   4.631   3.905   0.937  1.2090 -1.5497 -0.1453
  182MPD1    H1 2828   4.211   3.893   0.982 -0.4430  3.0590  1.0950
  182MPD1    H2 2829   4.462   3.733   1.286  3.2638  2.0194  0.2692
  182MPD1    H3 2830   4.240   3.812   1.206 -1.2073  0.1310 -0.3836
  182MPD1     N 2831   4.389   3.922   0.804 -0.1302  0.0086 -0.1074
  182MPD1    H5 2832   4.294   3.947   0.781 -0.6953 -0.0555  2.2143
  182MPD1    N1 2833   4.690   3.807   1.182 -0.2087  0.3809 -0.3355
  182MPD1    H6 2834   0.025   3.869   1.157 -0.2330  1.3586  1.9819
  182MPD1    H7 2835   4.687   3.807   1.284 -2.3480 -1.9021 -0.3974
  183MPD1     C 2836   3.425   2.965  10.266  0.4206 -0.3324 -0.5251
  183MPD1    C1 2837   3.561   3.003  10.260  0.4317 -0.4052 -0.4840
  183MPD1    C2 2838   3.597   3.128  10.207  0.6324  0.5283 -0.0715
  183MPD1    C3 2839   3.496   3.198  10.134  0.3634 -0.3351 -0.9934
  183MPD1    C4 2840   3.367   3.165  10.152 -0.5352 -0.2107 -0.0551
  183MPD1    C5 2841   3.327   3.050  10.212  0.7385  0.4089  0.3801
  183MPD1     H 2842   3.700   3.156  10.193  0.1453  2.7756  0.8982
  183MPD1    H1 2843   3.296   3.243  10.128 -1.3255 -0.7626  0.4849
  183MPD1    H2 2844   3.407   2.876  10.325  0.2539 -0.0126 -0.0911
  183MPD1    H3 2845   3.225   3.019  10.232  1.7608 -3.2899 -0.0682
  183MPD1     N 2846   3.534   3.320  10.073 -0.2898 -0.7486 -0.1657
  183MPD1    H5 2847   3.633   3.342  10.075 -0.4522  0.1368 -1.6945
  183MPD1    N1 2848   3.646   2.938  10.349 -0.2702 -0.5881  0.1674
  183MPD1    H6 2849   3.746   2.948  10.331 -0.2341  0.3090  0.8688
  183MPD1    H7 2850   3.627   2.838  10.346  0.6711 -0.7094 -1.9118
  184MPD1     C 2851   4.114   1.272  10.599  0.2842  0.0863 -0.6039
  184MPD1    C1 2852   4.205   1.366  10.572 -0.1828 -0.0881  0.4432
  184MPD1    C2 2853   4.176   1.473  10.488 -0.8499 -0.1997 -0.6015
  184MPD1    C3 2854   4.046   1.497  10.447  0.2860 -0.9623  0.1367
  184MPD1    C4 2855   3.947   1.412  10.490 -0.8708  0.0094  0.2295
  184MPD1    C5 2856   3.983   1.299  10.566  0.7256 -0.3553  0.6324
  184MPD1     H 2857   4.255   1.546  10.473 -0.0110 -1.3728 -1.8775
  184MPD1    H1 2858   3.840   1.420  10.476 -1.0317  0.2350  1.5908
  184MPD1    H2 2859   4.136   1.181  10.653  1.0271  0.1898 -0.7268
  184MPD1    H3 2860   3.906   1.225  10.584  0.2436 -0.2173 -0.9212
  184MPD1     N 2861   4.009   1.613  10.371  0.7982 -0.8164 -0.1015
  184MPD1    H5 2862   3.912   1.617  10.342  0.9364 -1.6582 -0.6765
  184MPD1    N1 2863   4.344   1.332  10.598  0.1753 -0.3279  0.4821
  184MPD1    H6 2864   4.392   1.419  10.622 -0.1889  0.3276 -1.1380
  184MPD1    H7 2865   4.346   1.287  10.689 -0.5171  0.8895  1.1013
  185MPD1     C 2866   3.557   2.047   9.614 -0.2708 -0.5075  0.4170
  185MPD1    C1 2867   3.521   1.984   9.729 -0.2435  0.3057  0.1964
  185MPD1    C2 2868   3.624   1.949   9.814  0.2504 -0.9019  0.2320
  185MPD1    C3 2869   3.754   1.973   9.784 -0.7446 -0.2344 -0.3827
  185MPD1    C4 2870   3.787   2.019   9.660  0.2980  0.0915  0.5603
  185MPD1    C5 2871   3.686   2.056   9.571 -0.1256  0.5194  0.1103
  185MPD1     H 2872   3.596   1.904   9.908  0.6034  0.8851  1.1859
  185MPD1    H1 2873   3.893   2.030   9.640 -0.1914  1.3395 -1.3534
  185MPD1    H2 2874   3.480   2.090   9.551 -0.5334  0.4864  1.3998
  185MPD1    H3 2875   3.721   2.105   9.481  1.2677  0.9118  0.8618
  185MPD1     N 2876   3.860   1.951   9.876 -0.0690 -0.5807  0.1173
  185MPD1    H5 2877   3.952   1.986   9.853 -0.4960 -0.1704 -0.9826
  185MPD1    N1 2878   3.389   1.954   9.759 -0.5101 -0.7916 -0.8172
  185MPD1    H6 2879   3.324   2.018   9.714  1.0707  1.3691 -0.0243
  185MPD1    H7 2880   3.367   1.953   9.858 -0.5705  0.5340 -0.8226
  186MPD1     C 2881   3.280   0.598  16.588 -0.2758 -0.6209  0.5492
  186MPD1    C1 2882   3.346   0.699  16.523 -0.5885  0.2886 -0.3284
  186MPD1    C2 2883   3.275   0.816  16.501 -0.0534 -0.4190 -0.1647
  186MPD1    C3 2884   3.157   0.840  16.564  0.7071 -0.1926  0.8031
  186MPD1    C4 2885   3.095   0.747  16.650 -0.5288 -0.6229  0.3885
  186MPD1    C5 2886   3.158   0.619  16.654  0.2596  0.3482 -0.0079
  186MPD1     H 2887   3.328   0.892  16.444  1.4354 -1.0892  0.3192
  186MPD1    H1 2888   3.006   0.769  16.708 -0.6313  0.9387 -0.3785
  186MPD1    H2 2889   3.329   0.502  16.601 -1.7755 -1.1129  2.6719
  186MPD1    H3 2890   3.100   0.547  16.711 -1.0726  1.7484  0.4081
  186MPD1     N 2891   3.100   0.969  16.560  0.6420 -0.0858  0.3167
  186MPD1    H5 2892   3.013   0.972  16.611  0.2317  1.5919 -0.4875
  186MPD1    N1 2893   3.459   0.668  16.443  0.8417  0.1673  0.4526
  186MPD1    H6 2894   3.511   0.591  16.483  1.4466  0.1080 -0.4327
  186MPD1    H7 2895   3.513   0.752  16.422  2.0794 -0.7467 -0.0004
  187MPD1     C 2896   1.308   3.799   0.165  0.3204  0.0189  0.0178
  187MPD1    C1 2897   1.375   3.865   0.067  0.4214  0.1298  0.5709
  187MPD1    C2 2898   1.445   3.789  17.743 -0.4198  0.1003  0.2397
  187MPD1    C3 2899   1.458   3.657  17.740  0.0269  0.4795  0.1404
  187MPD1    C4 2900   1.386   3.595   0.071  0.7093  0.1768  0.5195
  187MPD1    C5 2901   1.314   3.660   0.167  0.2630  0.1528  0.1950
  187MPD1     H 2902   1.503   3.854  17.678  1.7558 -1.8016  0.2740
  187MPD1    H1 2903   1.381   3.487   0.063  0.2685  0.2993 -0.9771
  187MPD1    H2 2904   1.247   3.852   0.238 -0.6355 -0.3387 -0.5256
  187MPD1    H3 2905   1.247   3.614   0.239 -4.2922  1.3731 -3.2147
  187MPD1     N 2906   1.528   3.581  17.642  0.0650 -0.0647 -0.0704
  187MPD1    H5 2907   1.502   3.484  17.631  2.9842 -1.2973  3.8852
  187MPD1    N1 2908   1.381   4.005   0.057 -0.1598 -0.2191 -0.2696
  187MPD1    H6 2909   1.421   4.045  17.736 -0.7597  1.4506  0.2345
  187MPD1    H7 2910   1.292   4.052   0.074  1.1643  1.9660  0.5672
  188MPD1     C 2911   1.902   3.979  10.399 -0.4923 -0.4421  0.1354
  188MPD1    C1 2912   1.787   4.043  10.449 -0.0381 -0.4293 -0.1532
  188MPD1    C2 2913   1.673   3.968  10.460  0.1123  0.1496  0.0135
  188MPD1    C3 2914   1.678   3.828  10.431 -0.9131 -0.2975 -0.1907
  188MPD1    C4 2915   1.790   3.771  10.383 -0.0648 -0.5030  0.3559
  188MPD1    C5 2916   1.903   3.848  10.376 -0.0756  0.7422  1.1128
  188MPD1     H 2917   1.583   4.023  10.484  0.7001  0.1506  2.1653
  188MPD1    H1 2918   1.800   3.663  10.376 -2.3520 -0.6130 -1.2675
  188MPD1    H2 2919   1.999   4.027  10.390 -1.7870  2.1002 -0.1221
  188MPD1    H3 2920   1.997   3.798  10.358 -0.5231  0.3392 -0.1764
  188MPD1     N 2921   1.562   3.743  10.442  0.2153 -0.2214  0.4470
  188MPD1    H5 2922   1.577   3.642  10.440 -0.9820 -0.3753 -0.5685
  188MPD1    N1 2923   1.776   4.183  10.455  0.5368  0.5244  0.6010
  188MPD1    H6 2924   1.861   4.221  10.497 -0.4993  1.7703  1.5851
  188MPD1    H7 2925   1.697   4.215  10.511  1.1971  0.8230  1.3658
  189MPD1     C 2926   3.072   3.691   0.732  0.7008  0.3197 -0.3507
  189MPD1    C1 2927   2.953   3.731   0.681  0.5574  0.4961  0.2936
  189MPD1    C2 2928   2.948   3.843   0.605  0.0638 -0.3794 -0.2419
  189MPD1    C3 2929   3.057   3.916   0.574 -0.2920  0.1171  0.1654
  189MPD1    C4 2930   3.174   3.884   0.643  0.1160 -0.1151 -0.2678
  189MPD1    C5 2931   3.179   3.771   0.714  0.6961  0.5009 -0.3343
  189MPD1     H 2932   2.851   3.869   0.565  1.3947  0.8098 -2.6690
  189MPD1    H1 2933   3.268   3.935   0.626  0.0031  0.0819 -0.3056
  189MPD1    H2 2934   3.073   3.606   0.800  2.3635  0.9052  0.3363
  189MPD1    H3 2935   3.273   3.746   0.761 -0.1841 -0.0957  1.0951
  189MPD1     N 2936   3.049   4.025   0.480  0.0147  0.8796  0.0256
  189MPD1    H5 2937   2.954   4.049   0.451 -0.8707 -1.6481  0.8113
  189MPD1    N1 2938   2.842   3.659   0.716  0.0424 -0.6812 -0.0699
  189MPD1    H6 2939   2.779   3.668   0.636  0.4695  0.0620 -0.3156
  189MPD1    H7 2940   2.851   3.559   0.737 -1.2637 -0.1905  2.8759
  190MPD1     C 2941   2.068   2.490  15.271  0.7280 -0.1107  0.4948
  190MPD1    C1 2942   2.195   2.506  15.234  0.1349  0.3492  0.3125
  190MPD1    C2 2943   2.299   2.488  15.331  0.2850 -0.4060 -0.6262
  190MPD1    C3 2944   2.268   2.451  15.461 -0.6356 -0.3369  0.2567
  190MPD1    C4 2945   2.141   2.414  15.490  0.2958  0.1260  0.2831
  190MPD1    C5 2946   2.040   2.442  15.397  0.5164  0.5261  0.3211
  190MPD1     H 2947   2.400   2.501  15.294  0.2971 -1.2484 -0.9091
  190MPD1    H1 2948   2.108   2.372  15.585 -0.6637 -1.1702 -0.6286
  190MPD1    H2 2949   1.980   2.514  15.213 -1.4084 -0.2719  3.6752
  190MPD1    H3 2950   1.936   2.430  15.425  0.3335 -0.9166 -1.0415
  190MPD1     N 2951   2.376   2.428  15.550  0.9534  0.3934  0.5549
  190MPD1    H5 2952   2.466   2.447  15.505  0.5314 -1.2966 -0.9910
  190MPD1    N1 2953   2.219   2.527  15.095  0.0488  1.2574  0.1861
  190MPD1    H6 2954   2.299   2.586  15.071  0.5983 -0.2362 -1.5682
  190MPD1    H7 2955   2.136   2.545  15.038  0.8687  2.1607 -0.7072
  191MPD1     C 2956   2.016   4.247  13.079  1.4866 -0.2075 -0.5919
  191MPD1    C1 2957   1.892   4.215  13.030 -0.3920  0.3507 -0.2332
  191MPD1    C2 2958   1.833   4.314  12.946  0.0028  0.4106  0.0523
  191MPD1    C3 2959   1.891   4.436  12.920  0.4262  0.0450 -0.3334
  191MPD1    C4 2960   2.018   4.459  12.970 -0.6826  0.4842  0.2657
  191MPD1    C5 2961   2.079   4.365  13.048  0.9384 -0.3442 -1.1080
  191MPD1     H 2962   1.738   4.286  12.901  0.3707 -1.3226  0.3680
  191MPD1    H1 2963   2.072   4.551  12.952 -0.2696  0.2455  0.3003
  191MPD1    H2 2964   2.060   4.178  13.151 -0.5089 -0.6638  0.1885
  191MPD1    H3 2965   2.177   4.379  13.092  1.0961  1.1006 -1.9683
  191MPD1     N 2966   1.812   4.524  12.844  0.6874 -0.5827 -0.1230
  191MPD1    H5 2967   1.714   4.504  12.828  0.0310  0.5512  2.5181
  191MPD1    N1 2968   1.833   4.093  13.048  0.8974  0.6088 -0.0967
  191MPD1    H6 2969   1.847   4.046  13.137  1.5086 -1.9183 -1.5439
  191MPD1    H7 2970   1.733   4.107  13.036  1.0089 -0.5516 -2.5032
  192MPD1     C 2971   1.119   0.193  13.126  0.0721  0.3833  0.2159
  192MPD1    C1 2972   1.154   0.271  13.018  0.3926  0.6583  0.2369
  192MPD1    C2 2973   1.280   0.270  12.963  0.5068 -0.6139  0.4120
  192MPD1    C3 2974   1.373   0.180  13.011  0.1695  0.2894 -0.3696
  192MPD1    C4 2975   1.339   0.098  13.119  0.8413 -0.4575  0.2960
  192MPD1    C5 2976   1.216   0.108  13.175  0.0149  0.1639  0.6282
  192MPD1     H 2977   1.308   0.349  12.894  0.4784  1.2824  2.5573
  192MPD1    H1 2978   1.418   0.041  13.166 -0.3119 -2.0347  0.3117
  192MPD1    H2 2979   1.021   0.208  13.171 -0.0709  0.1800 -0.0283
  192MPD1    H3 2980   1.189   0.052  13.264  0.3003  2.2452  2.0107
  192MPD1     N 2981   1.497   0.164  12.965 -0.2468 -0.1887  0.2406
  192MPD1    H5 2982   1.548   0.081  12.993  2.0226  0.1496 -2.8718
  192MPD1    N1 2983   1.056   0.367  12.977 -0.4195  0.6445  0.1200
  192MPD1    H6 2984   1.067   0.386  12.877 -0.2578  1.7961  0.3600
  192MPD1    H7 2985   0.964   0.329  13.000 -0.0814 -1.4433 -1.9559
  193MPD1     C 2986   0.763   4.239  15.916  0.0083  0.3421  0.1780
  193MPD1    C1 2987   0.718   4.352  15.982 -0.3369 -0.4098 -0.1971
  193MPD1    C2 2988   0.813   4.421  16.062 -0.5621  0.1269 -0.2760
  193MPD1    C3 2989   0.948   4.386  16.062 -0.3274 -0.2066  0.2619
  193MPD1    C4 2990   0.982   4.277  15.992  0.1550  0.9779  0.2667
  193MPD1    C5 2991   0.894   4.205  15.913  0.2451 -0.0523 -0.1543
  193MPD1     H 2992   0.763   4.484  16.134 -1.5407  0.2739 -1.0902
  193MPD1    H1 2993   1.089   4.261  15.992 -0.0371 -0.2751 -1.4941
  193MPD1    H2 2994   0.694   4.176  15.861 -0.6113 -0.5796  2.0314
  193MPD1    H3 2995   0.918   4.118  15.853 -1.2609 -0.6266  0.0801
  193MPD1     N 2996   1.046   4.453  16.131 -0.0549  0.3236  0.0805
  193MPD1    H5 2997   1.135   4.404  16.138 -0.1923 -0.1576 -1.4700
  193MPD1    N1 2998   0.576   4.386  15.980  0.3765 -0.3187 -0.6853
  193MPD1    H6 2999   0.549   4.380  15.883  0.1674 -1.3334 -0.5626
  193MPD1    H7 3000   0.555   4.482  16.005  0.8105 -0.1306 -1.0570
  194MPD1     C 3001   4.447   1.778  17.495  0.1281  0.3489 -0.7699
  194MPD1    C1 3002   4.479   1.741  17.365  0.1178 -0.2802 -0.5558
  194MPD1    C2 3003   4.425   1.629  17.310 -0.2954  0.0669 -0.0226
  194MPD1    C3 3004   4.330   1.555  17.379 -0.5528  0.2063 -0.2023
  194MPD1    C4 3005   4.295   1.595  17.503 -0.6776  0.6737  0.0392
  194MPD1    C5 3006   4.360   1.697  17.566  0.1647 -0.8385  0.8281
  194MPD1     H 3007   4.458   1.598  17.211  1.3998  2.1057 -0.0943
  194MPD1    H1 3008   4.218   1.542  17.559 -0.1555  0.6525  0.7370
  194MPD1    H2 3009   4.500   1.855  17.549  0.0795 -1.0022  1.2250
  194MPD1    H3 3010   4.342   1.712  17.672 -1.2431  0.3388  0.4206
  194MPD1     N 3011   4.281   1.429  17.339 -0.0933  0.0941  0.2781
  194MPD1    H5 3012   4.232   1.374  17.408 -0.9602 -0.2474 -0.6030
  194MPD1    N1 3013   4.581   1.807  17.297  0.7199  0.4720 -0.0593
  194MPD1    H6 3014   4.588   1.904  17.327  2.1573  0.3344  0.0146
  194MPD1    H7 3015   4.581   1.790  17.196  0.2705 -2.3168  0.4112
  195MPD1     C 3016   0.959   4.177   0.256 -0.2122 -0.6173 -0.0689
  195MPD1    C1 3017   0.892   4.076   0.205 -0.3242 -0.1089  0.4320
  195MPD1    C2 3018   0.921   3.945   0.261 -0.0746  0.0565  0.2824
  195MPD1    C3 3019   1.029   3.928   0.345 -0.4818 -0.0509  0.3644
  195MPD1    C4 3020   1.103   4.037   0.381 -0.0652  0.4181  0.8700
  195MPD1    C5 3021   1.068   4.157   0.333  0.9094  0.5389 -0.1685
  195MPD1     H 3022   0.866   3.861   0.220 -1.9981  2.7532 -2.6776
  195MPD1    H1 3023   1.180   4.040   0.456  1.8385 -0.5263 -1.0270
  195MPD1    H2 3024   0.942   4.283   0.240  0.6277 -0.2625  1.3991
  195MPD1    H3 3025   1.123   4.244   0.367  0.8101 -0.3151  2.1908
  195MPD1     N 3026   1.051   3.809   0.414  0.1436  0.4649 -0.1529
  195MPD1    H5 3027   1.135   3.806   0.470  0.1089  0.1832 -0.1156
  195MPD1    N1 3028   0.774   4.098   0.127  0.1004  0.0577 -0.6106
  195MPD1    H6 3029   0.783   4.181   0.069  0.4322  1.0209  0.8184
  195MPD1    H7 3030   0.765   4.018   0.064  1.2308 -1.2833  0.9015
  196MPD1     C 3031   0.314   2.245   0.261 -0.1559 -0.2226 -1.1468
  196MPD1    C1 3032   0.362   2.366   0.252  0.1537 -0.5851 -0.3591
  196MPD1    C2 3033   0.418   2.426   0.364 -0.6323  0.4963  0.4015
  196MPD1    C3 3034   0.406   2.373   0.489 -0.6249  0.3619  0.6596
  196MPD1    C4 3035   0.348   2.246   0.500  0.0232 -0.4416  0.5489
  196MPD1    C5 3036   0.304   2.188   0.382  0.7222 -0.7343 -0.2832
  196MPD1     H 3037   0.470   2.520   0.347 -1.8382  1.2112  0.6908
  196MPD1    H1 3038   0.330   2.208   0.600  1.3489  1.0099  1.3546
  196MPD1    H2 3039   0.263   2.194   0.180 -0.3392  2.3880 -2.6573
  196MPD1    H3 3040   0.256   2.091   0.393 -0.4489 -0.4098 -2.7350
  196MPD1     N 3041   0.437   2.458   0.600 -0.0879 -0.4741 -0.1425
  196MPD1    H5 3042   0.424   2.404   0.685 -0.8357 -0.6834 -0.3965
  196MPD1    N1 3043   0.371   2.427   0.128  0.1286  0.5288  1.5678
  196MPD1    H6 3044   0.291   2.426   0.065  0.7486 -1.7034  0.7968
  196MPD1    H7 3045   0.393   2.525   0.140  0.9038  0.5445  0.1296
  197MPD1     C 3046   0.003   4.484  17.450  0.2040  0.1755  0.2044
  197MPD1    C1 3047   0.114   4.543  17.496 -0.4570  0.5749  0.3105
  197MPD1    C2 3048   0.167   4.636  17.417  0.2288 -0.3076  0.0641
  197MPD1    C3 3049   0.115   4.660  17.291  0.4977 -0.4250 -0.1362
  197MPD1    C4 3050   0.010   4.583  17.242 -0.4413 -0.5326  0.4115
  197MPD1    C5 3051   4.695   4.490  17.320  0.3487 -0.8466 -0.0515
  197MPD1     H 3052   0.248   4.702  17.445 -1.4281  0.7949  2.2579
  197MPD1    H1 3053   4.705   4.616  17.150  0.4370  0.3369  0.2822
  197MPD1    H2 3054   4.697   4.405  17.506  0.0584  0.3958  0.3895
  197MPD1    H3 3055   4.609   4.435  17.284 -0.3247  0.7609 -0.9031
  197MPD1     N 3056   0.159   0.030  17.215 -0.0703 -0.5854 -0.5778
  197MPD1    H5 3057   0.127   0.021  17.119 -0.9635  0.2198 -0.3517
  197MPD1    N1 3058   0.145   4.537  17.637  0.0232 -0.4048  0.2819
  197MPD1    H6 3059   0.136   4.440  17.669  1.0838 -0.5515  0.1270
  197MPD1    H7 3060   0.236   4.575  17.659  0.3296 -0.6530 -0.5633
  198MPD1     C 3061   1.982   3.530  15.928  0.5101 -0.4714  0.1051
  198MPD1    C1 3062   2.070   3.633  15.910 -0.4109  0.2993  0.0567
  198MPD1    C2 3063   2.178   3.646  16.000  0.1226  0.1681  0.4655
  198MPD1    C3 3064   2.206   3.560  16.104  0.7145  0.1337 -0.2292
  198MPD1    C4 3065   2.122   3.453  16.116 -0.0057  0.1078 -0.0779
  198MPD1    C5 3066   2.023   3.444  16.023 -0.1676  0.5871  0.8292
  198MPD1     H 3067   2.244   3.730  15.982 -0.0660  0.1460 -0.3134
  198MPD1    H1 3068   2.123   3.380  16.196  0.4890 -0.3619 -0.5140
  198MPD1    H2 3069   1.892   3.514  15.869  0.9253 -0.9337 -0.4059
  198MPD1    H3 3070   1.954   3.360  16.031 -0.4379  0.6059 -1.4137
  198MPD1     N 3071   2.318   3.586  16.192 -0.3729  0.1425  0.4241
  198MPD1    H5 3072   2.380   3.667  16.185  0.0996 -0.2900 -0.3937
  198MPD1    N1 3073   2.056   3.728  15.804  1.0252 -0.1739 -0.0270
  198MPD1    H6 3074   2.034   3.677  15.718  0.2928 -0.2126  0.1862
  198MPD1    H7 3075   2.140   3.780  15.780 -0.2097  0.9458 -1.8724
  199MPD1     C 3076   3.546   1.175  10.633  0.0313 -0.3923  0.3880
  199MPD1    C1 3077   3.432   1.239  10.610  0.5772  0.4484 -0.3770
  199MPD1    C2 3078   3.391   1.255  10.479 -0.1363 -0.2328 -0.8725
  199MPD1    C3 3079   3.470   1.216  10.373  0.3108 -0.5656 -0.3933
  199MPD1    C4 3080   3.593   1.160  10.397 -0.0334 -1.0669 -0.0214
  199MPD1    C5 3081   3.629   1.139  10.526 -0.1136  0.1325 -0.0569
  199MPD1     H 3082   3.293   1.297  10.459 -1.1641 -2.3495 -0.2991
  199MPD1    H1 3083   3.649   1.117  10.315  1.5102 -0.0413  0.4945
  199MPD1    H2 3084   3.580   1.145  10.731 -1.0307 -0.2335  0.7992
  199MPD1    H3 3085   3.720   1.086  10.554 -0.5060 -1.7647 -2.3001
  199MPD1     N 3086   3.444   1.239  10.236 -0.6546  0.2614  0.4258
  199MPD1    H5 3087   3.516   1.227  10.166  0.0580  1.6654  0.9170
  199MPD1    N1 3088   3.348   1.251  10.723 -0.7220 -0.0165  0.0393
  199MPD1    H6 3089   3.395   1.292  10.803 -1.6534  1.1769 -0.0140
  199MPD1    H7 3090   3.269   1.304  10.684 -1.5434 -1.6244 -0.4686
  200MPD1     C 3091   3.240   0.055  15.037 -0.0917 -0.4869  0.0200
  200MPD1    C1 3092   3.214   0.167  14.957 -0.6653 -0.1859 -0.2804
  200MPD1    C2 3093   3.094   0.235  14.974  0.7511 -0.4783 -0.3080
  200MPD1    C3 3094   2.988   0.176  15.040  0.2254 -0.1256  0.4830
  200MPD1    C4 3095   3.005   0.056  15.108 -0.9706 -0.3752  0.2758
  200MPD1    C5 3096   3.130   0.004  15.107  0.1142 -0.4046 -0.8555
  200MPD1     H 3097   3.086   0.330  14.922  0.3800 -0.3046  0.0763
  200MPD1    H1 3098   2.927   4.741  15.158 -1.0256 -0.2696  0.3093
  200MPD1    H2 3099   3.318   4.723  15.024  0.1011 -0.5279  1.4846
  200MPD1    H3 3100   3.135   4.645  15.147  0.1793 -0.5930 -1.3415
  200MPD1     N 3101   2.857   0.230  15.036 -0.3515 -0.3227  0.0883
  200MPD1    H5 3102   2.851   0.307  14.970 -2.3259  0.6469  1.4363
  200MPD1    N1 3103   3.321   0.221  14.884  0.5860  0.5744  0.3172
  200MPD1    H6 3104   3.384   0.148  14.853  1.9067  2.2060 -0.8043
  200MPD1    H7 3105   3.289   0.270  14.801  0.8416  1.4945  0.7583
  201MPD1     C 3106   0.113   3.503  13.843 -0.0043  0.2057 -0.1627
  201MPD1    C1 3107   0.145   3.559  13.724  0.5105 -0.7909  0.2651
  201MPD1    C2 3108   0.282   3.587  13.703 -0.0902 -0.6808  0.3979
  201MPD1    C3 3109   0.383   3.536  13.785  0.0466 -0.4059 -0.0889
  201MPD1    C4 3110   0.348   3.462  13.896  0.1450 -0.0691  0.2125
  201MPD1    C5 3111   0.217   3.454  13.924 -0.1213 -0.2856 -0.2903
  201MPD1     H 3112   0.309   3.656  13.624  0.9769 -2.7701 -1.0844
  201MPD1    H1 3113   0.427   3.411  13.951  0.2110 -1.4741 -1.1931
  201MPD1    H2 3114   0.010   3.488  13.876  0.3943  0.2172  1.1048
  201MPD1    H3 3115   0.188   3.408  14.018 -0.8745  0.2453 -0.2586
  201MPD1     N 3116   0.517   3.550  13.735  0.3454 -0.0622  0.4224
  201MPD1    H5 3117   0.525   3.619  13.661  0.2797 -0.5792 -0.0663
  201MPD1    N1 3118   0.050   3.630  13.655  0.5790 -0.5444  0.0221
  201MPD1    H6 3119   0.073   3.640  13.556 -1.6292  2.8120 -0.1346
  201MPD1    H7 3120   4.703   3.581  13.665 -0.8532  1.9201 -0.8327
  202MPD1     C 3121   4.683   3.306   9.514 -1.0173 -0.2550 -0.0589
  202MPD1    C1 3122   0.065   3.352   9.572 -0.0901 -0.1822  0.0721
  202MPD1    C2 3123   0.048   3.450   9.673  0.6625  0.7343 -0.1004
  202MPD1    C3 3124   4.678   3.454   9.750 -0.1030  0.9922 -0.4731
  202MPD1    C4 3125   4.561   3.396   9.702  0.7635 -0.7921 -0.0516
  202MPD1    C5 3126   4.569   3.319   9.589 -0.0046 -0.3779  0.2750
  202MPD1     H 3127   0.143   3.489   9.707  0.3137 -0.3296  2.0299
  202MPD1    H1 3128   4.470   3.396   9.761 -1.1991 -0.7858 -3.0498
  202MPD1    H2 3129   4.683   3.248   9.422  0.7689  1.8928 -1.4081
  202MPD1    H3 3130   4.474   3.280   9.553  0.3072  1.2099 -2.2259
  202MPD1     N 3131   4.674   3.516   9.883 -0.2300  0.1025 -0.5817
  202MPD1    H5 3132   4.584   3.523   9.929 -0.7453 -2.0347 -1.2404
  202MPD1    N1 3133   0.180   3.369   9.495 -0.3190 -0.1466  0.2216
  202MPD1    H6 3134   0.194   3.294   9.427  0.8581 -0.2438  0.5621
  202MPD1    H7 3135   0.266   3.378   9.550 -0.7388  0.4270  0.7765
  203MPD1     C 3136   4.440   4.506  12.337 -0.3208 -0.2767 -0.6501
  203MPD1    C1 3137   4.381   4.398  12.273 -0.0307  0.2065  0.5585
  203MPD1    C2 3138   4.369   4.280  12.343  0.1057  0.2438  0.6383
  203MPD1    C3 3139   4.401   4.265  12.476  1.0240 -0.0506 -0.9422
  203MPD1    C4 3140   4.442   4.380  12.547 -0.3252  0.0643  0.0655
  203MPD1    C5 3141   4.465   4.495  12.472 -0.0018  0.2104 -0.1245
  203MPD1     H 3142   4.341   4.185  12.298  3.6356  0.6188 -2.3464
  203MPD1    H1 3143   4.450   4.390  12.655 -0.1802  1.7609 -0.1036
  203MPD1    H2 3144   4.439   4.607  12.298  0.8570  0.5662  1.4779
  203MPD1    H3 3145   4.504   4.584  12.519 -0.9908  0.1108  0.8930
  203MPD1     N 3146   4.370   4.150  12.549  0.0034 -0.0651  0.7121
  203MPD1    H5 3147   4.312   4.080  12.503 -0.5988  0.0381  1.3197
  203MPD1    N1 3148   4.315   4.415  12.150 -0.2008 -0.0174  0.7670
  203MPD1    H6 3149   4.365   4.485  12.095 -0.3553  0.3563  1.0940
  203MPD1    H7 3150   4.307   4.325  12.103  1.7191 -0.3979  1.2007
  204MPD1     C 3151   4.425   0.095   0.166 -0.7379 -0.2832  0.2582
  204MPD1    C1 3152   4.375   0.169   0.059  0.2570 -0.2727 -0.1305
  204MPD1    C2 3153   4.249   0.126   0.006 -0.0940  0.3042  0.8058
  204MPD1    C3 3154   4.186   0.014   0.054 -0.2616  0.0665  0.6297
  204MPD1    C4 3155   4.241   4.690   0.160 -0.4797 -0.2572  0.4724
  204MPD1    C5 3156   4.363   4.723   0.210 -0.3570  0.3092  1.1515
  204MPD1     H 3157   4.204   0.194  17.699 -0.8839 -0.1108  0.9113
  204MPD1    H1 3158   4.184   4.608   0.202 -2.8374  1.2461  0.2330
  204MPD1    H2 3159   4.510   0.132   0.222 -0.9219  2.9502 -1.5932
  204MPD1    H3 3160   4.404   4.658   0.287  0.9721  1.0822  1.0909
  204MPD1     N 3161   4.065   4.724  17.753  0.6535 -0.3337 -0.1439
  204MPD1    H5 3162   4.048   0.039  17.670  0.2135 -2.7962 -1.7521
  204MPD1    N1 3163   4.431   0.299   0.024 -0.0724  0.4651 -0.3731
  204MPD1    H6 3164   4.533   0.302   0.020 -0.0774 -0.5327 -1.2047
  204MPD1    H7 3165   4.414   0.327  17.692 -0.5247  0.4316 -0.3023
  205MPD1     C 3166   2.984   4.034  16.830  0.0300  1.0100  0.2117
  205MPD1    C1 3167   3.006   3.900  16.813  0.6410  0.0338  0.9487
  205MPD1    C2 3168   3.100   3.843  16.894 -0.3396 -0.0635 -0.0832
  205MPD1    C3 3169   3.178   3.915  16.981 -0.1800 -0.1056  0.5904
  205MPD1    C4 3170   3.152   4.049  16.990  0.0060  0.0166 -0.8545
  205MPD1    C5 3171   3.061   4.105  16.913 -0.3212  0.4850  0.0804
  205MPD1     H 3172   3.123   3.737  16.885  0.7094  0.1481  0.1485
  205MPD1    H1 3173   3.203   4.117  17.058  1.2581 -0.7403 -1.0204
  205MPD1    H2 3174   2.913   4.087  16.768 -1.7387 -1.8558 -0.2161
  205MPD1    H3 3175   3.040   4.208  16.939  3.0469  0.5904  2.2765
  205MPD1     N 3176   3.289   3.855  17.053  0.2396  0.2906  0.5172
  205MPD1    H5 3177   3.327   3.910  17.130 -1.7789 -2.0448  3.2100
  205MPD1    N1 3178   2.916   3.823  16.735  0.1927 -0.4343 -0.4160
  205MPD1    H6 3179   2.965   3.742  16.695 -1.3169 -2.4081  1.7191
  205MPD1    H7 3180   2.872   3.873  16.658  1.6514 -0.4562 -1.2593
  206MPD1     C 3181   4.231   1.957  17.083 -0.1792  0.1011 -0.1645
  206MPD1    C1 3182   4.182   2.071  17.036  0.1783 -0.1540  0.0050
  206MPD1    C2 3183   4.134   2.074  16.907  0.1936 -0.7787 -0.0231
  206MPD1    C3 3184   4.143   1.971  16.815  0.2057 -0.4588  0.1075
  206MPD1    C4 3185   4.209   1.857  16.866 -0.3846 -0.8168 -0.6245
  206MPD1    C5 3186   4.241   1.845  17.003 -0.5250  0.4911 -0.5675
  206MPD1     H 3187   4.105   2.173  16.872  2.2345  0.0091  0.4780
  206MPD1    H1 3188   4.226   1.772  16.800 -1.6566 -2.2311  0.8931
  206MPD1    H2 3189   4.256   1.962  17.189  0.3580  1.4945 -0.3588
  206MPD1    H3 3190   4.276   1.754  17.052  1.5332  0.3017 -2.4140
  206MPD1     N 3191   4.107   1.980  16.673 -0.7505  0.8543  0.2162
  206MPD1    H5 3192   4.101   1.889  16.628  1.5451  0.0344  1.5508
  206MPD1    N1 3193   4.159   2.178  17.128 -0.4048 -0.6527 -0.1393
  206MPD1    H6 3194   4.182   2.270  17.090  2.0687 -0.6666  1.3189
  206MPD1    H7 3195   4.222   2.171  17.208  0.6652  1.1355 -0.8156
  207MPD1     C 3196   0.905   0.681  10.151  0.4202  1.2823  0.0441
  207MPD1    C1 3197   1.032   0.705  10.111  0.7483 -0.1439  0.1369
  207MPD1    C2 3198   1.133   0.646  10.182  0.4767 -0.8547  1.0687
  207MPD1    C3 3199   1.113   0.554  10.290 -0.1260  0.9071 -0.7025
  207MPD1    C4 3200   0.982   0.529  10.320 -0.0067 -0.1531  0.0487
  207MPD1    C5 3201   0.885   0.595  10.250  0.1766 -0.8684 -0.1321
  207MPD1     H 3202   1.237   0.667  10.159  1.0586 -2.4992  2.2027
  207MPD1    H1 3203   0.963   0.453  10.395  0.1279  0.1480  0.3818
  207MPD1    H2 3204   0.818   0.726  10.105 -0.7235 -0.1507  0.8313
  207MPD1    H3 3205   0.787   0.563  10.284 -1.7126  4.1749 -0.7397
  207MPD1     N 3206   1.217   0.490  10.368  0.1787  0.3727 -0.1322
  207MPD1    H5 3207   1.182   0.429  10.441  0.5645 -1.7102 -1.7060
  207MPD1    N1 3208   1.063   0.802  10.017  0.4323  0.4313  0.1853
  207MPD1    H6 3209   0.986   0.845   9.967 -0.3706 -0.0593  0.9760
  207MPD1    H7 3210   1.140   0.777   9.956 -0.0747  0.2455 -0.3753
  208MPD1     C 3211   0.545   4.070  17.368 -0.1999 -0.2493 -0.5515
  208MPD1    C1 3212   0.484   4.030  17.480  0.3557  0.2283  0.6777
  208MPD1    C2 3213   0.378   3.943  17.473 -0.0804  0.0261  0.3772
  208MPD1    C3 3214   0.345   3.877  17.350  0.1055 -0.6966  0.1224
  208MPD1    C4 3215   0.418   3.904  17.233 -0.8538  0.1352 -0.1154
  208MPD1    C5 3216   0.508   4.003  17.245 -1.0391 -0.5150 -0.7384
  208MPD1     H 3217   0.303   3.926  17.549 -1.4889 -0.2797 -1.0714
  208MPD1    H1 3218   0.375   3.876  17.137  1.9511 -0.8316 -1.0634
  208MPD1    H2 3219   0.618   4.149  17.365  0.9057 -1.3518 -3.0356
  208MPD1    H3 3220   0.560   4.035  17.156 -0.5690  1.9018  0.4169
  208MPD1     N 3221   0.235   3.786  17.352 -0.0171 -0.2488 -0.2462
  208MPD1    H5 3222   0.190   3.779  17.443  3.2102 -0.6607  1.2898
  208MPD1    N1 3223   0.507   4.098  17.604 -0.4187 -0.1271  0.1406
  208MPD1    H6 3224   0.600   4.138  17.613  0.8057 -2.6862 -1.1163
  208MPD1    H7 3225   0.492   4.035  17.683  0.2128 -2.1981 -1.3979
  209MPD1     C 3226   1.432   3.945  11.839  0.2509  0.2641  0.7274
  209MPD1    C1 3227   1.440   4.052  11.925  0.0475  0.5167 -0.3886
  209MPD1    C2 3228   1.462   4.184  11.879 -0.4603  0.1913  0.5069
  209MPD1    C3 3229   1.454   4.209  11.740 -0.3920  0.3946  0.6788
  209MPD1    C4 3230   1.436   4.100  11.655  0.4654  0.0696 -0.7291
  209MPD1    C5 3231   1.426   3.976  11.707  0.3493 -0.7762 -0.6008
  209MPD1     H 3232   1.471   4.273  11.940 -3.5183  1.1626 -0.4513
  209MPD1    H1 3233   1.425   4.104  11.547  0.3713 -0.5102 -0.7374
  209MPD1    H2 3234   1.419   3.844  11.876 -1.7491  0.7330  1.3146
  209MPD1    H3 3235   1.384   3.907  11.635  1.0911 -1.9877  0.1147
  209MPD1     N 3236   1.456   4.341  11.695  0.6041  0.1928 -0.1012
  209MPD1    H5 3237   1.492   4.415  11.753  0.7064 -0.0746  0.1755
  209MPD1    N1 3238   1.455   4.017  12.061  0.2201  0.0984  0.4249
  209MPD1    H6 3239   1.411   4.090  12.116  0.4297  1.8071 -1.6925
  209MPD1    H7 3240   1.405   3.930  12.079  0.7508 -0.8484 -2.6103
  210MPD1     C 3241   1.695   0.456  11.980  0.7249  0.5077 -1.2410
  210MPD1    C1 3242   1.727   0.332  12.005  0.4592 -0.9967 -0.1707
  210MPD1    C2 3243   1.713   0.239  11.900  0.0424  0.6583  0.2613
  210MPD1    C3 3244   1.677   0.270  11.772 -0.2984  0.3620  0.5209
  210MPD1    C4 3245   1.655   0.404  11.750 -0.2988 -0.0259  0.2428
  210MPD1    C5 3246   1.663   0.494  11.857  0.0401  0.3277 -0.3285
  210MPD1     H 3247   1.715   0.133  11.918  0.1505  0.7280  0.6662
  210MPD1    H1 3248   1.618   0.441  11.656  2.8073  2.2031 -0.0938
  210MPD1    H2 3249   1.697   0.533  12.057  1.4139 -1.0437  0.2862
  210MPD1    H3 3250   1.647   0.600  11.838 -1.6770 -0.3238 -2.4585
  210MPD1     N 3251   1.639   0.174  11.674 -0.4092 -0.7892 -0.0831
  210MPD1    H5 3252   1.610   0.212  11.584  2.0949 -1.0107 -0.9859
  210MPD1    N1 3253   1.734   0.290  12.140 -0.1628 -0.2507  0.1186
  210MPD1    H6 3254   1.800   0.217  12.163  1.2899  1.5307  1.6351
  210MPD1    H7 3255   1.762   0.364  12.204 -1.5684  0.2816  0.1097
  211MPD1     C 3256   0.004   4.377  16.198 -0.7841 -0.3672  1.0550
  211MPD1    C1 3257   4.640   4.464  16.217  0.2797 -0.1151  0.1675
  211MPD1    C2 3258   4.547   4.433  16.314 -0.5553 -0.3882  0.7102
  211MPD1    C3 3259   4.541   4.317  16.381 -0.5952  0.1760  0.0066
  211MPD1    C4 3260   4.648   4.231  16.367  0.2510  0.4476  0.7688
  211MPD1    C5 3261   0.007   4.267  16.276 -0.1927  0.2835  0.4933
  211MPD1     H 3262   4.467   4.506  16.329 -0.7385 -0.3445 -0.4581
  211MPD1    H1 3263   4.654   4.135  16.417  0.1026  0.6004  1.0826
  211MPD1    H2 3264   0.082   4.388  16.123 -1.0818 -2.8101  0.3954
  211MPD1    H3 3265   0.093   4.202  16.269  0.6344  1.3776  0.5658
  211MPD1     N 3266   4.426   4.287  16.456  0.2303 -0.6024 -0.7302
  211MPD1    H5 3267   4.351   4.355  16.462 -1.0743 -2.2579  1.6234
  211MPD1    N1 3268   4.631   4.581  16.144 -0.4930 -0.1246  0.0683
  211MPD1    H6 3269   4.669   4.565  16.051 -0.9996  0.5315 -0.2501
  211MPD1    H7 3270   4.532   4.600  16.138 -0.4239  0.3674  0.4927
  212MPD1     C 3271   3.677   2.519  16.795  0.3575 -0.0390 -0.0963
  212MPD1    C1 3272   3.772   2.431  16.832  0.3251  0.2802 -0.1523
  212MPD1    C2 3273   3.730   2.324  16.908  0.2313  1.0223  0.1430
  212MPD1    C3 3274   3.595   2.299  16.941  0.5391 -0.3329  1.2849
  212MPD1    C4 3275   3.502   2.394  16.911  0.2280  0.2391 -0.5081
  212MPD1    C5 3276   3.547   2.502  16.834 -0.3944 -0.0193 -0.2528
  212MPD1     H 3277   3.802   2.251  16.942  0.4489  2.4112  2.7095
  212MPD1    H1 3278   3.398   2.387  16.940  0.6367  1.5031  1.2744
  212MPD1    H2 3279   3.700   2.611  16.743  2.5399 -0.9380 -0.6980
  212MPD1    H3 3280   3.475   2.575  16.799 -0.4207 -1.3618 -2.9957
  212MPD1     N 3281   3.551   2.173  16.993  0.0812  0.5777 -0.4923
  212MPD1    H5 3282   3.451   2.168  17.012  0.0261 -1.0844 -1.2243
  212MPD1    N1 3283   3.915   2.459  16.822  0.2846  0.6110 -0.7775
  212MPD1    H6 3284   3.931   2.524  16.745  1.4017  0.0300 -1.0401
  212MPD1    H7 3285   3.960   2.371  16.799 -2.5460 -1.0291  0.0635
  213MPD1     C 3286   1.571   2.276  16.017  0.2027 -0.1883 -0.2456
  213MPD1    C1 3287   1.492   2.255  15.915  0.6890  0.2440 -0.8619
  213MPD1    C2 3288   1.484   2.362  15.827 -0.2618  0.4637  0.1895
  213MPD1    C3 3289   1.534   2.490  15.849 -1.0815 -0.0640  0.2665
  213MPD1    C4 3290   1.595   2.511  15.971  0.2106 -0.5721  0.2449
  213MPD1    C5 3291   1.608   2.400  16.054 -0.2756 -0.6735  0.3084
  213MPD1     H 3292   1.443   2.335  15.730  1.1587  0.7021 -0.4760
  213MPD1    H1 3293   1.637   2.604  16.006  0.8906 -0.3645 -1.1240
  213MPD1    H2 3294   1.595   2.196  16.086 -0.6573  1.7105  2.2847
  213MPD1    H3 3295   1.673   2.400  16.141 -0.2692  2.7591  0.3098
  213MPD1     N 3296   1.509   2.592  15.755 -0.0983 -0.7029  0.6339
  213MPD1    H5 3297   1.465   2.559  15.670 -0.4599  0.8076  0.2420
  213MPD1    N1 3298   1.496   2.117  15.875  0.4185  0.0626  0.6486
  213MPD1    H6 3299   1.485   2.070  15.965 -1.1817 -0.5884  0.1077
  213MPD1    H7 3300   1.422   2.091  15.810  0.6323  0.2553  0.3338
  214MPD1     C 3301   0.918   2.983  15.100 -0.8562 -0.5691 -0.0469
  214MPD1    C1 3302   0.967   2.859  15.112 -0.2022  0.4306 -0.1127
  214MPD1    C2 3303   1.059   2.847  15.212 -0.0437 -0.4404  0.1005
  214MPD1    C3 3304   1.108   2.957  15.279  0.5479 -0.4431  0.4701
  214MPD1    C4 3305   1.064   3.084  15.257 -0.3901 -0.8303  0.6003
  214MPD1    C5 3306   0.968   3.095  15.164  0.4080  0.1991  0.9697
  214MPD1     H 3307   1.088   2.744  15.234 -3.0961 -1.2503  0.3659
  214MPD1    H1 3308   1.104   3.172  15.306 -3.0149  1.0929 -0.6844
  214MPD1    H2 3309   0.831   3.007  15.040 -1.1754 -3.1548 -0.6184
  214MPD1    H3 3310   0.921   3.192  15.149  0.2483 -0.4474 -2.6517
  214MPD1     N 3311   1.225   2.943  15.358 -0.1617  0.1626 -0.3645
  214MPD1    H5 3312   1.265   3.029  15.393  2.8063 -0.7883 -1.4862
  214MPD1    N1 3313   0.890   2.752  15.060  0.1795 -0.4427 -0.1907
  214MPD1    H6 3314   0.860   2.786  14.968  1.0144  2.2048  0.5088
  214MPD1    H7 3315   0.935   2.662  15.046 -0.3225 -0.7029 -0.1625
  215MPD1     C 3316   0.844   3.865  11.470  0.6995 -0.2207  0.7206
  215MPD1    C1 3317   0.908   3.833  11.585  0.2141  0.1395  0.2410
  215MPD1    C2 3318   1.006   3.926  11.639 -0.2106 -0.1922 -0.6171
  215MPD1    C3 3319   1.019   4.050  11.590  0.0888 -0.1911  0.3225
  215MPD1    C4 3320   0.936   4.081  11.486 -0.2043  0.7053  0.5028
  215MPD1    C5 3321   0.859   3.989  11.421  0.4697  0.0781  0.3839
  215MPD1     H 3322   1.071   3.891  11.718 -0.6227 -0.6048 -0.4585
  215MPD1    H1 3323   0.932   4.179  11.440 -0.6031  1.2943  1.8032
  215MPD1    H2 3324   0.780   3.793  11.420  1.9651 -0.9433  0.1201
  215MPD1    H3 3325   0.790   4.024  11.344  0.9067 -0.9090 -0.4625
  215MPD1     N 3326   1.094   4.150  11.658  0.1651  0.7662  0.7791
  215MPD1    H5 3327   1.131   4.123  11.749  0.1856  0.9194  0.8172
  215MPD1    N1 3328   0.914   3.698  11.620  0.4269 -0.0961  0.4411
  215MPD1    H6 3329   0.825   3.657  11.594  1.6944 -0.9727 -2.4970
  215MPD1    H7 3330   0.944   3.690  11.717 -2.6028  0.3084  1.4043
  216MPD1     C 3331   3.050   2.097   0.477  0.2942 -0.3488 -0.1841
  216MPD1    C1 3332   3.184   2.100   0.498  0.3265  0.2701 -0.1081
  216MPD1    C2 3333   3.246   1.980   0.533 -0.8423  0.1301 -0.1535
  216MPD1    C3 3334   3.166   1.873   0.573 -0.0584 -0.4290 -0.2721
  216MPD1    C4 3335   3.027   1.884   0.577  0.2858 -0.3819  0.2908
  216MPD1    C5 3336   2.968   1.998   0.525  0.2927 -0.4222  0.0780
  216MPD1     H 3337   3.354   1.973   0.548 -1.0182 -0.3598  0.8608
  216MPD1    H1 3338   2.973   1.796   0.611 -0.9420 -0.7598 -2.5390
  216MPD1    H2 3339   3.005   2.187   0.437 -0.6238 -0.3561  0.8487
  216MPD1    H3 3340   2.860   1.995   0.510  0.5421 -0.7585 -1.6623
  216MPD1     N 3341   3.251   1.771   0.619  0.2351  0.5979 -0.1674
  216MPD1    H5 3342   3.348   1.781   0.593  0.5305 -2.9681 -0.4600
  216MPD1    N1 3343   3.265   2.205   0.444  0.6401  0.0572 -0.0698
  216MPD1    H6 3344   3.227   2.299   0.434  0.7112  0.5513  4.3639
  216MPD1    H7 3345   3.348   2.206   0.503 -0.8035 -0.1816  1.9777
  217MPD1     C 3346   4.159   3.902   9.229 -0.1962  0.2246  0.0719
  217MPD1    C1 3347   4.047   3.861   9.159  0.0576 -0.9151  0.3252
  217MPD1    C2 3348   4.009   3.733   9.183  0.2639 -0.1466 -0.4934
  217MPD1    C3 3349   4.077   3.641   9.276 -0.2433  0.8038  0.0632
  217MPD1    C4 3350   4.183   3.696   9.345  0.3935 -0.0525 -0.0217
  217MPD1    C5 3351   4.223   3.824   9.324  0.0523 -0.3824  0.2407
  217MPD1     H 3352   3.929   3.686   9.127  0.9685  0.2107 -1.8163
  217MPD1    H1 3353   4.240   3.625   9.403 -1.2868  0.6897  2.5630
  217MPD1    H2 3354   4.213   3.990   9.196  1.9232 -1.6740 -1.5390
  217MPD1    H3 3355   4.315   3.859   9.369  1.6654 -0.5841 -2.8722
  217MPD1     N 3356   4.034   3.509   9.322 -0.4797 -0.3784 -0.5553
  217MPD1    H5 3357   4.095   3.470   9.393 -0.9890 -0.7706 -0.3430
  217MPD1    N1 3358   3.990   3.947   9.061 -0.0674  0.0274  0.3193
  217MPD1    H6 3359   4.029   4.040   9.074  0.1870 -0.4025  2.6789
  217MPD1    H7 3360   3.893   3.941   9.032 -0.0450  1.2888 -0.0257
  218MPD1     C 3361   0.646   4.581  13.291 -0.2754  0.4796 -0.4154
  218MPD1    C1 3362   0.694   4.653  13.179  0.9490  0.6833  0.7177
  218MPD1    C2 3363   0.809   4.610  13.122 -0.1110  0.0244 -0.4004
  218MPD1    C3 3364   0.877   4.501  13.175  0.1760 -0.2296 -0.6414
  218MPD1    C4 3365   0.826   4.431  13.288  0.5112 -0.3420 -0.7576
  218MPD1    C5 3366   0.708   4.472  13.340 -0.3633  0.8403 -0.5178
  218MPD1     H 3367   0.850   4.663  13.037 -0.7261 -1.2485 -1.4803
  218MPD1    H1 3368   0.865   4.336  13.325 -0.5788 -0.6222 -0.3299
  218MPD1    H2 3369   0.551   4.609  13.337 -1.4787 -1.6147 -1.6339
  218MPD1    H3 3370   0.661   4.411  13.417  0.4500  1.0800  0.1636
  218MPD1     N 3371   1.006   4.477  13.112  0.0215 -0.6275  0.5263
  218MPD1    H5 3372   1.026   4.546  13.040 -0.6139 -1.7587 -0.7442
  218MPD1    N1 3373   0.616   0.008  13.114  0.0465  0.4322  0.8414
  218MPD1    H6 3374   0.543   0.051  13.170 -0.3562  1.0686 -0.1672
  218MPD1    H7 3375   0.675   0.082  13.075  0.8059 -0.6424 -0.0277
  219MPD1     C 3376   1.397   0.162  12.517  0.3992 -0.4745  0.1515
  219MPD1    C1 3377   1.469   0.046  12.506  0.2384  0.4979  0.2877
  219MPD1    C2 3378   1.453   4.692  12.604  0.7473  0.1204  0.0979
  219MPD1    C3 3379   1.357   4.698  12.703  0.4005 -0.1527 -0.4736
  219MPD1    C4 3380   1.277   0.068  12.704  0.5953  0.3829  0.4115
  219MPD1    C5 3381   1.301   0.167  12.614  0.1642  0.6960  0.2242
  219MPD1     H 3382   1.513   4.602  12.595 -2.8252 -2.1988 -0.7515
  219MPD1    H1 3383   1.202   0.074  12.782  2.3943  1.3623  2.0745
  219MPD1    H2 3384   1.403   0.244  12.446  1.9315  0.0582  0.9083
  219MPD1    H3 3385   1.239   0.255  12.600  0.2472  0.7804  0.3830
  219MPD1     N 3386   1.338   4.604  12.804 -0.1624 -0.4380  0.0815
  219MPD1    H5 3387   1.260   4.611  12.868 -2.2047 -0.7984 -2.4114
  219MPD1    N1 3388   1.562   0.030  12.402  0.4409  1.2075  0.7753
  219MPD1    H6 3389   1.567   4.674  12.374 -0.1997  1.8603 -1.5387
  219MPD1    H7 3390   1.533   0.086  12.322 -0.9182 -0.2596  0.2533
  220MPD1     C 3391   1.446   1.009  10.630 -0.3442 -0.0550 -0.6144
  220MPD1    C1 3392   1.452   0.987  10.764 -0.1772  0.0878  0.2080
  220MPD1    C2 3393   1.393   0.875  10.823 -0.4348 -0.7840  0.0497
  220MPD1    C3 3394   1.307   0.793  10.749 -0.5363 -0.5175 -0.2197
  220MPD1    C4 3395   1.293   0.818  10.617  0.1929 -0.8507  0.1604
  220MPD1    C5 3396   1.371   0.919  10.557 -0.1904 -0.2058  0.0393
  220MPD1     H 3397   1.398   0.866  10.931 -0.6646 -0.7698  0.0614
  220MPD1    H1 3398   1.235   0.759  10.547  0.2512 -0.5677 -0.1235
  220MPD1    H2 3399   1.510   1.078  10.576  1.0447  1.4568  3.0028
  220MPD1    H3 3400   1.397   0.915  10.452 -1.1547  0.0581 -0.2120
  220MPD1     N 3401   1.244   0.691  10.817 -0.3471  0.3168  0.3556
  220MPD1    H5 3402   1.288   0.660  10.904  0.8690  0.5701 -0.1661
  220MPD1    N1 3403   1.528   1.082  10.835 -0.7063  0.0748 -0.1052
  220MPD1    H6 3404   1.491   1.097  10.929 -0.1023  1.5090 -0.1083
  220MPD1    H7 3405   1.548   1.166  10.781  2.5688 -0.0305  0.9908
  221MPD1     C 3406   4.465   2.341  15.781  0.1934 -0.3085 -0.0363
  221MPD1    C1 3407   4.525   2.368  15.905  0.5279  0.1330 -0.1648
  221MPD1    C2 3408   4.464   2.458  15.992 -0.0456 -0.0321  0.7629
  221MPD1    C3 3409   4.352   2.524  15.952 -0.5767 -0.0917  0.0529
  221MPD1    C4 3410   4.294   2.497  15.832  0.1244  0.4043  0.3563
  221MPD1    C5 3411   4.351   2.404  15.747  0.3449  0.5107 -0.1927
  221MPD1     H 3412   4.503   2.467  16.093  0.2627  1.1824  0.5286
  221MPD1    H1 3413   4.202   2.543  15.798  0.5329  1.1765  0.3103
  221MPD1    H2 3414   4.518   2.278  15.711  0.6362 -0.1903  0.1891
  221MPD1    H3 3415   4.306   2.376  15.653 -0.3070  0.4851  0.1248
  221MPD1     N 3416   4.282   2.626  16.020 -0.5577 -0.0251  0.3374
  221MPD1    H5 3417   4.195   2.661  15.982 -0.1860  1.6293  0.9969
  221MPD1    N1 3418   4.642   2.300  15.944  0.1379  0.0766 -0.4383
  221MPD1    H6 3419   4.648   2.322  16.043 -1.6647  1.9333 -0.7311
  221MPD1    H7 3420   4.625   2.200  15.932  0.1880  0.2598 -1.9971
  222MPD1     C 3421   2.647   1.032   0.339 -0.5633 -0.3942 -0.2239
  222MPD1    C1 3422   2.685   1.111   0.450 -0.0253  0.8900  0.2301
  222MPD1    C2 3423   2.639   1.237   0.459  0.6527 -0.1022 -0.0006
  222MPD1    C3 3424   2.541   1.286   0.376 -0.0341  0.0657 -0.5776
  222MPD1    C4 3425   2.498   1.205   0.276  0.2246 -0.3008 -0.0472
  222MPD1    C5 3426   2.548   1.076   0.258  0.2931  0.3689  0.0547
  222MPD1     H 3427   2.679   1.302   0.537 -1.3894  1.7266 -0.4508
  222MPD1    H1 3428   2.426   1.246   0.205 -0.1477 -1.3138 -0.2479
  222MPD1    H2 3429   2.681   0.930   0.324 -1.4084 -0.6486 -0.4077
  222MPD1    H3 3430   2.517   1.023   0.169  2.0537  0.2019 -0.4547
  222MPD1     N 3431   2.495   1.418   0.378  0.0627 -1.2859  0.2896
  222MPD1    H5 3432   2.415   1.444   0.321 -0.7958 -1.1908  1.5368
  222MPD1    N1 3433   2.802   1.078   0.515 -0.6148 -0.3912 -0.0246
  222MPD1    H6 3434   2.776   0.987   0.550  0.5866 -0.5308  0.5355
  222MPD1    H7 3435   2.804   1.137   0.598 -0.8942  1.5029 -1.3619
  223MPD1     C 3436   1.924   2.029   0.883  0.5386  0.3710  0.0256
  223MPD1    C1 3437   2.049   2.085   0.894 -0.2444  0.3735  0.4581
  223MPD1    C2 3438   2.143   2.042   0.796 -0.5158 -0.7031  0.5784
  223MPD1    C3 3439   2.108   1.948   0.698  0.2723 -0.6935  0.1628
  223MPD1    C4 3440   1.980   1.898   0.695 -0.8289  0.2597 -0.7242
  223MPD1    C5 3441   1.890   1.935   0.790  0.9842 -0.3600 -0.2682
  223MPD1     H 3442   2.245   2.078   0.793  0.0418 -2.4568 -1.1395
  223MPD1    H1 3443   1.934   1.836   0.619  0.5475  0.4976 -1.7534
  223MPD1    H2 3444   1.855   2.058   0.961  1.8531 -0.8960  1.6621
  223MPD1    H3 3445   1.786   1.907   0.778  0.4598  0.5026  2.2864
  223MPD1     N 3446   2.210   1.920   0.603 -0.0457  0.5118  0.3132
  223MPD1    H5 3447   2.292   1.978   0.612 -0.4929  1.2381 -0.2125
  223MPD1    N1 3448   2.077   2.199   0.972 -0.6744  0.5234 -0.0439
  223MPD1    H6 3449   2.021   2.187   1.056  1.5982  0.0917  1.4146
  223MPD1    H7 3450   2.177   2.209   0.992 -0.6660 -0.9630  0.6472
  224MPD1     C 3451   3.362   3.871  10.118 -0.5696 -0.1397 -0.3020
  224MPD1    C1 3452   3.403   3.762  10.189  0.2876 -0.0337 -0.0097
  224MPD1    C2 3453   3.532   3.761  10.243  0.0941  0.6252  0.5694
  224MPD1    C3 3454   3.617   3.868  10.221 -0.3210  0.0104  0.2379
  224MPD1    C4 3455   3.575   3.973  10.146  0.8218 -0.6292 -0.3263
  224MPD1    C5 3456   3.448   3.970  10.092  0.1300  0.8030 -0.0760
  224MPD1     H 3457   3.556   3.676  10.306 -1.9225 -1.7161 -1.8504
  224MPD1    H1 3458   3.627   4.066  10.128  1.9798 -1.0123  1.0664
  224MPD1    H2 3459   3.265   3.860  10.071  1.0565 -2.8706 -3.0530
  224MPD1    H3 3460   3.419   4.055  10.031 -2.0516 -0.4254 -0.7428
  224MPD1     N 3461   3.738   3.886  10.289 -0.4610 -0.4284  0.3242
  224MPD1    H5 3462   3.781   3.977  10.272 -0.9443  0.2324  2.6163
  224MPD1    N1 3463   3.300   3.669  10.219  0.4352  0.4754 -0.0217
  224MPD1    H6 3464   3.329   3.575  10.244  0.6208  0.5605  0.0793
  224MPD1    H7 3465   3.225   3.664  10.150 -0.4241 -0.9201  1.0315
  225MPD1     C 3466   0.800   1.315  12.232  0.2642 -0.4149  0.2229
  225MPD1    C1 3467   0.870   1.198  12.225 -0.7102  0.0004  0.0121
  225MPD1    C2 3468   0.835   1.091  12.297  0.7774 -0.2229 -0.0652
  225MPD1    C3 3469   0.729   1.108  12.385 -0.0437 -0.1172 -0.1870
  225MPD1    C4 3470   0.664   1.228  12.394  0.9685  0.1822 -0.3555
  225MPD1    C5 3471   0.701   1.333  12.319  0.4515 -0.0059  0.9121
  225MPD1     H 3472   0.884   0.995  12.287  0.2800 -0.4323 -0.5043
  225MPD1    H1 3473   0.580   1.243  12.462  0.7730 -1.3147 -0.2754
  225MPD1    H2 3474   0.822   1.387  12.153  1.4652 -0.5505  0.4400
  225MPD1    H3 3475   0.651   1.429  12.324 -1.4716 -0.8668 -1.1627
  225MPD1     N 3476   0.680   1.007  12.478  0.5961 -1.1755  0.3183
  225MPD1    H5 3477   0.594   1.025  12.529  0.8344  0.0251  0.3035
  225MPD1    N1 3478   0.966   1.170  12.124 -0.8210 -0.0817  0.1681
  225MPD1    H6 3479   1.017   1.254  12.096  0.5602 -1.1178 -0.3864
  225MPD1    H7 3480   1.029   1.097  12.156  0.0079 -0.3242 -2.0434
  226MPD1     C 3481   3.083   3.203   9.137 -0.0412  0.0548  0.0529
  226MPD1    C1 3482   3.169   3.276   9.212  0.3659  0.8327 -0.3636
  226MPD1    C2 3483   3.185   3.413   9.183  0.5448  0.0880  0.9758
  226MPD1    C3 3484   3.134   3.466   9.067 -0.0588  0.2072 -0.7205
  226MPD1    C4 3485   3.065   3.382   8.979  0.3009 -0.1933  0.3370
  226MPD1    C5 3486   3.035   3.250   9.021 -0.6948 -0.0673 -0.3348
  226MPD1     H 3487   3.230   3.481   9.256  0.0306  1.1583  0.2899
  226MPD1    H1 3488   3.034   3.405   8.878  0.5546 -2.0141 -0.1592
  226MPD1    H2 3489   3.057   3.100   9.159  0.8052 -0.2376 -0.3285
  226MPD1    H3 3490   2.977   3.192   8.949  0.9082  0.9497 -2.4541
  226MPD1     N 3491   3.159   3.598   9.030  0.0187 -0.1099 -0.4789
  226MPD1    H5 3492   3.211   3.655   9.097 -0.6744 -0.1653  0.1145
  226MPD1    N1 3493   3.208   3.240   9.338  0.0495  0.0551 -0.0088
  226MPD1    H6 3494   3.218   3.140   9.354 -2.7628 -0.7247 -3.0849
  226MPD1    H7 3495   3.293   3.283   9.374 -1.1938  0.8497  1.9814
  227MPD1     C 3496   3.131   4.095   8.170 -0.1111  0.3219  0.2109
  227MPD1    C1 3497   3.174   3.967   8.194 -0.2648  0.1395 -0.4306
  227MPD1    C2 3498   3.158   3.927   8.327 -0.3479 -0.6252 -0.8898
  227MPD1    C3 3499   3.131   4.025   8.425  0.6557  0.1485  0.5886
  227MPD1    C4 3500   3.095   4.151   8.393 -0.5176  0.0605  0.2307
  227MPD1    C5 3501   3.106   4.186   8.264  0.1796 -0.1298  0.2023
  227MPD1     H 3502   3.174   3.823   8.351 -0.1923 -0.5249 -0.5448
  227MPD1    H1 3503   3.060   4.226   8.463 -0.0709 -0.7434  1.3175
  227MPD1    H2 3504   3.107   4.141   8.075  0.9379 -3.0542 -1.6527
  227MPD1    H3 3505   3.072   4.286   8.238 -1.5278  0.0530  3.1625
  227MPD1     N 3506   3.148   3.986   8.558  0.3667  0.5092 -0.0282
  227MPD1    H5 3507   3.174   3.889   8.570 -0.7982  0.0734 -1.0880
  227MPD1    N1 3508   3.198   3.880   8.084  0.2180 -0.3870  0.9230
  227MPD1    H6 3509   3.237   3.913   7.996  0.4625 -0.7038  0.9112
  227MPD1    H7 3510   3.241   3.793   8.116  0.3448 -0.8442 -0.4865
  228MPD1     C 3511   2.738   3.285  12.295  0.3627  0.1807  0.7225
  228MPD1    C1 3512   2.622   3.281  12.211 -0.0066  0.1800 -0.3273
  228MPD1    C2 3513   2.527   3.180  12.226  0.0206  0.1452  0.3678
  228MPD1    C3 3514   2.551   3.086  12.323 -0.5016 -0.4292  0.4314
  228MPD1    C4 3515   2.668   3.083  12.400 -0.3266  0.3364 -0.3504
  228MPD1    C5 3516   2.757   3.184  12.382  0.3826  0.2975 -0.0675
  228MPD1     H 3517   2.443   3.177  12.157  1.9880  2.0928 -2.1512
  228MPD1    H1 3518   2.685   3.011  12.479 -0.1084 -0.2401 -0.9195
  228MPD1    H2 3519   2.804   3.370  12.281 -0.8330  1.1765  1.1238
  228MPD1    H3 3520   2.855   3.180  12.427  0.0412  3.2903  0.9239
  228MPD1     N 3521   2.443   2.999  12.353  0.0550  0.1001 -0.2436
  228MPD1    H5 3522   2.357   2.999  12.299 -0.4061  0.4236  0.4905
  228MPD1    N1 3523   2.617   3.362  12.096  0.2037  0.0265  0.5581
  228MPD1    H6 3524   2.525   3.377  12.055  0.1723 -0.6588  0.3866
  228MPD1    H7 3525   2.672   3.448  12.104 -0.9696  1.1192 -3.0939
  229MPD1     C 3526   1.838   1.315  15.595 -0.1368  0.0203 -0.7793
  229MPD1    C1 3527   1.928   1.405  15.540  0.0598  0.6896  0.6674
  229MPD1    C2 3528   2.060   1.364  15.559  0.1413  0.0930  0.5261
  229MPD1    C3 3529   2.102   1.240  15.609  0.4372  0.2180 -0.0227
  229MPD1    C4 3530   2.003   1.145  15.639 -1.0376 -0.2438  0.5722
  229MPD1    C5 3531   1.872   1.189  15.638  0.2742 -0.9819 -0.0705
  229MPD1     H 3532   2.139   1.431  15.529  1.5403 -0.7466  2.3512
  229MPD1    H1 3533   2.021   1.042  15.669 -1.5547 -0.7026 -0.6932
  229MPD1    H2 3534   1.732   1.340  15.598  0.0325  1.0877 -3.3810
  229MPD1    H3 3535   1.788   1.123  15.658  0.9543 -1.5240  0.9733
  229MPD1     N 3536   2.236   1.195  15.623  0.1987  0.2275  0.0771
  229MPD1    H5 3537   2.245   1.099  15.655 -0.5233 -0.1749 -0.8896
  229MPD1    N1 3538   1.884   1.537  15.515  0.1263 -0.1233  0.0846
  229MPD1    H6 3539   1.940   1.584  15.444  0.4395  0.2119  0.5566
  229MPD1    H7 3540   1.790   1.535  15.477 -0.0403  0.1609  0.4827
  230MPD1     C 3541   3.294   1.266  15.347  0.6929  0.0537 -0.2496
  230MPD1    C1 3542   3.277   1.136  15.389  0.1055 -0.0877 -0.2082
  230MPD1    C2 3543   3.149   1.104  15.434 -0.0465  0.0421 -0.3019
  230MPD1    C3 3544   3.038   1.189  15.414 -0.0198 -0.6749 -0.7486
  230MPD1    C4 3545   3.057   1.307  15.343  0.7821 -0.3398 -0.2207
  230MPD1    C5 3546   3.187   1.337  15.308 -0.1554 -0.5724 -0.2111
  230MPD1     H 3547   3.135   1.012  15.491  0.6675  0.2150  0.1559
  230MPD1    H1 3548   2.980   1.370  15.302 -1.1073 -2.4563  0.0649
  230MPD1    H2 3549   3.393   1.304  15.325  0.3371  0.8320 -0.5095
  230MPD1    H3 3550   3.204   1.424  15.247 -0.5082 -0.3438  0.0138
  230MPD1     N 3551   2.913   1.142  15.467 -0.3274 -0.4649  0.2795
  230MPD1    H5 3552   2.909   1.051  15.512 -0.1822  0.3980  2.0098
  230MPD1    N1 3553   3.388   1.061  15.432 -0.0847  0.3864 -0.0582
  230MPD1    H6 3554   3.389   0.960  15.433 -1.2801  0.3871  0.4654
  230MPD1    H7 3555   3.478   1.095  15.398 -1.3379  1.9912 -1.7794
  231MPD1     C 3556   0.396   2.712  14.706  0.7020  0.7217 -0.4373
  231MPD1    C1 3557   0.444   2.681  14.582 -0.1838  0.5134 -0.1202
  231MPD1    C2 3558   0.578   2.704  14.559 -0.3374 -0.0332  0.1881
  231MPD1    C3 3559   0.653   2.773  14.655  0.3804  0.4250  0.4393
  231MPD1    C4 3560   0.591   2.813  14.773  0.4251 -0.0120 -0.5624
  231MPD1    C5 3561   0.459   2.792  14.801  0.1652 -0.3720 -0.2045
  231MPD1     H 3562   0.626   2.656  14.475  0.2906 -1.9412  1.6335
  231MPD1    H1 3563   0.651   2.855  14.853  1.2814 -0.8115 -0.7908
  231MPD1    H2 3564   0.293   2.681  14.722  0.9935  0.1421  0.3163
  231MPD1    H3 3565   0.416   2.827  14.895  1.7665 -1.8193  1.0659
  231MPD1     N 3566   0.789   2.806  14.625  0.3016 -0.6384  0.0519
  231MPD1    H5 3567   0.823   2.763  14.540 -0.8984 -1.1375 -0.1876
  231MPD1    N1 3568   0.362   2.602  14.495 -0.0505 -0.0264  0.3358
  231MPD1    H6 3569   0.376   2.604  14.394  0.7488  0.7170  0.4580
  231MPD1    H7 3570   0.264   2.607  14.521 -0.4378 -1.0796 -0.9097
  232MPD1     C 3571   2.948   0.212   0.420 -0.7816  0.5126 -0.1108
  232MPD1    C1 3572   2.893   0.323   0.475 -0.3070 -0.1292  0.1290
  232MPD1    C2 3573   2.778   0.385   0.423 -0.1673  0.9835  0.6328
  232MPD1    C3 3574   2.732   0.337   0.302  0.5522  0.4067  0.4666
  232MPD1    C4 3575   2.792   0.232   0.244 -0.3638 -0.5585  0.9306
  232MPD1    C5 3576   2.899   0.160   0.301  0.1059 -0.3609  0.2079
  232MPD1     H 3577   2.730   0.476   0.457 -0.5437  1.7646 -1.9518
  232MPD1    H1 3578   2.761   0.186   0.151 -1.1700  1.6077  0.1232
  232MPD1    H2 3579   3.033   0.159   0.462  0.0968  0.8679 -1.4509
  232MPD1    H3 3580   2.930   0.067   0.254  2.6560 -0.1489  1.4718
  232MPD1     N 3581   2.615   0.391   0.248  0.2055  0.1083 -0.5506
  232MPD1    H5 3582   2.573   0.467   0.301  0.3393  1.1286 -1.9081
  232MPD1    N1 3583   2.959   0.378   0.586 -0.0024  0.4707  0.0500
  232MPD1    H6 3584   2.973   0.477   0.569 -0.6906  0.6164  0.3263
  232MPD1    H7 3585   3.053   0.341   0.598  0.4083  1.0385 -1.4948
  233MPD1     C 3586   2.688   3.708  17.606 -0.5468  0.2972  1.0611
  233MPD1    C1 3587   2.770   3.817  17.614 -0.3506 -0.5438  0.6019
  233MPD1    C2 3588   2.871   3.829  17.713  0.2633  0.7604 -0.2377
  233MPD1    C3 3589   2.889   3.718   0.019  0.1789  0.2216 -0.1391
  233MPD1    C4 3590   2.815   3.603   0.019 -0.1255  0.6064 -0.3998
  233MPD1    C5 3591   2.720   3.596  17.685 -0.0425 -0.5730 -0.0806
  233MPD1     H 3592   2.921   3.924  17.726  2.0340  0.0180 -1.7288
  233MPD1    H1 3593   2.819   3.525   0.094 -0.5172  1.8730  0.9368
  233MPD1    H2 3594   2.601   3.699  17.543  0.1834  1.1237 -0.0455
  233MPD1    H3 3595   2.655   3.510  17.675  0.1496 -0.7864  0.5154
  233MPD1     N 3596   2.994   3.704   0.116 -0.2150 -0.6341 -0.5623
  233MPD1    H5 3597   3.007   3.614   0.160  1.5637  0.0906  0.4178
  233MPD1    N1 3598   2.730   3.926  17.535  0.0113 -0.7298  0.1108
  233MPD1    H6 3599   2.689   3.887  17.450 -2.1768 -2.7787  2.1170
  233MPD1    H7 3600   2.808   3.985  17.507 -0.4144  0.2067  0.9102
  234MPD1     C 3601   0.221   2.293  10.058 -0.3946 -0.2610 -0.4274
  234MPD1    C1 3602   0.220   2.358  10.179  1.1706  0.5542  0.8207
  234MPD1    C2 3603   0.148   2.475  10.190  0.3556 -0.0312 -0.4032
  234MPD1    C3 3604   0.097   2.538  10.078  0.4572  0.2860  0.2498
  234MPD1    C4 3605   0.098   2.467   9.962 -0.7425 -0.0493 -0.0214
  234MPD1    C5 3606   0.168   2.349   9.947  0.3931 -0.0939 -0.1213
  234MPD1     H 3607   0.136   2.519  10.288 -0.2860 -0.4187 -0.3132
  234MPD1    H1 3608   0.067   2.521   9.874 -0.5689 -0.6023 -0.4169
  234MPD1    H2 3609   0.274   2.201  10.041  0.6380  0.4304 -0.9218
  234MPD1    H3 3610   0.182   2.301   9.851 -1.7260  1.8133 -1.3874
  234MPD1     N 3611   0.042   2.663  10.077 -0.3152  0.1680  0.5542
  234MPD1    H5 3612   0.003   2.706   9.993 -1.3848 -0.4374  0.7313
  234MPD1    N1 3613   0.270   2.287  10.291 -0.0020 -0.0462  0.8368
  234MPD1    H6 3614   0.348   2.225  10.273 -0.3962 -0.6905  1.3889
  234MPD1    H7 3615   0.290   2.343  10.374 -0.0261  0.6848  0.3564
  235MPD1     C 3616   1.877   0.841  11.314 -0.1957  0.0204 -0.3122
  235MPD1    C1 3617   1.796   0.833  11.207  0.7190 -0.0841 -0.0062
  235MPD1    C2 3618   1.785   0.933  11.119 -0.5204 -0.5819  0.2712
  235MPD1    C3 3619   1.876   1.042  11.127  0.8500  0.0159  0.1525
  235MPD1    C4 3620   1.966   1.041  11.226 -0.0668  0.0739 -0.7654
  235MPD1    C5 3621   1.957   0.947  11.328 -0.4593  0.1561 -0.0834
  235MPD1     H 3622   1.712   0.923  11.039 -1.8210  1.5099  1.1993
  235MPD1    H1 3623   2.034   1.123  11.245 -1.9076  1.3343  0.3431
  235MPD1    H2 3624   1.872   0.764  11.390 -2.5785  1.6769  1.2197
  235MPD1    H3 3625   2.026   0.961  11.410  0.1457 -0.2364 -0.5230
  235MPD1     N 3626   1.867   1.141  11.023 -0.1464  0.6583 -0.1506
  235MPD1    H5 3627   1.795   1.125  10.953 -1.9259 -0.4882  1.9168
  235MPD1    N1 3628   1.694   0.737  11.209 -0.5123 -0.3546  0.0280
  235MPD1    H6 3629   1.730   0.653  11.255 -1.0400 -0.2930  0.5624
  235MPD1    H7 3630   1.636   0.729  11.126 -0.3197  2.3886 -0.3457
  236MPD1     C 3631   1.115   2.969  10.854  0.1539  0.5499  0.2791
  236MPD1    C1 3632   1.073   2.836  10.854  0.6083  0.0364  0.7201
  236MPD1    C2 3633   1.171   2.737  10.869  0.4058 -1.1134  0.4781
  236MPD1    C3 3634   1.301   2.771  10.896  0.0806  0.1318  0.4187
  236MPD1    C4 3635   1.333   2.902  10.903  0.0351  0.4704  0.2139
  236MPD1    C5 3636   1.239   3.003  10.884  0.4393  0.0628  0.4772
  236MPD1     H 3637   1.127   2.638  10.864  0.6587 -1.1499 -1.2577
  236MPD1    H1 3638   1.431   2.932  10.937 -0.7593  3.1945  0.0412
  236MPD1    H2 3639   1.043   3.050  10.853  1.1102  1.3514 -2.6017
  236MPD1    H3 3640   1.271   3.106  10.893  2.4126 -0.4623 -0.4794
  236MPD1     N 3641   1.393   2.677  10.927 -0.2928  0.0070  0.2944
  236MPD1    H5 3642   1.487   2.712  10.944 -0.8980  1.1122  1.4021
  236MPD1    N1 3643   0.947   2.790  10.814 -0.0210  0.2929 -0.0707
  236MPD1    H6 3644   0.876   2.863  10.825 -0.3273  0.5724 -3.8033
  236MPD1    H7 3645   0.910   2.706  10.858 -0.6813  0.6964  0.1396
  237MPD1     C 3646   1.045   0.168  15.359  0.2679 -0.4621 -0.3788
  237MPD1    C1 3647   1.068   0.049  15.427 -0.1797 -0.7674 -0.1882
  237MPD1    C2 3648   0.997   4.679  15.399 -0.6909  0.1867  0.4503
  237MPD1    C3 3649   0.891   4.685  15.306  0.0195  0.3781  0.1595
  237MPD1    C4 3650   0.877   0.057  15.235 -0.1337  0.2552 -0.1683
  237MPD1    C5 3651   0.952   0.165  15.256  0.0466 -0.1802 -0.1674
  237MPD1     H 3652   1.001   4.587  15.456  3.2415  0.5054  0.6603
  237MPD1    H1 3653   0.793   0.061  15.166  0.8583 -1.2495 -1.4725
  237MPD1    H2 3654   1.098   0.258  15.386 -1.6388  0.4150  0.3688
  237MPD1    H3 3655   0.925   0.259  15.210 -0.9958 -0.0866  0.6279
  237MPD1     N 3656   0.810   4.578  15.286 -0.3421  0.2395 -0.1591
  237MPD1    H5 3657   0.730   4.602  15.228  0.8921 -0.1456 -2.0495
  237MPD1    N1 3658   1.156   0.049  15.537 -0.0646  0.2211 -0.0835
  237MPD1    H6 3659   1.190   4.700  15.567 -0.6793  0.4471  1.3092
  237MPD1    H7 3660   1.234   0.115  15.540  1.3916 -1.5261  0.0791
  238MPD1     C 3661   2.739   2.872  15.508  0.0321 -0.4831  0.0702
  238MPD1    C1 3662   2.619   2.908  15.566  0.5480 -0.2535 -0.2495
  238MPD1    C2 3663   2.517   2.905  15.474 -0.3817  0.0044 -0.6604
  238MPD1    C3 3664   2.525   2.875  15.341 -0.5132  0.6818  0.1399
  238MPD1    C4 3665   2.646   2.833  15.288 -0.9156  0.3687 -0.2483
  238MPD1    C5 3666   2.754   2.844  15.373 -0.0725 -0.6404 -0.3965
  238MPD1     H 3667   2.422   2.936  15.517 -1.0152  0.5128 -2.4218
  238MPD1    H1 3668   2.672   2.825  15.183  1.9215 -1.0623  0.5578
  238MPD1    H2 3669   2.823   2.868  15.576  0.2474 -1.0997 -0.2298
  238MPD1    H3 3670   2.854   2.824  15.337 -0.2274  0.1680 -1.2707
  238MPD1     N 3671   2.418   2.898  15.249  0.0332 -0.2565  0.2604
  238MPD1    H5 3672   2.438   2.882  15.151 -0.1158  0.2003  0.1558
  238MPD1    N1 3673   2.592   2.922  15.702 -0.4259  0.4702  0.3237
  238MPD1    H6 3674   2.669   2.968  15.751  0.5216 -0.9680  0.2120
  238MPD1    H7 3675   2.511   2.980  15.719 -1.1549 -1.2474  2.5589
  239MPD1     C 3676   2.760   3.580  15.118 -0.5869  0.0800  0.4352
  239MPD1    C1 3677   2.879   3.620  15.064  0.0172  0.1325  0.5835
  239MPD1    C2 3678   2.888   3.748  15.000 -0.0461  0.0292  0.2742
  239MPD1    C3 3679   2.765   3.820  14.988  0.1546  0.4721 -0.0036
  239MPD1    C4 3680   2.645   3.772  15.045 -0.0321 -0.3205 -0.3681
  239MPD1    C5 3681   2.649   3.658  15.113 -0.0157 -0.1152  0.0866
  239MPD1     H 3682   2.979   3.779  14.951 -0.5263 -1.9162 -1.8332
  239MPD1    H1 3683   2.553   3.829  15.040 -0.1347 -0.4880 -0.3701
  239MPD1    H2 3684   2.753   3.489  15.176  1.0732 -1.7353 -2.2277
  239MPD1    H3 3685   2.561   3.615  15.161  0.9869 -1.0517  1.0860
  239MPD1     N 3686   2.754   3.936  14.908 -0.6417 -0.4230 -0.6786
  239MPD1    H5 3687   2.662   3.978  14.892  0.0264  1.0100 -0.7414
  239MPD1    N1 3688   2.994   3.539  15.084  0.4066  0.2550  0.0466
  239MPD1    H6 3689   3.049   3.521  15.000 -1.4799 -0.2173 -1.0723
  239MPD1    H7 3690   2.964   3.443  15.102  1.0776 -0.5242 -2.8923
  240MPD1     C 3691   2.456   3.973  14.054 -0.0617 -1.0718 -0.3873
  240MPD1    C1 3692   2.552   3.898  14.119 -0.0742  0.5933 -0.0756
  240MPD1    C2 3693   2.511   3.781  14.192  0.0972 -0.2267  0.0857
  240MPD1    C3 3694   2.377   3.738  14.196  0.1063  0.4325  0.8518
  240MPD1    C4 3695   2.284   3.807  14.124  0.6996 -0.3019  0.3832
  240MPD1    C5 3696   2.321   3.929  14.062 -0.4518 -0.1689 -0.7038
  240MPD1     H 3697   2.590   3.726  14.243  1.2097  1.6271  0.4088
  240MPD1    H1 3698   2.180   3.775  14.117  0.4863 -0.0221  2.3186
  240MPD1    H2 3699   2.476   4.065  13.999 -1.7362 -0.5390 -0.0800
  240MPD1    H3 3700   2.246   3.969  13.996 -1.1105 -0.5685 -0.1992
  240MPD1     N 3701   2.347   3.625  14.270 -0.2630  0.2792  0.3146
  240MPD1    H5 3702   2.423   3.572  14.310  0.6624  1.6989  0.4370
  240MPD1    N1 3703   2.685   3.941  14.119 -1.0772 -0.2364  0.5908
  240MPD1    H6 3704   2.702   3.996  14.035 -3.2587 -1.3881 -0.5968
  240MPD1    H7 3705   2.748   3.861  14.121 -0.5379  0.1707 -0.2330
  241MPD1     C 3706   2.527   3.292  15.159  0.5297 -0.4894 -0.1308
  241MPD1    C1 3707   2.598   3.273  15.043  0.3489  0.7613  0.1034
  241MPD1    C2 3708   2.521   3.267  14.924 -0.4336  0.8504  0.3823
  241MPD1    C3 3709   2.383   3.288  14.929  0.4220  0.0774  0.3908
  241MPD1    C4 3710   2.317   3.305  15.047  0.4593 -0.1790  0.7808
  241MPD1    C5 3711   2.397   3.313  15.160 -0.0985  0.5113 -0.6791
  241MPD1     H 3712   2.574   3.239  14.833  2.4628  1.3522  1.9073
  241MPD1    H1 3713   2.212   3.333  15.043  1.1142  2.2649  1.3592
  241MPD1    H2 3714   2.574   3.280  15.256  0.9174 -0.5554 -0.3257
  241MPD1    H3 3715   2.361   3.331  15.261 -0.0585  1.1193 -0.7740
  241MPD1     N 3716   2.310   3.307  14.810 -0.3681  0.4784 -0.0411
  241MPD1    H5 3717   2.209   3.303  14.819 -0.1317 -1.3238  1.7720
  241MPD1    N1 3718   2.730   3.230  15.038  0.0743  0.6043  0.0744
  241MPD1    H6 3719   2.767   3.269  14.952 -1.2793  0.2722 -0.6693
  241MPD1    H7 3720   2.785   3.264  15.116 -3.0002 -1.3694  3.0900
  242MPD1     C 3721   2.847   1.605  15.996  0.3288 -0.0157 -0.3996
  242MPD1    C1 3722   2.916   1.537  15.896 -0.5362  0.1304  0.2983
  242MPD1    C2 3723   2.858   1.531  15.771  0.2321 -0.1383  1.1239
  242MPD1    C3 3724   2.733   1.582  15.748  0.7899 -0.1539  0.4835
  242MPD1    C4 3725   2.669   1.646  15.851 -0.1010  0.6813  0.0188
  242MPD1    C5 3726   2.723   1.658  15.971 -0.4121 -0.3631 -0.2725
  242MPD1     H 3727   2.908   1.471  15.696  1.2277  0.6805  1.1261
  242MPD1    H1 3728   2.572   1.693  15.842 -0.8375 -1.1709 -1.7651
  242MPD1    H2 3729   2.899   1.619  16.090  0.9419 -0.1545 -0.7165
  242MPD1    H3 3730   2.669   1.715  16.046  0.5041 -0.2466  0.2959
  242MPD1     N 3731   2.684   1.579  15.616  0.2765  0.2265 -0.6406
  242MPD1    H5 3732   2.741   1.528  15.549  2.0046  2.4833 -0.8710
  242MPD1    N1 3733   3.041   1.478  15.933  0.1298 -0.2628 -0.0889
  242MPD1    H6 3734   3.114   1.531  15.981 -2.0231  0.1479  2.7521
  242MPD1    H7 3735   3.093   1.449  15.851  0.5924 -1.1619  0.5184
  243MPD1     C 3736   3.731   0.359   1.095 -0.3349  0.3945  0.2819
  243MPD1    C1 3737   3.762   0.428   0.981 -0.3401  1.3055 -0.6387
  243MPD1    C2 3738   3.726   0.367   0.863 -0.0367 -0.5399 -0.0616
  243MPD1    C3 3739   3.666   0.248   0.852  0.5657 -0.0125 -0.0879
  243MPD1    C4 3740   3.644   0.181   0.972  0.5048  0.3856  0.2037
  243MPD1    C5 3741   3.676   0.240   1.088  0.2452 -0.1884  0.4236
  243MPD1     H 3742   3.746   0.423   0.772 -0.2199 -2.3072 -1.1807
  243MPD1    H1 3743   3.607   0.080   0.966 -1.9892  1.2439  1.2293
  243MPD1    H2 3744   3.741   0.401   1.195  0.3712  1.9936 -0.4674
  243MPD1    H3 3745   3.647   0.185   1.177 -1.2576 -1.5036 -0.8616
  243MPD1     N 3746   3.670   0.183   0.728  0.4277 -0.2274 -0.0632
  243MPD1    H5 3747   3.686   0.238   0.644 -0.0401  1.4813  0.9741
  243MPD1    N1 3748   3.834   0.554   0.981 -0.3003 -0.1485  0.4460
  243MPD1    H6 3749   3.920   0.545   0.927 -0.9005 -2.4664 -0.1093
  243MPD1    H7 3750   3.855   0.591   1.074  3.0174 -1.7629  0.3329
  244MPD1     C 3751   3.298   4.243  17.721 -0.4268 -0.1117  1.1225
  244MPD1    C1 3752   3.287   4.376  17.688  0.3754 -0.3224 -0.0106
  244MPD1    C2 3753   3.356   4.471  17.757  0.1044 -0.3865  0.1017
  244MPD1    C3 3754   3.409   4.432   0.114 -1.0186  1.0675  0.7550
  244MPD1    C4 3755   3.418   4.298   0.149 -0.1005 -0.4469  0.1826
  244MPD1    C5 3756   3.359   4.203   0.070  0.2527 -0.5378  0.0185
  244MPD1     H 3757   3.367   4.575  17.729  3.5036 -0.6516  0.4676
  244MPD1    H1 3758   3.487   4.269   0.228 -0.6221 -3.0500 -0.3127
  244MPD1    H2 3759   3.249   4.174  17.654 -2.1323  1.3325  0.8719
  244MPD1    H3 3760   3.376   4.099   0.093 -0.5880 -0.7442 -0.3271
  244MPD1     N 3761   3.473   4.534   0.190  0.0211  0.3324  0.3055
  244MPD1    H5 3762   3.472   4.627   0.150 -0.8841  1.4513  2.9233
  244MPD1    N1 3763   3.226   4.408  17.567  0.6088 -0.0150 -0.8619
  244MPD1    H6 3764   3.205   4.507  17.579 -4.6914 -1.4710  1.7117
  244MPD1    H7 3765   3.146   4.348  17.549 -0.2106  1.7269 -3.0662
  245MPD1     C 3766   4.606   0.985  13.529  0.1165 -0.3341 -0.0732
  245MPD1    C1 3767   4.687   1.041  13.435  0.6980  0.7388 -0.5866
  245MPD1    C2 3768   0.058   1.117  13.468 -0.4021  0.8341 -0.1751
  245MPD1    C3 3769   0.081   1.147  13.601 -0.6068 -1.7462 -0.5695
  245MPD1    C4 3770   0.003   1.089  13.697  0.0996 -0.2303 -0.1132
  245MPD1    C5 3771   4.635   1.016  13.665  0.2704  0.8102  0.4609
  245MPD1     H 3772   0.116   1.157  13.386 -0.1068  0.4271 -0.1644
  245MPD1    H1 3773   0.030   1.107  13.801 -2.5524 -2.5288  0.9840
  245MPD1    H2 3774   4.524   0.918  13.504  0.1454  0.4520 -2.2739
  245MPD1    H3 3775   4.572   0.979  13.745  1.6117 -1.3473  0.5293
  245MPD1     N 3776   0.180   1.234  13.631 -0.1717 -0.1253  0.8672
  245MPD1    H5 3777   0.248   1.257  13.559  0.6580 -1.0451  1.3533
  245MPD1    N1 3778   4.675   1.000  13.300 -0.0305  0.1338 -0.4982
  245MPD1    H6 3779   4.716   1.073  13.242 -1.1243  1.7527  0.7687
  245MPD1    H7 3780   4.580   0.971  13.276  0.0918 -0.4893 -0.2168
  246MPD1     C 3781   4.078   3.216   9.082  0.0783  0.5630 -0.0554
  246MPD1    C1 3782   4.022   3.104   9.128  0.3521  0.4793 -0.9618
  246MPD1    C2 3783   4.087   3.023   9.219 -0.2401  0.3085  0.0386
  246MPD1    C3 3784   4.216   3.055   9.255  0.9596 -0.1400  0.2746
  246MPD1    C4 3785   4.267   3.173   9.213  0.4999  0.7517 -0.1092
  246MPD1    C5 3786   4.202   3.255   9.126  0.0872 -0.4178  0.0946
  246MPD1     H 3787   4.050   2.929   9.259  1.6338 -0.5645 -0.2582
  246MPD1    H1 3788   4.373   3.190   9.231  0.4048  1.3898 -0.1804
  246MPD1    H2 3789   4.040   3.259   8.990 -2.4518 -1.9978 -0.2097
  246MPD1    H3 3790   4.251   3.326   9.061 -0.6856  2.0495  2.2251
  246MPD1     N 3791   4.288   2.964   9.336  0.6750  0.0199  1.0696
  246MPD1    H5 3792   4.242   2.877   9.359 -0.7822  0.0763 -1.5137
  246MPD1    N1 3793   3.895   3.072   9.073  0.1229 -0.0428 -0.3891
  246MPD1    H6 3794   3.834   3.025   9.140  0.1148 -1.0804 -1.1212
  246MPD1    H7 3795   3.847   3.147   9.024 -1.7209 -0.0983  1.3061
  247MPD1     C 3796   0.110   1.540  16.405  0.4711 -0.4149  0.0051
  247MPD1    C1 3797   0.145   1.468  16.516  0.1094  0.1277 -0.1937
  247MPD1    C2 3798   0.169   1.331  16.500 -0.0057  0.2517 -0.0272
  247MPD1    C3 3799   0.138   1.272  16.375 -0.0169  0.2336 -0.2884
  247MPD1    C4 3800   0.090   1.345  16.274 -0.0627  0.5705 -0.0043
  247MPD1    C5 3801   0.075   1.480  16.291  0.4432 -0.3140 -0.6889
  247MPD1     H 3802   0.226   1.280  16.577 -0.1576 -0.2552 -0.2521
  247MPD1    H1 3803   0.078   1.300  16.177  2.8140  0.4442 -0.3024
  247MPD1    H2 3804   0.098   1.647  16.416  2.3493 -0.3466  1.4729
  247MPD1    H3 3805   0.045   1.544  16.209  3.2600  0.4660 -1.1273
  247MPD1     N 3806   0.173   1.139  16.341 -0.2377  0.2617  0.2920
  247MPD1    H5 3807   0.142   1.110  16.249  2.0388 -0.4000 -0.2627
  247MPD1    N1 3808   0.188   1.540  16.627 -0.0861  0.6604 -0.0658
  247MPD1    H6 3809   0.196   1.492  16.717 -0.7640  2.8577  1.1599
  247MPD1    H7 3810   0.126   1.620  16.640  0.2667  1.1944 -1.7185
  248MPD1     C 3811   1.067   1.216  17.702 -0.4565  0.4772 -0.1280
  248MPD1    C1 3812   0.945   1.214   0.002  0.0594  0.1937 -0.0455
  248MPD1    C2 3813   0.875   1.096   0.003  0.0205 -0.9745  0.9549
  248MPD1    C3 3814   0.901   0.987  17.689  0.0072  0.7792 -0.2154
  248MPD1    C4 3815   1.025   0.992  17.620  0.0584 -0.0128  0.1557
  248MPD1    C5 3816   1.102   1.101  17.632 -0.5310 -0.3773 -0.1109
  248MPD1     H 3817   0.788   1.097   0.069  0.0236  0.9153  0.9301
  248MPD1    H1 3818   1.051   0.906  17.558  3.4252  0.0394  1.4917
  248MPD1    H2 3819   1.138   1.295  17.721  0.5765 -0.3304 -0.6271
  248MPD1    H3 3820   1.200   1.094  17.586  1.1056 -0.8192  3.4440
  248MPD1     N 3821   0.816   0.875  17.693  0.5427 -1.1058  0.3892
  248MPD1    H5 3822   0.747   0.868   0.003  0.7126  0.0970  0.6650
  248MPD1    N1 3823   0.907   1.322   0.084 -0.4647 -0.0588 -0.2033
  248MPD1    H6 3824   0.933   1.417   0.059  0.8555 -0.5557 -0.7008
  248MPD1    H7 3825   0.806   1.329   0.093 -0.3732  0.0726  0.7177
  249MPD1     C 3826   0.591   4.335  11.284 -0.0068 -0.3779  0.6495
  249MPD1    C1 3827   0.727   4.334  11.298  0.0079 -0.3523  0.2068
  249MPD1    C2 3828   0.806   4.301  11.192  0.8747 -0.1839 -0.5629
  249MPD1    C3 3829   0.752   4.273  11.067 -0.2748 -0.0499 -0.7909
  249MPD1    C4 3830   0.614   4.269  11.054  0.4119 -1.3236 -0.0896
  249MPD1    C5 3831   0.536   4.312  11.160  0.0833 -0.3819 -0.8271
  249MPD1     H 3832   0.913   4.305  11.213  0.5032  0.5888  1.1523
  249MPD1    H1 3833   0.560   4.244  10.964  1.3007  0.9219 -1.2517
  249MPD1    H2 3834   0.525   4.373  11.362  2.2950 -0.4004  2.5973
  249MPD1    H3 3835   0.429   4.320  11.147 -0.3450 -3.2026  0.9850
  249MPD1     N 3836   0.837   4.251  10.963 -0.5166  0.0106  0.1558
  249MPD1    H5 3837   0.934   4.260  10.990 -0.4539  0.2883 -0.1630
  249MPD1    N1 3838   0.787   4.392  11.412  0.2546  0.4226  0.1240
  249MPD1    H6 3839   0.727   4.389  11.494 -1.7129 -2.0129 -1.4030
  249MPD1    H7 3840   0.879   4.359  11.439 -0.4565 -1.1072  0.6475
  250MPD2     C 3841   3.588   4.365  13.081 -0.2153  0.2952  0.2290
  250MPD2    C1 3842   3.574   4.459  12.978  0.1787  0.0781  0.1374
  250MPD2    C2 3843   3.487   4.429  12.870 -0.4772 -0.3140  0.0701
  250MPD2    C3 3844   3.420   4.311  12.873  0.4825 -0.6299  0.5199
  250MPD2    C4 3845   3.429   4.231  12.983 -0.3940 -0.6257  0.2637
  250MPD2    C5 3846   3.521   4.252  13.080  0.2838  0.1204  0.4025
  250MPD2     H 3847   3.479   4.494  12.783  1.8877  0.2929  0.3050
  250MPD2    H1 3848   3.368   4.144  12.999 -2.1372  0.6740  0.6671
  250MPD2    H2 3849   3.663   4.377  13.157  0.7560 -2.4408 -0.2933
  250MPD2    H3 3850   3.546   4.178  13.155  0.2491  0.1725  0.4648
  250MPD2     N 3851   3.342   4.267  12.764  0.1002  0.6488  0.6068
  250MPD2    H5 3852   3.314   4.170  12.777 -0.8431  0.8370 -0.0150
  250MPD2    N1 3853   3.669   4.565  12.982  0.0508 -0.1925 -0.1946
  250MPD2    H7 3854   3.724   4.561  13.067 -1.7537 -1.4063  0.9318
  251TMC3    C1 3855   3.745   0.043  12.958  0.7279  0.2248 -0.2959
  251TMC3    C2 3856   3.664   0.151  12.971 -0.1078  0.0638  0.0245
  251TMC3    C3 3857   3.677   0.237  13.081  0.0676  0.4020 -0.4039
  251TMC3    C4 3858   3.853   0.014  13.041  0.7955 -0.4480 -0.4447
  251TMC3    C5 3859   3.860   0.102  13.151 -0.5562 -0.0908  0.2756
  251TMC3    C6 3860   3.776   0.208  13.174  0.5458  0.1341  0.7448
  251TMC3     C 3861   3.674   4.672  12.895  0.0713 -0.6082  0.5962
  251TMC3     O 3862   3.589   4.696  12.810  0.5569 -0.4362  0.1914
  251TMC3     H 3863   3.577   0.168  12.908 -0.7952 -1.1891  0.6369
  251TMC3    H1 3864   3.924   4.676  13.024  1.2795  0.1449 -1.2239
  251TMC3    H2 3865   3.794   0.274  13.258 -0.7809  2.2826 -0.6605
  251TMC3    C7 3866   3.987   0.125  13.200 -0.5436 -0.1214  0.1755
  251TMC3    C8 3867   3.578   0.337  13.102 -0.0411  0.0416 -0.1251
  251TMC3    O1 3868   4.057   0.025  13.220  0.2890 -0.2270  0.1013
  251TMC3    O2 3869   3.502   0.351  13.004 -0.1197  0.4501 -0.2687
  252TMC3    C1 3870   4.314   1.227   9.733 -0.5769  0.0461  0.0190
  252TMC3    C2 3871   4.435   1.292   9.770 -0.5805 -0.6790 -0.2352
  252TMC3    C3 3872   4.453   1.416   9.722  0.1376  0.6465 -0.1660
  252TMC3    C4 3873   4.227   1.276   9.633  0.3445  0.7110 -0.1816
  252TMC3    C5 3874   4.256   1.403   9.584  0.0533  0.5711 -0.5678
  252TMC3    C6 3875   4.366   1.473   9.629  1.2321  0.2315  0.6273
  252TMC3     C 3876   4.286   1.090   9.765 -0.7157  0.4237 -0.1362
  252TMC3     O 3877   4.210   1.022   9.696  0.1975  0.1001  0.5523
  252TMC3     H 3878   4.499   1.259   9.851 -1.7662 -2.4101 -0.0082
  252TMC3    H1 3879   4.149   1.217   9.586  0.7607  1.7668 -2.1869
  252TMC3    H2 3880   4.384   1.570   9.585  0.1770 -0.2151 -0.7973
  252TMC3    C7 3881   4.147   1.486   9.546  0.4867  0.3967  0.3217
  252TMC3    C8 3882   4.575   1.491   9.756 -0.1071 -0.0432  0.0074
  252TMC3    O1 3883   4.188   1.585   9.486 -0.6188  0.3323  0.2184
  252TMC3    O2 3884   4.635   1.556   9.671  0.1007  0.0426 -0.8891
  253MPD2     C 3885   0.350   4.471  15.546 -0.9207  0.7400  0.1514
  253MPD2    C1 3886   0.215   4.468  15.535 -0.3273  0.0674 -0.5589
  253MPD2    C2 3887   0.138   4.410  15.628  1.0041  0.1054 -0.5009
  253MPD2    C3 3888   0.196   4.340  15.735  0.9961  0.2083 -0.4162
  253MPD2    C4 3889   0.328   4.344  15.750 -0.5699  0.1632  0.2517
  253MPD2    C5 3890   0.401   4.414  15.658  0.0641 -0.2229 -0.0377
  253MPD2     H 3891   0.033   4.434  15.622  0.9153 -0.5152 -1.4530
  253MPD2    H1 3892   0.375   4.304  15.839 -1.0303 -0.8951  0.0164
  253MPD2    H2 3893   0.411   4.498  15.460 -2.1286  0.1758 -0.8805
  253MPD2    H3 3894   0.507   4.394  15.654  0.4645  1.8690  0.5572
  253MPD2     N 3895   0.121   4.273  15.836 -0.4047 -0.1347  1.2204
  253MPD2    H5 3896   0.175   4.228  15.909  2.6982  2.5897  0.5880
  253MPD2    N1 3897   0.154   4.507  15.413 -0.2311 -0.3116 -0.5654
  253MPD2    H7 3898   0.057   4.479  15.403 -0.3244 -0.0939 -0.2730
  254TMC3    C1 3899   4.677   4.159  15.939 -0.2028  0.0012 -0.7491
  254TMC3    C2 3900   4.543   4.142  15.954  0.7108 -0.1298 -0.2473
  254TMC3    C3 3901   4.510   4.041  16.041  0.2453  0.4765 -0.0625
  254TMC3    C4 3902   0.029   4.074  16.000  0.2106  0.1064  0.4455
  254TMC3    C5 3903   4.732   3.968  16.074  0.4886  0.2052  0.6113
  254TMC3    C6 3904   4.597   3.942  16.091  0.0905  0.5294 -0.1404
  254TMC3     C 3905   4.721   4.253  15.835 -0.6795 -0.4570  0.6692
  254TMC3     O 3906   4.637   4.294  15.754  0.2706 -0.2389 -0.3244
  254TMC3     H 3907   4.461   4.202  15.917 -0.3559 -0.6544  1.2830
  254TMC3    H1 3908   0.128   4.069  15.956 -0.1759 -1.7218 -0.1776
  254TMC3    H2 3909   4.558   3.861  16.152  2.5988 -1.3457 -1.0300
  254TMC3    C7 3910   0.084   3.921  16.173 -0.0637  0.4456  1.3161
  254TMC3    C8 3911   4.370   4.018  16.054 -0.8953  0.3042 -0.3266
  254TMC3    O1 3912   0.032   3.840  16.254 -0.1087  0.6528  0.0345
  254TMC3    O2 3913   4.318   3.910  16.040  0.3223  0.7993 -0.3840
  255MPD2     C 3914   3.862   1.775  10.729  1.2757 -0.2924  0.7328
  255MPD2    C1 3915   3.734   1.821  10.712  0.4421 -0.1370 -0.2087
  255MPD2    C2 3916   3.714   1.944  10.632  0.0158 -0.3933  0.1604
  255MPD2    C3 3917   3.820   2.016  10.577 -0.2098 -0.6761 -0.0124
  255MPD2    C4 3918   3.944   1.957  10.592  0.2396 -0.3898 -0.7013
  255MPD2    C5 3919   3.956   1.843  10.666 -0.1955 -0.4406  0.0025
  255MPD2     H 3920   3.622   2.001  10.637  0.1050  0.0096 -3.0010
  255MPD2    H1 3921   4.034   1.994  10.545 -0.5028  0.4352 -1.4630
  255MPD2    H2 3922   3.889   1.689  10.789 -0.4892 -0.1763  1.7188
  255MPD2    H3 3923   4.054   1.798  10.673  0.2550  0.7491  1.3056
  255MPD2     N 3924   3.796   2.131  10.503 -0.2802  0.3376 -0.6157
  255MPD2    H5 3925   3.699   2.153  10.487  0.0771  1.3590 -1.3995
  255MPD2    N1 3926   3.626   1.737  10.754  0.2409  0.3408 -0.3245
  255MPD2    H7 3927   3.651   1.643  10.784 -0.4158  0.3105  0.1411
  256TMC3    C1 3928   3.415   1.644  10.695 -0.9533  0.2300 -0.0135
  256TMC3    C2 3929   3.473   1.584  10.589 -0.4123 -0.1412 -0.2609
  256TMC3    C3 3930   3.412   1.572  10.465 -0.3111 -0.2444  0.3217
  256TMC3    C4 3931   3.280   1.672  10.686 -0.1738  0.3948 -0.0226
  256TMC3    C5 3932   3.208   1.643  10.578 -0.5026 -1.2100  0.4567
  256TMC3    C6 3933   3.271   1.592  10.465 -0.0444  0.5675  0.1421
  256TMC3     C 3934   3.491   1.760  10.730 -0.2338 -0.4081 -0.0895
  256TMC3     O 3935   3.440   1.865  10.701 -0.3383  0.5190  0.1007
  256TMC3     H 3936   3.579   1.561  10.583 -0.5204 -1.0394  1.1487
  256TMC3    H1 3937   3.231   1.731  10.763  1.2809 -0.4501  1.5705
  256TMC3    H2 3938   3.210   1.593  10.376 -2.4417  0.5116  1.8011
  256TMC3    C7 3939   3.107   1.746  10.541 -0.1495 -0.9321  0.1101
  256TMC3    C8 3940   3.483   1.650  10.364 -0.6155 -0.7341 -0.2172
  256TMC3    O1 3941   3.005   1.716  10.487 -0.5492 -0.4248 -0.1833
  256TMC3    O2 3942   3.607   1.636  10.372 -0.9054 -0.5316  0.2719
  257MPD2     C 3943   2.418   4.506  13.605  0.1662  0.2334  0.0316
  257MPD2    C1 3944   2.442   4.429  13.498  0.5591 -0.4077  0.1330
  257MPD2    C2 3945   2.492   4.305  13.503  0.0976 -0.3007 -0.1201
  257MPD2    C3 3946   2.518   4.248  13.628 -0.7514  0.7247 -0.0264
  257MPD2    C4 3947   2.490   4.328  13.738  0.0116 -0.4617  0.2811
  257MPD2    C5 3948   2.446   4.453  13.723  0.8897 -0.1580  0.1661
  257MPD2     H 3949   2.503   4.252  13.410 -1.3316 -0.9591  0.0934
  257MPD2    H1 3950   2.521   4.287  13.834  1.2736 -2.2514 -0.8876
  257MPD2    H2 3951   2.394   4.612  13.597 -0.9175 -0.0877 -0.8648
  257MPD2    H3 3952   2.432   4.490  13.824  1.4732 -2.3422  1.0517
  257MPD2     N 3953   2.595   4.128  13.634  0.6710  0.3832 -0.5449
  257MPD2    H5 3954   2.602   4.078  13.546 -1.9126 -0.3781 -0.3257
  257MPD2    N1 3955   2.444   4.496  13.373 -0.6330 -0.1200  0.1255
  257MPD2    H7 3956   2.442   4.598  13.369 -0.0411  0.0345  3.2167
  258TMC3    C1 3957   2.754   3.961  13.699 -0.0575 -0.0618 -0.0674
  258TMC3    C2 3958   2.732   3.892  13.582  0.1237  0.0389 -0.1960
  258TMC3    C3 3959   2.802   3.775  13.563 -0.5414 -0.0394 -0.4960
  258TMC3    C4 3960   2.846   3.915  13.796  0.1095  0.4555  0.2391
  258TMC3    C5 3961   2.916   3.800  13.761 -0.2907 -0.4004 -1.2525
  258TMC3    C6 3962   2.895   3.725  13.647 -0.8489  0.8212 -0.9584
  258TMC3     C 3963   2.665   4.075  13.739  0.1532 -0.3452 -0.0193
  258TMC3     O 3964   2.689   4.118  13.850 -0.0777 -0.5364 -0.5214
  258TMC3     H 3965   2.680   3.939  13.500 -0.4001 -2.6436 -1.3750
  258TMC3    H1 3966   2.856   3.972  13.888  0.1445  0.4910  0.2139
  258TMC3    H2 3967   2.946   3.630  13.632 -2.2193 -0.1318  0.3557
  258TMC3    C7 3968   2.920   3.717  13.874  0.7608  0.1555 -0.8709
  258TMC3    C8 3969   2.785   3.707  13.432  0.6500 -0.2549  0.3758
  258TMC3    O1 3970   2.893   3.599  13.861 -0.2665 -0.2535  0.5480
  258TMC3    O2 3971   2.687   3.746  13.371 -0.6554 -0.1357  0.0739
  259MPD2     C 3972   1.189   1.477   0.476 -0.2818 -0.1424  0.0526
  259MPD2    C1 3973   1.296   1.403   0.519 -0.4834  0.0834  0.1032
  259MPD2    C2 3974   1.372   1.332   0.427 -0.7528 -1.0921  0.6049
  259MPD2    C3 3975   1.346   1.344   0.291 -0.2384  0.6156  0.0187
  259MPD2    C4 3976   1.243   1.426   0.248  0.6356 -0.2225 -0.1457
  259MPD2    C5 3977   1.162   1.484   0.337 -0.4290 -0.5647 -0.9168
  259MPD2     H 3978   1.460   1.277   0.458  1.2325  1.7985  0.0840
  259MPD2    H1 3979   1.208   1.432   0.145 -0.7119  1.0676  0.3954
  259MPD2    H2 3980   1.127   1.530   0.548 -0.1880 -1.5800  1.2012
  259MPD2    H3 3981   1.079   1.545   0.302  0.0693  1.1547  0.8890
  259MPD2     N 3982   1.413   1.252   0.204 -0.0356 -0.3610 -0.3469
  259MPD2    H5 3983   1.465   1.175   0.246  1.1383  0.9437  0.5807
  259MPD2    N1 3984   1.332   1.396   0.656 -0.4427  0.0113  0.0355
  259MPD2    H7 3985   1.258   1.426   0.718 -1.4658 -0.2365 -1.0685
  260TMC3    C1 3986   1.485   1.158   0.017 -0.0691  0.3307 -0.1250
  260TMC3    C2 3987   1.580   1.208  17.705 -0.0595 -0.1938 -0.3680
  260TMC3    C3 3988   1.704   1.149  17.711 -0.5158 -0.3114 -0.4519
  260TMC3    C4 3989   1.504   1.043   0.087  0.4426  0.2861  0.0108
  260TMC3    C5 3990   1.627   0.983   0.087 -1.1324  0.2615  0.3693
  260TMC3    C6 3991   1.729   1.040   0.025  0.1362 -0.4001 -0.2177
  260TMC3     C 3992   1.406   1.260   0.069  0.2724 -0.1470  0.6876
  260TMC3     O 3993   1.366   1.354  17.760 -0.4882  0.4427  0.0720
  260TMC3     H 3994   1.561   1.295  17.643 -2.9028 -1.2184 -0.9031
  260TMC3    H1 3995   1.424   0.985   0.130 -2.0966  5.5977  2.3196
  260TMC3    H2 3996   1.827   0.996   0.043  0.9632  0.8107 -1.7518
  260TMC3    C7 3997   1.621   0.845   0.046 -0.2046  0.0947 -0.8227
  260TMC3    C8 3998   1.787   1.138  17.588 -0.2660 -0.3240 -0.9921
  260TMC3    O1 3999   1.686   0.813  17.712 -0.1231 -0.3904  0.3193
  260TMC3    O2 4000   1.818   1.247  17.541 -0.7484  0.2300  0.5090
  261MPD2     C 4001   2.780   4.237  12.125  0.1537 -0.1026 -0.1413
  261MPD2    C1 4002   2.851   4.334  12.196 -0.0485  0.0144  0.4892
  261MPD2    C2 4003   2.825   4.469  12.175 -0.4566 -0.3517 -0.0762
  261MPD2    C3 4004   2.718   4.504  12.091  0.2431  0.1201  0.0769
  261MPD2    C4 4005   2.649   4.406  12.037 -0.5589 -0.6989 -0.1427
  261MPD2    C5 4006   2.677   4.271  12.045  0.7026  0.0756  0.3256
  261MPD2     H 4007   2.886   4.539  12.231  0.8659 -1.1616 -0.5057
  261MPD2    H1 4008   2.564   4.432  11.975 -0.2721  0.9404  0.1289
  261MPD2    H2 4009   2.808   4.132  12.124  1.0685  0.1273  1.5129
  261MPD2    H3 4010   2.611   4.198  12.000  0.4169 -0.3163  1.3656
  261MPD2     N 4011   2.702   4.641  12.053  0.2685 -0.5510  0.6576
  261MPD2    H5 4012   2.778   4.699  12.087  0.1082  0.9688 -1.6161
  261MPD2    N1 4013   2.963   4.299  12.280 -0.7659 -0.8503  0.4708
  261MPD2    H7 4014   3.027   4.373  12.306 -1.8122  0.7847 -1.6530
  262TMC3    C1 4015   2.612   0.078  11.916  0.1276  0.2043 -0.8206
  262TMC3    C2 4016   2.504   0.160  11.898 -0.2866  0.1392  0.4309
  262TMC3    C3 4017   2.524   0.272  11.817  0.0534  1.0809  0.2263
  262TMC3    C4 4018   2.731   0.101  11.857  0.0542 -0.5295  0.3911
  262TMC3    C5 4019   2.759   0.224  11.802  0.0067  0.3763 -0.5896
  262TMC3    C6 4020   2.653   0.314  11.782 -0.5315  0.1324 -0.0312
  262TMC3     C 4021   2.590   4.693  11.976 -0.1020  0.6593 -0.0767
  262TMC3     O 4022   2.475   4.648  11.980 -0.0340  0.5258  0.1488
  262TMC3     H 4023   2.404   0.137  11.933 -0.6678  0.4498 -0.4604
  262TMC3    H1 4024   2.812   0.030  11.867  0.8024  0.1119 -1.1350
  262TMC3    H2 4025   2.662   0.412  11.736 -2.7183 -0.3880 -1.5660
  262TMC3    C7 4026   2.902   0.253  11.774  0.3214 -0.0745  0.2140
  262TMC3    C8 4027   2.433   0.379  11.832 -0.1997 -0.5706  0.1991
  262TMC3    O1 4028   2.979   0.161  11.761  0.1891 -0.3813  0.9477
  262TMC3    O2 4029   2.439   0.431  11.941  0.2073  0.3538  0.2313
  263MPD2     C 4030   3.643   4.251  11.718  0.1971  0.4250 -0.1988
  263MPD2    C1 4031   3.766   4.253  11.780  0.2214 -0.0185 -0.3203
  263MPD2    C2 4032   3.844   4.363  11.762  0.9744 -0.6275 -0.6662
  263MPD2    C3 4033   3.796   4.470  11.687  0.3278 -0.5444  0.1124
  263MPD2    C4 4034   3.666   4.467  11.635  0.0463  0.2454  0.4717
  263MPD2    C5 4035   3.594   4.362  11.662  0.4306  0.1729  0.3499
  263MPD2     H 4036   3.935   4.377  11.819 -1.8503  1.8923  3.2135
  263MPD2    H1 4037   3.616   4.552  11.591  2.2848  1.4202  0.2480
  263MPD2    H2 4038   3.566   4.177  11.736  2.2241 -1.4826  0.7853
  263MPD2    H3 4039   3.490   4.363  11.630  0.2322  0.2167  1.0028
  263MPD2     N 4040   3.891   4.572  11.661  0.0326  0.1519  0.2511
  263MPD2    H5 4041   3.976   4.564  11.717  0.5849  2.4376 -0.2830
  263MPD2    N1 4042   3.809   4.140  11.847  0.0943 -0.1951  0.0310
  263MPD2    H7 4043   3.742   4.070  11.875 -1.1395  0.9564 -0.0507
  264TMC3    C1 4044   4.012   4.729  11.540  0.3245 -0.2766 -0.7657
  264TMC3    C2 4045   4.098   0.006  11.651 -0.9420  0.7797 -0.6395
  264TMC3    C3 4046   4.229   0.033  11.626 -0.1809 -0.8088  0.2171
  264TMC3    C4 4047   4.066   4.724  11.413 -0.2484 -0.1750 -0.0771
  264TMC3    C5 4048   4.202   0.003  11.403  0.1693 -0.5180 -0.4357
  264TMC3    C6 4049   4.281   0.036  11.507 -0.1352  0.0478  0.2492
  264TMC3     C 4050   3.887   4.656  11.554  0.3049  0.3202 -0.1198
  264TMC3     O 4051   3.807   4.664  11.460  0.4950 -0.1106  0.6224
  264TMC3     H 4052   4.058   0.016  11.751  1.3883  1.7210  0.1957
  264TMC3    H1 4053   4.004   4.698  11.328  0.2566  0.3685 -0.6062
  264TMC3    H2 4054   4.389   0.049  11.502  0.0019 -1.2798 -0.1799
  264TMC3    C7 4055   4.269   0.050  11.284  0.1803 -0.3605  0.0793
  264TMC3    C8 4056   4.315   0.091  11.724  0.2055  0.5520 -0.6398
  264TMC3    O1 4057   4.360   0.128  11.296 -0.1971 -0.0653  0.6562
  264TMC3    O2 4058   4.389   0.184  11.690  0.2149  0.3047  0.2870
  265MPD2     C 4059   1.204   3.958  15.597 -0.3770  0.1760  0.1586
  265MPD2    C1 4060   1.273   4.068  15.565 -0.1402  0.3645  0.5452
  265MPD2    C2 4061   1.390   4.059  15.491 -0.9938  0.0775  0.4490
  265MPD2    C3 4062   1.417   3.938  15.437  0.0485 -0.2695 -0.6070
  265MPD2    C4 4063   1.354   3.828  15.477  0.0784  0.4384 -0.2020
  265MPD2    C5 4064   1.248   3.833  15.560 -0.1289 -0.9693  0.0290
  265MPD2     H 4065   1.436   4.154  15.466  0.2481 -0.4195  0.8433
  265MPD2    H1 4066   1.384   3.729  15.444  2.6930  0.7684  1.1574
  265MPD2    H2 4067   1.122   3.962  15.668 -0.7233 -1.4005 -0.1509
  265MPD2    H3 4068   1.195   3.739  15.574 -0.3956 -0.8682 -0.3138
  265MPD2     N 4069   1.522   3.916  15.345  0.0778  0.2338  0.0894
  265MPD2    H5 4070   1.519   3.824  15.302  0.2769 -0.8268  2.3057
  265MPD2    N1 4071   1.229   4.193  15.621 -0.0380 -0.1944 -0.9677
  265MPD2    H7 4072   1.301   4.264  15.626 -0.7056  0.5734 -2.2789
  266TMC3    C1 4073   1.079   4.366  15.671  0.2943  0.6299 -0.0923
  266TMC3    C2 4074   1.178   4.442  15.724 -0.0274  0.2248 -0.3073
  266TMC3    C3 4075   1.152   4.561  15.782 -0.8026 -0.5720 -0.0957
  266TMC3    C4 4076   0.950   4.412  15.681 -0.0254  0.2612 -0.2316
  266TMC3    C5 4077   0.930   4.536  15.729  0.2687 -0.4128 -0.3915
  266TMC3    C6 4078   1.027   4.613  15.783  0.1584 -0.3195 -0.0566
  266TMC3     C 4079   1.101   4.225  15.634 -0.1917  0.1754  0.4428
  266TMC3     O 4080   1.003   4.160  15.606 -0.3219  0.1147 -0.0087
  266TMC3     H 4081   1.280   4.407  15.727 -1.0857 -2.6451  1.4484
  266TMC3    H1 4082   0.874   4.361  15.624  1.3282 -1.3621 -0.5648
  266TMC3    H2 4083   1.005   4.698  15.847  0.5409 -0.0194 -0.3256
  266TMC3    C7 4084   0.799   4.593  15.713  0.4809  0.0655 -0.4004
  266TMC3    C8 4085   1.235   4.577  15.903  0.2349 -0.6069  0.2744
  266TMC3    O1 4086   0.699   4.521  15.703  0.3028 -0.0719 -0.1116
  266TMC3    O2 4087   1.293   4.486  15.953  0.5953 -0.9376  0.4518
  267MPD2     C 4088   3.991   1.460   0.357  0.1245  0.0314  0.4085
  267MPD2    C1 4089   3.986   1.400   0.486  0.3559 -0.0857  0.3472
  267MPD2    C2 4090   3.897   1.445   0.580  0.3768  0.4749 -0.3640
  267MPD2    C3 4091   3.802   1.544   0.545  0.5545 -0.3971 -0.4449
  267MPD2    C4 4092   3.805   1.601   0.423 -0.1969 -0.4842  0.0240
  267MPD2    C5 4093   3.901   1.559   0.335  0.0346 -0.3771 -0.2256
  267MPD2     H 4094   3.912   1.405   0.679  1.0053  1.1659 -0.1824
  267MPD2    H1 4095   3.726   1.671   0.398  1.4185  1.6052  0.7839
  267MPD2    H2 4096   4.056   1.417   0.282  0.7571  0.7303  0.5573
  267MPD2    H3 4097   3.916   1.608   0.239 -0.5808 -2.8544 -1.5928
  267MPD2     N 4098   3.697   1.579   0.624 -0.1199 -0.0970 -0.1508
  267MPD2    H5 4099   3.622   1.632   0.580  0.7512  1.7192  0.5267
  267MPD2    N1 4100   4.085   1.304   0.503 -1.0831  0.3119  0.4034
  267MPD2    H7 4101   4.131   1.272   0.418  1.0214 -0.8755  1.9912
  268TMC3    C1 4102   4.196   1.129   0.610 -0.4448  0.3391  0.8889
  268TMC3    C2 4103   4.197   1.060   0.498 -0.0829 -0.2240  0.3381
  268TMC3    C3 4104   4.271   0.940   0.503  0.2261  0.1006 -0.1593
  268TMC3    C4 4105   4.258   1.086   0.725  0.1915  0.7528  0.7113
  268TMC3    C5 4106   4.338   0.977   0.723 -0.9562 -0.2069 -0.1891
  268TMC3    C6 4107   4.343   0.905   0.609 -0.5288 -0.3148  1.3369
  268TMC3     C 4108   4.100   1.234   0.618  1.1923 -0.1467 -0.3439
  268TMC3     O 4109   4.063   1.256   0.730  0.4985 -0.1875  0.0135
  268TMC3     H 4110   4.118   1.088   0.430 -0.6175  1.3455  1.6164
  268TMC3    H1 4111   4.263   1.157   0.807  0.0379 -0.5782  1.8721
  268TMC3    H2 4112   4.409   0.821   0.594 -1.0553 -0.5781  0.5124
  268TMC3    C7 4113   4.419   0.940   0.841 -0.6825 -0.1018 -0.2164
  268TMC3    C8 4114   4.260   0.850   0.389  0.0090  0.5577  0.8850
  268TMC3    O1 4115   4.487   0.840   0.822 -0.4640 -0.1540  0.6545
  268TMC3    O2 4116   4.265   0.733   0.409  0.2698  0.0032  0.0661
  269MPD2     C 4117   4.387   0.054  15.529 -0.4299 -0.3180 -0.6504
  269MPD2    C1 4118   4.288   0.094  15.617 -0.4721  0.2294  0.2348
  269MPD2    C2 4119   4.231   0.216  15.593  0.6821  0.8260  0.6691
  269MPD2    C3 4120   4.287   0.304  15.501  0.6399 -0.3631  0.2505
  269MPD2    C4 4121   4.380   0.257  15.408  0.0390  0.4012  0.7851
  269MPD2    C5 4122   4.430   0.133  15.428  0.2396  0.6126  0.1888
  269MPD2     H 4123   4.159   0.267  15.656 -0.5876 -1.2946  0.9680
  269MPD2    H1 4124   4.412   0.326  15.330 -0.5190  0.6560  0.7759
  269MPD2    H2 4125   4.451   4.709  15.547 -0.3315 -0.1272 -0.0754
  269MPD2    H3 4126   4.506   0.099  15.358 -0.1888  1.7034 -0.8135
  269MPD2     N 4127   4.247   0.436  15.515 -0.0730 -0.5659 -0.0626
  269MPD2    H5 4128   4.181   0.454  15.590 -1.6583 -1.3259 -1.2753
  269MPD2    N1 4129   4.252   0.014  15.721 -0.7868  0.5649  0.6931
  269MPD2    H7 4130   4.310   4.673  15.731 -1.4740 -0.0235 -0.0804
  270TMC3    C1 4131   4.091   4.652  15.873  0.1952  0.1719  0.0567
  270TMC3    C2 4132   3.959   4.635  15.881 -1.0101 -0.3837 -0.7218
  270TMC3    C3 4133   3.914   4.520  15.937 -0.7176  0.1003  0.1134
  270TMC3    C4 4134   4.175   4.546  15.883  0.5155 -0.3853  0.4440
  270TMC3    C5 4135   4.131   4.424  15.923  0.2582  0.0387  0.0787
  270TMC3    C6 4136   4.000   4.413  15.959  0.4587  0.2572 -0.0440
  270TMC3     C 4137   4.138   0.031  15.802 -0.0831  0.2985  0.0512
  270TMC3     O 4138   4.066   0.131  15.822 -0.0806 -0.1098  0.2409
  270TMC3     H 4139   3.902   4.718  15.841  2.2513  1.4149 -1.6636
  270TMC3    H1 4140   4.282   4.565  15.877  0.4028  0.3985  0.9025
  270TMC3    H2 4141   3.959   4.316  15.983 -0.0204  0.0052 -1.9052
  270TMC3    C7 4142   4.174   4.316  15.837  0.4564 -0.7222  0.2961
  270TMC3    C8 4143   3.790   4.458  15.890  0.5173  0.7311 -0.4785
  270TMC3    O1 4144   4.296   4.309  15.816  0.7726  0.0081 -0.3270
  270TMC3    O2 4145   3.721   4.396  15.968  0.0964  0.5215 -0.3879
  271MPD2     C 4146   3.027   4.535  14.248 -0.4604  0.0283  0.4578
  271MPD2    C1 4147   2.992   4.552  14.375 -0.3180  0.7355  0.1059
  271MPD2    C2 4148   2.868   4.600  14.409  0.4546  0.5293  0.4908
  271MPD2    C3 4149   2.772   4.616  14.313 -0.1245  0.5473 -0.3839
  271MPD2    C4 4150   2.804   4.582  14.185 -0.6155  0.6425  0.4308
  271MPD2    C5 4151   2.935   4.555  14.150 -0.5066 -0.4141 -0.0051
  271MPD2     H 4152   2.839   4.617  14.512 -1.0840 -0.0976  0.1580
  271MPD2    H1 4153   2.731   4.588  14.106 -0.1440 -1.0277 -0.1165
  271MPD2    H2 4154   3.116   4.494  14.202 -0.2531  0.5712  0.3851
  271MPD2    H3 4155   2.964   4.531  14.048  0.3514  0.1521  0.1063
  271MPD2     N 4156   2.635   4.642  14.328 -0.9818  0.5269 -0.3633
  271MPD2    H5 4157   2.577   4.657  14.246 -1.8298 -1.1300 -0.0647
  271MPD2    N1 4158   3.076   4.517  14.482  0.6721  0.0337 -0.2245
  271MPD2    H7 4159   3.051   4.530  14.579 -1.1819 -1.2334 -0.5382
  272TMC3    C1 4160   3.245   4.372  14.592 -0.1313  0.8403  0.0417
  272TMC3    C2 4161   3.372   4.326  14.581  0.0458  0.2288 -0.3327
  272TMC3    C3 4162   3.431   4.270  14.692 -0.2611 -0.3862  0.2843
  272TMC3    C4 4163   3.171   4.355  14.710 -0.1691 -0.4052 -0.0065
  272TMC3    C5 4164   3.237   4.316  14.825 -0.2525 -1.1487  0.0731
  272TMC3    C6 4165   3.364   4.274  14.818  0.1938 -0.0138 -0.1867
  272TMC3     C 4166   3.191   4.444  14.473  0.8304  0.2768  0.3025
  272TMC3     O 4167   3.251   4.416  14.368 -0.3551  0.8879 -0.8336
  272TMC3     H 4168   3.420   4.337  14.484  0.1972 -0.2974 -0.3156
  272TMC3    H1 4169   3.075   4.404  14.722  0.1633  1.0093 -2.9214
  272TMC3    H2 4170   3.408   4.222  14.902 -0.2261 -0.0668 -0.0016
  272TMC3    C7 4171   3.191   4.357  14.955  0.1936  0.0376 -0.9324
  272TMC3    C8 4172   3.578   4.266  14.689  0.4164 -0.4213 -0.2943
  272TMC3    O1 4173   3.080   4.322  14.998  0.1091 -0.4020  0.3371
  272TMC3    O2 4174   3.638   4.298  14.584  0.2090  0.5184  0.8076
  273MPD2     C 4175   4.328   2.679  11.689 -0.1976 -0.8206 -0.2350
  273MPD2    C1 4176   4.419   2.773  11.742  0.0092  0.2848  0.0412
  273MPD2    C2 4177   4.481   2.854  11.645 -0.0575 -1.1263 -0.6000
  273MPD2    C3 4178   4.451   2.843  11.512  0.6512 -0.4824  0.0792
  273MPD2    C4 4179   4.358   2.753  11.466  0.4315  0.0115  0.0827
  273MPD2    C5 4180   4.303   2.673  11.561  0.0078 -0.6383  0.7028
  273MPD2     H 4181   4.541   2.933  11.687  0.1191 -0.8729 -1.3371
  273MPD2    H1 4182   4.345   2.735  11.360 -0.2401  0.3852  0.1038
  273MPD2    H2 4183   4.271   2.621  11.761  0.6763  0.1565  1.2382
  273MPD2    H3 4184   4.237   2.591  11.533  2.4653 -2.9270  1.5791
  273MPD2     N 4185   4.494   2.934  11.420  0.0522  0.2167 -0.0899
  273MPD2    H5 4186   4.446   2.938  11.331 -0.1970  3.7549  0.2038
  273MPD2    N1 4187   4.426   2.805  11.877  0.2316  0.1109 -0.2398
  273MPD2    H7 4188   4.354   2.777  11.943  0.4439  1.4738  0.5791
  274TMC3    C1 4189   4.616   3.126  11.360  0.4811 -0.1440  0.0127
  274TMC3    C2 4190   4.533   3.129  11.248 -0.3721 -0.7326  0.7178
  274TMC3    C3 4191   4.471   3.246  11.226  0.4476  0.0908  0.7203
  274TMC3    C4 4192   4.642   3.241  11.425  0.4075 -0.1241  0.2330
  274TMC3    C5 4193   4.576   3.358  11.395  0.5050  0.4179 -0.0146
  274TMC3    C6 4194   4.475   3.354  11.302 -0.1329  0.1132  0.3451
  274TMC3     C 4195   4.605   3.011  11.443  0.1654  1.0725 -0.3281
  274TMC3     O 4196   4.694   3.003  11.528 -0.1895 -0.0821 -0.3693
  274TMC3     H 4197   4.530   3.043  11.182  0.2355  0.1945 -0.5043
  274TMC3    H1 4198   4.716   3.240  11.505 -2.4396 -0.9524  2.8924
  274TMC3    H2 4199   4.440   3.451  11.267  0.4002  0.9510  2.1162
  274TMC3    C7 4200   4.543   3.451  11.500  0.3545 -0.0193  0.2238
  274TMC3    C8 4201   4.388   3.265  11.109 -0.0742  0.4664 -0.6208
  274TMC3    O1 4202   4.445   3.521  11.484  0.2080 -0.2572 -0.1239
  274TMC3    O2 4203   4.306   3.356  11.134  0.0633 -0.1138 -0.5330
  275MPD2     C 4204   4.243   1.083  14.449  0.1566  0.1141  0.3341
  275MPD2    C1 4205   4.252   0.950  14.458 -0.1949  0.3336 -0.2374
  275MPD2    C2 4206   4.142   0.866  14.433  0.1863  0.4394  0.4009
  275MPD2    C3 4207   4.018   0.931  14.432 -0.4585 -0.7976 -0.7679
  275MPD2    C4 4208   4.008   1.067  14.428 -0.7196  0.4757  0.2112
  275MPD2    C5 4209   4.122   1.144  14.420  0.3370 -0.7549 -0.5384
  275MPD2     H 4210   4.156   0.759  14.444 -0.0581  0.4039  0.3753
  275MPD2    H1 4211   3.914   1.115  14.402  0.3653  1.3687 -2.1129
  275MPD2    H2 4212   4.325   1.153  14.446 -0.8010  1.3335  2.3274
  275MPD2    H3 4213   4.120   1.250  14.396  1.6023 -0.4657  0.6861
  275MPD2     N 4214   3.900   0.862  14.432  0.2701  0.0584 -0.5877
  275MPD2    H5 4215   3.810   0.908  14.444  1.4198  2.6373 -1.8303
  275MPD2    N1 4216   4.377   0.894  14.485 -0.5789 -0.4674  0.1843
  275MPD2    H7 4217   4.393   0.795  14.473 -1.0647 -0.4467 -0.6326
  276TMC3    C1 4218   4.608   0.861  14.525  0.7138  0.1314  0.6800
  276TMC3    C2 4219   4.590   0.740  14.466 -0.0483  0.0487 -0.4427
  276TMC3    C3 4220   4.681   0.648  14.510  0.0149 -0.2861  0.5757
  276TMC3    C4 4221   4.701   0.883  14.627  0.3628 -0.7462  0.0962
  276TMC3    C5 4222   0.038   0.781  14.665  0.3977 -0.3695 -0.2430
  276TMC3    C6 4223   0.032   0.660  14.608 -0.2416  0.2992  0.0192
  276TMC3     C 4224   4.495   0.957  14.524 -0.1096 -0.0791 -0.5896
  276TMC3     O 4225   4.518   1.078  14.537  0.1757 -0.1899 -0.4600
  276TMC3     H 4226   4.528   0.721  14.379  0.9205  2.6774 -1.7229
  276TMC3    H1 4227   4.707   0.981  14.673  1.7544 -0.6980 -0.1932
  276TMC3    H2 4228   0.098   0.575  14.621 -0.9940 -0.4921 -1.3143
  276TMC3    C7 4229   0.160   0.822  14.737 -0.3838  0.0788 -0.7172
  276TMC3    C8 4230   4.666   0.513  14.459 -0.0441  0.5191 -0.0369
  276TMC3    O1 4231   0.162   0.929  14.795 -0.0462  0.0138 -0.2295
  276TMC3    O2 4232   4.638   0.505  14.338  0.5190  0.1609  0.1798
  277MPD2     C 4233   2.073   4.139  13.606 -0.1274 -0.5813  0.4522
  277MPD2    C1 4234   1.935   4.162  13.593 -0.7959  0.2327  0.3415
  277MPD2    C2 4235   1.854   4.146  13.704 -0.0284  0.3277 -0.4145
  277MPD2    C3 4236   1.904   4.097  13.820 -0.0034 -0.1794 -0.1896
  277MPD2    C4 4237   2.041   4.076  13.838  0.1166  0.4039  0.1168
  277MPD2    C5 4238   2.118   4.100  13.728 -0.7788 -0.5241  0.7057
  277MPD2     H 4239   1.751   4.177  13.714  0.4056  1.6181  0.0631
  277MPD2    H1 4240   2.080   4.037  13.932 -0.6912 -0.7219 -0.0107
  277MPD2    H2 4241   2.140   4.157  13.522  0.8011 -0.5121  1.2153
  277MPD2    H3 4242   2.223   4.078  13.733 -0.6975 -0.4977 -0.7943
  277MPD2     N 4243   1.802   4.074  13.920  1.1077 -0.1755 -0.0289
  277MPD2    H5 4244   1.706   4.074  13.889  0.9709 -1.5682  0.4212
  277MPD2    N1 4245   1.887   4.214  13.472 -0.6802 -0.2071 -0.2544
  277MPD2    H7 4246   1.953   4.248  13.404 -0.4008  0.2289  0.2336
  278TMC3    C1 4247   1.695   4.016  14.114  0.4209 -0.3282  0.2361
  278TMC3    C2 4248   1.670   3.902  14.183  0.3423  0.2299 -0.2563
  278TMC3    C3 4249   1.549   3.897  14.249 -0.3755  0.5257  0.7156
  278TMC3    C4 4250   1.608   4.122  14.105  0.1552  0.1936 -0.0433
  278TMC3    C5 4251   1.481   4.097  14.156 -0.0340  0.7445 -0.2936
  278TMC3    C6 4252   1.451   3.986  14.226  0.9680  0.1212  0.4625
  278TMC3     C 4253   1.824   4.034  14.052  1.0228  0.6363  0.1645
  278TMC3     O 4254   1.928   3.994  14.111 -0.3484 -0.4509  0.0643
  278TMC3     H 4255   1.750   3.829  14.193 -1.1537 -1.3799 -0.0713
  278TMC3    H1 4256   1.629   4.218  14.060 -0.3796  0.9753  1.3588
  278TMC3    H2 4257   1.360   3.991  14.284  0.9223 -1.8699  0.5421
  278TMC3    C7 4258   1.394   4.209  14.142 -1.0216 -0.2395  0.0777
  278TMC3    C8 4259   1.507   3.758  14.267  0.6767  0.1258 -0.0105
  278TMC3    O1 4260   1.452   4.319  14.142 -0.5837 -0.1669 -0.0196
  278TMC3    O2 4261   1.596   3.688  14.310  0.2805  0.2388  0.5125
  279MPD2     C 4262   0.866   4.518   0.290 -0.0627  0.2907 -0.1032
  279MPD2    C1 4263   0.756   4.488   0.212 -0.0789 -0.3885 -0.5012
  279MPD2    C2 4264   0.768   4.432   0.089  1.2156  0.7226 -0.4884
  279MPD2    C3 4265   0.888   4.448   0.022 -0.0462 -0.0767  0.2471
  279MPD2    C4 4266   1.002   4.497   0.094  0.1897  0.0101 -0.0250
  279MPD2    C5 4267   0.987   4.524   0.230  0.2955 -0.4730 -0.0169
  279MPD2     H 4268   0.691   4.382   0.031  0.6906 -0.8014  1.5269
  279MPD2    H1 4269   1.098   4.510   0.047 -0.1186 -0.6287 -0.8356
  279MPD2    H2 4270   0.865   4.552   0.393  0.5513  0.4990 -0.1656
  279MPD2    H3 4271   1.075   4.564   0.277  1.3436  0.2024 -2.5663
  279MPD2     N 4272   0.902   4.400  17.651 -0.4521 -0.0724  0.8980
  279MPD2    H5 4273   0.991   4.415  17.605 -0.9711  1.1581  0.2896
  279MPD2    N1 4274   0.621   4.486   0.272  0.2229 -0.0042  0.1692
  279MPD2    H7 4275   0.545   4.450   0.215  1.6201  0.0079 -1.6879
  280TMC3    C1 4276   0.462   4.495   0.423 -0.5455 -0.6660 -0.4901
  280TMC3    C2 4277   0.421   4.372   0.374  0.4920  0.6624  0.4915
  280TMC3    C3 4278   0.297   4.359   0.309 -0.0073  0.0849 -0.3391
  280TMC3    C4 4279   0.384   4.600   0.408 -0.2974  0.1987 -0.1396
  280TMC3    C5 4280   0.262   4.587   0.343  0.3189 -0.5178 -0.1692
  280TMC3    C6 4281   0.213   4.470   0.294  0.8615 -0.4849  0.2730
  280TMC3     C 4282   0.599   4.524   0.405 -0.5245  0.2765 -0.3184
  280TMC3     O 4283   0.652   4.610   0.476  0.1860 -0.2023  0.4745
  280TMC3     H 4284   0.499   4.298   0.380  0.0685  0.2215  0.5184
  280TMC3    H1 4285   0.412   4.697   0.447  0.6286  0.3186 -1.0972
  280TMC3    H2 4286   0.114   4.458   0.252  0.4628 -1.3603  1.4753
  280TMC3    C7 4287   0.198   4.706   0.321 -0.0325 -0.8397  0.5671
  280TMC3    C8 4288   0.262   4.234   0.243 -0.0311 -0.2556 -0.5070
  280TMC3    O1 4289   0.216   0.054   0.406 -0.4524 -0.3545 -0.0078
  280TMC3    O2 4290   0.155   4.230   0.182  0.2727  0.8473  0.3545
  281TMC3    C1 4291   4.377   0.374  13.722  0.3737  0.6190 -0.3809
  281TMC3    C2 4292   4.469   0.308  13.640 -0.2672 -0.4192  0.7282
  281TMC3    C3 4293   4.455   0.173  13.621  0.1665 -0.1088  0.1423
  281TMC3    C4 4294   4.278   0.306  13.784 -0.7372  0.2418 -0.2524
  281TMC3    C5 4295   4.265   0.172  13.775 -0.4390 -0.9181  0.5853
  281TMC3    C6 4296   4.348   0.106  13.690 -0.3653  0.1446  0.3130
  281TMC3     C 4297   4.367   0.518  13.706  0.1381 -0.5506  0.2061
  281TMC3     O 4298   4.475   0.579  13.714 -0.5702 -0.7267  0.1250
  281TMC3     H 4299   4.557   0.362  13.605 -0.4267 -0.4932  0.2098
  281TMC3    H1 4300   4.203   0.361  13.839  0.0767  0.5633  0.5274
  281TMC3    H2 4301   4.327   0.003  13.665 -0.6103  0.0134  1.0617
  281TMC3    C7 4302   4.164   0.105  13.857 -0.8031  0.2384  0.1995
  281TMC3    C8 4303   4.452   0.138  13.483  0.1049  0.1790  0.0520
  281TMC3    O1 4304   4.090   0.174  13.929 -0.3185 -0.3620  0.0325
  281TMC3    O2 4305   4.408   0.028  13.453 -0.2668  0.0945 -0.2903
  282MPD2     C 4306   1.288   1.083  14.858  0.1781 -0.6270  0.3136
  282MPD2    C1 4307   1.198   1.075  14.961  0.0148  0.0581 -0.1452
  282MPD2    C2 4308   1.064   1.065  14.932  0.7038 -0.5360 -0.2982
  282MPD2    C3 4309   1.019   1.046  14.803  0.0645  0.8797 -0.9129
  282MPD2    C4 4310   1.108   1.054  14.697  0.0619  0.2572  0.2855
  282MPD2    C5 4311   1.239   1.073  14.727 -0.8589  0.2019  0.7368
  282MPD2     H 4312   0.991   1.075  15.012  0.0134 -3.2691 -0.5916
  282MPD2    H1 4313   1.071   1.055  14.595 -0.3567  0.3625  0.4407
  282MPD2    H2 4314   1.395   1.088  14.872  0.1703 -0.3465  0.2702
  282MPD2    H3 4315   1.307   1.091  14.644 -0.6980 -2.1186  0.3759
  282MPD2     N 4316   0.884   1.029  14.792  0.0332  0.0406 -0.8617
  282MPD2    H5 4317   0.829   1.033  14.877 -0.9312  0.6045 -1.5021
  282MPD2    N1 4318   1.233   1.092  15.097  0.8403  0.5716  0.4118
  282MPD2    H7 4319   1.154   1.094  15.161  0.4689 -0.3455 -0.0305
  283TMC3    C1 4320   1.363   1.072  15.285  0.6315 -0.2192 -0.0163
  283TMC3    C2 4321   1.439   1.160  15.353  0.2824 -0.1978 -0.2187
  283TMC3    C3 4322   1.424   1.183  15.484 -0.4046  0.3242  0.2143
  283TMC3    C4 4323   1.266   1.005  15.349 -0.4863 -0.2332  0.1903
  283TMC3    C5 4324   1.255   1.026  15.480  0.5912  0.5025 -0.2691
  283TMC3    C6 4325   1.322   1.122  15.548  0.4396 -0.1632  0.0499
  283TMC3     C 4326   1.360   1.085  15.142 -0.5471 -0.6096  1.1218
  283TMC3     O 4327   1.473   1.109  15.097 -0.5956  0.5497  0.3591
  283TMC3     H 4328   1.529   1.204  15.311  0.3979 -0.6704 -0.4641
  283TMC3    H1 4329   1.209   0.934  15.291  2.1296 -1.1530 -1.2314
  283TMC3    H2 4330   1.293   1.149  15.648 -1.2384  2.3160 -1.1199
  283TMC3    C7 4331   1.178   0.939  15.572 -0.0299  0.1541 -0.1607
  283TMC3    C8 4332   1.466   1.304  15.540 -0.2192  0.2572 -0.0748
  283TMC3    O1 4333   1.140   0.979  15.679  0.6971  0.1251 -0.0417
  283TMC3    O2 4334   1.498   1.296  15.661 -0.0452 -0.3485  0.6535
  284MPD2     C 4335   4.051   0.632  12.139 -0.4961  0.6726  0.3035
  284MPD2    C1 4336   4.124   0.723  12.211  0.3433 -0.5837  0.1891
  284MPD2    C2 4337   4.232   0.681  12.290  0.5074  0.6929  0.3203
  284MPD2    C3 4338   4.260   0.544  12.298 -0.4066  0.1969 -0.4532
  284MPD2    C4 4339   4.193   0.450  12.222 -0.3129  0.0722  0.4965
  284MPD2    C5 4340   4.085   0.495  12.144 -0.3975  0.0970 -0.2994
  284MPD2     H 4341   4.290   0.749  12.350  0.7689 -0.9392  1.9244
  284MPD2    H1 4342   4.216   0.345  12.221 -1.5645 -0.1853 -0.6092
  284MPD2    H2 4343   3.961   0.665  12.088 -0.6120 -0.6977 -0.3801
  284MPD2    H3 4344   4.015   0.433  12.089  0.9300 -0.3465 -1.4881
  284MPD2     N 4345   4.364   0.502  12.382 -0.1900  0.2775  0.2673
  284MPD2    H5 4346   4.395   0.407  12.367  0.5008  0.4914  0.3742
  284MPD2    N1 4347   4.106   0.863  12.214 -0.2630 -0.1254 -0.1659
  284MPD2    H7 4348   4.173   0.911  12.272 -1.6053 -0.0070  1.2848
  285TMC3    C1 4349   4.002   1.069  12.189 -0.2496 -0.0421 -0.0353
  285TMC3    C2 4350   4.095   1.110  12.281  0.6600 -0.1606 -0.3080
  285TMC3    C3 4351   4.164   1.226  12.258  0.0810  0.4485  0.4333
  285TMC3    C4 4352   3.949   1.159  12.097  0.5188  0.0724  0.4290
  285TMC3    C5 4353   4.009   1.286  12.085  0.4880  0.1258 -0.0796
  285TMC3    C6 4354   4.123   1.312  12.156 -0.2681 -0.4060 -0.0574
  285TMC3     C 4355   4.002   0.931  12.154  0.6001  0.8032  0.1338
  285TMC3     O 4356   3.931   0.894  12.060  0.0902  0.0426  0.2879
  285TMC3     H 4357   4.108   1.046  12.368 -1.2685 -0.5363 -0.3062
  285TMC3    H1 4358   3.878   1.133  12.020 -1.1886 -0.6808  2.2707
  285TMC3    H2 4359   4.167   1.411  12.148  0.0540 -0.3388  2.3468
  285TMC3    C7 4360   3.975   1.383  11.980 -0.1985  0.8732  0.1188
  285TMC3    C8 4361   4.312   1.198  12.263  0.6698  0.3272 -0.3123
  285TMC3    O1 4362   3.988   1.502  12.004 -0.1715 -0.3373  0.3463
  285TMC3    O2 4363   4.335   1.083  12.300  0.1300 -0.2306  0.0329
  286MPD2     C 4364   0.377   4.016   1.440  0.6417  0.7834 -0.5586
  286MPD2    C1 4365   0.252   3.955   1.415 -0.2469  0.8179 -0.1354
  286MPD2    C2 4366   0.253   3.817   1.390  0.3190  0.2133  0.2101
  286MPD2    C3 4367   0.362   3.739   1.412 -0.5690 -0.0768  1.0225
  286MPD2    C4 4368   0.483   3.804   1.450 -0.5791 -0.3903  0.0291
  286MPD2    C5 4369   0.489   3.939   1.455  0.2702 -0.3871 -0.0557
  286MPD2     H 4370   0.159   3.770   1.364 -0.6690  2.2877  0.0073
  286MPD2    H1 4371   0.573   3.748   1.470  0.4814  0.5621 -1.9870
  286MPD2    H2 4372   0.390   4.121   1.461 -0.1387  0.8292 -0.2969
  286MPD2    H3 4373   0.586   3.985   1.469 -0.1367  0.7818 -1.0075
  286MPD2     N 4374   0.357   3.600   1.397  0.3392  1.1446 -0.0751
  286MPD2    H5 4375   0.446   3.554   1.414  1.0531  1.9450 -1.6355
  286MPD2    N1 4376   0.135   4.032   1.397 -0.3272 -0.1953 -0.5014
  286MPD2    H7 4377   0.048   3.979   1.393  0.1584 -1.0098 -0.3578
  287TMC3    C1 4378   0.313   3.384   1.332  0.2290 -0.6240  0.5724
  287TMC3    C2 4379   0.256   3.334   1.213 -0.0863  0.0853 -0.5127
  287TMC3    C3 4380   0.339   3.252   1.143  0.0821 -0.3616 -0.5713
  287TMC3    C4 4381   0.440   3.362   1.370  0.5335 -0.8100  0.0612
  287TMC3    C5 4382   0.517   3.279   1.293 -0.1835  0.0334  0.4549
  287TMC3    C6 4383   0.462   3.220   1.179 -0.0967  0.1847  0.0036
  287TMC3     C 4384   0.258   3.514   1.368  0.5300 -0.2505 -0.3664
  287TMC3     O 4385   0.145   3.546   1.347 -0.2915  0.1969 -0.2826
  287TMC3     H 4386   0.152   3.353   1.186  1.1912  1.7886 -4.2685
  287TMC3    H1 4387   0.481   3.403   1.462 -0.3960 -1.0582  0.5799
  287TMC3    H2 4388   0.516   3.145   1.122  2.1340  0.2829  1.9984
  287TMC3    C7 4389   0.656   3.322   1.291  0.0418 -0.0939  0.4972
  287TMC3    C8 4390   0.283   3.179   1.032  0.1172  0.1962 -0.1736
  287TMC3    O1 4391   0.681   3.434   1.344  0.3544  0.0466 -0.0670
  287TMC3    O2 4392   0.184   3.110   1.062  0.4904  0.1248 -0.6835
  288TMC3    C1 4393   2.120   3.735  14.687 -0.0421 -1.1263  0.7293
  288TMC3    C2 4394   2.083   3.607  14.726  0.0816 -0.4972 -0.8235
  288TMC3    C3 4395   1.951   3.570  14.714  0.4526 -0.7520  0.1753
  288TMC3    C4 4396   2.034   3.832  14.637 -0.1481 -0.9664 -0.6815
  288TMC3    C5 4397   1.906   3.787  14.627 -0.0530 -0.7864  0.2901
  288TMC3    C6 4398   1.864   3.658  14.662 -0.3754 -0.1781  0.0588
  288TMC3     C 4399   2.255   3.776  14.721 -0.4965  0.5193  0.3695
  288TMC3     O 4400   2.311   3.738  14.824 -0.1496  0.1938 -1.0078
  288TMC3     H 4401   2.157   3.542  14.773 -0.5669 -1.0602 -0.5826
  288TMC3    H1 4402   2.069   3.931  14.610 -4.2527  0.3469 -1.1389
  288TMC3    H2 4403   1.758   3.639  14.662 -0.5800  0.9635  1.0218
  288TMC3    C7 4404   1.799   3.882  14.605 -0.4812  0.1118 -0.3783
  288TMC3    C8 4405   1.923   3.433  14.732  0.6409  0.5824 -0.0991
  288TMC3    O1 4406   1.699   3.861  14.674  0.0423  0.1870 -0.6658
  288TMC3    O2 4407   2.015   3.367  14.778  0.6504 -0.2276 -0.1359
  289MPD2     C 4408   1.829   2.925  14.662  0.0512 -0.4173 -0.1741
  289MPD2    C1 4409   1.861   2.982  14.541 -0.7300 -0.2463 -1.0480
  289MPD2    C2 4410   1.803   2.929  14.432 -0.3937  0.5816  0.2364
  289MPD2    C3 4411   1.702   2.832  14.439 -0.2715  0.0322 -0.5088
  289MPD2    C4 4412   1.655   2.789  14.557 -0.1760  0.8937 -0.3734
  289MPD2    C5 4413   1.735   2.822  14.666  0.6560 -0.0794 -0.4132
  289MPD2     H 4414   1.827   2.980  14.340 -0.1691  1.3883  0.7461
  289MPD2    H1 4415   1.580   2.712  14.573  0.9585  0.6123  3.6179
  289MPD2    H2 4416   1.868   2.958  14.757 -1.0688 -0.3201  0.2507
  289MPD2    H3 4417   1.696   2.784  14.759 -0.6887 -1.7928 -1.6627
  289MPD2     N 4418   1.619   2.818  14.332  0.4712 -0.3092  0.3717
  289MPD2    H5 4419   1.533   2.773  14.363 -0.2835  0.2904 -0.8250
  289MPD2    N1 4420   1.946   3.095  14.544 -0.2229  0.1466  0.7431
  289MPD2    H7 4421   1.993   3.100  14.634  1.1845  0.6921 -0.0311
  290TMC3    C1 4422   1.520   2.827  14.113  0.1632  0.0346  0.4214
  290TMC3    C2 4423   1.398   2.883  14.155  0.2974  0.7377 -0.0783
  290TMC3    C3 4424   1.295   2.874  14.066  0.8692 -0.0335 -0.1926
  290TMC3    C4 4425   1.536   2.772  13.991  0.3159 -0.5022  0.4377
  290TMC3    C5 4426   1.430   2.756  13.906 -0.6746 -0.8317 -0.2299
  290TMC3    C6 4427   1.311   2.822  13.938 -0.3425 -1.1240 -0.1120
  290TMC3     C 4428   1.639   2.848  14.197 -0.6478 -0.1568 -0.0067
  290TMC3     O 4429   1.745   2.870  14.143 -0.2070 -0.1168  0.2770
  290TMC3     H 4430   1.377   2.906  14.258 -0.9803 -0.2810 -0.1056
  290TMC3    H1 4431   1.630   2.727  13.961  0.0041 -0.1241 -1.1179
  290TMC3    H2 4432   1.222   2.811  13.877 -1.1747 -3.5057  1.5332
  290TMC3    C7 4433   1.420   2.650  13.807 -0.3701 -0.5820 -0.1981
  290TMC3    C8 4434   1.184   2.963  14.084  0.7461  0.2772  0.7462
  290TMC3    O1 4435   1.331   2.657  13.721 -0.7739 -0.1616 -0.9614
  290TMC3    O2 4436   1.079   2.933  14.028 -0.2138  0.1531  0.1838
  291MPD2     C 4437   0.578   2.971   0.218 -0.0029 -0.2467  0.1744
  291MPD2    C1 4438   0.707   2.935   0.251  0.3319 -0.1180  0.2152
  291MPD2    C2 4439   0.798   3.026   0.301 -0.0212  0.5634 -0.5986
  291MPD2    C3 4440   0.752   3.144   0.344 -0.5217 -0.1334 -1.1915
  291MPD2    C4 4441   0.618   3.176   0.327 -0.2790 -0.7154  0.6869
  291MPD2    C5 4442   0.534   3.094   0.257 -0.2849 -0.3506  0.0977
  291MPD2     H 4443   0.900   2.992   0.316 -0.5525 -0.3942  0.8346
  291MPD2    H1 4444   0.577   3.270   0.360 -0.5961 -1.1358  1.4890
  291MPD2    H2 4445   0.509   2.898   0.178 -2.0704  0.4422  2.4581
  291MPD2    H3 4446   0.437   3.123   0.218 -1.3919 -0.0241  3.1185
  291MPD2     N 4447   0.840   3.231   0.409 -0.8383  0.1990 -0.1568
  291MPD2    H5 4448   0.803   3.315   0.453  1.6601  1.6370 -0.7498
  291MPD2    N1 4449   0.751   2.798   0.231 -0.2228 -0.5764  0.0151
  291MPD2    H7 4450   0.844   2.773   0.263 -0.6725  0.1612  1.8823
  292TMC3    C1 4451   0.738   2.565   0.237 -0.1676  0.2421  0.4049
  292TMC3    C2 4452   0.822   2.564   0.348  0.2662 -0.2526 -0.8267
  292TMC3    C3 4453   0.860   2.440   0.394  0.3353 -0.2872  0.1168
  292TMC3    C4 4454   0.703   2.453   0.160  0.1483  0.0838  0.2960
  292TMC3    C5 4455   0.748   2.330   0.212 -0.4970  0.2359 -0.2447
  292TMC3    C6 4456   0.824   2.321   0.336  0.2390 -0.1942 -0.0952
  292TMC3     C 4457   0.668   2.690   0.208  0.2392  0.4531  0.1624
  292TMC3     O 4458   0.553   2.679   0.179 -0.0739  0.2727  0.2585
  292TMC3     H 4459   0.829   2.640   0.425  0.0987 -0.1039 -0.9588
  292TMC3    H1 4460   0.649   2.453   0.067  0.0059 -0.3082  0.3763
  292TMC3    H2 4461   0.849   2.227   0.383 -0.1786 -1.3633 -2.1932
  292TMC3    C7 4462   0.732   2.212   0.127 -0.0055 -0.2652 -0.2105
  292TMC3    C8 4463   0.890   2.446   0.537  0.1098 -0.2848 -0.2818
  292TMC3    O1 4464   0.795   2.110   0.160  0.4475 -0.0453  0.4505
  292TMC3    O2 4465   0.973   2.527   0.575  0.3439  0.4427  0.4104
  293MPD2     C 4466   2.791   4.343  12.799 -0.2419  0.2220 -0.2426
  293MPD2    C1 4467   2.687   4.298  12.882  0.1893  0.0707  0.3199
  293MPD2    C2 4468   2.718   4.283  13.017 -0.0476 -0.7778  0.5922
  293MPD2    C3 4469   2.843   4.324  13.064 -0.3942  0.6976  0.9494
  293MPD2    C4 4470   2.940   4.380  12.981 -0.4357 -0.3458  0.1974
  293MPD2    C5 4471   2.907   4.390  12.846  0.0189  0.3833 -0.2760
  293MPD2     H 4472   2.642   4.253  13.088 -1.2444  1.1591  0.1289
  293MPD2    H1 4473   3.039   4.412  13.010  0.2358 -2.1109 -0.1690
  293MPD2    H2 4474   2.781   4.347  12.691 -2.1723 -0.1863 -0.0842
  293MPD2    H3 4475   2.978   4.422  12.771  1.0382  0.3004  0.6471
  293MPD2     N 4476   2.858   4.319  13.208  1.1087  0.3409  0.1579
  293MPD2    H5 4477   2.780   4.281  13.261  2.1351 -0.3973  1.1440
  293MPD2    N1 4478   2.556   4.266  12.824  0.1512  0.6203  1.1006
  293MPD2    H7 4479   2.544   4.282  12.725  1.0011 -0.7110  0.7846
  294TMC3    C1 4480   2.333   4.176  12.804  0.0958 -0.2569  0.5397
  294TMC3    C2 4481   2.262   4.064  12.833 -0.4608  0.3146  0.5006
  294TMC3    C3 4482   2.122   4.060  12.812  0.6640 -0.9843 -0.5320
  294TMC3    C4 4483   2.276   4.280  12.741 -1.2283  0.6622 -0.4622
  294TMC3    C5 4484   2.142   4.270  12.711 -0.3023 -0.0203  0.2121
  294TMC3    C6 4485   2.065   4.161  12.744  0.0849  0.3119  0.4972
  294TMC3     C 4486   2.452   4.195  12.889 -0.2232  0.4070 -0.6911
  294TMC3     O 4487   2.454   4.138  12.996 -0.1067 -0.4217 -0.0247
  294TMC3     H 4488   2.305   3.981  12.888 -2.0856 -0.8342  0.0650
  294TMC3    H1 4489   2.348   4.351  12.701 -0.1205  0.7213  1.6265
  294TMC3    H2 4490   1.959   4.156  12.720  0.2544 -1.9382  0.2288
  294TMC3    C7 4491   2.084   4.362  12.622  0.3699  0.5004 -0.2072
  294TMC3    C8 4492   2.060   3.930  12.791 -0.1590 -0.5268  0.3629
  294TMC3    O1 4493   1.972   4.329  12.583 -0.1548  0.0947  0.4433
  294TMC3    O2 4494   2.120   3.855  12.717 -0.2628  0.3688  0.0799
  295MPD2     C 4495   3.728   2.136   0.186 -0.2412 -0.5054  0.3149
  295MPD2    C1 4496   3.619   2.186   0.254  0.3234  0.5243 -0.2985
  295MPD2    C2 4497   3.619   2.193   0.391 -0.0644 -0.4429 -0.3674
  295MPD2    C3 4498   3.723   2.145   0.468  0.2866 -0.5105  0.8552
  295MPD2    C4 4499   3.828   2.090   0.401  0.0696 -0.3372  0.7594
  295MPD2    C5 4500   3.831   2.089   0.261 -0.3205 -0.0403  0.0320
  295MPD2     H 4501   3.528   2.224   0.442  0.0376  0.0769 -0.4979
  295MPD2    H1 4502   3.914   2.049   0.454 -0.6464  0.3838  2.4838
  295MPD2    H2 4503   3.745   2.128   0.080 -1.3171  1.1296  0.0092
  295MPD2    H3 4504   3.920   2.049   0.214 -0.0506 -0.4834  0.9123
  295MPD2     N 4505   3.712   2.144   0.605 -0.0022  0.4898  0.0057
  295MPD2    H5 4506   3.794   2.120   0.659 -0.1662 -1.7866 -0.7418
  295MPD2    N1 4507   3.513   2.232   0.180  0.1151 -0.3803  0.4069
  295MPD2    H7 4508   3.429   2.269   0.224 -1.3962 -0.6536 -2.2491
  296TMC3    C1 4509   3.640   2.170   0.819 -1.1318 -0.9362 -0.4993
  296TMC3    C2 4510   3.764   2.147   0.860 -0.4372 -0.2283 -0.4679
  296TMC3    C3 4511   3.791   2.138   0.995 -0.5226 -0.7764 -1.5214
  296TMC3    C4 4512   3.539   2.191   0.911  0.1890 -0.3997  0.2571
  296TMC3    C5 4513   3.567   2.191   1.050  0.4828 -0.4065  0.1664
  296TMC3    C6 4514   3.692   2.157   1.091 -0.3687 -0.0361 -0.4399
  296TMC3     C 4515   3.605   2.174   0.683  0.3852 -0.0156  0.1952
  296TMC3     O 4516   3.490   2.203   0.655 -0.3667  0.1975  0.4350
  296TMC3     H 4517   3.847   2.141   0.791 -1.6738  1.5711 -2.1337
  296TMC3    H1 4518   3.437   2.191   0.874  0.6815  0.7533 -1.0978
  296TMC3    H2 4519   3.712   2.166   1.197 -1.6785 -2.5181  0.0173
  296TMC3    C7 4520   3.453   2.153   1.132  0.3103 -0.1184 -0.2185
  296TMC3    C8 4521   3.925   2.167   1.028 -0.8063  0.1910  0.4133
  296TMC3    O1 4522   3.470   2.085   1.231 -0.2040  0.4520  0.0712
  296TMC3    O2 4523   3.997   2.085   0.978  0.2343  0.6018 -0.0347
  297MPD2     C 4524   0.240   4.638  16.035  0.3560  0.6388  0.5632
  297MPD2    C1 4525   0.271   4.720  15.924  0.0373  0.1626 -0.3569
  297MPD2    C2 4526   0.394   0.048  15.919 -0.5110  0.1172  0.0104
  297MPD2    C3 4527   0.485   0.041  16.023 -0.5064 -0.5331 -0.1467
  297MPD2    C4 4528   0.452   4.698  16.126 -0.5851 -0.4520 -0.5684
  297MPD2    C5 4529   0.334   4.623  16.132 -0.2637 -0.3533 -0.1168
  297MPD2     H 4530   0.412   0.115  15.836  1.7346  0.3105  0.6456
  297MPD2    H1 4531   0.528   4.684  16.202 -0.6357  0.5391 -0.3405
  297MPD2    H2 4532   0.146   4.584  16.034  0.2735  0.7984 -0.6243
  297MPD2    H3 4533   0.312   4.565  16.221  0.2851  1.0203  0.9098
  297MPD2     N 4534   0.611   0.112  16.004 -1.2110 -0.3372 -0.0545
  297MPD2    H5 4535   0.625   0.180  15.930 -1.4449  0.5422  0.6971
  297MPD2    N1 4536   0.183   4.736  15.813 -0.2085  0.1498 -0.2792
  297MPD2    H7 4537   0.221   0.045  15.734  0.3386 -1.5516 -1.0956
  298TMC3    C1 4538   4.721   0.016  15.717  0.5467  0.8273  0.2571
  298TMC3    C2 4539   0.047   0.060  15.606 -0.4643  0.6210 -0.2482
  298TMC3    C3 4540   0.004   0.173  15.546  0.6332 -0.0975 -0.6352
  298TMC3    C4 4541   4.631   0.091  15.775 -0.5075  0.8796 -0.1394
  298TMC3    C5 4542   4.605   0.211  15.726  0.4173 -0.3375 -0.1950
  298TMC3    C6 4543   4.651   0.253  15.601 -0.0620 -0.2377 -0.1456
  298TMC3     C 4544   0.054   4.682  15.810 -0.2675  0.4842  0.0372
  298TMC3     O 4545   4.736   4.609  15.889 -0.6101 -0.6446  0.6059
  298TMC3     H 4546   0.109   4.728  15.555 -1.9472 -2.1608  1.9695
  298TMC3    H1 4547   4.589   0.060  15.870  0.0287  0.6804  0.0313
  298TMC3    H2 4548   4.624   0.340  15.543  1.7318 -1.0184 -2.1027
  298TMC3    C7 4549   4.505   0.288  15.792  0.5503 -0.1390  0.7049
  298TMC3    C8 4550   0.083   0.226  15.432 -0.3294  0.0845  1.4258
  298TMC3    O1 4551   4.447   0.236  15.885  0.1791  0.0356 -0.0910
  298TMC3    O2 4552   0.146   0.141  15.370 -0.5384  0.2648  0.1288
  299MPD2     C 4553   1.064   0.544  11.410 -0.1581  0.1640 -0.2389
  299MPD2    C1 4554   1.055   0.635  11.315 -0.2695  0.2838  0.5427
  299MPD2    C2 4555   0.948   0.634  11.230 -0.1998 -0.4755  0.2213
  299MPD2    C3 4556   0.848   0.539  11.236  0.4118  0.2186  0.3588
  299MPD2    C4 4557   0.861   0.446  11.328  0.3721  0.2039  0.3791
  299MPD2    C5 4558   0.968   0.445  11.415 -0.0242  0.3187  0.4597
  299MPD2     H 4559   0.936   0.713  11.156  1.9607  1.1169  1.5581
  299MPD2    H1 4560   0.780   0.377  11.349 -1.7244  0.7031 -6.2004
  299MPD2    H2 4561   1.139   0.547  11.487  0.2314 -2.3240 -0.5255
  299MPD2    H3 4562   0.967   0.387  11.506 -2.1929 -1.8871 -0.9779
  299MPD2     N 4563   0.726   0.539  11.160  0.3995 -0.5020  0.0346
  299MPD2    H5 4564   0.659   0.465  11.178  0.1593 -0.5289 -0.9596
  299MPD2    N1 4565   1.160   0.728  11.319 -0.0514  0.6082 -0.0643
  299MPD2    H7 4566   1.229   0.705  11.390 -0.4303 -0.2087  0.0456
  300TMC3    C1 4567   0.570   0.587  10.990  0.9719 -0.8167 -0.4181
  300TMC3    C2 4568   0.560   0.661  10.879  0.1145  0.2433  0.2477
  300TMC3    C3 4569   0.437   0.713  10.854  0.2434  0.3174  0.1087
  300TMC3    C4 4570   0.465   0.575  11.080  0.1066 -0.0043  0.1181
  300TMC3    C5 4571   0.343   0.619  11.042  0.0952 -0.0437 -0.7619
  300TMC3    C6 4572   0.327   0.680  10.917  0.3596  0.7401 -0.4451
  300TMC3     C 4573   0.696   0.609  11.048 -0.8354  0.0409 -0.2324
  300TMC3     O 4574   0.772   0.681  10.988 -0.0427 -0.2215  0.0871
  300TMC3     H 4575   0.638   0.689  10.809 -0.5796 -0.2468 -0.7278
  300TMC3    H1 4576   0.462   0.506  11.164 -0.2019 -1.0284 -0.7333
  300TMC3    H2 4577   0.231   0.720  10.885 -0.1523  0.1626  0.3455
  300TMC3    C7 4578   0.237   0.535  11.087  0.0284 -0.2891  0.3438
  300TMC3    C8 4579   0.440   0.844  10.792  0.1679  0.0674  0.3541
  300TMC3    O1 4580   0.156   0.496  11.008  0.0899  0.5018 -0.8163
  300TMC3    O2 4581   0.359   0.860  10.696  0.3609 -0.5819  0.1201
  301MPD2     C 4582   3.341   1.779   1.071 -0.3670 -0.1966 -0.0418
  301MPD2    C1 4583   3.226   1.708   1.070 -0.1639 -0.1406  0.2369
  301MPD2    C2 4584   3.217   1.588   1.137  0.2615 -0.0341 -1.0085
  301MPD2    C3 4585   3.327   1.521   1.179  0.1201 -0.4678  0.3830
  301MPD2    C4 4586   3.445   1.584   1.171 -0.8817  0.1852 -0.5367
  301MPD2    C5 4587   3.451   1.713   1.115 -0.5395 -0.8907  0.2091
  301MPD2     H 4588   3.118   1.551   1.160  0.7062 -1.2434 -1.0693
  301MPD2    H1 4589   3.536   1.535   1.203 -1.3011  0.3307  0.8947
  301MPD2    H2 4590   3.347   1.882   1.036  3.8089 -0.4820 -0.1179
  301MPD2    H3 4591   3.547   1.762   1.109  1.0822 -4.1067 -0.3330
  301MPD2     N 4592   3.323   1.387   1.222  0.2146  0.1967 -0.8182
  301MPD2    H5 4593   3.414   1.351   1.248  1.5050  3.1148 -1.3703
  301MPD2    N1 4594   3.106   1.767   1.028  0.1353 -0.0962 -0.3107
  301MPD2    H7 4595   3.028   1.705   1.044  0.6892 -0.3961  1.2103
  302TMC3    C1 4596   3.253   1.166   1.230 -0.1758 -0.0803 -0.0219
  302TMC3    C2 4597   3.326   1.150   1.347 -0.0990  0.3569 -0.5475
  302TMC3    C3 4598   3.330   1.026   1.402  0.2749  0.4378 -0.4497
  302TMC3    C4 4599   3.164   1.074   1.183  0.0209 -0.0271 -0.4737
  302TMC3    C5 4600   3.165   0.952   1.243 -0.3760  0.1678  0.2787
  302TMC3    C6 4601   3.251   0.929   1.352  0.3331 -0.5622 -0.2166
  302TMC3     C 4602   3.216   1.299   1.196  0.3143 -0.5283  0.6063
  302TMC3     O 4603   3.113   1.322   1.130  0.4337 -0.0412  0.3266
  302TMC3     H 4604   3.372   1.234   1.398  1.0201 -0.0153 -0.9340
  302TMC3    H1 4605   3.122   1.090   1.084 -1.7943  0.2687  0.3549
  302TMC3    H2 4606   3.262   0.826   1.385 -0.7778 -1.5521 -2.9156
  302TMC3    C7 4607   3.112   0.841   1.164 -0.2939 -0.1831 -0.5235
  302TMC3    C8 4608   3.432   0.981   1.489 -0.2262 -0.1785  0.1801
  302TMC3    O1 4609   3.160   0.728   1.171  0.1459 -0.0457  0.3747
  302TMC3    O2 4610   3.425   0.862   1.532 -0.2305  0.4880 -0.6064
  303MPD2     C 4611   2.993   0.678  10.612 -0.3266  0.2302 -0.5268
  303MPD2    C1 4612   2.870   0.625  10.640  0.3889  0.2600 -0.1596
  303MPD2    C2 4613   2.771   0.639  10.549  0.3564  0.9654  0.2481
  303MPD2    C3 4614   2.794   0.681  10.425 -0.3699  0.0595  0.3691
  303MPD2    C4 4615   2.921   0.724  10.394  0.2246  0.4708 -0.1661
  303MPD2    C5 4616   3.017   0.732  10.493 -0.1708  0.6168  0.2819
  303MPD2     H 4617   2.673   0.598  10.571 -0.0895  1.3108 -1.0976
  303MPD2    H1 4618   2.949   0.765  10.297 -3.2518 -1.3981 -1.9368
  303MPD2    H2 4619   3.079   0.681  10.678 -1.4079 -0.0159  0.8885
  303MPD2    H3 4620   3.116   0.772  10.475  0.4978 -1.3153 -0.3600
  303MPD2     N 4621   2.699   0.681  10.318 -0.3345 -0.4778  0.0922
  303MPD2    H5 4622   2.736   0.710  10.228 -0.7079  0.2833  0.1774
  303MPD2    N1 4623   2.854   0.575  10.769  0.2791 -0.3857 -0.3436
  303MPD2    H7 4624   2.941   0.557  10.819 -0.2441 -0.2676  0.5961
  304TMC3    C1 4625   2.754   0.465  10.945  0.0490  0.6808 -0.5761
  304TMC3    C2 4626   2.647   0.467  11.034  0.0971 -0.3358  0.4476
  304TMC3    C3 4627   2.615   0.351  11.101  0.6536  0.6763 -0.2250
  304TMC3    C4 4628   2.832   0.353  10.937 -0.0850 -0.1926 -0.2703
  304TMC3    C5 4629   2.804   0.240  11.012 -0.4991  0.8800 -0.2839
  304TMC3    C6 4630   2.698   0.242  11.096  0.7694 -0.2925 -0.1939
  304TMC3     C 4631   2.739   0.537  10.823  0.3123  0.3221 -0.2955
  304TMC3     O 4632   2.624   0.563  10.790  0.2595  0.6375  0.1715
  304TMC3     H 4633   2.571   0.544  11.024  0.5568  0.1493  0.6873
  304TMC3    H1 4634   2.907   0.346  10.859 -0.9781 -0.5810 -1.0857
  304TMC3    H2 4635   2.680   0.153  11.155  1.7393 -0.9835 -0.9466
  304TMC3    C7 4636   2.799   0.127  10.921 -0.0686 -0.4133 -0.4541
  304TMC3    C8 4637   2.477   0.318  11.095 -0.2457  0.4306  0.2192
  304TMC3    O1 4638   2.897   0.112  10.853 -0.9093 -0.0032  0.3022
  304TMC3    O2 4639   2.462   0.197  11.067  0.3426 -0.0002  0.1934
  305MPD2     C 4640   1.015   1.378  14.635 -0.3342 -0.3177  0.3867
  305MPD2    C1 4641   1.147   1.393  14.595  0.3774 -0.0704  0.7107
  305MPD2    C2 4642   1.185   1.363  14.466 -0.4151 -0.3224  0.5863
  305MPD2    C3 4643   1.093   1.313  14.373 -0.1990 -0.0678 -0.4784
  305MPD2    C4 4644   0.964   1.296  14.416 -0.6314 -0.5753  0.2423
  305MPD2    C5 4645   0.924   1.337  14.540 -0.7389  0.9124  0.1227
  305MPD2     H 4646   1.288   1.363  14.432 -0.7352 -0.6745 -0.3689
  305MPD2    H1 4647   0.890   1.253  14.348 -0.1366  1.5394 -1.6303
  305MPD2    H2 4648   0.985   1.394  14.738 -1.2072 -0.7943  0.2111
  305MPD2    H3 4649   0.817   1.331  14.561 -0.3393 -1.2304  1.5416
  305MPD2     N 4650   1.128   1.278  14.239  0.4147 -0.5986  0.1087
  305MPD2    H5 4651   1.053   1.258  14.174  0.8000  0.3811 -0.6369
  305MPD2    N1 4652   1.250   1.421  14.693 -0.0222  0.3016  0.3914
  305MPD2    H7 4653   1.227   1.418  14.792  2.7207  1.2221  1.0654
  306TMC3    C1 4654   1.476   1.410  14.775  0.3504  0.1573  0.2122
  306TMC3    C2 4655   1.545   1.294  14.765 -0.3205  0.0149  0.4372
  306TMC3    C3 4656   1.632   1.259  14.867 -0.5497  0.4512 -0.2944
  306TMC3    C4 4657   1.485   1.495  14.884  0.1930  0.6371 -0.2947
  306TMC3    C5 4658   1.578   1.455  14.985 -0.0753 -0.3982 -0.1256
  306TMC3    C6 4659   1.646   1.334  14.978 -0.4255  0.1337 -0.5900
  306TMC3     C 4660   1.386   1.442  14.663  1.1346  0.1907  0.3895
  306TMC3     O 4661   1.435   1.472  14.551 -0.0272  0.5868 -0.1100
  306TMC3     H 4662   1.542   1.231  14.677  0.2587 -0.1039  0.5011
  306TMC3    H1 4663   1.433   1.590  14.880 -1.2363 -0.1287 -0.1758
  306TMC3    H2 4664   1.704   1.295  15.061 -0.9227  0.2160 -0.2063
  306TMC3    C7 4665   1.631   1.567  15.061 -0.2724  0.0523  0.4644
  306TMC3    C8 4666   1.706   1.131  14.861  0.3567 -0.5875  0.6212
  306TMC3    O1 4667   1.563   1.670  15.062 -0.4696  0.0303 -1.0511
  306TMC3    O2 4668   1.711   1.085  14.750  0.1288 -0.4055 -1.0186
  307MPD2     C 4669   4.472   0.160   1.140  0.3301 -0.3918  0.3780
  307MPD2    C1 4670   4.353   0.197   1.207  0.1407 -0.5773 -0.6174
  307MPD2    C2 4671   4.270   0.095   1.250 -0.6034  0.1560 -0.8131
  307MPD2    C3 4672   4.278   4.705   1.198  0.1060  0.1355 -0.4981
  307MPD2    C4 4673   4.383   4.678   1.104  0.1588  0.1835  0.5543
  307MPD2    C5 4674   4.479   0.033   1.087 -0.0119  0.2067 -0.1820
  307MPD2     H 4675   4.192   0.116   1.322  0.4783  2.7845 -0.3710
  307MPD2    H1 4676   4.390   4.581   1.058 -0.9840  0.4268 -0.1408
  307MPD2    H2 4677   4.549   0.232   1.116  0.1482 -0.6483 -1.0042
  307MPD2    H3 4678   4.567   0.012   1.028  2.2727  0.2491  3.1957
  307MPD2     N 4679   4.180   4.607   1.236  0.0389 -0.0258 -0.1263
  307MPD2    H5 4680   4.119   4.635   1.312 -1.0749  1.6906 -1.6422
  307MPD2    N1 4681   4.324   0.330   1.250 -0.7115 -0.3539 -0.5883
  307MPD2    H7 4682   4.236   0.327   1.301 -1.4315  1.3895 -1.7045
  308TMC3    C1 4683   3.837   4.351   1.139  0.2870 -0.0081  0.1967
  308TMC3    C2 4684   3.776   4.381   1.257 -0.1967 -0.1860  0.4690
  308TMC3    C3 4685   3.856   4.427   1.361  0.4839 -0.3742 -0.1585
  308TMC3    C4 4686   3.969   4.367   1.118  0.3835 -0.0738 -0.4204
  308TMC3    C5 4687   4.039   4.420   1.220  0.6130 -0.5506 -0.5245
  308TMC3    C6 4688   3.987   4.445   1.344 -0.1825  0.1248  0.5917
  308TMC3     C 4689   3.765   4.306   1.024  0.1087 -0.0868  0.5868
  308TMC3     O 4690   3.832   4.253   0.935  0.2805  0.0214  0.3420
  308TMC3     H 4691   3.669   4.366   1.263 -0.3234  0.2255 -0.7364
  308TMC3    H1 4692   4.014   4.349   1.021 -0.2272 -1.1337 -0.5031
  308TMC3    H2 4693   4.053   4.473   1.426  2.8439  0.4239 -1.9380
  308TMC3    C7 4694   4.161   4.482   1.184 -0.5980  0.4762  0.1746
  308TMC3    C8 4695   3.787   4.498   1.459 -0.2861  0.0074 -0.0789
  308TMC3    O1 4696   4.221   4.423   1.095 -0.3432  0.3681  0.6762
  308TMC3    O2 4697   3.850   4.539   1.556  0.9017  0.0578 -0.0732
  309MPD2     C 4698   3.077   0.096  17.512 -0.7558  0.1963  0.3124
  309MPD2    C1 4699   2.986   0.034  17.428  0.6553  1.4106  0.4096
  309MPD2    C2 4700   2.849   0.052  17.445 -0.2519  0.3939  0.6624
  309MPD2    C3 4701   2.802   0.130  17.546 -0.8546 -0.3720 -0.3717
  309MPD2    C4 4702   2.887   0.185  17.631 -0.5686 -0.1004  0.5368
  309MPD2    C5 4703   3.020   0.173  17.607  0.5540 -0.0205  0.2886
  309MPD2     H 4704   2.788   4.729  17.383  1.0403 -0.2422  0.0461
  309MPD2    H1 4705   2.855   0.259  17.704  0.5467  1.1328 -0.2202
  309MPD2    H2 4706   3.185   0.100  17.504 -0.7627  0.6761  0.4102
  309MPD2    H3 4707   3.077   0.238  17.673  1.6826 -0.6602 -0.0663
  309MPD2     N 4708   2.667   0.151  17.577  0.5982 -1.0360 -0.0354
  309MPD2    H5 4709   2.651   0.194  17.667  0.5012 -0.2844 -0.4100
  309MPD2    N1 4710   3.023   4.694  17.323 -0.2901  0.2643  0.3719
  309MPD2    H7 4711   2.947   4.668  17.260 -0.1586 -0.3518  0.4662
  310TMC3    C1 4712   3.157   4.561  17.175 -0.4129 -0.1677  0.2865
  310TMC3    C2 4713   3.056   4.543  17.096  0.5142 -0.4374 -0.7943
  310TMC3    C3 4714   3.083   4.473  16.982  0.2879  0.2019 -0.1665
  310TMC3    C4 4715   3.284   4.510  17.164  0.2815 -0.2840  0.0050
  310TMC3    C5 4716   3.300   4.434  17.052  0.9012 -0.0834 -0.1555
  310TMC3    C6 4717   3.197   4.418  16.963 -0.6641 -0.2704  0.4511
  310TMC3     C 4718   3.146   4.645  17.292  0.0302  0.0585 -0.4624
  310TMC3     O 4719   3.245   4.667  17.360  0.0829 -0.2999 -0.4051
  310TMC3     H 4720   2.964   4.599  17.108  0.3250 -1.1971  1.2080
  310TMC3    H1 4721   3.373   4.533  17.220 -0.4777  0.8852  0.7234
  310TMC3    H2 4722   3.212   4.367  16.869 -1.0192 -0.3085  0.4181
  310TMC3    C7 4723   3.429   4.408  16.997 -0.5666  0.0410 -0.6227
  310TMC3    C8 4724   2.995   4.504  16.869 -0.1590 -0.2069 -0.4934
  310TMC3    O1 4725   3.438   4.394  16.875  0.1749 -0.2273 -0.1335
  310TMC3    O2 4726   3.043   4.508  16.760 -0.9415 -0.2851 -0.1002
  311MPD2     C 4727   4.712   1.909  12.560  0.0836 -0.3536  0.1581
  311MPD2    C1 4728   0.063   1.861  12.651 -0.1735  0.8674 -0.3244
  311MPD2    C2 4729   0.011   1.774  12.744  0.5020 -0.3822 -0.2920
  311MPD2    C3 4730   4.623   1.716  12.739 -0.5583 -0.0153  0.3280
  311MPD2    C4 4731   4.535   1.772  12.648  0.6717 -0.1926 -0.6518
  311MPD2    C5 4732   4.585   1.859  12.555  0.4785  0.5571  0.2887
  311MPD2     H 4733   0.085   1.736  12.814 -1.4523 -1.1118  1.3607
  311MPD2    H1 4734   4.429   1.750  12.646  0.6713 -0.2144 -0.2094
  311MPD2    H2 4735   4.727   1.979  12.479  1.2408 -0.7052  0.0638
  311MPD2    H3 4736   4.517   1.896  12.480 -1.3231 -0.7939  1.2576
  311MPD2     N 4737   4.591   1.612  12.835  0.0743  0.0618 -0.1379
  311MPD2    H5 4738   4.662   1.573  12.896  0.9508  0.9842 -0.5699
  311MPD2    N1 4739   0.199   1.899  12.656 -0.4658  0.6944  0.7155
  311MPD2    H7 4740   0.259   1.840  12.712  0.7598  0.3264 -0.9875
  312TMC3    C1 4741   4.476   1.421  12.921 -0.1656 -0.3854  0.0460
  312TMC3    C2 4742   4.393   1.323  12.880 -0.4017 -0.5731 -1.0979
  312TMC3    C3 4743   4.391   1.209  12.956 -0.2779  0.1378  0.3489
  312TMC3    C4 4744   4.552   1.422  13.040  0.6636  0.4103  0.0145
  312TMC3    C5 4745   4.543   1.306  13.110  0.4366 -0.2992  0.7687
  312TMC3    C6 4746   4.472   1.197  13.068 -0.1548 -0.0647  0.1605
  312TMC3     C 4747   4.468   1.540  12.832  0.2631  0.5058  0.0067
  312TMC3     O 4748   4.366   1.553  12.764 -0.1808 -0.2237 -0.4705
  312TMC3     H 4749   4.326   1.344  12.797 -1.2041  1.3889  0.0367
  312TMC3    H1 4750   4.606   1.506  13.082 -0.8424  0.1183  2.5232
  312TMC3    H2 4751   4.468   1.103  13.121 -0.6677 -0.1146  0.0369
  312TMC3    C7 4752   4.538   1.329  13.255 -0.3141 -0.1929  0.1470
  312TMC3    C8 4753   4.256   1.157  12.968  0.3842  0.4901  0.6084
  312TMC3    O1 4754   4.453   1.272  13.324 -0.4924 -0.3425  0.4977
  312TMC3    O2 4755   4.232   1.040  12.994 -0.3193  0.5808 -0.3027
  313MPD2     C 4756   4.316   1.090  11.911  0.6959  0.3065  0.3571
  313MPD2    C1 4757   4.282   1.114  11.775 -1.1421  0.0942 -0.1655
  313MPD2    C2 4758   4.275   1.012  11.685  0.1537 -0.1384  0.0151
  313MPD2    C3 4759   4.300   0.883  11.729  0.0299 -0.3663 -0.4372
  313MPD2    C4 4760   4.322   0.857  11.865  0.7864 -0.2917  1.0277
  313MPD2    C5 4761   4.342   0.960  11.947  0.3496  0.2844  0.2469
  313MPD2     H 4762   4.235   1.034  11.587  0.1704 -1.1992 -0.2325
  313MPD2    H1 4763   4.326   0.758  11.909  0.6212 -2.1599 -3.2582
  313MPD2    H2 4764   4.312   1.164  11.990  1.4826 -0.8360  1.4807
  313MPD2    H3 4765   4.351   0.930  12.051  1.4879 -0.2342  0.0070
  313MPD2     N 4766   4.302   0.778  11.627  0.2072  0.9482 -0.5985
  313MPD2    H5 4767   4.296   0.802  11.529 -0.2696  0.3596 -0.7138
  313MPD2    N1 4768   4.256   1.241  11.719  0.1993 -0.1603 -0.0140
  313MPD2    H7 4769   4.214   1.242  11.626 -0.9682 -1.5971  0.4965
  314TMC3    C1 4770   4.251   1.465  11.692  0.1248  0.1479 -0.1561
  314TMC3    C2 4771   4.344   1.561  11.718  0.1294  0.1389 -0.5423
  314TMC3    C3 4772   4.375   1.639  11.616 -0.8732 -0.1643 -0.1203
  314TMC3    C4 4773   4.193   1.450  11.571  0.6643  0.5813 -0.0828
  314TMC3    C5 4774   4.225   1.544  11.473  0.8010 -0.3109 -0.1764
  314TMC3    C6 4775   4.306   1.646  11.498 -0.2462  0.0924  0.4267
  314TMC3     C 4776   4.274   1.356  11.785  0.0670 -0.2038  0.0771
  314TMC3     O 4777   4.318   1.386  11.898 -0.4994 -0.5692  0.0159
  314TMC3     H 4778   4.387   1.579  11.816 -0.4065 -1.5301 -0.0054
  314TMC3    H1 4779   4.118   1.375  11.548  0.3161  1.2240 -1.0401
  314TMC3    H2 4780   4.333   1.718  11.421  1.6731 -0.4838  0.5698
  314TMC3    C7 4781   4.203   1.497  11.336  1.0372  0.1977 -0.3823
  314TMC3    C8 4782   4.487   1.735  11.642  0.8384 -0.3873 -0.0514
  314TMC3    O1 4783   4.094   1.449  11.312 -0.1183 -0.1004  0.0067
  314TMC3    O2 4784   4.470   1.855  11.624  0.2488  0.0856 -0.4901
  315MPD2     C 4785   4.071   4.336  17.653 -0.7400  0.4164  0.6462
  315MPD2    C1 4786   4.196   4.369  17.704  0.5175  0.6861 -0.0551
  315MPD2    C2 4787   4.269   4.469  17.638  0.0166 -1.0838  0.0929
  315MPD2    C3 4788   4.237   4.522  17.518  0.7995  0.9353 -1.0593
  315MPD2    C4 4789   4.108   4.501  17.479 -0.2279  0.0442 -0.2122
  315MPD2    C5 4790   4.029   4.402  17.543  0.1862 -0.3364  0.0242
  315MPD2     H 4791   4.367   4.485  17.681 -0.1777  0.9748 -0.2752
  315MPD2    H1 4792   4.065   4.542  17.388 -1.0770 -0.2649  0.0492
  315MPD2    H2 4793   3.999   4.266  17.695  0.3308 -0.4400  1.0635
  315MPD2    H3 4794   3.927   4.387  17.509 -0.5409 -1.9485  2.9445
  315MPD2     N 4795   4.324   4.613  17.449 -0.2462 -0.7417 -0.0541
  315MPD2    H5 4796   4.411   4.624  17.499  0.4996 -0.0081 -1.5049
  315MPD2    N1 4797   4.253   4.307   0.049  0.2961  0.3693 -0.1825
  315MPD2    H7 4798   4.342   4.343   0.081  0.3471  1.7674 -1.8549
  316TMC3    C1 4799   4.412   0.027  17.296  0.0130  0.3310  0.4528
  316TMC3    C2 4800   4.489   0.074  17.399 -0.5476 -0.0353 -0.1989
  316TMC3    C3 4801   4.583   0.169  17.363  0.5806  0.3947 -0.6698
  316TMC3    C4 4802   4.415   0.077  17.165  0.1509  0.3543 -0.8167
  316TMC3    C5 4803   4.519   0.170  17.135  0.0101  0.5430 -0.2304
  316TMC3    C6 4804   4.608   0.203  17.233  0.8026  0.6044 -0.2902
  316TMC3     C 4805   4.297   4.691  17.346 -0.0584  0.3027 -0.0410
  316TMC3     O 4806   4.196   4.709  17.281  0.0188 -0.5594  0.3996
  316TMC3     H 4807   4.468   0.044  17.501  2.3835 -3.1583 -0.4968
  316TMC3    H1 4808   4.338   0.052  17.093 -0.1563 -2.0421  0.3815
  316TMC3    H2 4809   4.681   0.282  17.221 -0.0047  1.3461 -0.3022
  316TMC3    C7 4810   4.557   0.215  16.995 -0.4576 -0.5935  1.0432
  316TMC3    C8 4811   4.651   0.239  17.469  0.2919 -0.6234  0.3070
  316TMC3    O1 4812   4.664   0.267  16.983  0.8370  0.6719 -0.0881
  316TMC3    O2 4813   4.690   0.352  17.441  0.2202 -0.7663 -0.2862
  317MPD2     C 4814   1.308   3.414  12.721 -0.5050 -0.6735  0.6627
  317MPD2    C1 4815   1.383   3.316  12.656 -0.1549 -0.4028 -0.3647
  317MPD2    C2 4816   1.474   3.244  12.729 -0.4334  0.0470  0.1827
  317MPD2    C3 4817   1.509   3.272  12.860  0.2180 -0.4147 -0.0708
  317MPD2    C4 4818   1.442   3.373  12.922  0.1880  0.0738 -1.0038
  317MPD2    C5 4819   1.340   3.442  12.855  0.3345 -0.3007  0.0392
  317MPD2     H 4820   1.517   3.153  12.689  1.2619  1.5878 -1.5433
  317MPD2    H1 4821   1.454   3.401  13.026 -4.8786 -1.3736 -0.0479
  317MPD2    H2 4822   1.216   3.461  12.689 -1.0046 -0.4617  2.4026
  317MPD2    H3 4823   1.279   3.515  12.907  1.8772  0.6643  0.5227
  317MPD2     N 4824   1.607   3.197  12.935 -0.4774 -0.1672 -0.6916
  317MPD2    H5 4825   1.660   3.122  12.894  0.1275 -0.4347  0.5681
  317MPD2    N1 4826   1.367   3.279  12.523 -0.3488  0.2552  0.3118
  317MPD2    H7 4827   1.416   3.196  12.491  0.0859  2.0920 -3.7503
  318TMC3    C1 4828   1.758   3.161  13.111 -0.4038  0.0387 -0.1472
  318TMC3    C2 4829   1.742   3.025  13.089  0.3652  0.2729  0.2987
  318TMC3    C3 4830   1.790   2.936  13.184 -0.5985  0.1452  0.1599
  318TMC3    C4 4831   1.819   3.200  13.227  0.4105 -0.1400  0.7794
  318TMC3    C5 4832   1.865   3.100  13.316 -0.2669  0.3663  0.1344
  318TMC3    C6 4833   1.854   2.968  13.298  0.0033 -0.7673 -0.2736
  318TMC3     C 4834   1.653   3.240  13.062  0.2566  0.4318  0.0260
  318TMC3     O 4835   1.652   3.351  13.115 -0.1019  0.0867 -0.3146
  318TMC3     H 4836   1.689   2.980  13.006  0.9262  1.4347 -0.6935
  318TMC3    H1 4837   1.832   3.307  13.245  2.0128  0.1153 -1.9825
  318TMC3    H2 4838   1.891   2.890  13.364  0.6016 -1.0690 -0.9674
  318TMC3    C7 4839   1.955   3.141  13.423  0.1668  0.1765  0.2301
  318TMC3    C8 4840   1.760   2.795  13.155  0.5057 -0.1929  0.5187
  318TMC3    O1 4841   1.947   3.266  13.450 -0.1189  0.3183  0.1772
  318TMC3    O2 4842   1.847   2.709  13.130  0.3138  0.4323  0.0067
  319MPD2     C 4843   2.416   4.008  16.450 -0.0012 -0.1585  0.2538
  319MPD2    C1 4844   2.372   3.915  16.548 -0.5357  0.1951 -1.0638
  319MPD2    C2 4845   2.259   3.841  16.527 -0.0499  0.1504 -0.0482
  319MPD2    C3 4846   2.208   3.842  16.398  0.2347  0.0591 -0.3867
  319MPD2    C4 4847   2.257   3.931  16.302 -0.0884 -0.2929 -0.4926
  319MPD2    C5 4848   2.358   4.009  16.326 -0.9798  0.1890  0.2699
  319MPD2     H 4849   2.222   3.769  16.600  1.5062  1.4595  2.0247
  319MPD2    H1 4850   2.222   3.925  16.200 -1.8298 -0.5467  0.1113
  319MPD2    H2 4851   2.512   4.058  16.457  0.0810 -0.2350 -0.3483
  319MPD2    H3 4852   2.383   4.080  16.248 -0.0745 -0.6767 -0.2227
  319MPD2     N 4853   2.090   3.769  16.358 -0.4392  0.3016  0.7308
  319MPD2    H5 4854   2.053   3.788  16.266  1.0368 -3.4120 -0.6120
  319MPD2    N1 4855   2.429   3.915  16.678  0.2683  0.3780 -0.1374
  319MPD2    H7 4856   2.382   3.844  16.733 -1.5940 -0.1987 -2.4966
  320TMC3    C1 4857   1.920   3.606  16.374  0.5378 -0.3488  0.1318
  320TMC3    C2 4858   1.827   3.681  16.305 -0.0336 -0.1057 -0.9729
  320TMC3    C3 4859   1.724   3.615  16.245  0.3650 -0.0007 -0.5437
  320TMC3    C4 4860   1.905   3.472  16.395 -0.5099  0.8361  0.4853
  320TMC3    C5 4861   1.798   3.402  16.338  0.7236  0.0939 -0.0308
  320TMC3    C6 4862   1.711   3.481  16.264 -0.1915  0.6176 -0.7945
  320TMC3     C 4863   2.040   3.665  16.426  0.0053 -0.2544 -0.1031
  320TMC3     O 4864   2.098   3.594  16.507  0.1765  0.3647  0.0720
  320TMC3     H 4865   1.815   3.789  16.311  1.6710 -0.0727  2.3465
  320TMC3    H1 4866   1.979   3.407  16.440 -1.1033 -0.6633 -0.6891
  320TMC3    H2 4867   1.627   3.425  16.223 -0.4788 -0.7235  1.6193
  320TMC3    C7 4868   1.825   3.278  16.270 -0.2816 -0.5295  0.5325
  320TMC3    C8 4869   1.619   3.676  16.164 -0.1911  0.0148 -0.1823
  320TMC3    O1 4870   1.774   3.275  16.160  0.1373 -0.2913  0.3715
  320TMC3    O2 4871   1.511   3.620  16.150  0.0577  0.5016 -0.1417
  321TMC3    C1 4872   2.547   3.983  16.869  0.3348  0.5514 -0.6156
  321TMC3    C2 4873   2.497   3.892  16.960 -0.1347  0.3067 -0.2954
  321TMC3    C3 4874   2.529   3.917  17.090 -0.0221  0.4549 -0.1223
  321TMC3    C4 4875   2.639   4.085  16.915 -0.2798 -0.0575 -0.3815
  321TMC3    C5 4876   2.647   4.114  17.051  0.8165  0.3040  0.5512
  321TMC3    C6 4877   2.592   4.028  17.142 -0.0747 -0.8778 -0.0575
  321TMC3     C 4878   2.523   3.994  16.729 -0.3723 -0.5474 -0.5715
  321TMC3     O 4879   2.594   4.070  16.668 -0.2268  0.0455 -0.9268
  321TMC3     H 4880   2.467   3.796  16.919  1.7553 -0.9269  1.1933
  321TMC3    H1 4881   2.683   4.161  16.851  1.7871  1.0653  2.4025
  321TMC3    H2 4882   2.599   4.051  17.248 -2.6091  2.5985 -0.6460
  321TMC3    C7 4883   2.773   4.153  17.102  0.1915  0.6384 -0.2825
  321TMC3    C8 4884   2.548   3.809  17.185  0.3645  0.4212  0.1533
  321TMC3    O1 4885   2.812   4.270  17.088  0.1388  0.4715  0.1873
  321TMC3    O2 4886   2.616   3.835  17.290  0.5554  0.0791  0.9183
  322MPD2     C 4887   1.256   0.566  13.599 -0.0438  0.5452 -0.4098
  322MPD2    C1 4888   1.264   0.517  13.729 -0.1390  0.3460  0.3711
  322MPD2    C2 4889   1.274   0.379  13.748  0.5629 -0.3002  0.4271
  322MPD2    C3 4890   1.270   0.292  13.646  0.3341 -0.1098  0.4429
  322MPD2    C4 4891   1.264   0.340  13.519  0.9019 -0.1680 -0.4351
  322MPD2    C5 4892   1.261   0.475  13.499  0.6095  0.2735 -0.3342
  322MPD2     H 4893   1.287   0.343  13.849  1.8152 -0.9322  0.0362
  322MPD2    H1 4894   1.258   0.265  13.441 -0.2179 -1.5188  0.9658
  322MPD2    H2 4895   1.265   0.673  13.581 -1.7108  0.6863 -0.4675
  322MPD2    H3 4896   1.277   0.512  13.399  4.1292  0.0374  0.1342
  322MPD2     N 4897   1.268   0.154  13.681 -0.0370  0.4796 -0.0254
  322MPD2    H5 4898   1.279   0.146  13.781  0.1543 -1.4404 -0.2046
  322MPD2    N1 4899   1.275   0.612  13.832 -0.1266 -0.1931  0.3364
  322MPD2    H7 4900   1.275   0.710  13.804 -1.4276 -0.9589 -2.3471
  323TMC3    C1 4901   1.282   0.692  14.056 -0.4932 -0.0728  0.3710
  323TMC3    C2 4902   1.365   0.798  14.014 -0.8472 -0.3845  0.7191
  323TMC3    C3 4903   1.419   0.882  14.106  0.3875  0.2467 -0.6699
  323TMC3    C4 4904   1.241   0.692  14.182 -0.1381  0.0818 -0.0509
  323TMC3    C5 4905   1.298   0.775  14.277 -0.5273 -0.2714  0.2309
  323TMC3    C6 4906   1.382   0.873  14.236 -0.7502 -0.5284  0.0785
  323TMC3     C 4907   1.273   0.574  13.966  0.8087 -0.5807 -0.1636
  323TMC3     O 4908   1.247   0.467  14.022  0.5255 -0.3992 -0.0308
  323TMC3     H 4909   1.412   0.796  13.916  0.8266 -0.3778  1.5161
  323TMC3    H1 4910   1.181   0.611  14.221  2.8839 -2.6542 -1.1503
  323TMC3    H2 4911   1.442   0.937  14.299 -1.5299 -0.0828  0.3550
  323TMC3    C7 4912   1.314   0.723  14.417  0.0249 -0.7907  0.5180
  323TMC3    C8 4913   1.547   0.947  14.073 -0.0312 -0.3022 -0.5186
  323TMC3    O1 4914   1.275   0.609  14.440  0.1138 -0.5202  0.7317
  323TMC3    O2 4915   1.615   0.984  14.174 -0.1882 -0.0313  0.1012
  324MPD2     C 4916   3.264   1.611  14.831  0.1926 -0.1007 -0.1297
  324MPD2    C1 4917   3.273   1.745  14.795  0.1001 -0.9020 -0.1982
  324MPD2    C2 4918   3.178   1.797  14.708 -0.0632  0.5327  0.9449
  324MPD2    C3 4919   3.070   1.725  14.657 -0.6324 -0.0938  0.2793
  324MPD2    C4 4920   3.050   1.603  14.714 -0.1203  0.1363  0.1041
  324MPD2    C5 4921   3.141   1.551  14.804  0.9173  0.8123 -0.0583
  324MPD2     H 4922   3.205   1.897  14.678  0.6673 -0.5512 -2.0483
  324MPD2    H1 4923   2.965   1.538  14.693 -0.1037  0.2723 -0.3769
  324MPD2    H2 4924   3.340   1.564  14.893 -0.0651 -0.6203 -0.2077
  324MPD2    H3 4925   3.123   1.448  14.832  1.7421  0.4422 -0.8721
  324MPD2     N 4926   2.972   1.772  14.567  0.4273 -0.0789 -0.2870
  324MPD2    H5 4927   2.895   1.709  14.545 -0.8723  0.2891  3.1319
  324MPD2    N1 4928   3.377   1.838  14.828  0.3482 -0.6389 -0.1545
  324MPD2    H7 4929   3.375   1.934  14.796  0.2390 -0.3369  0.7790
  325TMC3    C1 4930   2.854   1.949  14.453 -0.1626 -0.9423 -0.3273
  325TMC3    C2 4931   2.739   1.871  14.459  0.7250  0.6474  0.4996
  325TMC3    C3 4932   2.618   1.932  14.437  0.0472  0.1726 -0.4878
  325TMC3    C4 4933   2.850   2.082  14.421 -0.0431 -0.2000 -0.1913
  325TMC3    C5 4934   2.731   2.140  14.410 -0.0452  0.1592  0.0721
  325TMC3    C6 4935   2.611   2.075  14.426 -0.3064  0.0835 -0.1543
  325TMC3     C 4936   2.978   1.897  14.506 -0.7977  0.4777  0.4527
  325TMC3     O 4937   3.064   1.980  14.518 -0.3317  0.4977  0.3608
  325TMC3     H 4938   2.744   1.763  14.469 -1.3934  0.5341  0.2523
  325TMC3    H1 4939   2.936   2.145  14.402 -0.5871 -0.0708 -2.2261
  325TMC3    H2 4940   2.514   2.122  14.417 -0.4668  0.3398  3.1101
  325TMC3    C7 4941   2.731   2.273  14.350  0.1529  0.5129  0.3593
  325TMC3    C8 4942   2.509   1.861  14.370  0.7114 -0.3180  0.3431
  325TMC3    O1 4943   2.828   2.318  14.294  0.8179  0.0483  0.6296
  325TMC3    O2 4944   2.423   1.934  14.318 -0.1898  0.2755  0.0341
  326MPD2     C 4945   3.994   4.053  10.905  0.1460 -0.1895 -0.7618
  326MPD2    C1 4946   4.062   3.948  10.847 -0.0848  0.6009  0.3631
  326MPD2    C2 4947   4.193   3.967  10.801  0.2720  0.2395 -0.2950
  326MPD2    C3 4948   4.262   4.090  10.820  0.0216 -0.1911 -0.4562
  326MPD2    C4 4949   4.188   4.187  10.883  0.2386  0.4501 -0.0018
  326MPD2    C5 4950   4.064   4.164  10.928  0.8171  0.2356  0.0300
  326MPD2     H 4951   4.247   3.887  10.751 -2.4984 -0.2412 -2.5601
  326MPD2    H1 4952   4.233   4.284  10.903  1.2343 -0.3143  1.4975
  326MPD2    H2 4953   3.890   4.058  10.935  0.4996 -2.5147  0.8626
  326MPD2    H3 4954   4.005   4.241  10.977 -0.8165  0.6813 -2.6397
  326MPD2     N 4955   4.397   4.116  10.775 -0.9696 -0.1379 -0.1018
  326MPD2    H5 4956   4.437   4.206  10.802  1.4680 -1.2698  0.0113
  326MPD2    N1 4957   3.991   3.827  10.817  0.7940  0.1221  0.1515
  326MPD2    H7 4958   4.048   3.756  10.772  3.1244  1.4945  0.9542
  327TMC3    C1 4959   3.809   3.675  10.809 -0.5419 -0.4791  0.1097
  327TMC3    C2 4960   3.684   3.674  10.749 -0.5686  0.5502 -0.8601
  327TMC3    C3 4961   3.640   3.568  10.684  0.2023  0.8262  1.0329
  327TMC3    C4 4962   3.893   3.570  10.790  0.2446 -0.1807 -0.3991
  327TMC3    C5 4963   3.854   3.470  10.711 -0.4523  0.3422 -0.5130
  327TMC3    C6 4964   3.734   3.468  10.650  0.2383 -0.5556 -0.2227
  327TMC3     C 4965   3.859   3.803  10.863 -0.3686 -0.1025 -0.1316
  327TMC3     O 4966   3.783   3.874  10.929 -0.0922  0.2295  0.2154
  327TMC3     H 4967   3.618   3.759  10.760 -1.8070 -0.7751  2.0005
  327TMC3    H1 4968   3.990   3.567  10.838 -0.6022  0.8142  1.3535
  327TMC3    H2 4969   3.709   3.390  10.579  3.5214 -0.7808 -1.1033
  327TMC3    C7 4970   3.954   3.383  10.661  0.2764 -0.0713  0.0787
  327TMC3    C8 4971   3.504   3.579  10.628  1.5831  0.6011 -0.1858
  327TMC3    O1 4972   3.962   3.344  10.545  0.2345 -0.4740  0.4423
  327TMC3    O2 4973   3.464   3.689  10.602  0.1022 -0.0335  0.2710
  328MPD2     C 4974   2.112   2.982  17.275  0.1044  0.7425 -0.0058
  328MPD2    C1 4975   1.994   2.904  17.266  0.5745 -0.0849  0.0133
  328MPD2    C2 4976   1.906   2.913  17.159 -0.3000 -0.4446 -0.2573
  328MPD2    C3 4977   1.934   2.998  17.051  0.2576 -0.7535  0.2140
  328MPD2    C4 4978   2.059   3.068  17.051 -0.5288  0.0264 -0.2993
  328MPD2    C5 4979   2.142   3.056  17.164 -0.4969 -0.2044  0.1401
  328MPD2     H 4980   1.809   2.865  17.162 -0.2578 -0.4690  0.6396
  328MPD2    H1 4981   2.077   3.153  16.987  1.8861 -0.5566 -0.3692
  328MPD2    H2 4982   2.174   2.989  17.363  0.1756  2.7822 -0.2042
  328MPD2    H3 4983   2.226   3.124  17.158 -1.0944  0.7708  2.8106
  328MPD2     N 4984   1.840   3.014  16.951  0.5174 -0.2008  0.1102
  328MPD2    H5 4985   1.852   3.099  16.897  0.1158  0.0494  0.4156
  328MPD2    N1 4986   1.948   2.847  17.388 -0.4518 -0.0240 -0.1675
  328MPD2    H7 4987   2.002   2.876  17.469 -0.2987  1.0386 -0.6438
  329TMC3    C1 4988   1.818   2.759  17.553  0.1155  0.4219  0.0887
  329TMC3    C2 4989   1.834   2.878  17.617 -0.4196  0.0050  0.3909
  329TMC3    C3 4990   1.792   2.887  17.749 -0.2580  0.3142 -0.8717
  329TMC3    C4 4991   1.741   2.662  17.604  0.0606  0.3029  0.5783
  329TMC3    C5 4992   1.694   2.688  17.729 -1.4505  0.5534  1.3106
  329TMC3    C6 4993   1.721   2.795   0.046  0.5192  1.2463  0.6697
  329TMC3     C 4994   1.845   2.763  17.411 -0.0013 -0.0782  0.7655
  329TMC3     O 4995   1.784   2.695  17.331  0.2969  0.0009  0.0652
  329TMC3     H 4996   1.883   2.961  17.567  0.5838 -0.7311  0.1459
  329TMC3    H1 4997   1.723   2.572  17.547 -0.8121  0.7360  0.1656
  329TMC3    H2 4998   1.678   2.813   0.144 -1.2965  3.0187 -0.4464
  329TMC3    C7 4999   1.602   2.583   0.016 -0.7074 -0.0681  0.5655
  329TMC3    C8 5000   1.805   3.029   0.030  0.0285 -0.1853 -0.4796
  329TMC3    O1 5001   1.636   2.464  17.758  0.0224  0.2825  0.2904
  329TMC3    O2 5002   1.900   3.102  17.759  0.2467 -0.1804  0.0304
  330TMC3    C1 5003   4.703   1.923   9.991  0.4589  0.1078 -0.3597
  330TMC3    C2 5004   4.587   1.876   9.940  0.2997  0.2236  0.6951
  330TMC3    C3 5005   4.484   1.843  10.032 -0.8668  0.0854 -0.1442
  330TMC3    C4 5006   4.723   1.937  10.129 -0.0472  0.4850 -0.1829
  330TMC3    C5 5007   4.612   1.913  10.205 -1.0467  0.3248 -0.9868
  330TMC3    C6 5008   4.491   1.858  10.166  0.5324 -0.4936  0.2459
  330TMC3     C 5009   0.053   1.986   9.900  0.0062 -0.7167 -0.2589
  330TMC3     O 5010   0.166   2.001   9.943  0.0194  0.0017 -0.1884
  330TMC3     H 5011   4.586   1.855   9.834 -0.6560 -0.2280  0.7921
  330TMC3    H1 5012   0.077   1.973  10.165  0.5923  0.4910 -1.8910
  330TMC3    H2 5013   4.405   1.850  10.231 -0.4984  0.7299 -0.9594
  330TMC3    C7 5014   4.621   1.941  10.351 -0.2029  0.4530  0.3942
  330TMC3    C8 5015   4.376   1.767   9.978 -0.3949  0.7789 -0.0058
  330TMC3    O1 5016   4.516   1.926  10.418  0.3945 -0.6221  0.3282
  330TMC3    O2 5017   4.371   1.765   9.857 -0.1555  0.1640  0.9826
  331MPD2     C 5018   1.971   1.094  13.168 -1.2432 -0.1427 -0.3441
  331MPD2    C1 5019   2.090   1.134  13.112  0.0227 -0.3560 -0.7995
  331MPD2    C2 5020   2.155   1.046  13.034 -0.2864 -0.1890  0.5509
  331MPD2    C3 5021   2.115   0.911  13.027 -0.4305 -0.1510  0.2505
  331MPD2    C4 5022   2.003   0.867  13.093  0.3915 -0.1208 -0.3815
  331MPD2    C5 5023   1.925   0.968  13.157  0.8999 -0.2834  0.9399
  331MPD2     H 5024   2.250   1.075  12.992 -1.7934  0.4308 -2.3849
  331MPD2    H1 5025   1.971   0.763  13.090  0.9024 -0.2162 -2.0592
  331MPD2    H2 5026   1.922   1.154  13.243 -0.8073 -0.8376  0.4935
  331MPD2    H3 5027   1.832   0.944  13.206  0.7272  1.3436  1.4027
  331MPD2     N 5028   2.191   0.812  12.963 -0.1503 -0.6771 -0.1867
  331MPD2    H5 5029   2.166   0.716  12.984  1.6755 -0.7746  1.4605
  331MPD2    N1 5030   2.136   1.265  13.138  0.2976 -0.1067 -0.2151
  331MPD2    H7 5031   2.068   1.338  13.157 -1.4604 -1.5358 -1.0200
  332TMC3    C1 5032   2.340   0.718  12.808 -1.0453 -0.1715  0.0232
  332TMC3    C2 5033   2.355   0.722  12.671 -0.0011  0.4835  0.3877
  332TMC3    C3 5034   2.475   0.690  12.616 -0.8951  0.0910  0.0529
  332TMC3    C4 5035   2.433   0.654  12.882 -0.2197  0.2326 -0.1085
  332TMC3    C5 5036   2.548   0.597  12.822 -0.9794 -0.6120  0.0141
  332TMC3    C6 5037   2.576   0.613  12.687  0.7946  0.6132  0.6170
  332TMC3     C 5038   2.292   0.838  12.869 -0.1835 -0.0249 -0.0718
  332TMC3     O 5039   2.328   0.940  12.809 -0.3188 -0.5114  0.4033
  332TMC3     H 5040   2.272   0.762  12.614 -0.2489  0.0626  0.4555
  332TMC3    H1 5041   2.416   0.640  12.988  0.1887  2.0655  0.2086
  332TMC3    H2 5042   2.657   0.564  12.636 -1.4506 -2.1498 -0.3079
  332TMC3    C7 5043   2.658   0.555  12.903  0.1041  0.2802 -0.1768
  332TMC3    C8 5044   2.518   0.781  12.509  0.1339 -0.9675  0.5442
  332TMC3    O1 5045   2.634   0.499  13.009  0.1777 -0.0387  0.1991
  332TMC3    O2 5046   2.635   0.813  12.505  0.1925  0.5707  0.0071
  333MPD2     C 5047   2.679   2.255  11.206 -0.0199 -0.0553  0.0852
  333MPD2    C1 5048   2.724   2.126  11.198  0.4557 -0.8723  0.0126
  333MPD2    C2 5049   2.650   2.025  11.259 -0.1685 -0.3937  0.1104
  333MPD2    C3 5050   2.529   2.051  11.322 -0.0384  0.2887  0.1305
  333MPD2    C4 5051   2.491   2.186  11.329  0.1604  0.8497  0.5757
  333MPD2    C5 5052   2.561   2.285  11.264 -0.2082 -0.4889  0.5329
  333MPD2     H 5053   2.686   1.924  11.246  1.8567  0.2702  0.4144
  333MPD2    H1 5054   2.409   2.217  11.392 -1.0605 -0.9108 -0.1255
  333MPD2    H2 5055   2.726   2.337  11.155 -1.2795 -1.2417 -2.9947
  333MPD2    H3 5056   2.532   2.389  11.263  0.6041 -0.2666 -0.4486
  333MPD2     N 5057   2.455   1.946  11.398  0.2773  0.6880  0.4617
  333MPD2    H5 5058   2.496   1.853  11.393 -0.0876  0.4718  1.4562
  333MPD2    N1 5059   2.844   2.105  11.122  0.0392  0.6518 -0.2457
  333MPD2    H7 5060   2.894   2.192  11.105 -0.1760  0.4614 -1.8345
  334TMC3    C1 5061   3.035   2.003  11.027 -0.0417 -0.1327 -0.4417
  334TMC3    C2 5062   3.118   1.899  11.044 -0.0738  0.2125  0.4569
  334TMC3    C3 5063   3.249   1.919  11.007  0.0475 -0.0534 -0.0015
  334TMC3    C4 5064   3.069   2.116  10.963  0.1839  0.1150 -0.0677
  334TMC3    C5 5065   3.197   2.132  10.923  0.2009 -0.7702 -0.6692
  334TMC3    C6 5066   3.291   2.035  10.940 -0.4487 -0.1752  0.0427
  334TMC3     C 5067   2.907   1.988  11.096  0.7382  0.0499 -0.5293
  334TMC3     O 5068   2.858   1.878  11.106  0.7209  0.0366 -0.4692
  334TMC3     H 5069   3.078   1.809  11.089 -0.7381  0.7246  0.8877
  334TMC3    H1 5070   2.987   2.185  10.947  0.7976  0.3511 -2.1425
  334TMC3    H2 5071   3.389   2.048  10.895  0.6054  0.0306  2.4037
  334TMC3    C7 5072   3.245   2.260  10.874 -0.5715 -0.0112  0.2918
  334TMC3    C8 5073   3.343   1.830  11.064 -0.1770  0.4772 -0.1100
  334TMC3    O1 5074   3.361   2.286  10.910  0.5505  0.1663  0.2494
  334TMC3    O2 5075   3.294   1.728  11.107  0.3837  0.0071 -0.3632
  335TMC3    C1 5076   2.627   2.560  17.270  0.5712  0.0509  0.3109
  335TMC3    C2 5077   2.566   2.540  17.149 -0.2828  0.4010  0.2448
  335TMC3    C3 5078   2.645   2.547  17.036  0.1964  0.9196  0.9508
  335TMC3    C4 5079   2.767   2.580  17.276 -0.0271  0.1874 -0.1736
  335TMC3    C5 5080   2.835   2.591  17.153  0.0189  0.3104 -0.2678
  335TMC3    C6 5081   2.774   2.580  17.035  1.2067  0.5770  0.2001
  335TMC3     C 5082   2.554   2.593  17.389 -0.0899  0.1206 -0.0391
  335TMC3     O 5083   2.614   2.657  17.477 -0.3453  0.1931 -0.2220
  335TMC3     H 5084   2.458   2.550  17.142 -0.5244 -4.1877 -2.6492
  335TMC3    H1 5085   2.816   2.607  17.369  1.8662  2.2681 -1.7962
  335TMC3    H2 5086   2.838   2.573  16.948  1.1062 -0.5264  0.2232
  335TMC3    C7 5087   2.980   2.601  17.161  0.4595 -0.0147  0.8281
  335TMC3    C8 5088   2.584   2.513  16.914 -0.7862 -0.7632  0.2950
  335TMC3    O1 5089   3.049   2.656  17.078 -0.2744 -0.4583 -0.5083
  335TMC3    O2 5090   2.624   2.557  16.807 -0.3771 -0.6414 -0.1312
  336MPD2     C 5091   2.271   0.379  16.376  0.4903 -0.0437  0.2768
  336MPD2    C1 5092   2.230   0.326  16.255 -0.0573 -0.0670  0.0478
  336MPD2    C2 5093   2.203   0.190  16.241  0.5722 -0.2512  0.7187
  336MPD2    C3 5094   2.234   0.107  16.347  0.6102  0.3166 -0.2899
  336MPD2    C4 5095   2.256   0.160  16.468 -0.5914 -0.0350 -0.6285
  336MPD2    C5 5096   2.279   0.297  16.484 -0.1163  0.3622  0.3545
  336MPD2     H 5097   2.160   0.148  16.150  1.8644  1.9337 -0.8967
  336MPD2    H1 5098   2.256   0.098  16.558  1.8319  0.5188 -0.2619
  336MPD2    H2 5099   2.298   0.483  16.388  2.6753 -0.6776  0.7323
  336MPD2    H3 5100   2.312   0.340  16.578  0.1770 -1.1876  0.9544
  336MPD2     N 5101   2.233   4.705  16.343 -0.6267 -0.0596  0.1998
  336MPD2    H5 5102   2.232   4.650  16.427  1.7714 -0.0865  0.1989
  336MPD2    N1 5103   2.211   0.398  16.133 -0.0753 -0.2096  0.1331
  336MPD2    H7 5104   2.174   0.348  16.052  0.6253  0.3050 -0.5140
  337TMC3    C1 5105   2.237   0.567  15.979 -0.0465  0.5634  0.0010
  337TMC3    C2 5106   2.125   0.543  15.908 -0.2249  0.1188 -0.0314
  337TMC3    C3 5107   2.098   0.638  15.813 -0.7444  0.3273 -0.8595
  337TMC3    C4 5108   2.325   0.667  15.954  0.8805  0.5671  0.2099
  337TMC3    C5 5109   2.296   0.747  15.848  0.0426  0.3074 -0.2005
  337TMC3    C6 5110   2.178   0.745  15.781 -0.1906  0.1467  0.2755
  337TMC3     C 5111   2.237   0.531  16.115 -0.2928  1.4204 -0.1211
  337TMC3     O 5112   2.276   0.612  16.199 -0.2406  0.9396 -0.0281
  337TMC3     H 5113   2.054   0.467  15.937 -0.1130 -0.3379 -0.9295
  337TMC3    H1 5114   2.405   0.686  16.025  0.6850 -1.1174  0.8927
  337TMC3    H2 5115   2.156   0.816  15.703 -1.2025 -0.4343  0.0305
  337TMC3    C7 5116   2.356   0.877  15.856  0.8164  0.4795  0.1628
  337TMC3    C8 5117   1.971   0.624  15.744 -0.2427  0.2712  0.5084
  337TMC3    O1 5118   2.293   0.982  15.838  0.3237  0.0210 -0.3576
  337TMC3    O2 5119   1.925   0.511  15.723  0.2861 -0.2117  0.1689
  338MPD2     C 5120   2.924   0.277   1.259 -0.0237  0.1162 -0.3901
  338MPD2    C1 5121   2.871   0.287   1.132  0.0337 -0.1163  0.0694
  338MPD2    C2 5122   2.794   0.401   1.109  0.5688  0.1518 -0.4927
  338MPD2    C3 5123   2.773   0.500   1.200  0.0920  0.6257  1.0443
  338MPD2    C4 5124   2.841   0.496   1.313  0.1131 -0.4872 -0.0590
  338MPD2    C5 5125   2.907   0.386   1.343  0.1811 -0.5053  0.4268
  338MPD2     H 5126   2.741   0.410   1.015  1.3007 -0.5283 -0.9687
  338MPD2    H1 5127   2.838   0.581   1.381 -2.7484  0.3209 -1.1977
  338MPD2    H2 5128   2.978   0.190   1.296 -0.3515  0.4218  0.8199
  338MPD2    H3 5129   2.935   0.381   1.447 -0.3875  3.5813  0.7676
  338MPD2     N 5130   2.677   0.598   1.164 -0.2980 -0.2741  0.2296
  338MPD2    H5 5131   2.615   0.577   1.086  0.6487 -0.6228 -0.4258
  338MPD2    N1 5132   2.882   0.182   1.034  0.0906 -0.0090 -0.0924
  338MPD2    H7 5133   2.832   0.198   0.947 -2.1497  0.8055  1.3438
  339TMC3    C1 5134   2.521   0.764   1.176  0.1173 -0.6437  0.3184
  339TMC3    C2 5135   2.426   0.811   1.265  0.2362  0.3707  0.1145
  339TMC3    C3 5136   2.293   0.811   1.221  0.0876  0.5216 -0.2337
  339TMC3    C4 5137   2.483   0.729   1.047 -0.7963  0.1965  0.6631
  339TMC3    C5 5138   2.347   0.729   1.015 -0.2036 -0.4516 -0.3405
  339TMC3    C6 5139   2.251   0.771   1.095  0.3863 -0.0101 -0.3894
  339TMC3     C 5140   2.633   0.702   1.236 -0.3013  0.3627 -0.1315
  339TMC3     O 5141   2.670   0.736   1.349 -0.0534  0.5834 -0.2940
  339TMC3     H 5142   2.456   0.835   1.367  0.9728  4.4402 -1.0904
  339TMC3    H1 5143   2.557   0.708   0.970 -1.8418 -3.8047  0.7430
  339TMC3    H2 5144   2.146   0.783   1.071  0.1347 -0.4255  0.4935
  339TMC3    C7 5145   2.307   0.676   0.891  0.3651 -0.4182  0.0862
  339TMC3    C8 5146   2.194   0.831   1.320  0.3088 -0.0384 -0.4459
  339TMC3    O1 5147   2.395   0.673   0.809  0.1020 -0.5195 -0.4246
  339TMC3    O2 5148   2.208   0.918   1.408  0.2144  0.3683 -0.1144
  340MPD2     C 5149   3.069   2.234  10.393 -0.6815  0.8986  0.0747
  340MPD2    C1 5150   2.983   2.131  10.364  0.1283  0.7078  0.3080
  340MPD2    C2 5151   3.012   2.005  10.418 -0.3245  0.9284  0.2798
  340MPD2    C3 5152   3.124   1.987  10.498  0.8955  0.7047  0.5464
  340MPD2    C4 5153   3.208   2.094  10.522  0.1974 -0.2154 -0.3570
  340MPD2    C5 5154   3.181   2.217  10.470  1.0774 -0.8196 -0.0844
  340MPD2     H 5155   2.941   1.925  10.404  0.8176  0.4121 -2.4607
  340MPD2    H1 5156   3.299   2.089  10.582 -1.6536  0.8112  2.5290
  340MPD2    H2 5157   3.046   2.337  10.367 -0.0415  0.9313 -0.3602
  340MPD2    H3 5158   3.244   2.303  10.488 -1.9421  1.2958  0.1712
  340MPD2     N 5159   3.167   1.866  10.549  0.8599 -0.1084 -0.4115
  340MPD2    H5 5160   3.262   1.864  10.585  0.8514 -1.2231 -0.4390
  340MPD2    N1 5161   2.881   2.146  10.267  0.1237  0.0092  0.0168
  340MPD2    H7 5162   2.892   2.227  10.206 -4.2744 -1.0201 -2.1114
  341TMC3    C1 5163   2.682   2.095  10.149  0.8678 -0.3256  1.1466
  341TMC3    C2 5164   2.547   2.089  10.158  0.2008  0.2904  0.0746
  341TMC3    C3 5165   2.474   2.111  10.048 -0.6773  0.1876 -0.4227
  341TMC3    C4 5166   2.739   2.127  10.032 -0.1440  0.4429 -0.1965
  341TMC3    C5 5167   2.664   2.140   9.919 -0.2955  0.4825 -0.5426
  341TMC3    C6 5168   2.530   2.136   9.922 -0.2334  0.3677  0.4997
  341TMC3     C 5169   2.767   2.070  10.270 -0.0247 -0.3489 -0.6582
  341TMC3     O 5170   2.712   2.005  10.354  0.4205 -1.0218 -0.4192
  341TMC3     H 5171   2.491   2.062  10.247 -0.9589  0.0394 -0.7346
  341TMC3    H1 5172   2.847   2.125  10.031 -0.1062  1.4204  1.4469
  341TMC3    H2 5173   2.465   2.166   9.840  0.7546 -1.8240 -1.0845
  341TMC3    C7 5174   2.734   2.196   9.811 -0.2315 -0.6115 -0.0241
  341TMC3    C8 5175   2.341   2.162  10.068  0.1349  0.3955  0.6954
  341TMC3    O1 5176   2.847   2.235   9.822 -0.1335 -0.6399 -0.2532
  341TMC3    O2 5177   2.292   2.118  10.169 -0.1908  0.0771  0.2924
  342MPD2     C 5178   0.391   0.829  17.444 -0.1894 -0.0481 -0.4333
  342MPD2    C1 5179   0.525   0.833  17.392  0.4467 -0.0896  0.7583
  342MPD2    C2 5180   0.602   0.949  17.417 -0.9119  0.1658  0.0119
  342MPD2    C3 5181   0.560   1.053  17.493  0.1197  0.4382 -0.1492
  342MPD2    C4 5182   0.434   1.037  17.553  0.9528  0.1560  0.2808
  342MPD2    C5 5183   0.348   0.927  17.531 -0.9006 -0.3816  0.1323
  342MPD2     H 5184   0.703   0.943  17.379 -0.6542  1.6652  0.4855
  342MPD2    H1 5185   0.407   1.115  17.623 -1.3095  0.2374 -0.6859
  342MPD2    H2 5186   0.327   0.743  17.422 -0.4896  0.1533 -0.3507
  342MPD2    H3 5187   0.253   0.912  17.580 -0.0361 -0.2757  1.8530
  342MPD2     N 5188   0.626   1.175  17.512 -0.4327 -0.0620 -0.3657
  342MPD2    H5 5189   0.570   1.255  17.540  0.1761 -0.2344  1.3368
  342MPD2    N1 5190   0.580   0.724  17.315 -0.4235  0.7582  0.0008
  342MPD2    H7 5191   0.663   0.744  17.261  0.9624 -0.5808  1.6591
  343TMC3    C1 5192   0.593   0.511  17.221  0.2448 -0.1601  0.5362
  343TMC3    C2 5193   0.664   0.556  17.112 -0.3478 -0.6033  0.4017
  343TMC3    C3 5194   0.702   0.467  17.013 -0.2225  0.5385 -0.1669
  343TMC3    C4 5195   0.594   0.373  17.251 -0.3290  0.1676 -0.3500
  343TMC3    C5 5196   0.649   0.281  17.156 -0.6123 -0.0211  1.2503
  343TMC3    C6 5197   0.693   0.329  17.034 -0.3144  0.2904  0.5734
  343TMC3     C 5198   0.521   0.595  17.308 -0.3416  0.0625  0.1438
  343TMC3     O 5199   0.433   0.544  17.375 -0.0368 -0.1477 -0.7877
  343TMC3     H 5200   0.661   0.660  17.082  0.9722 -0.5738  0.3418
  343TMC3    H1 5201   0.539   0.335  17.336 -1.6108  2.3322 -0.1964
  343TMC3    H2 5202   0.731   0.255  16.965  1.6869  1.7251  0.1233
  343TMC3    C7 5203   0.637   0.140  17.173  0.2655  0.1465 -0.0147
  343TMC3    C8 5204   0.798   0.517  16.917  0.0119 -0.1654  0.5068
  343TMC3    O1 5205   0.620   0.079  17.073 -0.0567 -0.2288 -0.4010
  343TMC3    O2 5206   0.819   0.636  16.914  0.5582 -0.5732  0.1787
  344MPD2     C 5207   1.790   1.345  11.332 -0.0423  0.3998  0.5649
  344MPD2    C1 5208   1.692   1.318  11.240 -0.5646 -0.4448  0.2557
  344MPD2    C2 5209   1.668   1.401  11.131 -0.1349 -0.4907 -0.4848
  344MPD2    C3 5210   1.738   1.521  11.118  0.1535 -0.3129 -0.0308
  344MPD2    C4 5211   1.833   1.554  11.214 -0.0330 -0.0359 -0.1811
  344MPD2    C5 5212   1.870   1.459  11.312 -0.2309  1.1470  0.1546
  344MPD2     H 5213   1.602   1.370  11.051 -1.3557  1.4322 -0.2399
  344MPD2    H1 5214   1.886   1.649  11.212 -0.9610  0.5111  1.4236
  344MPD2    H2 5215   1.819   1.277  11.411  0.7521  0.3918  0.2681
  344MPD2    H3 5216   1.948   1.484  11.383  1.1505 -1.0557 -0.6111
  344MPD2     N 5217   1.719   1.610  11.014  0.2492  0.0254 -0.3640
  344MPD2    H5 5218   1.776   1.695  11.018  1.1383 -0.5452 -0.8281
  344MPD2    N1 5219   1.628   1.190  11.268  0.1155 -0.6710  0.2599
  344MPD2    H7 5220   1.666   1.131  11.341 -2.2197  0.6996  2.6328
  345TMC3    C1 5221   1.631   1.710  10.827 -0.3706 -0.4649  0.0249
  345TMC3    C2 5222   1.756   1.748  10.808 -0.4361  0.0980 -0.0325
  345TMC3    C3 5223   1.772   1.871  10.751 -0.0702 -0.2437 -0.5754
  345TMC3    C4 5224   1.523   1.786  10.800  0.0887 -0.0712 -0.4459
  345TMC3    C5 5225   1.542   1.921  10.764  0.4720  0.0375 -0.1831
  345TMC3    C6 5226   1.666   1.961  10.731 -0.3026 -0.2619 -0.0388
  345TMC3     C 5227   1.612   1.611  10.928 -0.1581  0.0788 -0.4372
  345TMC3     O 5228   1.507   1.549  10.935  0.1032 -0.2392 -0.2185
  345TMC3     H 5229   1.835   1.673  10.809 -1.6744 -1.1834  1.3025
  345TMC3    H1 5230   1.429   1.764  10.848  0.7513 -2.0991 -0.0934
  345TMC3    H2 5231   1.685   2.061  10.694  1.8962 -1.1452 -1.2874
  345TMC3    C7 5232   1.436   2.008  10.732 -0.4854  0.4677 -0.0748
  345TMC3    C8 5233   1.898   1.912  10.695 -0.3565 -0.9687 -0.0254
  345TMC3    O1 5234   1.456   2.126  10.707  0.0635 -0.9585 -0.2726
  345TMC3    O2 5235   1.893   2.012  10.625 -0.3860  0.0392  0.3453
  346MPD2     C 5236   1.872   2.084  13.952  0.5478  0.7627  0.4112
  346MPD2    C1 5237   1.879   2.218  13.914 -0.0085  0.3039 -0.0863
  346MPD2    C2 5238   1.901   2.310  14.012 -0.1316 -0.2645 -0.0076
  346MPD2    C3 5239   1.896   2.272  14.145 -0.0354  0.0754 -0.0111
  346MPD2    C4 5240   1.888   2.141  14.179  0.0595 -0.8390  0.0279
  346MPD2    C5 5241   1.872   2.046  14.082 -0.3559 -0.4473 -0.3934
  346MPD2     H 5242   1.922   2.411  13.981  2.2179 -1.1506 -1.3650
  346MPD2    H1 5243   1.874   2.108  14.281 -2.7540 -0.6731 -0.2984
  346MPD2    H2 5244   1.858   2.012  13.872  2.8458 -0.0288  0.7374
  346MPD2    H3 5245   1.880   1.947  14.124  0.7530 -0.2982 -0.2593
  346MPD2     N 5246   1.919   2.374  14.236 -0.0977  0.1954 -0.3218
  346MPD2    H5 5247   1.932   2.469  14.203 -0.8359  0.7430  0.9889
  346MPD2    N1 5248   1.891   2.257  13.781  0.4552  0.2218 -0.2880
  346MPD2    H7 5249   1.905   2.357  13.767  0.5900  0.7283  3.6171
  347TMC3    C1 5250   1.914   2.479  14.454 -1.5482 -0.0124  0.3668
  347TMC3    C2 5251   2.019   2.574  14.430 -0.1448 -0.2705 -0.1827
  347TMC3    C3 5252   2.083   2.639  14.537 -0.3475  0.6228  0.2312
  347TMC3    C4 5253   1.868   2.462  14.580 -0.0571 -0.6191  0.9018
  347TMC3    C5 5254   1.939   2.529  14.678  0.0181 -0.2049  0.0435
  347TMC3    C6 5255   2.041   2.609  14.662  0.3294 -0.0400 -0.3298
  347TMC3     C 5256   1.897   2.358  14.369  0.1795  0.4612  0.5511
  347TMC3     O 5257   1.889   2.257  14.437 -0.5370  0.1929  0.5252
  347TMC3     H 5258   2.050   2.596  14.329  0.8149  2.3821  0.6918
  347TMC3    H1 5259   1.788   2.390  14.594 -1.2064  0.3454 -0.7365
  347TMC3    H2 5260   2.093   2.651  14.748  0.4304  1.8591 -1.3232
  347TMC3    C7 5261   1.928   2.475  14.816 -0.1053  0.5501 -0.3480
  347TMC3    C8 5262   2.220   2.623  14.529  0.1757 -0.1288  0.0222
  347TMC3    O1 5263   1.949   2.558  14.907 -0.0097 -0.7740  0.3115
  347TMC3    O2 5264   2.250   2.533  14.609  0.0495 -0.3129  0.1581
  348MPD2     C 5265   0.563   2.196  12.187  0.1541  0.3147 -0.1845
  348MPD2    C1 5266   0.436   2.212  12.141 -0.0951 -0.3310  0.6794
  348MPD2    C2 5267   0.402   2.318  12.063 -0.0843  0.3467 -0.5548
  348MPD2    C3 5268   0.487   2.409  12.019  0.7278  0.1640 -0.4503
  348MPD2    C4 5269   0.614   2.393  12.063  0.4913 -0.4310 -0.0957
  348MPD2    C5 5270   0.656   2.285  12.142 -0.0984  0.0897  0.6303
  348MPD2     H 5271   0.301   2.327  12.022 -0.6982 -3.2462  0.2287
  348MPD2    H1 5272   0.689   2.466  12.036 -1.0663  1.0629 -0.3741
  348MPD2    H2 5273   0.596   2.120  12.257  2.4719  0.2149 -1.3570
  348MPD2    H3 5274   0.758   2.264  12.171  0.3441  3.5638  1.6207
  348MPD2     N 5275   0.435   2.511  11.940 -0.2123 -0.3210 -0.0728
  348MPD2    H5 5276   0.337   2.515  11.916  0.3705 -3.4876 -3.0430
  348MPD2    N1 5277   0.343   2.109  12.159  0.5234  0.1710 -0.5643
  348MPD2    H7 5278   0.244   2.118  12.139  0.7733  2.1073 -0.9597
  349TMC3    C1 5279   0.251   1.909  12.212 -0.0939 -0.2956  0.1892
  349TMC3    C2 5280   0.266   1.794  12.280  0.6818 -0.7090 -0.0475
  349TMC3    C3 5281   0.155   1.718  12.314  0.8607 -0.5011 -0.3561
  349TMC3    C4 5282   0.133   1.949  12.154  0.0827 -0.2883  0.0117
  349TMC3    C5 5283   0.019   1.875  12.183  0.3689  0.0619 -0.5969
  349TMC3    C6 5284   0.036   1.756  12.259 -0.2945  0.7995 -0.2940
  349TMC3     C 5285   0.370   1.985  12.206  0.6226  0.4354  0.5263
  349TMC3     O 5286   0.479   1.928  12.211  0.5044 -0.6336 -0.2923
  349TMC3     H 5287   0.363   1.766  12.318 -0.5043 -1.7878  2.1405
  349TMC3    H1 5288   0.130   2.036  12.088 -3.5541 -0.9198 -0.6402
  349TMC3    H2 5289   4.688   1.695  12.268  0.2775 -0.2371 -1.6274
  349TMC3    C7 5290   4.633   1.921  12.126  0.1537 -0.9065  0.2005
  349TMC3    C8 5291   0.182   1.615  12.410 -0.1809  0.9118  0.3642
  349TMC3    O1 5292   4.557   1.842  12.074 -0.0985  0.0309  0.1308
  349TMC3    O2 5293   0.296   1.595  12.459 -0.1036  0.6778  0.1909
  350MPD2     C 5294   4.356   0.629  10.672  0.9273  0.5953 -0.2688
  350MPD2    C1 5295   4.297   0.505  10.700 -0.6827 -0.2909  0.0854
  350MPD2    C2 5296   4.277   0.473  10.833  0.3857 -1.0637 -0.6366
  350MPD2    C3 5297   4.312   0.567  10.929  0.0792 -0.4927 -0.1996
  350MPD2    C4 5298   4.353   0.696  10.900  0.8577  1.0403 -0.7552
  350MPD2    C5 5299   4.381   0.726  10.767  0.1753  0.2735 -0.0740
  350MPD2     H 5300   4.231   0.381  10.865  2.7668 -3.0237 -2.8966
  350MPD2    H1 5301   4.370   0.766  10.981 -1.4971 -1.8000  2.1998
  350MPD2    H2 5302   4.380   0.659  10.571 -4.3321 -3.0739 -2.5816
  350MPD2    H3 5303   4.421   0.822  10.736 -0.6253  0.7582  0.3956
  350MPD2     N 5304   4.299   0.516  11.064 -0.3908 -0.3846  0.1008
  350MPD2    H5 5305   4.242   0.435  11.084 -0.9451  0.1305  0.6455
  350MPD2    N1 5306   4.261   0.414  10.599 -0.1511  0.3086  0.8189
  350MPD2    H7 5307   4.249   0.321  10.636  0.8997  0.0167  0.4321
  351TMC3    C1 5308   4.278   0.303  10.397  0.2991 -0.1483 -0.3491
  351TMC3    C2 5309   4.241   0.187  10.458 -0.4317  0.5255 -0.0767
  351TMC3    C3 5310   4.260   0.068  10.388 -0.8367 -0.1421  0.1631
  351TMC3    C4 5311   4.341   0.302  10.274  0.1103 -0.2302 -0.2511
  351TMC3    C5 5312   4.376   0.185  10.212 -0.0247  0.1000 -0.3348
  351TMC3    C6 5313   4.333   0.064  10.276 -0.2011  0.3212 -0.1444
  351TMC3     C 5314   4.283   0.435  10.460  0.4535 -0.4212  0.0255
  351TMC3     O 5315   4.325   0.528  10.396  0.3141 -0.3854  0.0903
  351TMC3     H 5316   4.195   0.174  10.556 -1.9369  1.4868 -0.6513
  351TMC3    H1 5317   4.356   0.399  10.228  0.1330  0.3342  0.9220
  351TMC3    H2 5318   4.358   4.709  10.232 -1.8412 -0.3553  0.3955
  351TMC3    C7 5319   4.444   0.172  10.081  0.5975 -0.0626  0.1243
  351TMC3    C8 5320   4.211   4.677  10.432 -0.4220  0.0831 -0.8179
  351TMC3    O1 5321   4.465   0.062  10.023  0.1954 -0.3251  0.3174
  351TMC3    O2 5322   4.265   4.585  10.379  0.2714 -0.3662  0.2991
  352MPD2     C 5323   2.720   2.647   0.802  0.2917  0.2007  0.1023
  352MPD2    C1 5324   2.618   2.563   0.768  0.0977 -0.2996 -0.5097
  352MPD2    C2 5325   2.645   2.425   0.754 -0.1624  0.4982  0.1855
  352MPD2    C3 5326   2.769   2.377   0.792 -0.1234  0.0683 -0.2583
  352MPD2    C4 5327   2.875   2.462   0.819 -0.0003 -0.4623  0.1159
  352MPD2    C5 5328   2.847   2.598   0.818 -0.0047 -0.5664 -0.1878
  352MPD2     H 5329   2.566   2.357   0.727  1.1806  0.3672 -3.3550
  352MPD2    H1 5330   2.973   2.418   0.835  0.3303  0.1627 -0.2132
  352MPD2    H2 5331   2.705   2.754   0.811  0.3545  0.0317  2.1291
  352MPD2    H3 5332   2.922   2.673   0.838  0.9052 -1.5833  0.1976
  352MPD2     N 5333   2.796   2.237   0.802  0.2387  0.5446  0.0531
  352MPD2    H5 5334   2.893   2.219   0.829  0.7203 -0.8593 -2.6549
  352MPD2    N1 5335   2.489   2.605   0.734 -0.6965  0.8372 -0.0657
  352MPD2    H7 5336   2.421   2.531   0.724 -0.3151  0.3828  0.6477
  353TMC3    C1 5337   2.776   2.011   0.838  0.3621 -0.1556 -0.4486
  353TMC3    C2 5338   2.905   2.014   0.874 -0.8443 -0.5370 -0.6360
  353TMC3    C3 5339   2.954   1.889   0.904  0.8499 -0.9009 -0.4054
  353TMC3    C4 5340   2.702   1.898   0.810  0.2705 -0.3419 -0.1197
  353TMC3    C5 5341   2.763   1.776   0.837 -0.0895 -0.3418  0.1362
  353TMC3    C6 5342   2.890   1.771   0.880 -0.1256 -0.7086 -0.2502
  353TMC3     C 5343   2.707   2.137   0.806  0.8776 -0.1409 -0.5742
  353TMC3     O 5344   2.582   2.132   0.789  0.4462  0.1522 -0.0167
  353TMC3     H 5345   2.954   2.100   0.919 -4.3142  0.4902  1.1293
  353TMC3    H1 5346   2.602   1.900   0.768 -0.1808 -0.1887  0.9672
  353TMC3    H2 5347   2.936   1.673   0.889  1.8803  0.3197  0.6604
  353TMC3    C7 5348   2.688   1.647   0.825  0.0456 -0.2764  0.2801
  353TMC3    C8 5349   3.092   1.878   0.943 -0.0531  0.0152  0.0304
  353TMC3    O1 5350   2.745   1.540   0.821  0.3701  0.6284  0.0073
  353TMC3    O2 5351   3.172   1.974   0.950 -0.3138 -0.1248 -0.1896
  354TMC3    C1 5352   4.519   2.806  13.099  0.1376  0.7622  0.6402
  354TMC3    C2 5353   4.494   2.942  13.093 -0.2241 -0.1520 -0.2267
  354TMC3    C3 5354   4.564   3.020  13.005  0.0121  0.3873  0.1648
  354TMC3    C4 5355   4.597   2.739  13.009  0.4131  0.4088  0.0275
  354TMC3    C5 5356   4.674   2.826  12.928 -0.0942 -0.0947 -0.1433
  354TMC3    C6 5357   4.666   2.963  12.925 -0.1231  0.1553 -0.0876
  354TMC3     C 5358   4.471   2.744  13.215 -0.3854 -0.2077  0.4458
  354TMC3     O 5359   4.361   2.792  13.248 -0.1673  0.3247  1.0758
  354TMC3     H 5360   4.430   2.982  13.171  1.1477 -0.9850  1.3184
  354TMC3    H1 5361   4.615   2.635  13.033  0.0638  0.7807  1.9190
  354TMC3    H2 5362   4.705   3.025  12.845 -1.7601 -0.3149 -1.2445
  354TMC3    C7 5363   0.055   2.774  12.870 -0.1610 -0.2632 -0.1021
  354TMC3    C8 5364   4.569   3.163  13.018  0.7148  0.1969  0.1585
  354TMC3    O1 5365   0.074   2.652  12.873 -0.3924 -0.3202 -0.4329
  354TMC3    O2 5366   4.639   3.226  12.942 -0.3935  0.2231 -0.1372
  355MPD2     C 5367   4.544   4.385  11.933  0.4513  0.1419 -0.0699
  355MPD2    C1 5368   4.601   4.448  11.826  0.9291 -0.5638 -0.1299
  355MPD2    C2 5369   4.738   4.458  11.825 -0.1639 -0.4393 -0.7279
  355MPD2    C3 5370   0.072   4.414  11.927  0.0091 -0.7472  0.0023
  355MPD2    C4 5371   0.011   4.357  12.039 -0.7782  0.1664  0.4891
  355MPD2    C5 5372   4.619   4.349  12.039 -0.2368 -0.5425 -0.7574
  355MPD2     H 5373   0.045   4.500  11.737  0.0911 -0.0417 -0.4002
  355MPD2    H1 5374   0.077   4.314  12.113 -0.5176 -0.7506 -0.2589
  355MPD2    H2 5375   4.437   4.373  11.943  0.6737 -1.8407  0.0453
  355MPD2    H3 5376   4.569   4.296  12.120 -0.4326  0.0742 -0.4791
  355MPD2     N 5377   0.210   4.418  11.927 -0.2698  0.2215 -0.4314
  355MPD2    H5 5378   0.256   4.399  12.015 -1.4766 -0.1093  0.1289
  355MPD2    N1 5379   4.516   4.503  11.728 -0.5864  0.4961  0.5394
  355MPD2    H7 5380   4.420   4.476  11.748 -0.5945  0.3279  0.2773
  356TMC3    C1 5381   0.390   4.562  11.897  0.6984 -0.8608  0.0327
  356TMC3    C2 5382   0.462   4.652  11.828  0.1712 -0.1467 -0.1624
  356TMC3    C3 5383   0.510   0.020  11.889  0.7027 -0.5170 -0.4264
  356TMC3    C4 5384   0.374   4.582  12.028  0.8563 -0.2850  0.0728
  356TMC3    C5 5385   0.425   4.691  12.091 -0.6620 -0.6675  0.7388
  356TMC3    C6 5386   0.504   0.044  12.026 -0.7092  0.0752 -0.2510
  356TMC3     C 5387   0.281   4.491  11.839 -0.7451  0.4259 -0.4373
  356TMC3     O 5388   0.257   4.544  11.729 -0.0879 -0.1331  0.2772
  356TMC3     H 5389   0.474   4.639  11.721  1.9955  4.2309 -0.5052
  356TMC3    H1 5390   0.341   4.509  12.101 -0.8112  1.3704  0.9723
  356TMC3    H2 5391   0.544   0.136  12.069 -2.1435  0.7067 -0.2854
  356TMC3    C7 5392   0.435   4.687  12.237  0.6498 -0.3413  0.1478
  356TMC3    C8 5393   0.554   0.127  11.796  0.7316 -0.0320 -0.5272
  356TMC3    O1 5394   0.442   4.579  12.293 -0.8392 -0.3006  0.0742
  356TMC3    O2 5395   0.533   0.108  11.676 -0.7463  0.1131 -0.1930
  357MPD2     C 5396   3.839   4.183   0.538 -0.7175 -0.5494  0.2517
  357MPD2    C1 5397   3.867   4.056   0.490  0.1357  0.4021 -0.0270
  357MPD2    C2 5398   3.768   3.971   0.443  0.3812 -0.6510  0.2447
  357MPD2    C3 5399   3.640   4.023   0.428 -0.4423 -0.8091  0.2938
  357MPD2    C4 5400   3.615   4.149   0.464  0.4151  0.1774 -0.1576
  357MPD2    C5 5401   3.707   4.221   0.534  0.4516  0.1074  0.3678
  357MPD2     H 5402   3.790   3.872   0.404  0.0132 -1.1131  1.2110
  357MPD2    H1 5403   3.522   4.201   0.445 -0.6953 -1.1260  1.6795
  357MPD2    H2 5404   3.925   4.247   0.557  0.6337 -1.9473 -1.2047
  357MPD2    H3 5405   3.683   4.325   0.556  2.3867  0.4656  0.7947
  357MPD2     N 5406   3.530   3.947   0.373 -0.2716  0.4636  0.2916
  357MPD2    H5 5407   3.437   3.988   0.370 -0.1157  0.7212 -0.8517
  357MPD2    N1 5408   4.007   4.026   0.485 -0.0582 -0.3795 -0.1619
  357MPD2    H7 5409   4.076   4.090   0.524  1.2578  0.3078 -3.6431
  358TMC3    C1 5410   4.209   3.896   0.453 -0.3686  0.3359  0.3565
  358TMC3    C2 5411   4.270   3.802   0.372 -0.3207  0.0840  0.2804
  358TMC3    C3 5412   4.405   3.775   0.389  0.9909  0.1644 -0.2866
  358TMC3    C4 5413   4.278   3.960   0.556 -0.3176 -0.8531  0.4946
  358TMC3    C5 5414   4.414   3.933   0.573 -0.5152 -0.5389 -0.1013
  358TMC3    C6 5415   4.475   3.856   0.475 -0.3693  0.6169 -0.2374
  358TMC3     C 5416   4.066   3.906   0.430 -0.0483 -0.4657  0.0552
  358TMC3     O 5417   4.016   3.812   0.370 -0.2964  0.6867  0.2969
  358TMC3     H 5418   4.212   3.747   0.299 -1.7070 -0.2855  1.6633
  358TMC3    H1 5419   4.225   4.037   0.610 -0.9023 -2.0466  1.6216
  358TMC3    H2 5420   4.579   3.833   0.494 -0.4948  0.3182  0.0869
  358TMC3    C7 5421   4.483   3.942   0.705  0.1368  0.2261 -0.2497
  358TMC3    C8 5422   4.472   3.697   0.287 -1.2936  0.0552  0.2529
  358TMC3    O1 5423   4.606   3.930   0.705 -0.3308  0.5312 -0.5739
  358TMC3    O2 5424   4.429   3.699   0.171 -0.0181  0.3075 -0.3926
  359MPD2     C 5425   3.916   3.031  12.324  0.1349  0.1088  0.3514
  359MPD2    C1 5426   3.983   2.928  12.262 -0.9361  0.1812  0.1633
  359MPD2    C2 5427   3.920   2.809  12.233 -0.1119 -0.7443 -0.5165
  359MPD2    C3 5428   3.791   2.790  12.277  0.4865 -0.1032 -0.8971
  359MPD2    C4 5429   3.732   2.894  12.348  0.0777  0.2469  0.5645
  359MPD2    C5 5430   3.788   3.011  12.363  0.8212  0.3073  0.2338
  359MPD2     H 5431   3.962   2.724  12.181 -0.6510 -2.2432  1.5260
  359MPD2    H1 5432   3.631   2.879  12.385 -0.1278  0.4882  0.1065
  359MPD2    H2 5433   3.966   3.126  12.339 -3.0112  1.6771  0.8274
  359MPD2    H3 5434   3.723   3.087  12.406  0.0745  0.3230 -0.9250
  359MPD2     N 5435   3.714   2.682  12.251  0.2523  0.9583  0.1735
  359MPD2    H5 5436   3.617   2.698  12.277 -0.0599  1.1499 -1.1421
  359MPD2    N1 5437   4.123   2.935  12.226  0.0554  0.1935 -0.6982
  359MPD2    H7 5438   4.157   2.869  12.157 -0.5254  1.3934 -2.1376
  360TMC3    C1 5439   4.342   3.025  12.217  0.0034  0.3213 -0.9236
  360TMC3    C2 5440   4.443   3.072  12.299 -0.5002  0.1555  0.4068
  360TMC3    C3 5441   4.569   3.058  12.251  1.1182  0.2933  0.1451
  360TMC3    C4 5442   4.368   2.938  12.110 -0.3796  0.4903  0.0817
  360TMC3    C5 5443   4.505   2.916  12.078  0.7189  0.0862  0.4118
  360TMC3    C6 5444   4.597   2.978  12.146 -0.2991  0.2600 -0.5535
  360TMC3     C 5445   4.210   3.028  12.275  0.5497 -0.8379 -0.4756
  360TMC3     O 5446   4.193   3.113  12.356 -0.0687  0.3497  0.2552
  360TMC3     H 5447   4.420   3.149  12.373 -2.3611  0.0898 -0.0829
  360TMC3    H1 5448   4.291   2.918  12.038  0.6568  1.4078 -1.2811
  360TMC3    H2 5449   4.698   2.972  12.109 -0.3076 -0.3219 -0.4773
  360TMC3    C7 5450   4.524   2.889  11.937 -0.7773 -0.1385 -0.5037
  360TMC3    C8 5451   4.640   3.186  12.257  0.2330 -0.5873  0.3353
  360TMC3    O1 5452   4.627   2.940  11.891 -0.2907  0.3338 -0.2697
  360TMC3    O2 5453   4.579   3.288  12.294 -0.3378  0.1871  0.5312
  361MPD2     C 5454   1.960   1.546  16.566 -0.0038 -0.8837 -0.3259
  361MPD2    C1 5455   1.888   1.518  16.680  0.3466 -0.0702 -0.1278
  361MPD2    C2 5456   1.957   1.443  16.777 -0.3391 -0.1553  0.8374
  361MPD2    C3 5457   2.092   1.410  16.763 -0.1942  0.1120 -0.0216
  361MPD2    C4 5458   2.163   1.455  16.654 -0.3412 -0.3218  0.4869
  361MPD2    C5 5459   2.099   1.526  16.560  0.0127 -0.3021 -0.1010
  361MPD2     H 5460   1.899   1.416  16.864 -0.9217 -2.9278 -0.3903
  361MPD2    H1 5461   2.271   1.447  16.650 -0.3584  0.0862 -0.9455
  361MPD2    H2 5462   1.915   1.605  16.487 -1.7119 -2.1466 -0.3168
  361MPD2    H3 5463   2.157   1.587  16.492 -2.4320  0.9756 -1.0300
  361MPD2     N 5464   2.142   1.329  16.866  0.5745  0.8042  0.4171
  361MPD2    H5 5465   2.079   1.293  16.937  0.9556  1.4986  1.1015
  361MPD2    N1 5466   1.751   1.543  16.704 -0.2843 -0.3076 -0.6115
  361MPD2    H7 5467   1.719   1.525  16.799  0.3601 -2.5517 -0.8380
  362TMC3    C1 5468   1.528   1.585  16.663  0.3064  0.1819 -0.3690
  362TMC3    C2 5469   1.514   1.633  16.791  0.0828  0.5630 -0.3071
  362TMC3    C3 5470   1.393   1.682  16.835 -0.0243 -0.0815  0.4780
  362TMC3    C4 5471   1.414   1.579  16.584  0.3298 -0.0920  0.2770
  362TMC3    C5 5472   1.291   1.613  16.632  0.1536 -0.2656 -0.2118
  362TMC3    C6 5473   1.284   1.673  16.752  0.1246  0.3079  0.1268
  362TMC3     C 5474   1.659   1.580  16.607 -0.0556 -0.2878  0.5382
  362TMC3     O 5475   1.676   1.592  16.484 -0.1547  0.1528 -0.2299
  362TMC3     H 5476   1.599   1.649  16.855  1.0292 -1.5906 -1.0336
  362TMC3    H1 5477   1.426   1.525  16.491  1.6550 -1.3081  1.1518
  362TMC3    H2 5478   1.187   1.717  16.775 -0.3974 -0.8199  0.1312
  362TMC3    C7 5479   1.225   1.682  16.520 -0.2245 -0.1230  0.1190
  362TMC3    C8 5480   1.392   1.767  16.957 -0.1736  0.0627  0.5430
  362TMC3    O1 5481   1.222   1.804  16.524  0.4892 -0.4409  0.5198
  362TMC3    O2 5482   1.499   1.814  16.992 -0.0350  1.0131 -0.4612
  363TMC3    C1 5483   3.539   3.530   9.970 -0.2407 -0.7064 -0.1741
  363TMC3    C2 5484   3.672   3.545   9.998 -0.4477 -0.2091  0.0321
  363TMC3    C3 5485   3.743   3.639   9.933 -0.0023  0.5886  0.9817
  363TMC3    C4 5486   3.480   3.603   9.866  0.2612 -0.7964 -0.5718
  363TMC3    C5 5487   3.555   3.707   9.813  0.3734  0.0580 -0.1601
  363TMC3    C6 5488   3.691   3.728   9.845  0.0798  0.0206 -0.2049
  363TMC3     C 5489   3.459   3.416  10.009 -0.0682 -0.0447 -1.1022
  363TMC3     O 5490   3.338   3.418   9.989 -0.2923  0.0203 -0.1780
  363TMC3     H 5491   3.731   3.482  10.064  0.5371  0.5058 -0.1687
  363TMC3    H1 5492   3.377   3.593   9.835 -0.2015  0.0237  0.7030
  363TMC3    H2 5493   3.747   3.789   9.776 -1.3764 -0.0362 -1.4333
  363TMC3    C7 5494   3.504   3.759   9.685 -0.2474  0.4364 -0.2635
  363TMC3    C8 5495   3.873   3.668   9.994  0.5413 -0.3846  0.6787
  363TMC3    O1 5496   3.426   3.687   9.622  0.1297  0.0893  0.0035
  363TMC3    O2 5497   3.942   3.573  10.023 -0.4915 -0.7014  0.3252
  364MPD2     C 5498   3.055   3.390  10.510 -0.3826  0.4079 -0.3444
  364MPD2    C1 5499   3.091   3.508  10.568 -0.0192 -0.0015  1.0397
  364MPD2    C2 5500   3.219   3.532  10.608 -0.1856  0.2012  0.1951
  364MPD2    C3 5501   3.313   3.433  10.582 -0.3386 -0.1166  0.3253
  364MPD2    C4 5502   3.278   3.319  10.519  0.4849 -0.6122 -0.1121
  364MPD2    C5 5503   3.147   3.294  10.492 -0.5303  0.3028 -0.6759
  364MPD2     H 5504   3.242   3.628  10.653 -1.7690 -0.5086  2.5008
  364MPD2    H1 5505   3.355   3.249  10.489  1.4974  0.7367 -0.6808
  364MPD2    H2 5506   2.957   3.366  10.472 -0.4561 -0.9564  0.7117
  364MPD2    H3 5507   3.120   3.204  10.438 -0.1539  0.1014 -0.5224
  364MPD2     N 5508   3.451   3.451  10.613 -0.1158 -0.7033  0.0947
  364MPD2    H5 5509   3.506   3.367  10.602  1.5186  0.3407  0.1935
  364MPD2    N1 5510   2.993   3.609  10.572 -0.2989 -0.4852 -0.1946
  364MPD2    H7 5511   2.903   3.589  10.531 -0.8193  0.5547  0.4272
  365TMC3    C1 5512   2.909   3.820  10.559 -0.2409 -1.1282 -0.2571
  365TMC3    C2 5513   2.908   3.814  10.420  0.4420 -0.3910  0.9878
  365TMC3    C3 5514   2.915   3.928  10.344 -0.2905  0.5781  0.2463
  365TMC3    C4 5515   2.892   3.943  10.616  0.5957  0.0934 -0.0782
  365TMC3    C5 5516   2.886   4.057  10.536 -0.5965  0.6028 -1.1775
  365TMC3    C6 5517   2.902   4.053  10.405 -0.5793  0.2516  0.5894
  365TMC3     C 5518   3.007   3.737  10.616 -0.1531  0.3846 -0.2867
  365TMC3     O 5519   3.091   3.784  10.693 -0.4516  0.5861 -0.0475
  365TMC3     H 5520   2.927   3.715  10.379  0.6593  0.8202 -1.8872
  365TMC3    H1 5521   2.897   3.943  10.724 -0.7869  0.4307 -0.0184
  365TMC3    H2 5522   2.921   4.144  10.348 -2.8729  0.2091 -0.2372
  365TMC3    C7 5523   2.893   4.188  10.609  0.6983 -0.1600 -0.3747
  365TMC3    C8 5524   2.965   3.932  10.214  0.5040 -0.5213 -0.1851
  365TMC3    O1 5525   2.942   4.282  10.542 -0.1243  0.5054  0.2079
  365TMC3    O2 5526   3.006   4.040  10.178  0.3467 -0.3777 -0.2247
  366MPD2     C 5527   1.975   3.844  15.493  0.1054 -0.4767  0.0832
  366MPD2    C1 5528   1.986   3.978  15.533  0.1733 -0.6928  0.8986
  366MPD2    C2 5529   2.055   4.057  15.444 -0.9819  0.0186 -0.7510
  366MPD2    C3 5530   2.099   4.016  15.320  0.1394 -1.0219 -0.3276
  366MPD2    C4 5531   2.080   3.891  15.282  0.3139 -0.3948  0.3309
  366MPD2    C5 5532   2.015   3.799  15.363  0.4480 -0.2147  0.2823
  366MPD2     H 5533   2.088   4.154  15.480 -1.7794 -0.8230  2.2370
  366MPD2    H1 5534   2.114   3.858  15.184 -0.6167 -0.3947  0.0123
  366MPD2    H2 5535   1.918   3.787  15.565  2.9797 -2.1750  0.9831
  366MPD2    H3 5536   1.997   3.696  15.333  2.2840  0.0733 -1.8240
  366MPD2     N 5537   2.174   4.107  15.244  0.2696  0.3880  0.4371
  366MPD2    H5 5538   2.199   4.196  15.286  1.0336  0.2578  0.2559
  366MPD2    N1 5539   1.945   4.014  15.670 -0.6000 -0.4060 -0.0791
  366MPD2    H7 5540   1.934   3.927  15.720 -0.8222  0.1021  0.7613
  367TMC3    C1 5541   1.956   4.257  15.659  0.1028 -0.7790  0.3327
  367TMC3    C2 5542   2.042   4.342  15.712  0.0897  0.5825 -0.3960
  367TMC3    C3 5543   2.064   4.465  15.652 -0.0808  0.3054  0.1184
  367TMC3    C4 5544   1.876   4.298  15.559  0.6424 -0.3011  0.9128
  367TMC3    C5 5545   1.884   4.425  15.513  0.0438 -0.7093 -0.0219
  367TMC3    C6 5546   1.985   4.506  15.549  0.0592 -0.0043 -0.0187
  367TMC3     C 5547   1.941   4.132  15.737  0.0883 -0.0986 -0.1683
  367TMC3     O 5548   1.913   4.152  15.853 -0.0008 -0.2670  0.7662
  367TMC3     H 5549   2.097   4.328  15.804  0.6847  2.3317 -0.4810
  367TMC3    H1 5550   1.801   4.229  15.522 -1.1823  1.3587  1.5531
  367TMC3    H2 5551   1.996   4.599  15.495 -0.2922  1.1338  1.8863
  367TMC3    C7 5552   1.774   4.494  15.449  0.1195  0.4541  0.2795
  367TMC3    C8 5553   2.128   4.567  15.733 -0.0847 -0.4130  0.4937
  367TMC3    O1 5554   1.794   4.616  15.441 -0.1893 -0.0748  0.0971
  367TMC3    O2 5555   2.125   4.561  15.856  0.1143 -0.7366 -1.0122
  368MPD2     C 5556   3.142   1.878  13.319 -0.0864  0.1327  0.6210
  368MPD2    C1 5557   3.124   1.843  13.184  0.0519  0.2950  0.0244
  368MPD2    C2 5558   3.225   1.783  13.109 -0.0960 -0.1353  0.4206
  368MPD2    C3 5559   3.354   1.770  13.154  0.5332 -0.2046  0.2711
  368MPD2    C4 5560   3.370   1.818  13.286  0.4258 -0.0202  0.1652
  368MPD2    C5 5561   3.270   1.863  13.369  0.7956  0.0217 -0.4039
  368MPD2     H 5562   3.205   1.754  13.007 -1.2439 -0.4256  0.7225
  368MPD2    H1 5563   3.471   1.829  13.323  0.5279 -1.0670  0.2100
  368MPD2    H2 5564   3.061   1.916  13.379 -0.7710 -1.5621  0.7737
  368MPD2    H3 5565   3.297   1.890  13.471  3.2692  1.5494 -1.4620
  368MPD2     N 5566   3.460   1.724  13.076 -0.1352 -0.3421 -0.0186
  368MPD2    H5 5567   3.555   1.736  13.108 -0.3769 -1.9005  1.3122
  368MPD2    N1 5568   3.003   1.892  13.129  0.6087  0.3393  0.3780
  368MPD2    H7 5569   2.928   1.924  13.189  0.7174  0.3499  0.5073
  369TMC3    C1 5570   2.870   1.992  12.964  0.5932 -0.1565 -0.0322
  369TMC3    C2 5571   2.876   2.090  12.880 -0.5726 -0.3381  0.3341
  369TMC3    C3 5572   2.763   2.162  12.847 -0.5928  0.3585 -0.1430
  369TMC3    C4 5573   2.759   1.960  13.035 -0.0054 -0.3096  0.1117
  369TMC3    C5 5574   2.650   2.031  13.003 -0.0415 -0.1319 -0.1912
  369TMC3    C6 5575   2.647   2.139  12.916 -0.3514 -0.6704 -0.1525
  369TMC3     C 5576   2.992   1.924  12.999  0.5360  0.5469 -0.1117
  369TMC3     O 5577   3.074   1.916  12.909 -0.8395 -0.6125  0.4050
  369TMC3     H 5578   2.971   2.105  12.830 -0.2603  1.0361  1.3247
  369TMC3    H1 5579   2.749   1.872  13.097 -1.7948 -0.4920 -0.4593
  369TMC3    H2 5580   2.559   2.203  12.912  0.2873  0.3687  2.1450
  369TMC3    C7 5581   2.540   2.025  13.094  0.0577  0.1091 -1.0040
  369TMC3    C8 5582   2.760   2.247  12.735 -0.2910  0.1917 -0.3473
  369TMC3    O1 5583   2.566   2.048  13.211  0.2424 -0.6610  0.7787
  369TMC3    O2 5584   2.677   2.337  12.724  0.7978 -0.4312  0.4788
  370TMC3    C1 5585   2.886   2.204  16.392 -0.5906  0.4748  0.2223
  370TMC3    C2 5586   2.846   2.118  16.489  0.5700  0.0279  0.5287
  370TMC3    C3 5587   2.812   1.995  16.450 -0.0518 -0.4736 -0.1718
  370TMC3    C4 5588   2.904   2.159  16.261  0.4839 -0.9393 -0.3266
  370TMC3    C5 5589   2.892   2.023  16.234  0.4448  0.1232 -0.1951
  370TMC3    C6 5590   2.855   1.934  16.332  0.3883  0.1200  0.3591
  370TMC3     C 5591   2.955   2.329  16.441 -0.2458 -0.4105  0.3781
  370TMC3     O 5592   2.988   2.324  16.561 -0.0639 -0.4166 -0.2622
  370TMC3     H 5593   2.841   2.152  16.592  2.4808  0.6713  0.4059
  370TMC3    H1 5594   2.940   2.232  16.189  1.7008 -2.4148 -1.1892
  370TMC3    H2 5595   2.834   1.831  16.307  1.5886  0.5155 -2.2331
  370TMC3    C7 5596   2.966   1.961  16.123  0.2318  0.3477 -0.2466
  370TMC3    C8 5597   2.778   1.904  16.559  0.5576  0.4194 -0.2818
  370TMC3    O1 5598   3.005   2.042  16.038  0.2956  0.0556 -0.0272
  370TMC3    O2 5599   2.826   1.790  16.559 -0.3994 -0.9543  0.2057
  371TMC3    C1 5600   4.229   0.662  15.494  0.3959  1.3641 -0.4782
  371TMC3    C2 5601   4.103   0.635  15.550  0.3720 -0.5498  0.3168
  371TMC3    C3 5602   4.051   0.721  15.645  0.0194  0.3619 -0.0220
  371TMC3    C4 5603   4.296   0.778  15.518  0.0091  0.4221 -0.4372
  371TMC3    C5 5604   4.234   0.869  15.610  0.0983 -0.3704 -0.1806
  371TMC3    C6 5605   4.117   0.838  15.682 -0.0004 -0.8226  0.5172
  371TMC3     C 5606   4.302   0.545  15.447 -0.3500 -0.0379  0.0101
  371TMC3     O 5607   4.421   0.561  15.415 -0.5203 -0.1361  0.5119
  371TMC3     H 5608   4.040   0.549  15.529  0.3404 -0.5485  0.4055
  371TMC3    H1 5609   4.399   0.797  15.489 -0.1525 -0.6582 -1.6832
  371TMC3    H2 5610   4.078   0.904  15.759  0.1385  0.4791 -0.5226
  371TMC3    C7 5611   4.271   1.007  15.600  0.6505  1.0866 -0.3864
  371TMC3    C8 5612   3.962   0.663  15.749 -0.0094  0.2319 -0.2361
  371TMC3    O1 5613   4.250   1.067  15.705 -0.2802 -0.2745 -0.3269
  371TMC3    O2 5614   3.944   0.540  15.743  0.2327  0.2322  0.3645
  372MPD2     C 5615   3.041   2.276  13.528 -0.3521  0.5370  0.0098
  372MPD2    C1 5616   3.166   2.239  13.576 -0.1473  0.5143  0.2569
  372MPD2    C2 5617   3.172   2.141  13.669  0.4246  0.1289  0.3222
  372MPD2    C3 5618   3.054   2.077  13.712  0.1468 -0.2659 -0.1592
  372MPD2    C4 5619   2.935   2.118  13.673 -0.4786  0.2430  0.7399
  372MPD2    C5 5620   2.926   2.218  13.587  0.8272  0.9342  0.9865
  372MPD2     H 5621   3.266   2.093  13.696  1.3262  0.6228 -1.9373
  372MPD2    H1 5622   2.843   2.090  13.722 -1.4677  0.6480 -0.8640
  372MPD2    H2 5623   3.024   2.354  13.455 -2.2526  1.2351  1.2000
  372MPD2    H3 5624   2.828   2.258  13.564 -0.1820 -2.1556 -0.0573
  372MPD2     N 5625   3.060   1.960  13.786  0.3300 -0.1561  0.0601
  372MPD2    H5 5626   3.149   1.936  13.827  0.6361  0.0997 -0.4514
  372MPD2    N1 5627   3.278   2.292  13.520  0.3738 -0.2723  0.2063
  372MPD2    H7 5628   3.365   2.251  13.552 -0.2019 -0.5896  1.3819
  373TMC3    C1 5629   3.015   1.767  13.903 -0.1849  0.0721 -0.2182
  373TMC3    C2 5630   3.071   1.811  14.021  0.7574  0.5581 -0.5103
  373TMC3    C3 5631   3.113   1.719  14.113 -0.3707  0.6808  0.4455
  373TMC3    C4 5632   3.014   1.636  13.870 -0.8245 -0.4919 -0.0665
  373TMC3    C5 5633   3.063   1.544  13.965 -0.2337  0.5587 -0.5297
  373TMC3    C6 5634   3.100   1.582  14.088 -0.1967  0.2586 -0.4140
  373TMC3     C 5635   2.956   1.870  13.816 -0.2502 -0.0104 -0.0952
  373TMC3     O 5636   2.837   1.867  13.790 -0.1971  0.0727  0.1459
  373TMC3     H 5637   3.098   1.914  14.040 -1.4925  1.1156 -0.3326
  373TMC3    H1 5638   2.978   1.608  13.772 -1.6158 -0.4194  0.2029
  373TMC3    H2 5639   3.125   1.503  14.158  1.2853 -0.9492 -2.2835
  373TMC3    C7 5640   3.161   1.464  13.901  0.5581 -0.1764 -0.1883
  373TMC3    C8 5641   3.205   1.765  14.213  0.5513  0.9409  0.1869
  373TMC3    O1 5642   3.129   1.409  13.795  0.1390  0.8215 -0.3206
  373TMC3    O2 5643   3.242   1.882  14.203 -0.1199 -0.3697  0.4013
  374TMC3    C1 5644   4.032   1.830  10.271  0.2072 -0.4281 -0.0793
  374TMC3    C2 5645   4.100   1.949  10.277  1.1776 -0.6086 -0.2440
  374TMC3    C3 5646   4.107   2.027  10.164 -0.0175 -0.2870 -0.1886
  374TMC3    C4 5647   3.967   1.785  10.164 -0.7898 -0.3295  0.2313
  374TMC3    C5 5648   3.970   1.873  10.061 -0.0969  0.5541  0.5087
  374TMC3    C6 5649   4.044   1.990  10.055 -0.6765 -0.3585 -0.1819
  374TMC3     C 5650   4.088   1.722  10.353  0.2426  0.0087  0.3981
  374TMC3     O 5651   4.205   1.740  10.388 -0.2865  0.1885 -0.0321
  374TMC3     H 5652   4.162   1.969  10.364 -0.2887 -0.1682  0.7082
  374TMC3    H1 5653   3.927   1.688  10.139  2.1097 -1.6752  0.7510
  374TMC3    H2 5654   4.041   2.064   9.976 -2.3312  0.2481  0.4631
  374TMC3    C7 5655   3.856   1.857   9.972  0.1842  0.6057 -0.1675
  374TMC3    C8 5656   4.223   2.107  10.146 -0.0069 -0.1150  0.1190
  374TMC3    O1 5657   3.769   1.776  10.003  0.0380  0.2812 -0.3824
  374TMC3    O2 5658   4.270   2.127  10.033 -0.6203  0.0631 -0.1541
  375MPD2     C 5659   4.364   2.502  17.130 -0.5059 -0.1276 -0.0695
  375MPD2    C1 5660   4.263   2.522  17.038  0.1612  0.4077  0.3480
  375MPD2    C2 5661   4.267   2.474  16.910  0.2072  0.4282 -0.1824
  375MPD2    C3 5662   4.376   2.396  16.871  0.2775 -0.6356 -0.2261
  375MPD2    C4 5663   4.476   2.373  16.963  0.2171 -0.1152  0.1162
  375MPD2    C5 5664   4.469   2.420  17.090  0.3522  0.1878 -0.4327
  375MPD2     H 5665   4.181   2.504  16.852 -0.1590 -0.9528 -0.3528
  375MPD2    H1 5666   4.566   2.319  16.939 -1.3075 -1.3946 -2.6300
  375MPD2    H2 5667   4.364   2.540  17.231 -4.1345  1.8096 -0.8039
  375MPD2    H3 5668   4.564   2.412  17.143  0.5602 -0.1331 -0.8611
  375MPD2     N 5669   4.396   2.347  16.740  0.2865  0.1979  0.5908
  375MPD2    H5 5670   4.484   2.298  16.730 -0.8646 -2.2516  2.5716
  375MPD2    N1 5671   4.138   2.585  17.080 -0.1291  0.6509  0.3048
  375MPD2    H7 5672   4.069   2.598  17.007 -0.6348  0.0306  0.6733
  376TMC3    C1 5673   4.345   2.332  16.508 -0.7273  0.3694  0.3851
  376TMC3    C2 5674   4.470   2.266  16.491 -0.1179 -0.4481  0.6133
  376TMC3    C3 5675   4.498   2.234  16.361 -0.1407 -0.1769 -0.1167
  376TMC3    C4 5676   4.253   2.344  16.406  0.2623 -0.7782  0.3230
  376TMC3    C5 5677   4.286   2.295  16.279  0.1673 -0.8575 -0.5750
  376TMC3    C6 5678   4.409   2.239  16.253 -0.0168  0.2877 -0.1795
  376TMC3     C 5679   4.309   2.386  16.637  0.3666 -0.2766  0.1800
  376TMC3     O 5680   4.211   2.459  16.634 -0.3103 -0.4560 -0.1489
  376TMC3     H 5681   4.545   2.264  16.570 -0.3522 -0.4077  0.8379
  376TMC3    H1 5682   4.153   2.379  16.430  0.0967 -0.0206 -1.4725
  376TMC3    H2 5683   4.441   2.214  16.152  1.2322  0.9447  0.0507
  376TMC3    C7 5684   4.186   2.322  16.170  0.6997  0.3781 -0.0805
  376TMC3    C8 5685   4.638   2.232  16.331 -0.4202  0.3076 -0.0752
  376TMC3    O1 5686   4.107   2.417  16.193  0.2191  0.7410  0.4962
  376TMC3    O2 5687   4.681   2.293  16.231  0.5001  0.5160  0.0666
  377MPD2     C 5688   1.608   2.329  12.561  0.0810  0.3017 -0.2878
  377MPD2    C1 5689   1.696   2.257  12.631  0.4919  0.1457  0.2942
  377MPD2    C2 5690   1.648   2.147  12.699  0.0773 -0.1061 -0.6491
  377MPD2    C3 5691   1.515   2.117  12.705 -0.0300  0.5833  0.7262
  377MPD2    C4 5692   1.427   2.195  12.634  0.2612  0.2107  0.0993
  377MPD2    C5 5693   1.471   2.300  12.561  0.1786  0.4965  0.8848
  377MPD2     H 5694   1.720   2.078  12.742 -0.5743 -0.9023 -0.8513
  377MPD2    H1 5695   1.320   2.181  12.639  0.2180  0.6572  0.4392
  377MPD2    H2 5696   1.649   2.405  12.496  1.3497 -0.4731 -0.3786
  377MPD2    H3 5697   1.407   2.359  12.495  0.4380  1.1708  1.2336
  377MPD2     N 5698   1.461   1.994  12.764  0.1396  0.3565  0.1192
  377MPD2    H5 5699   1.363   1.981  12.742 -0.1268 -0.3807  1.7840
  377MPD2    N1 5700   1.835   2.285  12.613 -0.0301  0.2313  0.4184
  377MPD2    H7 5701   1.866   2.327  12.526  0.4209 -1.1068 -0.0688
  378TMC3    C1 5702   2.197   2.341  12.442 -0.5217 -0.4678  0.2291
  378TMC3    C2 5703   2.082   2.343  12.515  0.4423  0.2388 -0.2767
  378TMC3    C3 5704   2.064   2.263  12.627 -0.0106  0.2278 -0.1516
  378TMC3    C4 5705   2.305   2.263  12.490 -0.4882  0.2519  0.4502
  378TMC3    C5 5706   2.292   2.193  12.606  0.0779  0.6209 -0.2777
  378TMC3    C6 5707   2.170   2.200  12.683 -0.4559 -0.4696 -0.4241
  378TMC3     C 5708   2.200   2.408  12.314 -0.1347  0.3728  0.3345
  378TMC3     O 5709   2.093   2.454  12.269  0.6833  0.6073 -0.2642
  378TMC3     H 5710   2.003   2.411  12.486  0.9035  0.7575 -0.3105
  378TMC3    H1 5711   2.408   2.295  12.476 -0.8566  1.0625 -0.4015
  378TMC3    H2 5712   2.159   2.139  12.773 -1.6588  1.3273  0.6537
  378TMC3    C7 5713   2.390   2.099  12.647 -0.5088  0.1735  0.2671
  378TMC3    C8 5714   1.938   2.236  12.691  0.5345 -0.1354  0.1841
  378TMC3    O1 5715   2.379   2.060  12.764  0.2052 -0.2613  0.3380
  378TMC3    O2 5716   1.930   2.185  12.800 -0.1049  0.4539 -0.5751
  379MPD2     C 5717   2.563   4.554  16.614  0.0108 -0.0524  0.1835
  379MPD2    C1 5718   2.692   4.613  16.594  0.3070 -0.6239 -0.0320
  379MPD2    C2 5719   2.786   4.595  16.689  0.1673 -0.0162  0.7155
  379MPD2    C3 5720   2.764   4.516  16.798  0.2528  0.3209  0.2436
  379MPD2    C4 5721   2.642   4.448  16.816  0.0689  0.3293 -0.4053
  379MPD2    C5 5722   2.542   4.492  16.732  0.2712  0.3568 -0.1324
  379MPD2     H 5723   2.877   4.653  16.672 -0.1089  1.1146  3.0911
  379MPD2    H1 5724   2.614   4.378  16.894  1.1114 -1.4667 -1.6300
  379MPD2    H2 5725   2.479   4.567  16.547  0.2029 -0.8069 -0.2105
  379MPD2    H3 5726   2.446   4.446  16.754  1.3772 -1.3732  1.0300
  379MPD2     N 5727   2.864   4.490  16.900  0.3986  0.0723 -0.2187
  379MPD2    H5 5728   2.839   4.452  16.991  0.0916 -1.0201 -0.7709
  379MPD2    N1 5729   2.727   4.689  16.478  0.3651 -0.0715  0.3886
  379MPD2    H7 5730   2.818   4.733  16.473  2.2738 -3.8670  1.4098
  380TMC3    C1 5731   2.682   0.079  16.280 -0.2428  0.6627 -0.9416
  380TMC3    C2 5732   2.813   0.128  16.271 -0.5407 -0.3427 -0.1532
  380TMC3    C3 5733   2.837   0.246  16.198  0.2001 -0.1921 -0.0201
  380TMC3    C4 5734   2.573   0.134  16.218 -0.1974  0.6869  0.1165
  380TMC3    C5 5735   2.604   0.240  16.139  0.3627 -0.0513  0.6001
  380TMC3    C6 5736   2.729   0.300  16.139 -0.6936  0.0193  0.0690
  380TMC3     C 5737   2.651   4.707  16.367  0.0434 -0.0443 -0.2079
  380TMC3     O 5738   2.551   4.642  16.336 -0.0887 -0.1282 -0.2436
  380TMC3     H 5739   2.900   0.077  16.309 -0.4080  0.6399  0.8664
  380TMC3    H1 5740   2.471   0.100  16.225  0.7390 -2.6236 -2.1423
  380TMC3    H2 5741   2.747   0.395  16.089 -0.0449 -0.1851 -0.0853
  380TMC3    C7 5742   2.526   0.260  16.019 -0.1710  0.5425  0.1657
  380TMC3    C8 5743   2.961   0.252  16.125  0.3326 -0.4178  0.5380
  380TMC3    O1 5744   2.578   0.346  15.952  0.3445  0.1118  0.8099
  380TMC3    O2 5745   2.965   0.313  16.021  0.0914  0.1150  0.6479
  381TMC3    C1 5746   3.062   1.204  16.539 -0.0186  0.6400 -0.0530
  381TMC3    C2 5747   3.112   1.326  16.496 -0.0271  0.7316 -0.9427
  381TMC3    C3 5748   3.091   1.442  16.573  0.4467 -0.1593  0.2185
  381TMC3    C4 5749   2.981   1.198  16.655 -0.1688 -0.0163 -0.3873
  381TMC3    C5 5750   2.958   1.313  16.719  0.7196 -0.1811  0.8915
  381TMC3    C6 5751   3.015   1.435  16.684  0.4405  0.1415  0.1118
  381TMC3     C 5752   3.145   1.089  16.501  0.2442 -0.0126  0.5408
  381TMC3     O 5753   3.240   1.111  16.429  0.1098 -0.4902 -0.3879
  381TMC3     H 5754   3.189   1.325  16.420  1.1552 -0.7328  0.2584
  381TMC3    H1 5755   2.929   1.115  16.702 -0.6559  1.6449  2.0316
  381TMC3    H2 5756   2.998   1.522  16.747  0.4304  0.9173 -0.9768
  381TMC3    C7 5757   2.873   1.308  16.834 -0.9350  0.0450 -0.1403
  381TMC3    C8 5758   3.167   1.562  16.531  0.4743 -0.1865  0.3761
  381TMC3    O1 5759   2.895   1.216  16.915 -0.1600 -0.1650  0.0973
  381TMC3    O2 5760   3.257   1.538  16.456 -0.2951 -0.2758 -0.5004
  382MPD2     C 5761   1.902   3.842  16.701 -0.4864 -0.0528  0.4532
  382MPD2    C1 5762   1.967   3.880  16.821  1.1662 -0.0722  0.3992
  382MPD2    C2 5763   1.938   3.800  16.932 -0.3719  0.6237 -0.2759
  382MPD2    C3 5764   1.870   3.678  16.921  0.0804  0.0546 -0.5680
  382MPD2    C4 5765   1.818   3.638  16.801 -0.2920 -0.2793 -0.0071
  382MPD2    C5 5766   1.822   3.728  16.697 -0.6197  0.5655 -0.3792
  382MPD2     H 5767   1.978   3.829  17.028  1.3236  0.4264 -0.9261
  382MPD2    H1 5768   1.770   3.543  16.786 -2.7848  1.1364 -0.9777
  382MPD2    H2 5769   1.895   3.908  16.615 -0.4044 -0.0627  0.4391
  382MPD2    H3 5770   1.776   3.697  16.604 -0.9312  3.2882 -1.1326
  382MPD2     N 5771   1.845   3.597  17.035  0.7932 -0.0650 -0.7585
  382MPD2    H5 5772   1.785   3.517  17.017 -0.1401  0.2232  1.0441
  382MPD2    N1 5773   2.031   4.002  16.824  0.3952 -0.4733  0.2056
  382MPD2    H7 5774   2.046   4.041  16.731  1.1488  0.5860  0.7789
  383TMC3    C1 5775   1.800   3.545  17.262  0.6237 -0.1000 -0.0587
  383TMC3    C2 5776   1.739   3.429  17.232  0.0127 -0.0212  0.8394
  383TMC3    C3 5777   1.673   3.362  17.336  0.0361 -0.3501  0.3671
  383TMC3    C4 5778   1.786   3.602  17.390  0.4093 -0.0433 -0.3012
  383TMC3    C5 5779   1.711   3.542  17.488  0.1266 -0.1498 -0.5744
  383TMC3    C6 5780   1.664   3.417  17.464  0.2301  0.2210  0.2848
  383TMC3     C 5781   1.883   3.620  17.166 -0.4663  0.5389 -0.5454
  383TMC3     O 5782   1.954   3.706  17.215 -0.0143 -0.2079 -0.0376
  383TMC3     H 5783   1.749   3.378  17.137  2.3618 -0.3654  1.2706
  383TMC3    H1 5784   1.827   3.700  17.410 -1.5069  0.3581  1.7206
  383TMC3    H2 5785   1.620   3.361  17.545 -0.1589  1.1120  0.6901
  383TMC3    C7 5786   1.640   3.635  17.575 -0.2005 -0.4292 -0.3411
  383TMC3    C8 5787   1.626   3.228  17.314 -0.8290 -0.2535  0.4139
  383TMC3    O1 5788   1.678   3.753  17.576  0.1777  0.2252 -0.1699
  383TMC3    O2 5789   1.655   3.148  17.399  0.1779  0.3549 -0.3966
  384MPD2     C 5790   3.209   0.389  12.149 -0.0437 -0.0914 -1.0759
  384MPD2    C1 5791   3.318   0.362  12.232 -1.1061 -0.1228  0.4964
  384MPD2    C2 5792   3.393   0.249  12.196  0.2558 -0.6706 -0.3487
  384MPD2    C3 5793   3.354   0.164  12.092  0.6549  0.0262 -0.3098
  384MPD2    C4 5794   3.238   0.178  12.027  0.5217 -0.3884  0.7042
  384MPD2    C5 5795   3.167   0.293  12.050  0.4597  0.3707  0.4470
  384MPD2     H 5796   3.487   0.221  12.243 -0.0350 -2.4320 -0.8208
  384MPD2    H1 5797   3.197   0.105  11.957 -1.3061  2.7738 -1.5226
  384MPD2    H2 5798   3.140   0.468  12.177  0.4899  0.6421 -1.8280
  384MPD2    H3 5799   3.071   0.317  12.006  0.7749 -0.0765 -0.4943
  384MPD2     N 5800   3.438   0.063  12.045 -0.0491 -0.4105  0.5679
  384MPD2    H5 5801   3.409   0.007  11.966  0.0911 -0.6138  0.6615
  384MPD2    N1 5802   3.351   0.440  12.345 -0.0079 -0.0906  0.1186
  384MPD2    H7 5803   3.310   0.533  12.348  2.5668  1.0991 -1.7756
  385TMC3    C1 5804   3.618   4.653  12.036  0.1360 -0.3368 -0.2007
  385TMC3    C2 5805   3.541   4.550  12.050 -0.6293 -0.1284  0.5491
  385TMC3    C3 5806   3.600   4.426  12.080 -0.2697 -0.4723 -0.7982
  385TMC3    C4 5807   3.756   4.649  12.029 -0.1768  0.7570 -0.0298
  385TMC3    C5 5808   3.818   4.534  12.067 -0.0213 -0.7270 -0.1885
  385TMC3    C6 5809   3.741   4.417  12.095  0.2079 -0.2673  0.4652
  385TMC3     C 5810   3.572   0.044  12.071  0.0667 -0.0737  0.3131
  385TMC3     O 5811   3.660   0.110  12.129  0.3576 -0.3811  0.3564
  385TMC3     H 5812   3.433   4.558  12.048 -0.6767 -1.2224 -1.1165
  385TMC3    H1 5813   3.814   4.736  12.001 -1.1406  0.7507 -2.0699
  385TMC3    H2 5814   3.793   4.324  12.115  1.5076 -0.0859 -1.9785
  385TMC3    C7 5815   3.963   4.522  12.075  0.2743  0.2723 -0.3012
  385TMC3    C8 5816   3.528   4.304  12.092 -1.3158 -0.3821 -0.1512
  385TMC3    O1 5817   4.013   4.552  11.971 -0.1449 -0.0814 -0.0110
  385TMC3    O2 5818   3.578   4.211  12.151  0.2440  0.3359 -0.6039
  386TMC3    C1 5819   3.627   2.450  11.703  0.8661  0.0585 -0.0428
  386TMC3    C2 5820   3.714   2.508  11.613 -0.7520  0.4002  0.0618
  386TMC3    C3 5821   3.701   2.636  11.586  0.4400  0.1226  0.2390
  386TMC3    C4 5822   3.541   2.523  11.779  0.4427 -0.4122  0.0678
  386TMC3    C5 5823   3.526   2.655  11.744 -0.0794  0.3429  0.5064
  386TMC3    C6 5824   3.608   2.715  11.644 -0.2617 -0.2878  0.7765
  386TMC3     C 5825   3.661   2.320  11.749  0.7740  0.1854  0.1302
  386TMC3     O 5826   3.576   2.258  11.814  0.2764  0.2209 -0.4796
  386TMC3     H 5827   3.785   2.446  11.559 -2.4193  0.1132 -1.8008
  386TMC3    H1 5828   3.477   2.479  11.855  1.3498  0.1296  1.1506
  386TMC3    H2 5829   3.598   2.820  11.616 -1.6189 -0.6918 -0.2851
  386TMC3    C7 5830   3.417   2.730  11.806 -0.0052 -0.3884  0.1782
  386TMC3    C8 5831   3.780   2.700  11.481  0.1099  0.2579  0.1231
  386TMC3    O1 5832   3.361   2.672  11.900  0.2069 -0.2078 -0.1947
  386TMC3    O2 5833   3.725   2.803  11.438 -0.7260  0.3246 -0.1552
  387MPD2     C 5834   0.790   3.331  10.497  0.2803 -0.2340 -0.2102
  387MPD2    C1 5835   0.919   3.279  10.483 -0.3606  0.1230  0.5630
  387MPD2    C2 5836   0.935   3.146  10.485  0.8758 -0.4999  0.1091
  387MPD2    C3 5837   0.831   3.058  10.480  0.1006  0.5643 -0.2195
  387MPD2    C4 5838   0.705   3.110  10.505  0.1752  0.7379  1.1276
  387MPD2    C5 5839   0.682   3.243  10.511  0.6910 -0.1033  0.8131
  387MPD2     H 5840   1.038   3.119  10.467  0.8960 -0.0584 -0.4584
  387MPD2    H1 5841   0.624   3.038  10.510  0.3577  0.6122  2.3640
  387MPD2    H2 5842   0.763   3.435  10.486 -1.2347 -0.8589 -2.5236
  387MPD2    H3 5843   0.584   3.290  10.518  1.2205  0.9527  1.0564
  387MPD2     N 5844   0.861   2.921  10.465 -0.1820 -0.5275  0.8057
  387MPD2    H5 5845   0.960   2.902  10.452  0.0573  1.3102 -0.0927
  387MPD2    N1 5846   1.036   3.350  10.506 -0.0819  0.0683  0.3472
  387MPD2    H7 5847   1.122   3.304  10.476 -2.5186 -2.2128 -3.0153
  388TMC3    C1 5848   1.178   3.527  10.572 -0.0629  0.0121  0.3437
  388TMC3    C2 5849   1.236   3.644  10.531 -0.1590 -0.7455 -0.2328
  388TMC3    C3 5850   1.370   3.663  10.536  0.0079  0.1196  0.0565
  388TMC3    C4 5851   1.253   3.425  10.627 -0.3928 -0.1971  0.0462
  388TMC3    C5 5852   1.391   3.449  10.627  0.3242  0.3082 -0.7074
  388TMC3    C6 5853   1.451   3.566  10.592  0.0517 -0.1290 -0.1138
  388TMC3     C 5854   1.043   3.486  10.533  0.0800  0.7585 -0.2359
  388TMC3     O 5855   0.953   3.565  10.536  0.0337 -0.0012  0.2027
  388TMC3     H 5856   1.178   3.726  10.489  0.5028 -1.5895 -2.8049
  388TMC3    H1 5857   1.207   3.338  10.673 -0.3033 -0.8159 -1.0208
  388TMC3    H2 5858   1.556   3.585  10.611 -0.3431  0.0943  1.8226
  388TMC3    C7 5859   1.481   3.342  10.645 -0.4319 -0.0496  0.7317
  388TMC3    C8 5860   1.436   3.778  10.483  0.3772  0.4823  0.4095
  388TMC3    O1 5861   1.595   3.361  10.683 -0.3910  0.3212  0.3789
  388TMC3    O2 5862   1.386   3.892  10.476 -0.1758 -0.0905 -0.2415
  389MPD2     C 5863   1.032   1.493  11.639  0.4417  0.3370 -0.1474
  389MPD2    C1 5864   0.952   1.417  11.550  0.7434 -0.6534  0.2984
  389MPD2    C2 5865   0.877   1.310  11.599 -0.6760  0.8125 -0.1490
  389MPD2    C3 5866   0.877   1.289  11.736  0.2500 -0.3639  0.1018
  389MPD2    C4 5867   0.956   1.365  11.822 -0.0363 -0.6924 -0.2379
  389MPD2    C5 5868   1.024   1.472  11.770  0.3276  0.4730 -0.1057
  389MPD2     H 5869   0.810   1.253  11.537 -0.1645 -0.2207  0.2429
  389MPD2    H1 5870   0.951   1.343  11.928  1.4843  1.8123  0.3581
  389MPD2    H2 5871   1.103   1.570  11.609 -0.6456  0.7158 -1.7738
  389MPD2    H3 5872   1.077   1.541  11.836  0.2153  0.8539 -0.4116
  389MPD2     N 5873   0.817   1.182  11.800 -0.1218  0.0926 -0.5891
  389MPD2    H5 5874   0.833   1.179  11.900  1.7644  0.0105 -0.8900
  389MPD2    N1 5875   0.956   1.463  11.413 -0.7573 -0.6934  0.0950
  389MPD2    H7 5876   1.002   1.552  11.398  1.4567 -1.7182  0.8890
  390TMC3    C1 5877   0.680   0.996  11.841 -0.4546  1.2411  0.6826
  390TMC3    C2 5878   0.636   0.870  11.797  0.5821  0.3599  1.0541
  390TMC3    C3 5879   0.544   0.802  11.879 -0.2367 -0.1669 -0.2195
  390TMC3    C4 5880   0.662   1.036  11.971  0.1034 -0.0973 -0.2685
  390TMC3    C5 5881   0.577   0.963  12.047 -0.2279  0.6101 -0.1955
  390TMC3    C6 5882   0.518   0.847  12.002 -0.5156 -0.4825  0.5208
  390TMC3     C 5883   0.749   1.080  11.740 -0.5012  0.8846 -1.2365
  390TMC3     O 5884   0.752   1.038  11.625 -0.8858 -0.2186  0.2216
  390TMC3     H 5885   0.665   0.830  11.700  0.1370 -0.7648  1.3868
  390TMC3    H1 5886   0.687   1.139  11.994 -2.9671  0.5503  0.1710
  390TMC3    H2 5887   0.442   0.793  12.056  1.0687 -0.7341  2.5167
  390TMC3    C7 5888   0.499   1.044  12.141 -0.0835  0.1861  0.7043
  390TMC3    C8 5889   0.479   0.673  11.848  0.8922  0.2799  0.3766
  390TMC3    O1 5890   0.493   1.167  12.133 -0.5605  0.0217 -0.4958
  390TMC3    O2 5891   0.427   0.658  11.741  0.3028  0.3616  0.0497
  391MPD2     C 5892   4.662   2.404  11.570 -0.2842  0.3338  0.7806
  391MPD2    C1 5893   4.727   2.512  11.520  0.3339  0.0995 -0.3791
  391MPD2    C2 5894   4.678   2.577  11.407  0.7244 -0.4745 -0.5958
  391MPD2    C3 5895   4.572   2.527  11.333  0.3360  0.2903 -0.2089
  391MPD2    C4 5896   4.512   2.409  11.380 -0.2759 -0.0270 -0.2857
  391MPD2    C5 5897   4.556   2.355  11.499 -0.6536 -0.4273  0.1504
  391MPD2     H 5898   4.726   2.670  11.379  1.4352 -0.9097 -0.8510
  391MPD2    H1 5899   4.422   2.365  11.339  0.4239 -1.0890 -0.6835
  391MPD2    H2 5900   4.697   2.346  11.655  0.3059  0.0776  0.3612
  391MPD2    H3 5901   4.514   2.259  11.528 -2.8961  0.3235 -0.6738
  391MPD2     N 5902   4.542   2.584  11.210 -0.0525 -0.1330  0.5669
  391MPD2    H5 5903   4.602   2.662  11.186 -0.2120 -0.5820 -1.2768
  391MPD2    N1 5904   0.094   2.569  11.595  0.1778  0.4694 -0.2017
  391MPD2    H7 5905   0.092   2.544  11.694  1.9239  0.8039 -0.0763
  392TMC3    C1 5906   4.473   2.592  10.982  0.0236  0.7414 -0.4628
  392TMC3    C2 5907   4.438   2.521  10.874 -0.0353 -0.3734  0.5391
  392TMC3    C3 5908   4.478   2.551  10.751 -0.2906 -0.4269  0.2946
  392TMC3    C4 5909   4.549   2.707  10.969 -0.6797 -0.5107  0.2978
  392TMC3    C5 5910   4.608   2.729  10.844 -0.0420  0.2581 -0.2931
  392TMC3    C6 5911   4.567   2.653  10.734  0.3223 -0.1273  0.4982
  392TMC3     C 5912   4.463   2.528  11.110  0.1582 -0.2457  0.2445
  392TMC3     O 5913   4.391   2.427  11.112 -0.1770  0.0109 -0.8043
  392TMC3     H 5914   4.380   2.431  10.887 -1.2059  0.3887  0.5673
  392TMC3    H1 5915   4.577   2.769  11.053  1.5928 -0.2754 -0.6280
  392TMC3    H2 5916   4.584   2.689  10.633 -0.5427 -1.2478 -0.0387
  392TMC3    C7 5917   4.687   2.851  10.822 -1.2423  0.0022 -0.9775
  392TMC3    C8 5918   4.438   2.462  10.642  0.3112  0.2273  0.4687
  392TMC3    O1 5919   4.682   2.933  10.912  0.0378  0.1292 -0.9185
  392TMC3    O2 5920   4.332   2.400  10.659  0.2385 -0.2887  0.6318
  393TMC3    C1 5921   3.310   0.001  11.161 -0.4201 -0.6943 -0.6755
  393TMC3    C2 5922   3.175   0.012  11.181  0.9678 -0.2544 -0.7251
  393TMC3    C3 5923   3.127   0.092  11.279 -0.5324 -0.2740 -0.4747
  393TMC3    C4 5924   3.397   0.085  11.238 -0.0323 -0.0097 -0.0811
  393TMC3    C5 5925   3.347   0.151  11.347  0.0893  0.4853 -0.1550
  393TMC3    C6 5926   3.213   0.159  11.368  0.5029 -0.0672  0.0707
  393TMC3     C 5927   3.377   4.652  11.067  0.4010  0.0345  0.6608
  393TMC3     O 5928   3.488   4.687  11.028  0.5202  0.4476 -0.8295
  393TMC3     H 5929   3.110   4.709  11.108  0.6842  0.3534 -0.8467
  393TMC3    H1 5930   3.505   0.071  11.237  0.1816  1.5849  1.0000
  393TMC3    H2 5931   3.178   0.207  11.459  2.6250 -1.6103  1.6882
  393TMC3    C7 5932   3.424   0.146  11.474 -0.1129 -0.9568 -0.1098
  393TMC3    C8 5933   2.982   0.110  11.291 -0.6391  0.1227  0.5104
  393TMC3    O1 5934   3.363   0.104  11.575 -0.4776  0.1972  0.3575
  393TMC3    O2 5935   2.911   0.015  11.257  0.2643  0.2711  0.5885
  394TMC3    C1 5936   0.942   1.460  11.185 -0.4969 -0.1439 -0.1851
  394TMC3    C2 5937   0.846   1.454  11.086  0.8432  0.1920  0.6397
  394TMC3    C3 5938   0.876   1.514  10.976  0.3212 -0.2168  0.0763
  394TMC3    C4 5939   1.062   1.524  11.172 -0.1730 -0.2407  0.5055
  394TMC3    C5 5940   1.089   1.581  11.048  0.2228 -0.6052 -0.0550
  394TMC3    C6 5941   0.988   1.590  10.951 -0.4652  0.1406  0.0925
  394TMC3     C 5942   0.903   1.397  11.308 -0.5982  0.6258  0.3759
  394TMC3     O 5943   0.839   1.290  11.297 -0.2455 -0.2591 -0.0803
  394TMC3     H 5944   0.752   1.402  11.102  0.1480  1.7940  1.8587
  394TMC3    H1 5945   1.140   1.507  11.246  0.6873  2.9115  0.3033
  394TMC3    H2 5946   1.015   1.621  10.851  0.6795 -0.9204  0.0767
  394TMC3    C7 5947   1.197   1.672  11.031 -0.4287  0.2053 -0.3059
  394TMC3    C8 5948   0.804   1.462  10.862  0.3754 -0.5356  0.6524
  394TMC3    O1 5949   1.211   1.727  10.924  0.6044  0.0304  0.0361
  394TMC3    O2 5950   0.784   1.544  10.778  0.3179  0.4169  0.0377
  395TMC3    C1 5951   0.578   2.262  13.942  0.1503  0.2238  0.0721
  395TMC3    C2 5952   0.490   2.347  13.873  0.6201  0.3773 -0.0803
  395TMC3    C3 5953   0.529   2.463  13.816 -0.0534 -0.4714  0.2198
  395TMC3    C4 5954   0.699   2.306  13.951 -0.1086  0.5021 -0.5854
  395TMC3    C5 5955   0.737   2.429  13.900 -0.0115 -0.4782  0.0086
  395TMC3    C6 5956   0.653   2.517  13.826  0.3315 -0.6539  0.1741
  395TMC3     C 5957   0.526   2.221  14.070  0.0347  0.0646 -0.3568
  395TMC3     O 5958   0.589   2.241  14.173 -0.2165 -0.1418 -0.0014
  395TMC3     H 5959   0.386   2.318  13.861  0.5597  0.6471 -0.2064
  395TMC3    H1 5960   0.761   2.250  14.020 -0.5701  0.8304  0.0971
  395TMC3    H2 5961   0.674   2.617  13.791 -2.1220 -0.6242 -1.2608
  395TMC3    C7 5962   0.837   2.501  13.976  0.2739 -0.6381 -0.3134
  395TMC3    C8 5963   0.423   2.556  13.795  0.3396  0.4043  0.2139
  395TMC3    O1 5964   0.805   2.617  14.011  0.3126 -0.6055 -0.0318
  395TMC3    O2 5965   0.440   2.626  13.698  0.1676  0.3645  0.1708
  396MPD2     C 5966   4.597   3.127  17.272  0.3164  0.0921  0.5978
  396MPD2    C1 5967   4.715   3.178  17.326  0.8149  0.2342 -0.7460
  396MPD2    C2 5968   0.061   3.236  17.242  0.3895 -0.7055  0.5832
  396MPD2    C3 5969   0.037   3.249  17.111 -0.1086 -0.3551 -0.1431
  396MPD2    C4 5970   4.661   3.198  17.054 -0.2041  0.4430 -0.0711
  396MPD2    C5 5971   4.569   3.135  17.138  0.3718  0.5607 -0.6091
  396MPD2     H 5972   0.155   3.271  17.282  0.2370 -2.2461  2.3242
  396MPD2    H1 5973   4.647   3.192  16.947 -2.0673 -0.5524  0.2346
  396MPD2    H2 5974   4.531   3.083  17.345  1.2535  0.1601  1.4832
  396MPD2    H3 5975   4.480   3.085  17.101  0.3552  1.7392 -2.1262
  396MPD2     N 5976   0.121   3.344  17.049 -0.0619  0.1402 -0.2768
  396MPD2    H5 5977   0.189   3.386  17.111 -0.2578  0.3325 -0.1902
  396MPD2    N1 5978   0.007   3.152  17.461 -0.1542 -0.7271  0.3640
  396MPD2    H7 5979   4.690   3.087  17.513 -0.2901 -0.2208  0.8443
  397TMC3    C1 5980   0.210   3.082  17.522 -0.0709 -0.6966  0.8985
  397TMC3    C2 5981   0.305   3.098  17.423  0.4192 -0.8950 -0.0619
  397TMC3    C3 5982   0.321   2.999  17.333 -0.2738 -0.1745 -0.1507
  397TMC3    C4 5983   0.127   2.974  17.522  0.3134  0.7076  0.4798
  397TMC3    C5 5984   0.153   2.870  17.430  0.1314  0.2913  0.0543
  397TMC3    C6 5985   0.248   2.883  17.333  0.3746 -1.1048  0.4535
  397TMC3     C 5986   0.121   3.199  17.517  0.1013 -0.2484  0.1672
  397TMC3     O 5987   0.173   3.309  17.510  0.3736 -0.3202  0.1339
  397TMC3     H 5988   0.354   3.194  17.417 -0.3961 -0.3534  1.9798
  397TMC3    H1 5989   0.057   2.960  17.603  0.2338  3.0419  0.8067
  397TMC3    H2 5990   0.259   2.806  17.258  2.7683 -1.0081  0.6797
  397TMC3    C7 5991   0.103   2.735  17.456  0.3138 -0.0063 -0.3629
  397TMC3    C8 5992   0.373   3.043  17.203  0.8402 -1.4110  0.4188
  397TMC3    O1 5993   0.117   2.648  17.370 -0.7559 -0.2746 -0.2646
  397TMC3    O2 5994   0.337   2.982  17.103 -0.1363  0.3405 -0.0585
  398MPD2     C 5995   3.275   0.104   0.374  0.8083 -0.0795 -0.4607
  398MPD2    C1 5996   3.244   0.014   0.471  0.9118 -0.4670  0.0506
  398MPD2    C2 5997   3.252   0.060   0.598 -0.1766 -0.2492 -0.0934
  398MPD2    C3 5998   3.267   0.191   0.637  0.2058 -0.0025 -0.6268
  398MPD2    C4 5999   3.284   0.284   0.539 -0.0553  0.3169 -0.4296
  398MPD2    C5 6000   3.278   0.243   0.406  0.5624  0.7116  0.4511
  398MPD2     H 6001   3.230   4.731   0.678 -0.3244  0.4484  0.4911
  398MPD2    H1 6002   3.307   0.388   0.558 -0.1858 -0.3616  3.3491
  398MPD2    H2 6003   3.292   0.075   0.271  1.6247  2.3500 -1.0139
  398MPD2    H3 6004   3.296   0.320   0.332 -0.7401 -0.1085 -0.7213
  398MPD2     N 6005   3.252   0.228   0.773  0.4284 -0.1915 -0.6188
  398MPD2    H5 6006   3.237   0.145   0.830  0.0050 -1.2727 -2.2952
  398MPD2    N1 6007   3.211   4.621   0.445  0.3496  0.6543  0.5528
  398MPD2    H7 6008   3.197   4.555   0.521  0.6270 -1.3612 -1.1377
  399TMC3    C1 6009   3.122   4.438   0.313 -0.0428  0.3267  0.1872
  399TMC3    C2 6010   3.175   4.336   0.380  0.0510 -0.6407 -0.7659
  399TMC3    C3 6011   3.116   4.215   0.363  0.1650 -0.2488  0.0594
  399TMC3    C4 6012   3.025   4.421   0.215  0.0601 -0.6357 -0.8628
  399TMC3    C5 6013   2.966   4.297   0.207  0.1549  0.8714 -0.1336
  399TMC3    C6 6014   3.008   4.196   0.287 -0.3503 -0.2023  0.0100
  399TMC3     C 6015   3.178   4.574   0.322  0.2700  0.3939  0.0480
  399TMC3     O 6016   3.171   4.629   0.209 -0.0419  0.0937  0.1263
  399TMC3     H 6017   3.242   4.352   0.464 -1.2206 -0.7638  0.2679
  399TMC3    H1 6018   2.979   4.504   0.162 -0.0490 -0.7620 -0.9653
  399TMC3    H2 6019   2.971   4.095   0.269 -0.7718 -0.1899  0.8031
  399TMC3    C7 6020   2.884   4.260   0.090  0.6954 -0.4414 -0.5697
  399TMC3    C8 6021   3.160   4.100   0.446  0.1917  0.5027 -0.3889
  399TMC3    O1 6022   2.805   4.167   0.101  0.6993  0.1398 -0.2058
  399TMC3    O2 6023   3.282   4.083   0.457  0.2503 -0.4102 -0.8727
  400TMC3    C1 6024   1.624   3.006  16.847 -0.7553  0.4141  0.2044
  400TMC3    C2 6025   1.531   2.943  16.767  0.3688 -0.5015 -0.1867
  400TMC3    C3 6026   1.432   3.026  16.718 -0.3827  0.3951 -0.6884
  400TMC3    C4 6027   1.621   3.139  16.870 -0.1078 -0.1913  0.1374
  400TMC3    C5 6028   1.513   3.213  16.821 -0.5093 -0.1636 -0.5641
  400TMC3    C6 6029   1.413   3.157  16.739 -0.4325  0.2719 -0.6736
  400TMC3     C 6030   1.724   2.939  16.930  0.0718  0.0413  0.3843
  400TMC3     O 6031   1.702   2.820  16.955 -0.1920 -0.4442  0.0170
  400TMC3     H 6032   1.524   2.835  16.754 -1.7008 -0.5589  1.4193
  400TMC3    H1 6033   1.682   3.185  16.947  1.8352 -2.7312  0.1362
  400TMC3    H2 6034   1.329   3.211  16.697 -0.2604 -0.3158 -1.7569
  400TMC3    C7 6035   1.511   3.352  16.867 -0.5685 -0.0194  0.3449
  400TMC3    C8 6036   1.314   2.959  16.655  0.5499  0.0219  0.3806
  400TMC3    O1 6037   1.578   3.385  16.962  0.5720  0.4412  0.4216
  400TMC3    O2 6038   1.212   3.024  16.653 -0.2783  0.3859 -0.2235
  401MPD2     C 6039   4.550   1.790   0.881  0.3555  0.5332 -0.6276
  401MPD2    C1 6040   4.667   1.733   0.931  0.3883 -0.1470  0.2946
  401MPD2    C2 6041   4.693   1.594   0.914  0.3447  0.3208 -0.1707
  401MPD2    C3 6042   4.597   1.509   0.849 -0.5091 -0.1586  0.0512
  401MPD2    C4 6043   4.474   1.562   0.821 -0.3255 -0.5082  0.2181
  401MPD2    C5 6044   4.460   1.700   0.836 -0.1110  0.5104 -0.0774
  401MPD2     H 6045   0.044   1.547   0.945 -1.0081 -2.2713 -0.0267
  401MPD2    H1 6046   4.403   1.504   0.764  0.2222 -0.3360 -0.6485
  401MPD2    H2 6047   4.531   1.896   0.876  1.7575  0.6994 -2.3771
  401MPD2    H3 6048   4.372   1.744   0.790  0.4862  1.0930 -0.6636
  401MPD2     N 6049   4.639   1.381   0.804 -0.2796  0.0040 -0.3140
  401MPD2    H5 6050   4.736   1.359   0.824 -0.7496 -0.0376  1.8976
  401MPD2    N1 6051   0.031   1.814   0.982 -0.3319  0.3218 -0.2312
  401MPD2    H7 6052   0.117   1.766   1.005 -0.2378  0.1034 -1.0181
  402TMC3    C1 6053   4.650   1.181   0.689 -0.1189  0.6825  0.1450
  402TMC3    C2 6054   4.706   1.117   0.793  0.9925 -0.1781 -0.9413
  402TMC3    C3 6055   0.025   1.004   0.765 -0.1828 -0.7284  0.0982
  402TMC3    C4 6056   4.649   1.132   0.563  0.0174  0.5931  0.1761
  402TMC3    C5 6057   4.708   1.010   0.540 -0.9075 -0.4609  0.3063
  402TMC3    C6 6058   0.022   0.940   0.641  0.1495 -0.5905 -0.1288
  402TMC3     C 6059   4.573   1.302   0.716 -0.4868 -0.2742  0.3825
  402TMC3     O 6060   4.470   1.322   0.654 -0.0136 -0.1101 -0.5095
  402TMC3     H 6061   4.701   1.166   0.890 -0.7587  0.3047 -1.2590
  402TMC3    H1 6062   4.608   1.186   0.478  3.2145  3.8480  0.7159
  402TMC3    H2 6063   0.058   0.838   0.630 -1.6525 -1.0796 -1.5473
  402TMC3    C7 6064   4.677   0.942   0.421 -0.8726 -0.1930  0.2040
  402TMC3    C8 6065   0.104   0.934   0.861 -0.0520 -0.5107 -0.0184
  402TMC3    O1 6066   4.570   0.964   0.365  0.0147 -0.1481  0.0928
  402TMC3    O2 6067   0.156   0.823   0.824 -0.2527  0.4377  0.2247
  403MPD2     C 6068   3.427   4.635  13.355 -0.4820  0.6404  0.0120
  403MPD2    C1 6069   3.358   4.667  13.464 -0.1656  0.1113 -0.0831
  403MPD2    C2 6070   3.419   0.021  13.549  0.3128 -0.2611 -0.5580
  403MPD2    C3 6071   3.541   0.076  13.526  0.2762  0.0952  0.3436
  403MPD2    C4 6072   3.605   0.037  13.411 -0.4538  0.3037  0.1979
  403MPD2    C5 6073   3.546   4.689  13.324 -0.2031  0.1211  0.1525
  403MPD2     H 6074   3.372   0.050  13.643  0.5842 -0.5658 -0.3277
  403MPD2    H1 6075   3.692   0.086  13.369 -0.3766 -0.1316 -0.1434
  403MPD2    H2 6076   3.390   4.562  13.284  1.5871 -1.2194  0.8463
  403MPD2    H3 6077   3.595   4.668  13.230 -0.6191 -0.7665  0.1393
  403MPD2     N 6078   3.589   0.164  13.622 -0.2308 -0.1210  0.5316
  403MPD2    H5 6079   3.545   0.167  13.713  3.4969  2.9160  2.2122
  403MPD2    N1 6080   3.223   4.619  13.481 -0.5666  0.4005 -0.8496
  403MPD2    H7 6081   3.188   4.563  13.403  0.5153  0.1337 -1.1595
  404TMC3    C1 6082   3.014   4.567  13.581  0.0543  0.3684  0.4422
  404TMC3    C2 6083   2.996   4.470  13.675 -0.1919  0.6108  0.2074
  404TMC3    C3 6084   2.958   4.345  13.633 -0.3781 -0.7064 -0.1440
  404TMC3    C4 6085   2.980   4.548  13.455  0.4059  0.4620 -0.3392
  404TMC3    C5 6086   2.929   4.426  13.412  0.1303 -0.2906 -0.5640
  404TMC3    C6 6087   2.929   4.321  13.501  0.4305  0.1588  0.0140
  404TMC3     C 6088   3.141   4.633  13.592  0.0495  0.2174 -0.9092
  404TMC3     O 6089   3.178   4.666  13.703 -0.0809 -0.1622  0.6929
  404TMC3     H 6090   3.051   4.488  13.767  0.2243  0.1477  0.0474
  404TMC3    H1 6091   2.985   4.637  13.393  0.1499  1.3514  0.9075
  404TMC3    H2 6092   2.914   4.217  13.475  1.1905  0.1854 -0.5236
  404TMC3    C7 6093   2.958   4.392  13.271 -1.2251  0.0313 -0.1563
  404TMC3    C8 6094   3.001   4.239  13.714 -0.1857  0.0489  0.5298
  404TMC3    O1 6095   3.075   4.412  13.243 -0.3371 -0.4627  0.4429
  404TMC3    O2 6096   3.080   4.156  13.664  0.4516  0.1166 -0.5062
  405MPD2     C 6097   2.796   0.830  15.051  0.4674  0.7684  0.6602
  405MPD2    C1 6098   2.670   0.771  15.050 -0.9035  0.3327  0.2560
  405MPD2    C2 6099   2.559   0.847  15.092 -0.1818  0.1312  0.0679
  405MPD2    C3 6100   2.575   0.972  15.150  0.2143 -0.8344  0.4623
  405MPD2    C4 6101   2.702   1.031  15.154 -0.3315 -0.6088 -0.0408
  405MPD2    C5 6102   2.809   0.955  15.101 -0.7199 -0.0428  0.2598
  405MPD2     H 6103   2.466   0.801  15.124 -0.7740  1.6533  0.5018
  405MPD2    H1 6104   2.717   1.126  15.205  0.1828 -1.2908  1.0677
  405MPD2    H2 6105   2.888   0.786  15.013 -0.4954  0.0039 -0.7527
  405MPD2    H3 6106   2.902   1.009  15.093  1.9429 -4.7909 -0.7478
  405MPD2     N 6107   2.454   1.023  15.195  0.2160  0.6391 -0.1439
  405MPD2    H5 6108   2.368   0.970  15.182  0.6089 -0.3054  1.0769
  405MPD2    N1 6109   2.645   0.642  14.986 -0.5092 -0.6010  0.2611
  405MPD2    H7 6110   2.726   0.585  14.962 -2.1770 -2.2361 -1.4973
  406TMC3    C1 6111   2.089   1.255  15.228  0.1941 -0.3121 -0.5581
  406TMC3    C2 6112   2.019   1.146  15.287 -0.6058 -1.0209 -1.0269
  406TMC3    C3 6113   2.098   1.035  15.330 -1.2419 -0.6206  0.6433
  406TMC3    C4 6114   2.224   1.259  15.222 -0.2603  0.8266 -0.2042
  406TMC3    C5 6115   2.288   1.153  15.273  0.3283  0.5092  0.1973
  406TMC3    C6 6116   2.229   1.037  15.308  0.2354 -0.1909 -0.0645
  406TMC3     C 6117   2.039   1.280  15.093  0.7716  0.1797 -0.3775
  406TMC3     O 6118   1.929   1.324  15.089 -0.1083  0.1555  0.3905
  406TMC3     H 6119   1.911   1.150  15.296 -0.5613 -0.7174 -0.6350
  406TMC3    H1 6120   2.279   1.342  15.180  2.1152  0.2594  1.7577
  406TMC3    H2 6121   2.285   0.949  15.337  0.7600  0.1660 -0.0096
  406TMC3    C7 6122   2.426   1.148  15.231  0.1032  0.0489 -0.4204
  406TMC3    C8 6123   2.033   0.904  15.355  0.0351 -0.3501 -0.0756
  406TMC3    O1 6124   2.494   1.248  15.206 -0.5684 -0.1664  0.3579
  406TMC3    O2 6125   1.930   0.896  15.422 -0.0052  0.9883  0.6028
  407MPD2     C 6126   0.306   2.688  10.802  0.1988 -0.6619 -0.5701
  407MPD2    C1 6127   0.412   2.738  10.722 -0.2705 -0.5478  0.0539
  407MPD2    C2 6128   0.483   2.851  10.766  0.1274  0.2023 -0.6977
  407MPD2    C3 6129   0.451   2.923  10.876  0.6285 -0.0757  0.0988
  407MPD2    C4 6130   0.338   2.882  10.946  0.3918 -0.8811 -0.2042
  407MPD2    C5 6131   0.269   2.766  10.913 -0.0831  0.3923 -0.1883
  407MPD2     H 6132   0.561   2.888  10.701  0.2044  0.2236 -0.5934
  407MPD2    H1 6133   0.301   2.945  11.026 -1.6058 -1.6689 -0.5139
  407MPD2    H2 6134   0.249   2.600  10.776 -0.2043 -1.4287  2.8835
  407MPD2    H3 6135   0.186   2.740  10.977  1.8666 -1.8593  1.4415
  407MPD2     N 6136   0.516   3.051  10.910  0.1109 -0.5344  0.6416
  407MPD2    H5 6137   0.458   3.119  10.958  0.2014 -0.3248  0.4543
  407MPD2    N1 6138   0.451   2.688  10.594  0.1553 -0.4032 -0.0457
  407MPD2    H7 6139   0.516   2.742  10.538 -0.1097  0.4233  0.4506
  408TMC3    C1 6140   0.436   2.573  10.390  1.1763  0.5237  0.3112
  408TMC3    C2 6141   0.507   2.458  10.362  0.0428 -0.5821  0.4200
  408TMC3    C3 6142   0.568   2.456  10.239 -0.5370 -0.2856 -0.3863
  408TMC3    C4 6143   0.411   2.677  10.302  0.9091  0.6275 -0.4982
  408TMC3    C5 6144   0.461   2.664  10.174 -1.2413 -0.1067 -0.1080
  408TMC3    C6 6145   0.541   2.553  10.142  0.4804  0.3537  0.3092
  408TMC3     C 6146   0.388   2.580  10.528  0.1318  0.1882 -0.6823
  408TMC3     O 6147   0.300   2.502  10.554  0.0652 -0.1040 -0.5073
  408TMC3     H 6148   0.531   2.391  10.444 -1.7707 -0.9352  0.6609
  408TMC3    H1 6149   0.362   2.760  10.353  0.5282 -0.8292  1.4935
  408TMC3    H2 6150   0.580   2.545  10.041 -0.7182  2.2345 -0.3028
  408TMC3    C7 6151   0.399   2.739  10.070 -0.1612  0.1137 -0.0995
  408TMC3    C8 6152   0.701   2.400  10.225 -0.2214 -0.1618  1.1030
  408TMC3    O1 6153   0.386   2.681   9.965 -0.3200 -0.6513  0.3552
  408TMC3    O2 6154   0.714   2.289  10.275 -0.1688  0.1046  0.4702
  409MPD2     C 6155   0.500   2.350  16.765 -0.2341  0.0691  0.6344
  409MPD2    C1 6156   0.559   2.396  16.882  0.0548 -0.0108  0.0417
  409MPD2    C2 6157   0.618   2.521  16.883 -0.4485  0.2531  0.0446
  409MPD2    C3 6158   0.616   2.605  16.776 -0.3982 -0.3566 -0.5687
  409MPD2    C4 6159   0.554   2.560  16.660 -0.1930 -0.2977 -0.2458
  409MPD2    C5 6160   0.498   2.436  16.662 -0.4934 -0.2963  0.1064
  409MPD2     H 6161   0.661   2.553  16.977  0.7878 -1.6441  0.1343
  409MPD2    H1 6162   0.547   2.619  16.569 -2.0638  0.0219  0.1207
  409MPD2    H2 6163   0.457   2.252  16.752  0.3327  0.2760 -2.9397
  409MPD2    H3 6164   0.435   2.408  16.579  0.8343 -1.2098 -0.6068
  409MPD2     N 6165   0.675   2.737  16.781 -0.6892  0.0508 -0.1770
  409MPD2    H5 6166   0.676   2.800  16.701 -0.1124  1.3422  0.8459
  409MPD2    N1 6167   0.560   2.313  16.999 -0.3120 -0.1628  0.8902
  409MPD2    H7 6168   0.614   2.346  17.079 -0.1570  1.1288  0.2558
  410TMC3    C1 6169   0.767   2.936  16.860  0.8022  0.3366  0.0735
  410TMC3    C2 6170   0.877   2.977  16.934 -0.0461 -0.8310 -0.5147
  410TMC3    C3 6171   0.960   3.072  16.878  0.3122 -0.1116 -0.1692
  410TMC3    C4 6172   0.754   2.981  16.732  0.1232  0.8459  0.7221
  410TMC3    C5 6173   0.835   3.084  16.690 -0.7413  0.7112  0.0905
  410TMC3    C6 6174   0.935   3.139  16.763  0.7478  0.3817 -0.2092
  410TMC3     C 6175   0.728   2.800  16.890  0.5318 -0.2516 -0.1770
  410TMC3     O 6176   0.767   2.748  16.994  0.0224 -0.3760  0.2950
  410TMC3     H 6177   0.902   2.938  17.032  1.0345 -0.7234 -0.7423
  410TMC3    H1 6178   0.661   2.956  16.682  0.3009  0.5598  0.5392
  410TMC3    H2 6179   1.007   3.214  16.732  2.6261 -0.6125  1.7290
  410TMC3    C7 6180   0.805   3.125  16.555 -0.7531 -0.1268 -0.3181
  410TMC3    C8 6181   1.079   3.117  16.957  0.1564  0.2712 -0.4917
  410TMC3    O1 6182   0.713   3.078  16.495  0.5301  0.2573 -0.2465
  410TMC3    O2 6183   1.126   3.224  16.930  0.8688  0.2693  0.4846
  411MPD2     C 6184   1.103   3.516  14.824 -0.1574 -0.0130 -0.4246
  411MPD2    C1 6185   0.987   3.575  14.767  0.9092 -0.3991  0.9345
  411MPD2    C2 6186   0.880   3.490  14.741 -0.3427 -0.8993 -0.2151
  411MPD2    C3 6187   0.885   3.352  14.759  0.1951 -0.1611 -0.3015
  411MPD2    C4 6188   1.006   3.297  14.799  0.4138  0.1412  0.0765
  411MPD2    C5 6189   1.114   3.381  14.831  0.7569  0.1337  0.0424
  411MPD2     H 6190   0.783   3.531  14.715 -1.1171 -2.7266 -0.1929
  411MPD2    H1 6191   1.017   3.192  14.821  0.4209  0.6298  2.4236
  411MPD2    H2 6192   1.191   3.568  14.861 -1.1482  2.5771 -1.7438
  411MPD2    H3 6193   1.208   3.332  14.856  0.2411 -1.2954 -0.8392
  411MPD2     N 6194   0.777   3.267  14.734  0.1764 -0.8119  0.1506
  411MPD2    H5 6195   0.798   3.168  14.725 -2.3374 -1.1751 -1.6525
  411MPD2    N1 6196   0.973   3.709  14.751  0.7841 -0.1818 -0.2857
  411MPD2    H7 6197   0.878   3.743  14.734  1.9123  2.8122 -0.6695
  412TMC3    C1 6198   0.546   3.206  14.718  0.4761  0.5728 -0.1034
  412TMC3    C2 6199   0.417   3.219  14.764 -0.2143  0.2358 -0.0754
  412TMC3    C3 6200   0.318   3.147  14.706 -0.1710  0.7424 -0.0077
  412TMC3    C4 6201   0.574   3.130  14.608  0.0345 -0.5426  0.0788
  412TMC3    C5 6202   0.474   3.043  14.564  0.3185  0.0170  0.1626
  412TMC3    C6 6203   0.346   3.046  14.613 -0.1258 -0.0775 -0.1421
  412TMC3     C 6204   0.645   3.310  14.746 -0.2497  0.5498  0.0211
  412TMC3     O 6205   0.599   3.410  14.791  0.2031 -0.7300 -0.3179
  412TMC3     H 6206   0.385   3.295  14.834  1.5575  0.7293  0.2010
  412TMC3    H1 6207   0.678   3.122  14.580 -0.2301 -1.6309 -0.5788
  412TMC3    H2 6208   0.269   2.973  14.591 -0.2654  0.1818 -0.5284
  412TMC3    C7 6209   0.460   3.014  14.424 -0.7254  0.2249  0.2031
  412TMC3    C8 6210   0.205   3.226  14.666 -0.3450  0.1332  0.4631
  412TMC3    O1 6211   0.363   2.945  14.393 -0.3395 -0.2014 -0.3282
  412TMC3    O2 6212   0.190   3.340  14.707 -0.0307  0.5343  0.3313
  413MPD2     C 6213   2.698   1.274  14.840  0.0254 -0.2462  0.1503
  413MPD2    C1 6214   2.755   1.339  14.950  0.4804 -0.5404  0.5482
  413MPD2    C2 6215   2.893   1.313  14.984  0.0151  0.4595 -0.1153
  413MPD2    C3 6216   2.972   1.244  14.896  0.5682 -0.1955  0.4240
  413MPD2    C4 6217   2.915   1.197  14.780  0.0459  0.5547 -0.1531
  413MPD2    C5 6218   2.782   1.206  14.758  1.5068 -0.5241  0.6470
  413MPD2     H 6219   2.941   1.349  15.073 -0.6216 -1.9612  1.2191
  413MPD2    H1 6220   2.972   1.130  14.717  0.1610 -1.8315  2.5189
  413MPD2    H2 6221   2.592   1.267  14.817 -0.0333  1.3472 -0.0706
  413MPD2    H3 6222   2.740   1.163  14.668 -0.4815  0.8340  0.9395
  413MPD2     N 6223   3.108   1.225  14.928 -0.0361  0.1531 -0.0934
  413MPD2    H5 6224   3.137   1.238  15.025 -0.2591  1.6063 -0.2218
  413MPD2    N1 6225   2.676   1.411  15.046  0.8588  0.5884 -0.2401
  413MPD2    H7 6226   2.575   1.406  15.050  0.9311  0.0282  0.7385
  414TMC3    C1 6227   3.332   1.143  14.918  0.6031  0.1413  0.1053
  414TMC3    C2 6228   3.322   1.065  15.031  0.4454  0.4453  0.3188
  414TMC3    C3 6229   3.442   1.002  15.062  1.3255  0.5156 -0.1619
  414TMC3    C4 6230   3.448   1.176  14.854 -0.2939  0.0109 -0.3477
  414TMC3    C5 6231   3.561   1.128  14.900  0.5822 -0.1302 -0.4119
  414TMC3    C6 6232   3.564   1.040  15.005  0.6303 -0.0343  0.8203
  414TMC3     C 6233   3.204   1.168  14.849 -0.1014  0.0241 -0.0167
  414TMC3     O 6234   3.197   1.117  14.737 -0.1437  0.4654 -0.1905
  414TMC3     H 6235   3.220   1.040  15.059  0.6940  0.7251  1.4669
  414TMC3    H1 6236   3.444   1.261  14.787  2.2308  1.2450  1.0445
  414TMC3    H2 6237   3.651   0.983  15.034  0.1878  0.3123  2.8239
  414TMC3    C7 6238   3.688   1.199  14.878  0.0992  0.2974 -0.1543
  414TMC3    C8 6239   3.444   0.874  15.127  0.4144  0.3444 -0.2848
  414TMC3    O1 6240   3.756   1.184  14.981  0.0619  0.6082 -0.1624
  414TMC3    O2 6241   3.338   0.816  15.120 -0.3314 -0.4378  0.0452
  415TMC3    C1 6242   2.496   0.680  10.204 -0.4027  0.1617 -0.3165
  415TMC3    C2 6243   2.530   0.788  10.129  0.1151 -0.0221  0.1743
  415TMC3    C3 6244   2.433   0.840  10.046  0.4397  0.2408 -0.2488
  415TMC3    C4 6245   2.378   0.606  10.194 -0.3718  0.0947 -0.4396
  415TMC3    C5 6246   2.283   0.661  10.104  0.4695  0.3837  0.4373
  415TMC3    C6 6247   2.311   0.781  10.036 -0.1733 -0.3759  0.5503
  415TMC3     C 6248   2.572   0.652  10.323 -0.3488  0.3083 -0.5249
  415TMC3     O 6249   2.513   0.605  10.416 -0.2597 -0.1343  0.8303
  415TMC3     H 6250   2.613   0.849  10.163  0.4520 -0.3252 -0.1062
  415TMC3    H1 6251   2.364   0.526  10.265  2.6200 -0.3178 -0.3117
  415TMC3    H2 6252   2.238   0.822   9.967  0.3090 -1.5716 -0.6834
  415TMC3    C7 6253   2.150   0.607  10.096  0.2648  0.2288 -0.3866
  415TMC3    C8 6254   2.456   0.966   9.968 -0.4943  0.0244  0.2254
  415TMC3    O1 6255   2.065   0.660  10.021 -0.1396 -0.0202  0.1147
  415TMC3    O2 6256   2.363   1.002   9.900  0.1047 -0.5427  0.0495
  416MPD2     C 6257   4.529   3.587  11.990 -0.6492  0.3495  0.4895
  416MPD2    C1 6258   4.441   3.609  11.886 -0.4128 -0.2923  0.0370
  416MPD2    C2 6259   4.477   3.569  11.757 -0.0923  0.3927 -0.9464
  416MPD2    C3 6260   4.594   3.499  11.737 -0.1462  0.0326  0.1216
  416MPD2    C4 6261   4.683   3.476  11.841  1.2214 -0.8055  0.5984
  416MPD2    C5 6262   4.648   3.517  11.973 -0.9075  0.1181  0.0458
  416MPD2     H 6263   4.407   3.591  11.677 -2.4484  0.1720  1.0597
  416MPD2    H1 6264   0.026   3.411  11.823  2.3133  0.6391  0.5868
  416MPD2    H2 6265   4.518   3.622  12.092  1.1802 -0.7901  1.0829
  416MPD2    H3 6266   4.720   3.497  12.051  1.6705  1.2073 -2.0943
  416MPD2     N 6267   4.619   3.444  11.610  0.1339 -0.0951 -0.3375
  416MPD2    H5 6268   4.692   3.374  11.601 -1.0112 -1.2942 -0.2011
  416MPD2    N1 6269   4.323   3.679  11.924  0.2555  0.2421  0.0205
  416MPD2    H7 6270   4.306   3.701  12.021 -0.4078 -1.0129  0.1715
  417TMC3    C1 6271   4.124   3.790  11.883  0.4587  0.0826  0.1134
  417TMC3    C2 6272   4.054   3.724  11.982  0.3023 -0.0466  0.1785
  417TMC3    C3 6273   3.929   3.770  12.019  0.0774 -0.0865  0.9391
  417TMC3    C4 6274   4.080   3.908  11.834 -0.0906 -0.3322 -1.1287
  417TMC3    C5 6275   3.961   3.958  11.883 -0.3684 -0.1253  0.3426
  417TMC3    C6 6276   3.883   3.895  11.979 -0.2540  0.4450  0.3992
  417TMC3     C 6277   4.246   3.732  11.826 -0.3534  0.1356  0.4238
  417TMC3     O 6278   4.263   3.765  11.707  0.2652 -0.0555  0.0717
  417TMC3     H 6279   4.093   3.628  12.012  0.1407 -0.2624 -0.2990
  417TMC3    H1 6280   4.139   3.960  11.760 -0.5778 -1.1407 -2.0943
  417TMC3    H2 6281   3.806   3.948  12.033  0.3278  1.0691  0.6175
  417TMC3    C7 6282   3.943   4.093  11.842 -0.1130  0.2813 -0.1208
  417TMC3    C8 6283   3.890   3.744  12.155 -0.6899  0.2437 -0.3906
  417TMC3    O1 6284   4.055   4.148  11.820  0.0655  0.1377 -0.3776
  417TMC3    O2 6285   3.871   3.845  12.217 -0.6517 -0.3107  0.5426
  418TMC3    C1 6286   3.339   0.466   1.160 -0.4607  0.1640 -0.1517
  418TMC3    C2 6287   3.310   0.468   1.027 -0.4300 -0.5630 -0.1850
  418TMC3    C3 6288   3.244   0.363   0.971 -0.3422 -0.3065  0.0864
  418TMC3    C4 6289   3.299   0.368   1.245  0.1472 -0.2705  0.1172
  418TMC3    C5 6290   3.245   0.259   1.179  0.3416 -0.0328  0.1202
  418TMC3    C6 6291   3.210   0.256   1.046 -0.4278 -0.5457  0.8909
  418TMC3     C 6292   3.443   0.549   1.216  0.0942  0.3451  0.8213
  418TMC3     O 6293   3.509   0.508   1.312  0.5923 -0.2859 -0.8186
  418TMC3     H 6294   3.354   0.542   0.962  1.2097 -2.5771 -1.3834
  418TMC3    H1 6295   3.327   0.379   1.349 -0.6635 -0.7806  0.3848
  418TMC3    H2 6296   3.199   0.160   0.998 -3.0040  0.4930 -0.5617
  418TMC3    C7 6297   3.301   0.133   1.225 -0.3484 -0.2502 -0.0569
  418TMC3    C8 6298   3.255   0.355   0.827  0.0274  0.0905 -0.6144
  418TMC3    O1 6299   3.326   0.043   1.142 -0.0515  0.0142 -0.0196
  418TMC3    O2 6300   3.280   0.462   0.769  0.2831  0.3450  0.3019
  419MPD2     C 6301   2.138   3.081  12.970 -0.0521 -0.4731 -0.0174
  419MPD2    C1 6302   2.064   3.189  12.907 -0.2219  0.1172 -0.5200
  419MPD2    C2 6303   2.054   3.317  12.973 -0.2442  0.7082 -0.5782
  419MPD2    C3 6304   2.110   3.332  13.099 -0.3659  0.0625  0.3672
  419MPD2    C4 6305   2.182   3.220  13.154 -0.2053 -0.3567 -0.2684
  419MPD2    C5 6306   2.189   3.101  13.093 -0.0041  0.1094 -0.3036
  419MPD2     H 6307   1.997   3.398  12.930 -1.0657  1.0022  1.0557
  419MPD2    H1 6308   2.221   3.233  13.255 -2.5288 -1.9187  0.8413
  419MPD2    H2 6309   2.152   2.984  12.924 -1.3874 -1.1017  0.9284
  419MPD2    H3 6310   2.238   3.016  13.140 -0.1820  0.1468 -0.0505
  419MPD2     N 6311   2.091   3.456  13.157 -0.7078 -0.0173  0.3360
  419MPD2    H5 6312   2.017   3.518  13.123 -0.9916 -0.9301 -0.6909
  419MPD2    N1 6313   2.001   3.175  12.782 -0.4542 -0.9138  0.7179
  419MPD2    H7 6314   1.945   3.255  12.755 -1.6068 -1.5611  1.2098
  420TMC3    C1 6315   2.088   3.614  13.335  0.1211  0.4351 -0.4791
  420TMC3    C2 6316   1.959   3.643  13.319  0.0646 -0.3767 -0.2004
  420TMC3    C3 6317   1.907   3.759  13.371 -0.4353  1.0348  0.6453
  420TMC3    C4 6318   2.175   3.695  13.403 -0.2380 -0.1844  0.2078
  420TMC3    C5 6319   2.123   3.802  13.468 -0.3944 -0.4042 -0.3032
  420TMC3    C6 6320   1.991   3.845  13.442 -0.4893 -0.2593 -0.1476
  420TMC3     C 6321   2.151   3.494  13.273 -0.1571 -0.6401  0.5839
  420TMC3     O 6322   2.263   3.461  13.310  0.1371  0.2942 -0.2417
  420TMC3     H 6323   1.896   3.569  13.271 -0.3869  1.2310 -2.0940
  420TMC3    H1 6324   2.280   3.671  13.421  0.1510  1.7849  0.5146
  420TMC3    H2 6325   1.953   3.934  13.491  1.8591 -0.3231  1.7612
  420TMC3    C7 6326   2.147   3.776  13.607  0.1426  0.2624 -0.0002
  420TMC3    C8 6327   1.784   3.814  13.310 -0.1850 -0.2507  0.0617
  420TMC3    O1 6328   2.051   3.737  13.671  0.4112 -0.1475 -0.7136
  420TMC3    O2 6329   1.773   3.933  13.283  0.0205 -0.1950  0.4179
  421TMC3    C1 6330   3.725   0.320  13.716 -0.0967 -0.5948 -0.6290
  421TMC3    C2 6331   3.730   0.452  13.697  0.2211 -0.2952 -0.4104
  421TMC3    C3 6332   3.745   0.531  13.806  0.2070  0.2642 -0.0912
  421TMC3    C4 6333   3.754   0.256  13.824  0.4271 -0.3595 -0.8392
  421TMC3    C5 6334   3.776   0.341  13.928 -0.6469 -0.4458 -0.4169
  421TMC3    C6 6335   3.768   0.475  13.924  0.1186 -0.1138  0.0117
  421TMC3     C 6336   3.691   0.249  13.595  0.2997  0.1213 -0.3439
  421TMC3     O 6337   3.717   0.289  13.481  0.4246 -0.0527  0.2760
  421TMC3     H 6338   3.709   0.493  13.598 -1.3386  1.1455  0.5144
  421TMC3    H1 6339   3.766   0.149  13.837  2.0656  0.0061  0.5995
  421TMC3    H2 6340   3.751   0.535  14.013  2.1529 -2.1042  1.7912
  421TMC3    C7 6341   3.787   0.290  14.059  0.1600 -0.3269  0.2728
  421TMC3    C8 6342   3.662   0.650  13.808 -0.0267  0.6373  0.3589
  421TMC3    O1 6343   3.857   0.349  14.146 -0.0954 -0.0055  0.4580
  421TMC3    O2 6344   3.565   0.647  13.732 -0.4952  0.2941 -0.1756
  422TMC3    C1 6345   0.613   1.902  12.566  0.9714  1.3218 -0.8232
  422TMC3    C2 6346   0.669   2.021  12.539 -0.1497 -0.5638 -0.4958
  422TMC3    C3 6347   0.581   2.127  12.533 -0.0089 -0.1436  0.0502
  422TMC3    C4 6348   0.478   1.879  12.582  0.0607 -0.5095  0.4466
  422TMC3    C5 6349   0.396   1.991  12.571  0.2413 -0.2742 -0.3222
  422TMC3    C6 6350   0.447   2.114  12.540  0.0853 -0.3323 -0.6495
  422TMC3     C 6351   0.688   1.785  12.528 -0.8486 -0.7116 -0.8516
  422TMC3     O 6352   0.661   1.679  12.575  0.1436 -0.1805 -0.1658
  422TMC3     H 6353   0.775   2.017  12.562 -0.8579 -0.9310  2.7313
  422TMC3    H1 6354   0.444   1.777  12.594  1.0767 -0.8372  0.4946
  422TMC3    H2 6355   0.384   2.198  12.565  0.8697  0.0021  0.1922
  422TMC3    C7 6356   0.255   1.978  12.565  0.8316  0.9093 -0.0750
  422TMC3    C8 6357   0.635   2.256  12.518  0.0703  0.1160  0.2881
  422TMC3    O1 6358   0.208   2.061  12.485 -0.9333  0.0803 -0.1095
  422TMC3    O2 6359   0.748   2.274  12.561  0.0352 -0.3027 -0.2431
  423MPD2     C 6360   2.034   2.210   0.439 -0.5014 -0.0435 -0.8637
  423MPD2    C1 6361   2.137   2.289   0.391  0.2238 -0.2049  0.1256
  423MPD2    C2 6362   2.206   2.244   0.274 -0.2885 -0.3047  0.4573
  423MPD2    C3 6363   2.183   2.112   0.234 -0.2501 -0.0559  0.3923
  423MPD2    C4 6364   2.093   2.031   0.298 -0.0716 -0.0576  0.0502
  423MPD2    C5 6365   2.010   2.085   0.395  0.1571  0.1423 -0.1536
  423MPD2     H 6366   2.278   2.310   0.225  0.5894 -0.5303  1.4377
  423MPD2    H1 6367   2.081   1.927   0.269  1.0100 -0.5660  1.4918
  423MPD2    H2 6368   1.988   2.233   0.534 -1.1232 -0.5862 -1.0280
  423MPD2    H3 6369   1.940   2.019   0.445 -1.2959  1.8327  0.0035
  423MPD2     N 6370   2.261   2.041   0.134  0.0653 -0.7711 -0.5122
  423MPD2    H5 6371   2.239   1.943   0.123 -1.8407 -0.7022  2.5677
  423MPD2    N1 6372   2.162   2.413   0.446  0.4425 -0.2497 -0.3175
  423MPD2    H7 6373   2.241   2.460   0.404 -0.1895 -0.0160 -1.2484
  424TMC3    C1 6374   2.138   2.604   0.573  0.2181  0.2627  0.2829
  424TMC3    C2 6375   2.268   2.623   0.600 -0.1551  0.4763 -0.3619
  424TMC3    C3 6376   2.307   2.732   0.673 -0.8799 -0.1987  0.2186
  424TMC3    C4 6377   2.051   2.695   0.614 -0.0775  0.7484 -0.4765
  424TMC3    C5 6378   2.098   2.805   0.683 -0.2012 -0.1502 -0.3970
  424TMC3    C6 6379   2.225   2.824   0.714 -0.0003  0.1405  0.2891
  424TMC3     C 6380   2.077   2.478   0.539  0.2034  0.2787  0.9374
  424TMC3     O 6381   1.960   2.462   0.574 -0.1928  0.3844 -0.0170
  424TMC3     H 6382   2.346   2.556   0.563  0.6744  0.8785  0.6644
  424TMC3    H1 6383   1.946   2.697   0.585 -0.3444 -2.0135  0.2190
  424TMC3    H2 6384   2.257   2.917   0.758 -0.8044 -0.9760  3.2660
  424TMC3    C7 6385   2.006   2.912   0.730 -0.1332 -0.9943  1.5719
  424TMC3    C8 6386   2.440   2.735   0.728  0.3108  0.2255 -0.5574
  424TMC3    O1 6387   2.054   3.026   0.748 -0.1515 -0.2697  0.2190
  424TMC3    O2 6388   2.494   2.838   0.743  0.4463  0.5400  0.9576
  425MPD2     C 6389   1.556   1.404  17.299  0.4679 -0.1111  0.2031
  425MPD2    C1 6390   1.499   1.296  17.369 -0.0629  0.3121  0.0719
  425MPD2    C2 6391   1.375   1.322  17.431  0.5697  0.2630 -0.0059
  425MPD2    C3 6392   1.310   1.444  17.422  0.9994  0.0115  0.4443
  425MPD2    C4 6393   1.376   1.549  17.368 -0.7277 -0.4506  0.3729
  425MPD2    C5 6394   1.495   1.527  17.308 -0.3799  0.1562  0.3923
  425MPD2     H 6395   1.332   1.242  17.490  0.2301  1.9492  2.0273
  425MPD2    H1 6396   1.335   1.649  17.368  0.5998  0.0888  1.6951
  425MPD2    H2 6397   1.650   1.391  17.247  0.0243  0.3914 -0.7145
  425MPD2    H3 6398   1.539   1.608  17.250  0.0210 -0.7377 -0.5485
  425MPD2     N 6399   1.169   1.449  17.452 -0.2965  0.4491  0.1876
  425MPD2    H5 6400   1.125   1.363  17.483 -0.0857  0.4435  0.4734
  425MPD2    N1 6401   1.560   1.165  17.352 -0.2493 -0.0886  0.2383
  425MPD2    H7 6402   1.644   1.156  17.296 -1.5956 -3.3814 -1.2495
  426TMC3    C1 6403   1.555   0.938  17.336 -0.7589 -0.6297  0.3209
  426TMC3    C2 6404   1.574   0.939  17.201 -0.6485 -0.5768  0.6891
  426TMC3    C3 6405   1.532   0.830  17.125  0.0997 -0.2386  0.5690
  426TMC3    C4 6406   1.500   0.823  17.392 -0.0076 -0.3944  0.2799
  426TMC3    C5 6407   1.445   0.727  17.320  0.4242  0.3461 -0.0509
  426TMC3    C6 6408   1.463   0.719  17.185 -0.2930  0.2475 -0.0529
  426TMC3     C 6409   1.513   1.054  17.408 -0.1065  0.3017  0.5317
  426TMC3     O 6410   1.436   1.037  17.500 -0.2889 -0.2723 -0.6567
  426TMC3     H 6411   1.596   1.034  17.153 -0.8349  0.0642  1.8789
  426TMC3    H1 6412   1.511   0.817  17.499  3.7102 -3.2539 -0.2461
  426TMC3    H2 6413   1.427   0.634  17.129 -0.3582 -0.5969  1.2566
  426TMC3    C7 6414   1.329   0.669  17.374  0.6263  0.2610 -0.5215
  426TMC3    C8 6415   1.576   0.823  16.984 -0.3035 -0.0067 -0.0485
  426TMC3    O1 6416   1.274   0.588  17.305 -0.2341 -0.1748  0.2744
  426TMC3    O2 6417   1.536   0.734  16.912 -0.3663 -0.5595  0.4162
  427MPD2     C 6418   0.094   3.886  15.023  0.3679  0.2210 -0.7328
  427MPD2    C1 6419   0.051   3.769  15.082 -0.3377 -0.6668 -1.0205
  427MPD2    C2 6420   4.660   3.764  15.124 -0.1791  0.0802 -0.3394
  427MPD2    C3 6421   4.569   3.868  15.118  0.6837  0.2677  0.0942
  427MPD2    C4 6422   4.610   3.974  15.052  0.3266  0.2780  0.4097
  427MPD2    C5 6423   4.738   3.985  15.012  0.8736 -0.1447 -0.5005
  427MPD2     H 6424   4.630   3.666  15.160  2.6900 -0.4314  0.6680
  427MPD2    H1 6425   4.541   4.057  15.041  0.0559  0.1063  0.8250
  427MPD2    H2 6426   0.190   3.910  14.979 -0.0489  1.0797 -1.1767
  427MPD2    H3 6427   0.030   4.072  14.957 -0.8183  0.7646 -0.0950
  427MPD2     N 6428   4.434   3.849  15.149 -0.0604 -1.1658  1.1739
  427MPD2    H5 6429   4.363   3.917  15.125  0.1677 -0.9921  0.9872
  427MPD2    N1 6430   0.127   3.655  15.097  0.3752 -0.1772  0.1052
  427MPD2    H7 6431   0.091   3.573  15.145 -1.2812  1.0841  0.9925
  428TMC3    C1 6432   0.314   3.511  15.068  0.5156 -0.0065 -0.3976
  428TMC3    C2 6433   0.242   3.396  15.063 -0.3367  0.0398 -0.4641
  428TMC3    C3 6434   0.308   3.280  15.100 -0.7230  0.0860 -0.4139
  428TMC3    C4 6435   0.447   3.503  15.100  0.2870  0.8495 -0.3225
  428TMC3    C5 6436   0.508   3.388  15.147  0.8592  0.8639 -0.1458
  428TMC3    C6 6437   0.436   3.274  15.144 -0.7745 -0.2308 -0.3389
  428TMC3     C 6438   0.252   3.639  15.037  0.3904  0.6760 -0.8429
  428TMC3     O 6439   0.317   3.709  14.965  0.2675  0.6938 -0.7362
  428TMC3     H 6440   0.140   3.396  15.028 -0.2959  1.2388 -0.5890
  428TMC3    H1 6441   0.493   3.600  15.115  1.8627 -0.2581  2.0532
  428TMC3    H2 6442   0.468   3.183  15.194  1.3833 -0.4795 -2.1230
  428TMC3    C7 6443   0.648   3.384  15.181  0.0960  0.5735 -0.1779
  428TMC3    C8 6444   0.248   3.153  15.064 -0.8274 -0.8802 -0.1763
  428TMC3    O1 6445   0.683   3.276  15.227  0.6781 -0.9799  0.0852
  428TMC3    O2 6446   0.304   3.054  15.110  0.0351 -1.0203  0.0317
  429MPD2     C 6447   0.962   3.475   0.015  0.8507  0.5663  0.0487
  429MPD2    C1 6448   1.061   3.425  17.697  0.2702 -0.2616  0.1968
  429MPD2    C2 6449   1.122   3.518  17.613  0.1332 -0.2066 -0.5871
  429MPD2    C3 6450   1.099   3.655  17.620 -0.0554 -0.7553  0.4421
  429MPD2    C4 6451   1.023   3.702  17.721  0.0441  0.2914  0.3501
  429MPD2    C5 6452   0.951   3.609   0.028  0.0807  0.9101 -1.0237
  429MPD2     H 6453   1.188   3.472  17.540 -1.9023 -1.4593 -1.6362
  429MPD2    H1 6454   0.988   3.804  17.725  2.5542  1.1653  0.1761
  429MPD2    H2 6455   0.898   3.410   0.074 -0.3722  0.2177 -1.6684
  429MPD2    H3 6456   0.870   3.648   0.089  1.1580  2.5840 -0.6640
  429MPD2     N 6457   1.176   3.731  17.528 -0.4380  0.9807  0.1677
  429MPD2    H5 6458   1.227   3.676  17.460  3.0429  1.9829  1.9836
  429MPD2    N1 6459   1.090   3.287  17.688  0.0208 -0.3757 -0.2450
  429MPD2    H7 6460   1.174   3.262  17.638 -0.3764 -1.3833 -0.4050
  430TMC3    C1 6461   1.286   3.929  17.448 -0.2156 -0.0032 -0.5638
  430TMC3    C2 6462   1.241   4.047  17.389 -0.1241 -0.0503 -0.1598
  430TMC3    C3 6463   1.303   4.080  17.273 -0.9435 -0.2250  0.0159
  430TMC3    C4 6464   1.372   3.850  17.384 -0.1026 -0.0409  0.5011
  430TMC3    C5 6465   1.436   3.895  17.274  0.6724 -0.2656 -0.6586
  430TMC3    C6 6466   1.402   4.007  17.210  0.1203 -0.1220  0.0815
  430TMC3     C 6467   1.171   3.867  17.522 -0.0951  0.4654 -0.6931
  430TMC3     O 6468   1.094   3.948  17.570  0.0786 -0.3923  0.6019
  430TMC3     H 6469   1.163   4.109  17.433  1.9316  0.8354  2.3111
  430TMC3    H1 6470   1.416   3.763  17.430 -1.9113 -2.3142 -2.0627
  430TMC3    H2 6471   1.463   4.052  17.132 -1.1341  0.8678 -0.3170
  430TMC3    C7 6472   1.485   3.791  17.179 -0.2307  0.0462 -0.6230
  430TMC3    C8 6473   1.253   4.183  17.188  0.0485 -0.7096  0.0811
  430TMC3    O1 6474   1.468   3.678  17.218  0.2392  0.0358 -0.9036
  430TMC3    O2 6475   1.224   4.296  17.223 -0.4824  0.6507  0.0452
  431MPD2     C 6476   1.721   3.829  12.881 -0.0845 -0.1535  0.4530
  431MPD2    C1 6477   1.843   3.815  12.823  0.7457 -0.6161  0.4846
  431MPD2    C2 6478   1.862   3.706  12.735 -0.4987 -0.2140  0.3906
  431MPD2    C3 6479   1.764   3.619  12.710 -0.0517  0.0325  0.6138
  431MPD2    C4 6480   1.648   3.626  12.780  0.3739  0.6644 -0.4598
  431MPD2    C5 6481   1.624   3.727  12.865 -0.1360  0.7450 -1.3026
  431MPD2     H 6482   1.954   3.705  12.677 -0.3677  0.2719  0.5900
  431MPD2    H1 6483   1.561   3.564  12.762  0.7118 -0.1613  0.7542
  431MPD2    H2 6484   1.687   3.912  12.943 -1.7584 -1.0449  0.7261
  431MPD2    H3 6485   1.531   3.726  12.920  0.8642 -0.7410  0.3523
  431MPD2     N 6486   1.770   3.504  12.628 -0.6445 -0.5406 -0.2594
  431MPD2    H5 6487   1.686   3.447  12.619 -1.2519  0.1571  1.0672
  431MPD2    N1 6488   1.933   3.917  12.842  0.9310  0.4516  0.1779
  431MPD2    H7 6489   1.901   3.996  12.898  1.6289 -0.7218  2.2109
  432TMC3    C1 6490   1.887   3.337  12.497 -0.4093 -0.1188  0.0095
  432TMC3    C2 6491   1.973   3.338  12.393 -0.2720  0.1882  0.2755
  432TMC3    C3 6492   2.065   3.238  12.386 -0.6631  1.2456  0.0511
  432TMC3    C4 6493   1.877   3.231  12.582 -0.0996  0.0784 -0.6608
  432TMC3    C5 6494   1.971   3.131  12.564  0.1492 -0.5526 -0.0957
  432TMC3    C6 6495   2.067   3.133  12.467 -0.7908 -0.0131 -0.0108
  432TMC3     C 6496   1.885   3.464  12.561 -0.0369 -0.4367  0.4278
  432TMC3     O 6497   1.994   3.519  12.561 -0.1738  0.1650  0.2840
  432TMC3     H 6498   1.981   3.429  12.335  3.1692 -0.3782 -0.1419
  432TMC3    H1 6499   1.813   3.233  12.670  1.3205 -3.4204  0.4259
  432TMC3    H2 6500   2.144   3.057  12.465  0.9326  1.7473  0.0331
  432TMC3    C7 6501   2.024   3.080  12.690  0.4563  0.1038  0.0233
  432TMC3    C8 6502   2.160   3.249  12.275 -0.5374  0.0371 -0.0735
  432TMC3    O1 6503   2.121   3.002  12.684  0.4766  0.4116 -0.0545
  432TMC3    O2 6504   2.220   3.147  12.237 -0.6170 -0.1719 -0.0403
  433MPD2     C 6505   0.634   3.017  11.267  0.3279 -0.5890  0.6984
  433MPD2    C1 6506   0.733   2.937  11.323  0.4414  0.4444 -0.5262
  433MPD2    C2 6507   0.759   2.961  11.456  0.4296  0.4206 -0.6010
  433MPD2    C3 6508   0.706   3.068  11.520 -0.1001 -0.5456 -0.1508
  433MPD2    C4 6509   0.612   3.151  11.461 -0.4303 -0.1480  0.0214
  433MPD2    C5 6510   0.572   3.120  11.339 -0.1697  0.2019  0.5428
  433MPD2     H 6511   0.840   2.913  11.510  0.1940 -1.3549 -1.8121
  433MPD2    H1 6512   0.567   3.232  11.517  1.5026  1.4603 -0.6974
  433MPD2    H2 6513   0.600   3.000  11.165  0.8169  1.3585  0.2218
  433MPD2    H3 6514   0.493   3.175  11.290  0.4412 -1.0551 -1.8682
  433MPD2     N 6515   0.739   3.078  11.661  0.2112 -0.4922 -0.2516
  433MPD2    H5 6516   0.783   3.001  11.710 -1.8389 -0.8744  0.9938
  433MPD2    N1 6517   0.803   2.851  11.237  0.8292 -0.2312  0.2713
  433MPD2    H7 6518   0.770   2.855  11.141 -0.4017  1.4532  0.7607
  434TMC3    C1 6519   0.961   2.694  11.168 -0.7164 -0.5544  0.0400
  434TMC3    C2 6520   1.080   2.639  11.203 -0.0111 -0.3369  0.0573
  434TMC3    C3 6521   1.104   2.510  11.179 -0.4213  0.1587  0.5039
  434TMC3    C4 6522   0.874   2.621  11.083  0.3412 -0.4088 -0.8346
  434TMC3    C5 6523   0.905   2.490  11.061  0.4539  1.5141 -0.6824
  434TMC3    C6 6524   1.006   2.427  11.120  0.2184  0.5666  0.3038
  434TMC3     C 6525   0.904   2.768  11.277  0.1466  0.5194 -0.0301
  434TMC3     O 6526   0.946   2.751  11.391 -0.0759 -0.8652  0.1575
  434TMC3     H 6527   1.147   2.705  11.258 -1.7413  0.8058  0.7791
  434TMC3    H1 6528   0.779   2.663  11.055 -0.2913 -0.8632  0.6372
  434TMC3    H2 6529   1.035   2.327  11.089  1.4809  1.0181  0.0242
  434TMC3    C7 6530   0.789   2.411  11.047 -0.4643  1.0060 -0.2060
  434TMC3    C8 6531   1.204   2.451  11.275  0.6906 -0.2355  0.0814
  434TMC3    O1 6532   0.696   2.472  10.992 -0.1132  0.0012 -0.0570
  434TMC3    O2 6533   1.296   2.529  11.305  0.1981  0.5946 -0.4674
  435MPD2     C 6534   3.066   2.089  15.551 -0.0982 -0.3563  0.1755
  435MPD2    C1 6535   3.051   2.135  15.681  0.2995 -0.4478 -0.2743
  435MPD2    C2 6536   3.152   2.136  15.775 -0.1510  0.7437 -0.0167
  435MPD2    C3 6537   3.276   2.077  15.750  0.1040  0.5743  0.0182
  435MPD2    C4 6538   3.295   2.028  15.625 -0.3067 -0.1521  0.4727
  435MPD2    C5 6539   3.192   2.046  15.534 -0.0860 -0.3467  0.1969
  435MPD2     H 6540   3.128   2.159  15.878  0.1236  0.9664 -0.0037
  435MPD2    H1 6541   3.383   1.974  15.591  0.4561 -0.9390  3.7696
  435MPD2    H2 6542   2.996   2.098  15.469 -0.9896  0.7497  1.0533
  435MPD2    H3 6543   3.215   2.003  15.437  3.0954 -0.3314  0.9311
  435MPD2     N 6544   3.374   2.076  15.851 -0.7613 -0.2911  0.2583
  435MPD2    H5 6545   3.350   2.105  15.945 -2.9230 -0.5369 -0.2218
  435MPD2    N1 6546   2.927   2.195  15.724  0.4680  0.2396 -0.0377
  435MPD2    H7 6547   2.925   2.214  15.823  2.0746 -3.9079  0.7919
  436TMC3    C1 6548   2.628   2.329  15.940  0.1150  0.3733  0.1598
  436TMC3    C2 6549   2.733   2.275  15.870 -0.2345  0.6553  0.5125
  436TMC3    C3 6550   2.718   2.276  15.731  0.4739  0.2307  0.4155
  436TMC3    C4 6551   2.508   2.373  15.878  0.2466  0.1947  0.6669
  436TMC3    C5 6552   2.506   2.387  15.739 -0.1481 -0.3098 -1.3867
  436TMC3    C6 6553   2.613   2.335  15.664 -0.3465 -0.8236 -0.1387
  436TMC3     C 6554   2.665   2.401  16.063  0.3117  0.2718  0.1014
  436TMC3     O 6555   2.785   2.423  16.086 -0.6379  0.3126  0.6832
  436TMC3     H 6556   2.825   2.252  15.923  0.2511  0.4706 -0.4167
  436TMC3    H1 6557   2.424   2.411  15.935  0.8169  1.4647  0.6681
  436TMC3    H2 6558   2.617   2.338  15.556  2.6778 -1.0552 -0.0309
  436TMC3    C7 6559   2.374   2.409  15.678  0.2376 -0.1591  1.0162
  436TMC3    C8 6560   2.820   2.233  15.640 -0.1330  0.8848  0.4670
  436TMC3    O1 6561   2.275   2.416  15.752  0.2589  0.1775 -0.2927
  436TMC3    O2 6562   2.804   2.216  15.519 -0.2024 -0.1816 -0.5527
  437TMC3    C1 6563   1.763   4.715  12.724 -0.3120  0.1611  0.5001
  437TMC3    C2 6564   1.674   0.034  12.806  0.1443 -0.3639  0.2944
  437TMC3    C3 6565   1.662   0.171  12.796 -0.1444  0.4210 -0.3790
  437TMC3    C4 6566   1.820   0.041  12.622 -0.4085  0.0543  0.0287
  437TMC3    C5 6567   1.801   0.177  12.617  0.4129  0.4964 -0.4863
  437TMC3    C6 6568   1.722   0.245  12.701  0.1050  0.4174 -0.6070
  437TMC3     C 6569   1.863   4.636  12.780 -0.8418  0.3649 -0.2011
  437TMC3     O 6570   1.982   4.664  12.762  0.0164 -0.0864 -0.1337
  437TMC3     H 6571   1.627   4.712  12.881 -1.1512 -2.0632 -1.9361
  437TMC3    H1 6572   1.874   4.731  12.543  0.0841 -1.4986  1.3900
  437TMC3    H2 6573   1.724   0.353  12.704  1.0913  0.2953  2.7490
  437TMC3    C7 6574   1.919   0.245  12.575  0.0777  0.5304  0.2222
  437TMC3    C8 6575   1.553   0.244  12.865 -0.3081  0.1906  0.0365
  437TMC3    O1 6576   1.924   0.363  12.551  0.5656 -0.3257  0.3597
  437TMC3    O2 6577   1.522   0.352  12.829 -0.7401 -0.0950 -0.1518
  438MPD2     C 6578   3.623   4.730  16.908  0.1589  0.4412  0.5136
  438MPD2    C1 6579   3.745   4.708  16.974 -0.1323  0.0354 -0.4949
  438MPD2    C2 6580   3.751   4.699  17.113  1.0714  0.2203  0.7078
  438MPD2    C3 6581   3.638   4.719  17.189  0.8795  0.1996  0.0013
  438MPD2    C4 6582   3.521   0.014  17.120  0.1610  0.6324  0.0818
  438MPD2    C5 6583   3.509   0.015  16.982  0.3792  0.6653  0.4675
  438MPD2     H 6584   3.848   4.687  17.160  0.6616 -1.5255  1.1035
  438MPD2    H1 6585   3.429   0.041  17.171  0.0088 -2.6955  1.5248
  438MPD2    H2 6586   3.605   4.720  16.802  0.5079  0.2962  0.4665
  438MPD2    H3 6587   3.411   0.029  16.940 -0.2505 -1.3005  1.2568
  438MPD2     N 6588   3.634   4.703  17.326  0.1676  0.0068 -0.3270
  438MPD2    H5 6589   3.542   4.700  17.368 -0.5411 -2.6606 -2.0398
  438MPD2    N1 6590   3.870   4.685  16.899 -0.4888 -0.2871 -0.0670
  438MPD2    H7 6591   3.953   4.660  16.952 -0.4255  3.4133  1.5194
  439TMC3    C1 6592   3.997   4.622  16.714  0.4930  0.0985  0.6454
  439TMC3    C2 6593   3.989   4.584  16.586 -0.0737 -0.0417 -0.6417
  439TMC3    C3 6594   4.087   4.618  16.492  0.1730 -0.0639  0.2381
  439TMC3    C4 6595   4.106   4.691  16.759  0.1028  0.7147  0.0607
  439TMC3    C5 6596   4.203   4.726  16.662  0.4044 -0.1398  0.1559
  439TMC3    C6 6597   4.184   4.699  16.530 -0.0036 -0.4369  0.6588
  439TMC3     C 6598   3.871   4.669  16.760  0.0598 -0.3480 -0.3415
  439TMC3     O 6599   3.789   4.697  16.675 -0.5836  0.3349 -0.5490
  439TMC3     H 6600   3.900   4.529  16.558 -1.3684  1.6771  0.1394
  439TMC3    H1 6601   4.105   4.722  16.863 -2.0527 -0.6549  0.4492
  439TMC3    H2 6602   4.250   4.731  16.450 -1.0037  1.2327  0.4826
  439TMC3    C7 6603   4.328   4.686  16.709  0.0995 -0.0309 -0.9890
  439TMC3    C8 6604   4.125   4.518  16.389 -0.2582 -0.1368  0.6014
  439TMC3    O1 6605   4.337   4.638  16.820 -0.4110  0.7058 -0.2017
  439TMC3    O2 6606   4.244   4.499  16.380  0.1421  0.5408  0.3239
  440MPD2     C 6607   2.483   0.534  15.432 -0.4278  0.0762  0.1430
  440MPD2    C1 6608   2.605   0.601  15.425  0.5699  0.3999 -0.6267
  440MPD2    C2 6609   2.720   0.523  15.402  0.1564  0.8012 -0.0585
  440MPD2    C3 6610   2.713   0.389  15.381  0.7876  0.1827  0.2504
  440MPD2    C4 6611   2.590   0.329  15.387  0.6811  0.5588  0.2544
  440MPD2    C5 6612   2.476   0.397  15.412 -0.2486 -0.2414  0.6120
  440MPD2     H 6613   2.812   0.577  15.384  0.3184  1.4815  2.7628
  440MPD2    H1 6614   2.577   0.222  15.382  2.1627  0.3892  0.0428
  440MPD2    H2 6615   2.383   0.574  15.444 -0.3453  1.3493 -3.4581
  440MPD2    H3 6616   2.380   0.347  15.412  0.9084 -2.4822  0.7926
  440MPD2     N 6617   2.831   0.301  15.376  0.7852  0.1994 -0.3175
  440MPD2    H5 6618   2.810   0.202  15.373 -0.5262  0.3249  4.6335
  440MPD2    N1 6619   2.619   0.745  15.459  0.0266 -0.3934 -0.3073
  440MPD2    H7 6620   2.709   0.785  15.484 -1.0502  1.9232 -0.0690
  441TMC3    C1 6621   3.063   0.248  15.381 -0.7445 -0.2752 -0.5962
  441TMC3    C2 6622   3.192   0.286  15.353 -0.6106 -0.2495  0.3194
  441TMC3    C3 6623   3.297   0.235  15.416 -0.3591  0.0971  0.0242
  441TMC3    C4 6624   3.040   0.147  15.467 -0.3357 -0.5388  0.6659
  441TMC3    C5 6625   3.143   0.103  15.544  0.1359  0.9458  0.0650
  441TMC3    C6 6626   3.273   0.143  15.518 -0.6087 -0.4781 -0.2754
  441TMC3     C 6627   2.959   0.350  15.360  0.3241 -0.0242 -0.3267
  441TMC3     O 6628   2.999   0.459  15.319  0.6613 -0.5658 -0.0709
  441TMC3     H 6629   3.193   0.356  15.270 -1.0373 -0.4389  0.1551
  441TMC3    H1 6630   2.938   0.124  15.495 -0.8040  1.1310  0.2952
  441TMC3    H2 6631   3.362   0.104  15.567  0.3465  0.3595 -1.3234
  441TMC3    C7 6632   3.105   0.061  15.676 -0.2911  0.3104  0.6084
  441TMC3    C8 6633   3.415   0.314  15.441  0.3797  0.5789  0.3352
  441TMC3    O1 6634   2.987   0.063  15.705  0.0505 -0.2958 -0.5459
  441TMC3    O2 6635   3.469   0.293  15.548 -0.1414 -0.5731 -0.1934
  442MPD2     C 6636   1.087   0.967  16.406 -0.1218  0.2129 -0.2586
  442MPD2    C1 6637   0.974   0.902  16.448  0.7695  0.0793 -0.3021
  442MPD2    C2 6638   0.957   0.768  16.407 -0.2882 -0.3972  0.6602
  442MPD2    C3 6639   1.046   0.711  16.313 -0.1934 -0.7324 -0.1687
  442MPD2    C4 6640   1.158   0.778  16.272 -0.4023 -0.1163 -1.4200
  442MPD2    C5 6641   1.176   0.909  16.320 -0.2483 -0.6406  0.6509
  442MPD2     H 6642   0.871   0.713  16.443 -0.3242 -0.1596  0.9394
  442MPD2    H1 6643   1.222   0.730  16.198  0.3809 -1.4969  0.1498
  442MPD2    H2 6644   1.119   1.066  16.437  2.4097 -0.6121 -0.2539
  442MPD2    H3 6645   1.261   0.970  16.293 -2.0131  2.1877  1.3953
  442MPD2     N 6646   1.026   0.586  16.262 -0.3761  0.6571 -0.0592
  442MPD2    H5 6647   1.096   0.552  16.197 -0.6706  1.8220 -0.9949
  442MPD2    N1 6648   0.886   0.959  16.541 -0.3991 -0.0283  0.5883
  442MPD2    H7 6649   0.814   0.903  16.585 -0.2902  0.6661  1.6503
  443TMC3    C1 6650   0.794   1.136  16.672 -0.1451 -0.6135 -0.3218
  443TMC3    C2 6651   0.724   1.246  16.625  0.3637 -0.5212 -0.4231
  443TMC3    C3 6652   0.607   1.264  16.700 -0.3750  0.4765  0.4197
  443TMC3    C4 6653   0.756   1.054  16.777 -0.1358 -0.6332  0.0421
  443TMC3    C5 6654   0.651   1.092  16.851  0.5805 -0.5524 -0.1628
  443TMC3    C6 6655   0.572   1.197  16.813  0.5726  0.3720 -0.1958
  443TMC3     C 6656   0.895   1.093  16.582  0.0295 -0.0685  0.0244
  443TMC3     O 6657   0.962   1.181  16.534 -0.3316 -0.6479  0.1403
  443TMC3     H 6658   0.760   1.314  16.548  1.9432 -0.0170  0.7643
  443TMC3    H1 6659   0.816   0.965  16.792 -1.2855 -1.2371  1.0594
  443TMC3    H2 6660   0.492   1.238  16.872 -0.0091 -0.6725 -0.2648
  443TMC3    C7 6661   0.594   0.989  16.941 -0.0596  0.3337 -0.1435
  443TMC3    C8 6662   0.541   1.392  16.678  0.6974 -0.1986  0.2574
  443TMC3    O1 6663   0.616   0.870  16.916  0.2172  0.5063 -0.0482
  443TMC3    O2 6664   0.512   1.452  16.778  0.2086 -0.0169  0.2708
  444MPD2     C 6665   1.028   0.527  16.729 -0.4742  0.1954  0.9014
  444MPD2    C1 6666   0.929   0.427  16.725 -0.3515 -0.3217  0.0960
  444MPD2    C2 6667   0.951   0.323  16.635 -0.5079 -0.2615  0.2709
  444MPD2    C3 6668   1.074   0.309  16.569  0.3107 -0.4676  0.2860
  444MPD2    C4 6669   1.165   0.408  16.574  0.4654  0.4269 -0.0925
  444MPD2    C5 6670   1.140   0.523  16.654  0.0294 -0.0891  0.3948
  444MPD2     H 6671   0.881   0.241  16.621  0.2832 -0.9542  0.3252
  444MPD2    H1 6672   1.247   0.397  16.504  2.6147  2.8489  2.0489
  444MPD2    H2 6673   1.020   0.612  16.796  0.6064  0.2314  0.9751
  444MPD2    H3 6674   1.216   0.600  16.663 -1.2761  1.2098  0.2990
  444MPD2     N 6675   1.113   0.187  16.508  0.2639  0.1149  0.0756
  444MPD2    H5 6676   1.034   0.126  16.489 -0.5702  1.1434  0.2708
  444MPD2    N1 6677   0.826   0.426  16.814  0.6204  0.1184 -0.1866
  444MPD2    H7 6678   0.774   0.339  16.822 -1.1773  1.3767  2.1334
  445TMC3    C1 6679   1.241   0.005  16.448 -0.4123 -0.7011 -0.4031
  445TMC3    C2 6680   1.147   4.711  16.355 -0.2640  0.2166  0.2475
  445TMC3    C3 6681   1.151   4.595  16.281  0.6910  0.2247  0.5622
  445TMC3    C4 6682   1.336   4.660  16.477  0.9470  0.2034  0.6807
  445TMC3    C5 6683   1.330   4.543  16.415  0.2373 -0.5447  0.0592
  445TMC3    C6 6684   1.234   4.496  16.321  0.4877 -0.5818  0.5369
  445TMC3     C 6685   1.243   0.144  16.495 -0.0261  0.3476 -0.3427
  445TMC3     O 6686   1.344   0.185  16.551 -0.6630 -0.2115 -0.2833
  445TMC3     H 6687   1.089   0.048  16.306  0.8084  0.1492 -1.1540
  445TMC3    H1 6688   1.412   4.680  16.552  1.1946  0.0727  0.4618
  445TMC3    H2 6689   1.235   4.396  16.279 -0.6543 -0.3458 -0.0596
  445TMC3    C7 6690   1.459   4.481  16.403  0.3186  0.5145 -0.0567
  445TMC3    C8 6691   1.038   4.573  16.197 -0.7604  0.1049 -0.6428
  445TMC3    O1 6692   1.555   4.544  16.443 -0.0797 -0.1397 -0.2656
  445TMC3    O2 6693   0.943   4.650  16.207  0.5276 -0.1462  0.2365
  446MPD2     C 6694   0.809   2.373  11.773 -0.5797  0.3774  0.0182
  446MPD2    C1 6695   0.782   2.424  11.651  0.0188  0.7697  0.4540
  446MPD2    C2 6696   0.880   2.501  11.593  0.1449  0.0760  0.3795
  446MPD2    C3 6697   1.002   2.533  11.658  0.1026  0.6108  0.2994
  446MPD2    C4 6698   1.025   2.478  11.783 -0.6373  0.2512  0.1454
  446MPD2    C5 6699   0.928   2.403  11.832  0.6813 -0.3109  0.6145
  446MPD2     H 6700   0.873   2.525  11.488 -0.5188  1.4450  0.7378
  446MPD2    H1 6701   1.113   2.498  11.843 -0.5328  2.0098 -0.5841
  446MPD2    H2 6702   0.739   2.310  11.825 -0.0343 -1.1778 -1.1421
  446MPD2    H3 6703   0.926   2.367  11.934 -0.3955 -0.7636  0.4395
  446MPD2     N 6704   1.095   2.623  11.605  0.2753  0.1627  0.0690
  446MPD2    H5 6705   1.070   2.680  11.524  0.7588 -0.6678 -0.6651
  446MPD2    N1 6706   0.662   2.405  11.587  0.0686 -0.0120  0.2002
  446MPD2    H7 6707   0.652   2.476  11.516 -1.2798  0.4152  0.8009
  447TMC3    C1 6708   1.316   2.715  11.556 -0.0719 -0.3735 -0.1612
  447TMC3    C2 6709   1.250   2.818  11.496 -0.6014  0.0831  0.1411
  447TMC3    C3 6710   1.319   2.884  11.396  0.0711  0.2976 -0.8220
  447TMC3    C4 6711   1.443   2.666  11.518 -0.3973 -0.2192  0.0976
  447TMC3    C5 6712   1.500   2.737  11.415 -0.2343 -0.4737  0.3159
  447TMC3    C6 6713   1.442   2.845  11.352 -0.9594 -0.0012 -0.2733
  447TMC3     C 6714   1.229   2.631  11.640 -0.0216  0.0055 -0.1591
  447TMC3     O 6715   1.295   2.562  11.720  0.3548 -0.1782  0.3175
  447TMC3     H 6716   1.156   2.856  11.534 -0.8225 -0.5981  0.2711
  447TMC3    H1 6717   1.484   2.581  11.572 -0.8640  0.2941  1.2691
  447TMC3    H2 6718   1.482   2.893  11.263 -1.6949  1.9520  0.4463
  447TMC3    C7 6719   1.634   2.693  11.373  0.2043 -0.3540  0.8103
  447TMC3    C8 6720   1.255   3.001  11.334  0.5049  0.1937  0.2449
  447TMC3    O1 6721   1.658   2.571  11.390  0.4877  0.3920  0.1971
  447TMC3    O2 6722   1.137   3.002  11.336 -0.0663 -0.2740  0.2134
  448TMC3    C1 6723   4.221   1.250  17.208 -0.2774 -0.0664 -0.3289
  448TMC3    C2 6724   4.130   1.229  17.106 -0.4365  0.5833 -0.7268
  448TMC3    C3 6725   4.065   1.107  17.110 -0.0050  0.2362 -0.0557
  448TMC3    C4 6726   4.238   1.162  17.317 -0.3253 -0.4506  0.1539
  448TMC3    C5 6727   4.158   1.051  17.323  0.5219 -0.0433 -0.1584
  448TMC3    C6 6728   4.072   1.016  17.219  0.1717 -0.0128  0.6724
  448TMC3     C 6729   4.282   1.382  17.208 -0.0794  0.7050 -0.4807
  448TMC3     O 6730   4.308   1.439  17.101  0.2180 -0.0366  0.2141
  448TMC3     H 6731   4.126   1.294  17.019  0.9880  0.6221 -0.7636
  448TMC3    H1 6732   4.306   1.183  17.399  3.2275 -0.2641 -2.8369
  448TMC3    H2 6733   4.038   0.913  17.207  1.0812 -0.5357  2.6044
  448TMC3    C7 6734   4.178   0.949  17.423 -0.0840 -0.5423  0.8397
  448TMC3    C8 6735   3.992   1.055  16.993 -0.1052 -0.4171  0.1051
  448TMC3    O1 6736   4.174   0.834  17.377 -0.4823  0.2019 -0.1228
  448TMC3    O2 6737   3.978   0.933  16.995  0.3412 -0.3345 -0.1538
  449MPD2     C 6738   0.882   4.696  14.270  0.4291  0.8242 -0.1357
  449MPD2    C1 6739   0.771   4.639  14.203 -0.1870  0.1504 -0.0827
  449MPD2    C2 6740   0.703   4.533  14.259 -0.4279  0.1800 -0.1116
  449MPD2    C3 6741   0.736   4.487  14.391 -0.2110 -0.5688  1.0618
  449MPD2    C4 6742   0.841   4.538  14.452  0.3250 -0.3556 -0.4801
  449MPD2    C5 6743   0.909   4.645  14.393 -1.0464 -0.3613 -0.1544
  449MPD2     H 6744   0.621   4.492  14.202 -1.8745  1.2807  1.1636
  449MPD2    H1 6745   0.875   4.495  14.545  0.0458  0.6573  0.0878
  449MPD2    H2 6746   0.943   0.034  14.227  0.9424 -0.4209 -1.7241
  449MPD2    H3 6747   0.986   4.696  14.450  0.2305 -0.8391 -1.4511
  449MPD2     N 6748   0.659   4.381  14.436  0.0586  0.4723 -0.0813
  449MPD2    H5 6749   0.583   4.357  14.374  1.0233  1.0387 -1.4644
  449MPD2    N1 6750   0.740   4.671  14.063  0.1591  0.9622 -0.5903
  449MPD2    H7 6751   0.659   4.625  14.021  0.3842 -0.8412  0.9699
  450TMC3    C1 6752   0.744   4.741  13.849  0.1880 -0.6563 -0.1486
  450TMC3    C2 6753   0.818   4.681  13.753  0.0858 -0.0193  0.2408
  450TMC3    C3 6754   0.756   4.592  13.670  0.3688 -0.2193  0.0937
  450TMC3    C4 6755   0.610   4.714  13.862 -0.8947 -0.1421 -0.4814
  450TMC3    C5 6756   0.545   4.622  13.788 -0.0944  0.0604  0.7818
  450TMC3    C6 6757   0.619   4.560  13.688  0.1275  0.3132 -0.1235
  450TMC3     C 6758   0.817   4.737  13.971  1.0336  0.0052 -0.6017
  450TMC3     O 6759   0.938   0.021  13.977  0.3759 -0.4052 -0.2450
  450TMC3     H 6760   0.927   4.687  13.755  0.0826  0.6334 -1.4429
  450TMC3    H1 6761   0.558   0.013  13.948  1.0163  1.7124 -0.2072
  450TMC3    H2 6762   0.573   4.483  13.628 -0.6596  0.3451  0.4443
  450TMC3    C7 6763   0.473   4.522  13.873 -0.9330  0.6935 -0.6496
  450TMC3    C8 6764   0.834   4.471  13.672 -0.1674 -0.0201  0.3511
  450TMC3    O1 6765   0.494   4.532  13.993 -0.3043  0.2620  0.0099
  450TMC3    O2 6766   0.784   4.369  13.718 -0.4215  0.0951 -0.1975
  451MPD2     C 6767   1.813   3.524   1.014  0.0252 -0.4327  0.0475
  451MPD2    C1 6768   1.830   3.606   0.905  0.2939 -0.1764 -0.0921
  451MPD2    C2 6769   1.901   3.549   0.800  1.0694 -0.2167  0.5179
  451MPD2    C3 6770   1.959   3.422   0.807 -0.4864 -0.6018  0.6076
  451MPD2    C4 6771   1.950   3.351   0.929 -0.1911 -0.2784  0.4260
  451MPD2    C5 6772   1.874   3.401   1.026 -0.2944  0.2510  0.3994
  451MPD2     H 6773   1.914   3.605   0.708 -1.3107 -1.0781 -0.3407
  451MPD2    H1 6774   2.001   3.256   0.937  3.1387  1.3333 -2.0131
  451MPD2    H2 6775   1.758   3.550   1.104  1.2928  1.1297  0.3886
  451MPD2    H3 6776   1.851   3.339   1.112 -1.7802 -0.8133 -0.7614
  451MPD2     N 6777   2.020   3.364   0.690  0.0052  0.0250  0.0730
  451MPD2    H5 6778   2.046   3.267   0.704  0.6584  0.2173  0.2039
  451MPD2    N1 6779   1.761   3.732   0.894  0.8350 -0.1814 -0.7484
  451MPD2    H7 6780   1.714   3.757   0.980 -1.9400 -1.8784 -1.7987
  452TMC3    C1 6781   2.079   3.332   0.469 -0.4069  0.1976 -0.1096
  452TMC3    C2 6782   2.026   3.204   0.471 -1.2089  0.3112 -0.0854
  452TMC3    C3 6783   2.037   3.118   0.363  0.3010  0.0879  0.1932
  452TMC3    C4 6784   2.133   3.388   0.353 -0.2259 -0.5372 -0.0632
  452TMC3    C5 6785   2.124   3.308   0.241 -0.5042  0.0223  0.5097
  452TMC3    C6 6786   2.080   3.171   0.244  0.0431  0.0570 -0.2088
  452TMC3     C 6787   2.044   3.430   0.569 -0.0575 -1.4341  0.3804
  452TMC3     O 6788   2.027   3.541   0.528  0.3928 -0.0805  0.0134
  452TMC3     H 6789   2.022   3.154   0.567 -0.4964  0.0321 -0.1977
  452TMC3    H1 6790   2.170   3.489   0.346 -0.1190 -0.6692 -1.4141
  452TMC3    H2 6791   2.073   3.100   0.163  1.8925  0.2688 -0.5416
  452TMC3    C7 6792   2.135   3.378   0.112 -0.0252 -0.3691 -0.9197
  452TMC3    C8 6793   1.946   3.008   0.360 -0.2834 -0.5039  0.1035
  452TMC3    O1 6794   2.174   3.495   0.117 -0.2158 -0.1974  0.2890
  452TMC3    O2 6795   1.962   2.923   0.271  0.0696  0.2846  0.6487
  453TMC3    C1 6796   2.620   1.111  11.824 -0.4216 -0.3594  0.3813
  453TMC3    C2 6797   2.524   1.024  11.776  0.0092  0.1070 -0.1377
  453TMC3    C3 6798   2.410   1.088  11.724 -0.0670 -0.4319  0.3388
  453TMC3    C4 6799   2.611   1.249  11.794 -0.6790 -0.1271 -0.3420
  453TMC3    C5 6800   2.500   1.298  11.748  0.0497 -0.6186  0.2537
  453TMC3    C6 6801   2.394   1.218  11.703  0.4773  0.0246 -0.5660
  453TMC3     C 6802   2.731   1.061  11.908  0.6270 -0.4707  0.4132
  453TMC3     O 6803   2.834   1.129  11.911 -0.2165  0.5098  0.3554
  453TMC3     H 6804   2.533   0.917  11.787 -0.6386  0.1421  0.7199
  453TMC3    H1 6805   2.694   1.313  11.824  0.0603 -1.4156  0.3814
  453TMC3    H2 6806   2.298   1.263  11.681  1.1659  1.4107 -0.7356
  453TMC3    C7 6807   2.493   1.440  11.737  0.4587  0.5418 -0.1230
  453TMC3    C8 6808   2.307   1.004  11.682 -0.3731  0.0090 -0.0127
  453TMC3    O1 6809   2.389   1.501  11.756  0.3493 -0.6840  0.2113
  453TMC3    O2 6810   2.221   1.047  11.611 -0.6983  0.0818  0.2964
  454MPD2     C 6811   1.893   0.024  16.260  0.2588 -0.2742 -0.8657
  454MPD2    C1 6812   1.883   0.085  16.136  0.8182  0.0377 -0.0119
  454MPD2    C2 6813   1.870   0.221  16.131 -0.3527 -0.8337  0.5230
  454MPD2    C3 6814   1.875   0.300  16.244 -0.5322 -0.7897  0.0759
  454MPD2    C4 6815   1.906   0.236  16.365 -0.1107  0.2594 -0.0262
  454MPD2    C5 6816   1.921   0.099  16.370  1.0354  0.3711  0.2641
  454MPD2     H 6817   1.838   0.274  16.042 -2.4115  0.4280  2.0164
  454MPD2    H1 6818   1.900   0.290  16.458 -2.8565  0.5225 -0.3522
  454MPD2    H2 6819   1.878   4.658  16.265 -0.0238 -0.2336 -0.8160
  454MPD2    H3 6820   1.954   0.057  16.464  1.9347  0.6242  0.0589
  454MPD2     N 6821   1.839   0.437  16.247  0.2850 -0.1104 -0.2684
  454MPD2    H5 6822   1.822   0.474  16.340  0.3275  0.5561 -0.5269
  454MPD2    N1 6823   1.855   0.017  16.016  0.2806 -0.4117  0.2540
  454MPD2    H7 6824   1.846   0.072  15.931  1.3100 -0.0970  0.3523
  455TMC3    C1 6825   1.690   0.599  16.172 -0.0863 -0.0914  0.2816
  455TMC3    C2 6826   1.688   0.675  16.279 -0.8877  0.3174 -0.2739
  455TMC3    C3 6827   1.565   0.692  16.344 -0.4272  0.3408 -0.4633
  455TMC3    C4 6828   1.575   0.539  16.127  0.2870  0.2620 -0.0362
  455TMC3    C5 6829   1.453   0.545  16.199 -0.0095  0.3091  0.4413
  455TMC3    C6 6830   1.453   0.616  16.318  0.6320 -0.3824  0.1369
  455TMC3     C 6831   1.806   0.522  16.142  0.2192 -0.4328  0.1508
  455TMC3     O 6832   1.828   0.497  16.025 -0.0760 -0.1084  0.5034
  455TMC3     H 6833   1.777   0.710  16.329 -1.6137  1.0337  0.5162
  455TMC3    H1 6834   1.579   0.473  16.042  2.5230 -1.4071  1.3753
  455TMC3    H2 6835   1.362   0.635  16.374  0.6549  0.6338 -0.1649
  455TMC3    C7 6836   1.373   0.427  16.191 -0.4965 -0.5181 -0.2556
  455TMC3    C8 6837   1.572   0.754  16.472  0.5606 -0.3539 -0.2305
  455TMC3    O1 6838   1.256   0.432  16.163 -0.0101 -0.6233  0.5921
  455TMC3    O2 6839   1.480   0.716  16.549 -0.5444  0.1254  0.1674
  456MPD2     C 6840   4.467   0.658  15.794 -0.2516  0.8411 -0.7019
  456MPD2    C1 6841   4.431   0.528  15.810  0.5204  0.2439  0.1697
  456MPD2    C2 6842   4.318   0.506  15.887 -0.4597 -0.0974 -0.2144
  456MPD2    C3 6843   4.253   0.610  15.951  0.2779  0.2308 -0.3873
  456MPD2    C4 6844   4.304   0.741  15.941  0.2340 -0.3179  0.7366
  456MPD2    C5 6845   4.411   0.764  15.854 -0.2834  0.0846  0.3543
  456MPD2     H 6846   4.284   0.406  15.910  0.9863  0.1413  2.9518
  456MPD2    H1 6847   4.270   0.830  15.992 -1.3765 -1.0356  0.9117
  456MPD2    H2 6848   4.562   0.676  15.744 -0.4338 -0.7800 -1.6043
  456MPD2    H3 6849   4.451   0.865  15.855 -0.9496  0.3354  1.5032
  456MPD2     N 6850   4.160   0.574  16.048 -0.6654  0.1058 -0.1252
  456MPD2    H5 6851   4.138   0.476  16.058 -3.6984  0.8454  0.4521
  456MPD2    N1 6852   4.506   0.423  15.753 -0.5702  0.6908 -0.3061
  456MPD2    H7 6853   4.579   0.453  15.689  0.0993 -0.0324  0.1097
  457TMC3    C1 6854   4.039   0.594  16.256  0.2436  0.6148  0.7460
  457TMC3    C2 6855   3.966   0.684  16.329 -0.7290  0.5076  0.1397
  457TMC3    C3 6856   3.916   0.645  16.454 -0.1885 -0.7155  0.5991
  457TMC3    C4 6857   4.076   0.468  16.303 -0.1640 -0.0936 -0.2822
  457TMC3    C5 6858   4.031   0.433  16.434  0.2993 -0.3223 -0.2390
  457TMC3    C6 6859   3.949   0.522  16.506  0.4229 -0.5123 -0.0872
  457TMC3     C 6860   4.104   0.656  16.142  0.1512 -0.0136  0.3075
  457TMC3     O 6861   4.125   0.777  16.162 -0.0225  0.4747 -0.5901
  457TMC3     H 6862   3.937   0.780  16.288 -2.0515  0.2575  0.4702
  457TMC3    H1 6863   4.136   0.399  16.244 -0.3499  1.0435 -1.8222
  457TMC3    H2 6864   3.911   0.493  16.603  0.6732  0.2493  0.2394
  457TMC3    C7 6865   4.116   0.360  16.532  0.3534 -0.2067 -0.3585
  457TMC3    C8 6866   3.897   0.748  16.553  0.4295 -0.4771  0.3363
  457TMC3    O1 6867   4.068   0.335  16.639  0.4454  0.4864 -0.4711
  457TMC3    O2 6868   3.914   0.717  16.669 -0.0085 -0.3598  0.0333
  458MPD2     C 6869   2.412   0.267  12.695  0.6907  0.0877  0.5302
  458MPD2    C1 6870   2.373   0.135  12.719 -0.1163 -0.2401  0.4804
  458MPD2    C2 6871   2.243   0.105  12.680  0.2816  0.3089  0.7181
  458MPD2    C3 6872   2.165   0.195  12.620  0.3423  0.2040  1.0155
  458MPD2    C4 6873   2.208   0.318  12.598  0.0839 -0.7241  0.0103
  458MPD2    C5 6874   2.333   0.358  12.641  0.0268  0.2294  0.1723
  458MPD2     H 6875   2.205   0.006  12.698 -1.1032  0.9358  1.2472
  458MPD2    H1 6876   2.143   0.391  12.552  1.6323  2.0745  2.2587
  458MPD2    H2 6877   2.510   0.299  12.727 -0.0111  2.2547  0.5523
  458MPD2    H3 6878   2.361   0.461  12.626 -0.8906  0.1471 -2.0981
  458MPD2     N 6879   2.029   0.161  12.595 -0.3145  0.0652 -0.2827
  458MPD2    H5 6880   2.008   0.064  12.618 -0.2154 -0.1897 -1.2655
  458MPD2    N1 6881   2.460   0.049  12.789  0.0145  0.1363  0.3150
  458MPD2    H7 6882   2.537   0.092  12.840 -1.0054  2.0988  0.1903
  459TMC3    C1 6883   2.527   4.604  12.931  0.1756 -0.3489  0.2854
  459TMC3    C2 6884   2.644   4.668  12.962  0.2275 -0.3284  0.3069
  459TMC3    C3 6885   2.678   4.663  13.091 -0.1395 -0.8734  0.4279
  459TMC3    C4 6886   2.458   4.533  13.024  0.4344  0.4020 -0.5845
  459TMC3    C5 6887   2.503   4.522  13.155 -0.0167 -0.5842 -0.3484
  459TMC3    C6 6888   2.604   4.601  13.195  0.6792  0.3626  0.0074
  459TMC3     C 6889   2.442   4.652  12.819  0.6210  0.0287 -0.8487
  459TMC3     O 6890   2.381   4.561  12.763 -0.1027 -0.1171 -0.6175
  459TMC3     H 6891   2.687   4.732  12.887 -0.2872 -2.4944 -1.8347
  459TMC3    H1 6892   2.365   4.485  12.994  0.1023  1.8144 -1.8106
  459TMC3    H2 6893   2.638   4.598  13.298  0.3801  1.9858  0.1465
  459TMC3    C7 6894   2.455   4.428  13.251  0.3179  0.2004  0.9108
  459TMC3    C8 6895   2.810   4.705  13.123  0.4991  0.4970  0.7491
  459TMC3    O1 6896   2.398   4.327  13.219  0.5236 -0.4964  0.2310
  459TMC3    O2 6897   2.843   4.712  13.240 -0.2160  0.8487 -0.0862
  460MPD2     C 6898   1.414   3.295  11.164  0.3183  0.2547  0.7901
  460MPD2    C1 6899   1.316   3.208  11.200  0.2375  0.2567 -0.5729
  460MPD2    C2 6900   1.197   3.237  11.146 -0.1788  0.2498 -0.5380
  460MPD2    C3 6901   1.174   3.335  11.053  0.6586 -0.6025  0.0748
  460MPD2    C4 6902   1.274   3.420  11.018 -0.1421  0.1986  0.2617
  460MPD2    C5 6903   1.395   3.396  11.076 -0.4004  0.3831 -0.1649
  460MPD2     H 6904   1.108   3.177  11.162  0.5002 -0.1586  1.6378
  460MPD2    H1 6905   1.261   3.504  10.951 -0.4333  1.0619  1.4045
  460MPD2    H2 6906   1.516   3.273  11.194  1.4550  2.8059 -1.1935
  460MPD2    H3 6907   1.471   3.472  11.062  0.6032 -0.4118  1.0059
  460MPD2     N 6908   1.043   3.335  11.006  0.6506 -0.5347  0.0153
  460MPD2    H5 6909   0.981   3.272  11.056  0.5468  0.4544  1.1429
  460MPD2    N1 6910   1.346   3.098  11.283 -0.6012 -0.6012  0.3739
  460MPD2    H7 6911   1.440   3.083  11.317  0.0785  1.6831 -0.5048
  461TMC3    C1 6912   0.854   3.373  10.869 -0.2912 -0.4943 -0.1526
  461TMC3    C2 6913   0.812   3.244  10.891  0.8945  0.3035 -0.7801
  461TMC3    C3 6914   0.684   3.219  10.878 -0.0011 -0.2319 -0.1024
  461TMC3    C4 6915   0.777   3.475  10.815 -0.0641  0.8411  0.2007
  461TMC3    C5 6916   0.647   3.440  10.791 -0.5813  0.2758 -0.2186
  461TMC3    C6 6917   0.598   3.309  10.822 -0.3131 -0.0099  0.1162
  461TMC3     C 6918   0.991   3.408  10.907  0.0939 -0.2859 -0.5799
  461TMC3     O 6919   1.034   3.509  10.853  0.1188  0.4432  0.2951
  461TMC3     H 6920   0.874   3.163  10.929  0.3302 -0.4359 -1.4430
  461TMC3    H1 6921   0.817   3.575  10.804 -2.4431  1.5205 -2.3087
  461TMC3    H2 6922   0.504   3.264  10.789  0.6093 -0.5102 -1.8502
  461TMC3    C7 6923   0.557   3.523  10.701 -0.3099 -0.7757  0.1500
  461TMC3    C8 6924   0.647   3.076  10.864 -0.5453 -0.1458 -0.0674
  461TMC3    O1 6925   0.445   3.477  10.685  0.3803 -0.0569  0.3124
  461TMC3    O2 6926   0.742   2.999  10.832  0.5895 -0.3284 -0.4678
  462TMC3    C1 6927   1.034   3.576   0.458 -0.6325  0.2082 -0.7777
  462TMC3    C2 6928   1.166   3.580   0.492 -0.1161 -0.3016  0.3572
  462TMC3    C3 6929   1.237   3.461   0.493  0.6282  0.4796 -0.1196
  462TMC3    C4 6930   0.968   3.459   0.425 -0.2500 -0.1997 -0.1893
  462TMC3    C5 6931   1.038   3.342   0.443 -0.4266 -0.3061  0.2170
  462TMC3    C6 6932   1.176   3.343   0.453 -0.5394 -0.2806 -0.1181
  462TMC3     C 6933   0.973   3.701   0.411 -0.6612  0.4437 -0.4697
  462TMC3     O 6934   0.865   3.679   0.357 -0.4063  0.1563 -0.6102
  462TMC3     H 6935   1.217   3.671   0.523  2.5007 -1.8549  0.5535
  462TMC3    H1 6936   0.862   3.457   0.399 -0.1730  0.3016 -0.5325
  462TMC3    H2 6937   1.224   3.256   0.498 -2.9277 -1.3739  0.3107
  462TMC3    C7 6938   0.974   3.211   0.423 -0.0392 -0.3555 -0.2585
  462TMC3    C8 6939   1.373   3.468   0.440 -0.1679 -0.4674 -0.3179
  462TMC3    O1 6940   1.051   3.117   0.409 -0.4895 -0.1557  0.2127
  462TMC3    O2 6941   1.423   3.577   0.450 -0.1570 -0.6278 -0.2633
  463MPD2     C 6942   1.875   2.808   1.194 -0.5144 -0.1938 -0.0039
  463MPD2    C1 6943   1.935   2.692   1.243  0.1923  0.2240  0.6330
  463MPD2    C2 6944   2.074   2.672   1.240  0.4647  0.6612  0.1007
  463MPD2    C3 6945   2.154   2.776   1.187 -0.1347 -0.3811  0.8282
  463MPD2    C4 6946   2.094   2.894   1.151 -0.6246 -0.6143 -0.3610
  463MPD2    C5 6947   1.959   2.912   1.163 -0.4555  0.0313  0.9025
  463MPD2     H 6948   2.122   2.583   1.278 -0.9853  0.7058  2.1058
  463MPD2    H1 6949   2.147   2.984   1.121 -1.6023 -0.1327 -0.6639
  463MPD2    H2 6950   1.767   2.806   1.196 -0.4732 -1.0587  1.5894
  463MPD2    H3 6951   1.913   3.007   1.136 -2.0829 -1.1726 -0.5634
  463MPD2     N 6952   2.294   2.772   1.173  0.9493 -0.3272 -0.0916
  463MPD2    H5 6953   2.338   2.857   1.139 -0.4284 -0.1103 -1.3199
  463MPD2    N1 6954   1.858   2.581   1.290  0.0679  0.3256  0.3603
  463MPD2    H7 6955   1.910   2.499   1.321 -1.1331 -0.3650  0.5606
  464TMC3    C1 6956   1.707   2.422   1.306 -0.3766  0.5079  0.2158
  464TMC3    C2 6957   1.580   2.386   1.332 -0.1348 -0.5542  0.6036
  464TMC3    C3 6958   1.554   2.249   1.358 -0.3297  0.1258  0.1349
  464TMC3    C4 6959   1.815   2.329   1.318  0.2273 -0.8845 -0.0978
  464TMC3    C5 6960   1.784   2.198   1.334  0.3426  0.1386  0.0239
  464TMC3    C6 6961   1.656   2.154   1.362  0.8024 -0.3442  0.3162
  464TMC3     C 6962   1.732   2.557   1.278  0.6019 -0.6424 -0.0872
  464TMC3     O 6963   1.640   2.619   1.224 -0.0452  0.1849  0.5826
  464TMC3     H 6964   1.495   2.453   1.342  0.6973  0.2984  1.9161
  464TMC3    H1 6965   1.909   2.353   1.270  0.3518 -0.5330  0.3170
  464TMC3    H2 6966   1.627   2.051   1.378  2.3006 -0.9347 -0.7619
  464TMC3    C7 6967   1.883   2.099   1.281 -0.8049  0.5181  0.0335
  464TMC3    C8 6968   1.424   2.198   1.329  0.5702  0.0564  0.1410
  464TMC3    O1 6969   1.992   2.139   1.245 -0.0015  0.6362 -0.4930
  464TMC3    O2 6970   1.428   2.091   1.270  0.5209  0.2386  0.4584
  465MPD2     C 6971   3.933   0.314   0.021 -0.5157  0.4183  0.1053
  465MPD2    C1 6972   3.811   0.257   0.030  0.1831 -0.2710 -0.5058
  465MPD2    C2 6973   3.733   0.258  17.679 -0.4364  0.0044 -0.2042
  465MPD2    C3 6974   3.762   0.333  17.568 -0.5661  0.5797 -0.1916
  465MPD2    C4 6975   3.883   0.389  17.567 -0.9229 -0.2969  0.0966
  465MPD2    C5 6976   3.968   0.375  17.674  0.4129 -0.5578 -0.5801
  465MPD2     H 6977   3.633   0.215  17.686 -0.2701 -0.5598 -1.2149
  465MPD2    H1 6978   3.928   0.443  17.485 -0.2253  0.3133  0.8781
  465MPD2    H2 6979   4.005   0.320   0.102  0.6744 -0.8174 -0.8639
  465MPD2    H3 6980   4.064   0.424  17.663  0.1757 -0.2085 -1.1071
  465MPD2     N 6981   3.660   0.362  17.474  0.4068  0.4972 -0.1485
  465MPD2    H5 6982   3.569   0.325  17.499  0.6426 -1.0408 -1.6168
  465MPD2    N1 6983   3.765   0.180   0.144  0.3342 -0.4778  0.3332
  465MPD2    H7 6984   3.677   0.133   0.125 -0.7463  0.9258  1.8755
  466TMC3    C1 6985   3.316   0.450  17.264 -0.5263  0.0424 -0.0075
  466TMC3    C2 6986   3.329   0.546  17.176  0.5253 -0.0900  0.5954
  466TMC3    C3 6987   3.451   0.589  17.135 -0.0087  0.5726 -0.4212
  466TMC3    C4 6988   3.429   0.390  17.317  0.0036 -0.3149 -1.0029
  466TMC3    C5 6989   3.554   0.445  17.285 -0.0627  0.3698  0.4377
  466TMC3    C6 6990   3.564   0.539  17.182 -0.1007  0.3441  0.3929
  466TMC3     C 6991   3.213   0.452  17.354 -0.3283 -0.4816 -0.3429
  466TMC3     O 6992   3.238   0.462  17.473 -0.2646  0.5485 -0.7893
  466TMC3     H 6993   3.238   0.594  17.142  0.3709 -1.6489 -1.1710
  466TMC3    H1 6994   3.415   0.321  17.399  0.0699  0.1178 -0.6240
  466TMC3    H2 6995   3.654   0.594  17.156 -0.4562  0.7424  0.0132
  466TMC3    C7 6996   3.679   0.426  17.356 -0.2460  1.0732 -0.3181
  466TMC3    C8 6997   3.461   0.693  17.037  0.1370 -0.6477  0.2821
  466TMC3    O1 6998   3.776   0.465  17.298  0.4258 -0.2546 -0.3415
  466TMC3    O2 6999   3.559   0.684  16.962  0.3365 -0.2887  0.5646
  467TMC3    C1 7000   4.290   3.843  13.866  0.2217  0.0975  0.1191
  467TMC3    C2 7001   4.248   3.965  13.822 -0.1975  0.4174 -0.2821
  467TMC3    C3 7002   4.139   4.025  13.881 -0.0546  0.5803  0.1045
  467TMC3    C4 7003   4.227   3.779  13.966 -0.2423 -0.5700  0.1604
  467TMC3    C5 7004   4.111   3.835  14.018  0.0398  0.0719  0.4978
  467TMC3    C6 7005   4.068   3.965  13.983  0.0226 -0.2095 -0.0348
  467TMC3     C 7006   4.440   3.828  13.872  0.5686  0.4549 -0.2719
  467TMC3     O 7007   4.510   3.916  13.822  0.2550 -0.2827 -0.2457
  467TMC3     H 7008   4.306   4.027  13.755  0.4258  1.3073  1.0801
  467TMC3    H1 7009   4.250   3.674  13.979 -0.2833 -0.4612  1.1383
  467TMC3    H2 7010   3.987   4.026  14.021  1.0733 -0.2128  2.2096
  467TMC3    C7 7011   4.062   3.770  14.139  0.7874 -0.5003 -0.0469
  467TMC3    C8 7012   4.140   4.174  13.865  0.4960  0.6573 -0.0599
  467TMC3    O1 7013   4.081   3.648  14.147  0.2405  0.7585  0.2132
  467TMC3    O2 7014   4.184   4.222  13.761 -0.6419  0.1881 -0.6980
  468MPD2     C 7015   3.210   2.690  10.595 -0.0712  0.9845 -0.2833
  468MPD2    C1 7016   3.306   2.639  10.679 -0.9421  0.0970 -0.3984
  468MPD2    C2 7017   3.292   2.523  10.751 -0.0797  0.0555 -0.1771
  468MPD2    C3 7018   3.174   2.451  10.742 -0.7420 -0.4442  0.5995
  468MPD2    C4 7019   3.069   2.497  10.668  0.4762 -0.5610  0.6867
  468MPD2    C5 7020   3.093   2.614  10.597  0.3738  0.4742 -0.1088
  468MPD2     H 7021   3.366   2.494  10.825 -0.3115  1.5983  0.6555
  468MPD2    H1 7022   2.977   2.440  10.656  0.4000 -0.8026  2.5473
  468MPD2    H2 7023   3.202   2.785  10.545  0.4926  1.7972  1.1700
  468MPD2    H3 7024   3.011   2.642  10.532 -1.3377 -0.2276  1.7530
  468MPD2     N 7025   3.148   2.333  10.815 -0.5388 -0.2364  0.2255
  468MPD2    H5 7026   3.066   2.278  10.792  0.8998 -2.7806  1.1137
  468MPD2    N1 7027   3.419   2.718  10.715 -0.7606  0.3097 -0.2337
  468MPD2    H7 7028   3.495   2.672  10.764 -1.6105 -2.5078 -1.5122
  469TMC3    C1 7029   3.552   2.908  10.723  0.1770 -0.4966  0.1845
  469TMC3    C2 7030   3.661   2.834  10.748 -0.1297  0.2236  0.1117
  469TMC3    C3 7031   3.764   2.888  10.796  0.4719 -0.6910 -0.0415
  469TMC3    C4 7032   3.540   3.039  10.767 -0.2348  0.0262 -0.1852
  469TMC3    C5 7033   3.651   3.082  10.826 -0.1148 -0.0721 -0.0519
  469TMC3    C6 7034   3.764   3.012  10.850  0.2643 -0.2999 -0.3522
  469TMC3     C 7035   3.425   2.849  10.688  0.4521  0.2138 -0.0972
  469TMC3     O 7036   3.341   2.925  10.652  0.1775 -0.2268  0.0578
  469TMC3     H 7037   3.664   2.732  10.712 -2.8013  1.1894 -2.7971
  469TMC3    H1 7038   3.448   3.095  10.754 -1.9769 -2.9499 -0.7006
  469TMC3    H2 7039   3.849   3.042  10.911  1.9843 -0.7442 -2.5275
  469TMC3    C7 7040   3.652   3.211  10.891 -0.1319  0.2313 -0.2142
  469TMC3    C8 7041   3.872   2.802  10.845 -0.0658  0.7104 -0.2689
  469TMC3    O1 7042   3.743   3.236  10.974 -0.1531  0.3104 -0.0565
  469TMC3    O2 7043   3.982   2.798  10.792  0.2203 -0.4026  0.0384
  470TMC3    C1 7044   0.508   2.644   0.728  0.2428 -0.2175 -0.1576
  470TMC3    C2 7045   0.597   2.747   0.749  0.2727  0.2270 -0.4977
  470TMC3    C3 7046   0.603   2.809   0.875 -0.3782  0.0269 -0.3388
  470TMC3    C4 7047   0.428   2.601   0.825 -0.5260  1.1141  0.6776
  470TMC3    C5 7048   0.416   2.686   0.934  0.3300  1.2066 -0.4667
  470TMC3    C6 7049   0.505   2.783   0.968 -0.3588  0.3988  0.5518
  470TMC3     C 7050   0.502   2.583   0.597 -0.1162  0.0577  0.2122
  470TMC3     O 7051   0.564   2.640   0.510 -0.0458 -0.1698  0.7887
  470TMC3     H 7052   0.663   2.778   0.670 -0.0221 -0.2712 -0.9336
  470TMC3    H1 7053   0.351   2.528   0.803  0.1381  0.2590  1.1904
  470TMC3    H2 7054   0.515   2.808   1.073 -1.4335 -0.7599  0.9219
  470TMC3    C7 7055   0.301   2.662   1.014 -0.5059  0.2589  0.1018
  470TMC3    C8 7056   0.676   2.931   0.905  0.1683  0.2182  0.2017
  470TMC3    O1 7057   0.232   2.568   0.989 -0.1207 -0.0108 -0.4447
  470TMC3    O2 7058   0.640   2.993   1.004 -0.0966 -0.4401 -0.1878
  471MPD2     C 7059   1.191   4.293  16.693  0.1737 -0.2312 -0.3858
  471MPD2    C1 7060   1.185   4.153  16.704  0.2031  0.0977  0.4725
  471MPD2    C2 7061   1.202   4.098  16.829  1.3798 -0.4605  0.4546
  471MPD2    C3 7062   1.222   4.181  16.941  1.3507 -0.0633 -0.3074
  471MPD2    C4 7063   1.237   4.315  16.924 -1.0078 -0.3666 -0.0808
  471MPD2    C5 7064   1.215   4.367  16.804  0.3648 -0.1257  0.6114
  471MPD2     H 7065   1.189   3.992  16.846 -2.7201 -0.5011 -2.8591
  471MPD2    H1 7066   1.257   4.385  17.005 -1.4218 -0.5099  0.1470
  471MPD2    H2 7067   1.183   4.346  16.599 -0.7773  2.9175  1.4700
  471MPD2    H3 7068   1.206   4.475  16.799  1.9249  0.0069  0.7156
  471MPD2     N 7069   1.238   4.122  17.067 -0.5811  0.0768  0.4711
  471MPD2    H5 7070   1.249   4.021  17.070 -0.3574  0.0745 -0.2882
  471MPD2    N1 7071   1.171   4.057  16.605 -0.2866  0.5191 -0.2265
  471MPD2    H7 7072   1.144   3.962  16.629 -0.5245  0.9931  1.3735
  472TMC3    C1 7073   1.143   3.975  16.383 -0.2319 -0.2184  0.1934
  472TMC3    C2 7074   1.122   4.015  16.250 -0.5786  0.1017 -0.1212
  472TMC3    C3 7075   1.137   3.924  16.148 -0.2827  0.6978 -0.0907
  472TMC3    C4 7076   1.183   3.850  16.414 -0.0511 -0.0950 -0.2206
  472TMC3    C5 7077   1.205   3.765  16.308 -0.6175  0.0426 -0.6634
  472TMC3    C6 7078   1.173   3.799  16.180 -0.1544 -0.8749 -0.5956
  472TMC3     C 7079   1.174   4.086  16.473  0.3686  0.3611 -0.3483
  472TMC3     O 7080   1.201   4.191  16.418  0.5680 -0.3615 -0.4084
  472TMC3     H 7081   1.099   4.118  16.228  3.0219  0.6446 -1.2873
  472TMC3    H1 7082   1.224   3.816  16.508 -1.4363 -0.3684  0.2858
  472TMC3    H2 7083   1.194   3.740  16.092 -0.8889 -2.6615  0.4201
  472TMC3    C7 7084   1.175   3.632  16.345 -0.3481 -0.3470 -0.3419
  472TMC3    C8 7085   1.033   3.929  16.046  0.5991 -0.0450 -0.4759
  472TMC3    O1 7086   1.203   3.584  16.455  0.4988  0.0887 -0.3580
  472TMC3    O2 7087   1.056   3.900  15.931 -0.0139  0.3528  0.4259
  473MPD2     C 7088   0.741   1.580  14.225  0.1422  0.8012  0.4302
  473MPD2    C1 7089   0.783   1.559  14.090  0.3793  0.2050  0.2287
  473MPD2    C2 7090   0.914   1.597  14.057  0.0386  0.5032 -0.1299
  473MPD2    C3 7091   1.007   1.642  14.148  0.4407 -0.0750  0.6102
  473MPD2    C4 7092   0.967   1.644  14.274  0.8457 -0.4625 -0.2436
  473MPD2    C5 7093   0.838   1.620  14.317  0.4746 -0.7350  0.0533
  473MPD2     H 7094   0.928   1.596  13.949 -0.1021 -0.6173 -0.1433
  473MPD2    H1 7095   1.041   1.675  14.346 -0.5817  1.2704  0.4893
  473MPD2    H2 7096   0.643   1.559  14.267 -0.9095  1.3398 -1.7439
  473MPD2    H3 7097   0.816   1.633  14.422  2.8852 -0.0124  0.4828
  473MPD2     N 7098   1.135   1.681  14.111 -0.8026 -0.1788  0.1802
  473MPD2    H5 7099   1.207   1.704  14.179 -0.8999 -2.0695  0.9131
  473MPD2    N1 7100   0.694   1.525  13.989  0.1675  0.6035  0.1724
  473MPD2    H7 7101   0.733   1.525  13.895 -4.4674  0.4871 -1.7441
  474TMC3    C1 7102   1.325   1.738  13.975  0.2555  0.2115  0.4754
  474TMC3    C2 7103   1.373   1.778  13.853  0.2334  0.0340 -0.0530
  474TMC3    C3 7104   1.509   1.816  13.846  0.6461  0.4763  0.3742
  474TMC3    C4 7105   1.409   1.721  14.084 -0.4093 -1.1231  0.3849
  474TMC3    C5 7106   1.539   1.757  14.072 -0.4054 -0.1464 -0.6981
  474TMC3    C6 7107   1.584   1.811  13.959  0.0509  0.3407 -0.5228
  474TMC3     C 7108   1.181   1.699  13.986 -0.3841  0.0803  0.4030
  474TMC3     O 7109   1.121   1.692  13.873 -0.4465 -0.5950  0.1758
  474TMC3     H 7110   1.316   1.800  13.763 -0.5171 -0.3707  0.3214
  474TMC3    H1 7111   1.375   1.656  14.164  0.4056 -0.7041  1.0766
  474TMC3    H2 7112   1.690   1.834  13.950  0.2771 -1.6217 -2.7293
  474TMC3    C7 7113   1.629   1.752  14.182 -0.3217  0.3155 -0.1865
  474TMC3    C8 7114   1.526   1.917  13.737  0.4388 -0.1543  0.8415
  474TMC3    O1 7115   1.746   1.756  14.153 -0.0050 -0.5888 -0.2010
  474TMC3    O2 7116   1.486   1.884  13.625  0.2632  0.4044  0.3538
  475MPD2     C 7117   3.836   0.308  11.744  0.2881  0.8779  0.5275
  475MPD2    C1 7118   3.873   0.291  11.614 -0.3971 -0.4179 -0.3466
  475MPD2    C2 7119   3.772   0.252  11.522  0.2520  0.2855 -0.0086
  475MPD2    C3 7120   3.649   0.207  11.563 -0.3317  0.3079 -0.0316
  475MPD2    C4 7121   3.621   0.209  11.702 -0.4284 -0.2440  0.5775
  475MPD2    C5 7122   3.719   0.251  11.794  0.5644  1.1243 -0.1262
  475MPD2     H 7123   3.778   0.251  11.414  0.1587  3.1892 -0.0566
  475MPD2    H1 7124   3.529   0.170  11.745 -0.5635  0.1682  0.6669
  475MPD2    H2 7125   3.908   0.344  11.817  0.2518  1.5402  0.2346
  475MPD2    H3 7126   3.690   0.259  11.898  1.5392  2.0536  0.0760
  475MPD2     N 7127   3.552   0.181  11.456 -0.4601 -0.0107 -0.2652
  475MPD2    H5 7128   3.581   0.199  11.360 -1.0543 -1.0140 -0.6416
  475MPD2    N1 7129   3.999   0.336  11.572  0.1025  0.0549  0.0626
  475MPD2    H7 7130   4.051   0.379  11.648 -0.2793 -0.3349  0.5451
  476TMC3    C1 7131   4.183   0.401  11.445  0.0571 -0.2343  0.0757
  476TMC3    C2 7132   4.232   0.432  11.320 -0.2817  0.4121  0.2931
  476TMC3    C3 7133   4.326   0.529  11.308 -0.6114  0.1498 -0.4624
  476TMC3    C4 7134   4.233   0.460  11.559 -0.1627  0.5686 -0.2217
  476TMC3    C5 7135   4.317   0.571  11.535 -0.1383  0.2840 -0.5735
  476TMC3    C6 7136   4.369   0.607  11.411 -0.6991  0.1762  0.1005
  476TMC3     C 7137   4.054   0.331  11.446 -0.6363 -0.0903  0.5994
  476TMC3     O 7138   4.014   0.283  11.340  0.0005 -0.0593 -0.3753
  476TMC3     H 7139   4.199   0.381  11.230  2.4096  1.3189 -1.2189
  476TMC3    H1 7140   4.210   0.434  11.662 -1.2424  0.1988 -0.5561
  476TMC3    H2 7141   4.441   0.687  11.412 -0.0073 -0.4028 -2.6658
  476TMC3    C7 7142   4.344   0.652  11.657 -0.7052 -0.0703  0.3273
  476TMC3    C8 7143   4.359   0.585  11.175  0.6657  0.5140  0.6699
  476TMC3    O1 7144   4.350   0.600  11.765 -0.5303  0.2541  0.6327
  476TMC3    O2 7145   4.451   0.666  11.177 -0.2276 -0.1570 -0.1289
  477MPD2     C 7146   1.271   1.966  12.371  0.1424 -0.7016 -0.4240
  477MPD2    C1 7147   1.405   1.976  12.342 -0.1536  0.5201  0.6259
  477MPD2    C2 7148   1.481   1.864  12.380  0.6859 -0.2694  0.1416
  477MPD2    C3 7149   1.432   1.746  12.441  0.2589 -0.4800  0.3071
  477MPD2    C4 7150   1.297   1.738  12.466  0.1905  0.0861  0.5311
  477MPD2    C5 7151   1.220   1.845  12.428  0.1069  0.2699  0.7932
  477MPD2     H 7152   1.589   1.872  12.387  0.7782 -2.3195  0.9678
  477MPD2    H1 7153   1.238   1.654  12.501  0.5966 -0.0505  0.8827
  477MPD2    H2 7154   1.202   2.046  12.351  0.2415 -0.0296  1.8779
  477MPD2    H3 7155   1.112   1.845  12.432  0.0677 -0.4915 -0.1766
  477MPD2     N 7156   1.521   1.646  12.482 -0.1511  0.4172  0.6627
  477MPD2    H5 7157   1.619   1.653  12.456 -0.8953 -0.2858 -2.3234
  477MPD2    N1 7158   1.455   2.090  12.274 -0.0303 -0.1010 -0.2325
  477MPD2    H7 7159   1.400   2.175  12.272  1.4936  0.9381  1.8888
  478TMC3    C1 7160   1.599   2.214  12.141  0.1258  0.4731  0.6266
  478TMC3    C2 7161   1.540   2.323  12.185 -0.3806 -0.1715 -0.6139
  478TMC3    C3 7162   1.465   2.405  12.098 -0.5063 -0.2257 -0.1681
  478TMC3    C4 7163   1.595   2.180  12.007 -0.3520  0.1849 -0.5334
  478TMC3    C5 7164   1.534   2.269  11.918  0.3250 -0.5222  0.2365
  478TMC3    C6 7165   1.473   2.384  11.964  0.3758  0.6774  0.0101
  478TMC3     C 7166   1.581   2.093  12.223 -0.0637  0.0852 -0.1761
  478TMC3     O 7167   1.649   1.997  12.190  0.2551  0.5303  0.3251
  478TMC3     H 7168   1.551   2.330  12.292 -2.6015  0.1048 -0.4004
  478TMC3    H1 7169   1.632   2.082  11.978  2.2257  1.4475 -1.4923
  478TMC3    H2 7170   1.402   2.435  11.900  0.8785  2.1698  0.6341
  478TMC3    C7 7171   1.522   2.218  11.785  0.0586  0.0532  0.6914
  478TMC3    C8 7172   1.340   2.415  12.156  0.2728 -0.0632  0.4869
  478TMC3    O1 7173   1.584   2.113  11.774 -0.3906  0.3077  0.0880
  478TMC3    O2 7174   1.323   2.337  12.248 -0.0505 -0.3660 -0.7627
  479MPD2     C 7175   0.923   3.627  15.114 -0.1137  0.4883 -0.1605
  479MPD2    C1 7176   0.852   3.516  15.164  0.0772 -0.4274 -0.4630
  479MPD2    C2 7177   0.925   3.447  15.262 -0.2457 -0.0371  0.0844
  479MPD2    C3 7178   1.037   3.499  15.326  0.6581 -0.1532  0.6069
  479MPD2    C4 7179   1.103   3.605  15.268 -0.3892 -1.0093 -0.2247
  479MPD2    C5 7180   1.046   3.667  15.159  0.2196 -1.0813  0.2374
  479MPD2     H 7181   0.889   3.351  15.295 -0.4458 -0.3771 -1.1437
  479MPD2    H1 7182   1.198   3.636  15.310 -0.9640  0.0403  0.3049
  479MPD2    H2 7183   0.885   3.687  15.031  1.0543  0.0570 -1.0072
  479MPD2    H3 7184   1.101   3.742  15.104 -0.7048  1.1551  2.3909
  479MPD2     N 7185   1.094   3.430  15.443  0.5506  0.0016 -0.1352
  479MPD2    H5 7186   1.194   3.435  15.458  0.8141  0.0096 -1.8191
  479MPD2    N1 7187   0.718   3.490  15.132 -0.1485  0.5990 -0.2436
  479MPD2    H7 7188   0.664   3.556  15.077  0.0025 -0.3895 -1.5617
  480TMC3    C1 7189   0.722   3.306  15.707  0.3207  0.1226 -0.3193
  480TMC3    C2 7190   0.669   3.437  15.718 -0.1164 -0.3923 -0.0653
  480TMC3    C3 7191   0.731   3.536  15.643  0.1856  0.3807 -0.0594
  480TMC3    C4 7192   0.836   3.277  15.635 -0.5820 -0.2567  0.0921
  480TMC3    C5 7193   0.891   3.375  15.558 -0.7568 -0.4201  0.2629
  480TMC3    C6 7194   0.844   3.503  15.570  0.0580  0.2984 -0.1982
  480TMC3     C 7195   0.694   3.208  15.806  0.8241  0.6199  0.1609
  480TMC3     O 7196   0.742   3.096  15.783  0.0323 -0.3407 -0.1209
  480TMC3     H 7197   0.584   3.469  15.778  0.0101 -0.8381  0.3537
  480TMC3    H1 7198   0.870   3.174  15.637 -0.2382 -0.1528 -0.4875
  480TMC3    H2 7199   0.901   3.581  15.520  1.1471 -2.0417 -2.6044
  480TMC3    C7 7200   1.034   3.367  15.550 -0.0237  0.6932 -0.3352
  480TMC3    C8 7201   0.635   3.611  15.570 -0.7521  0.1668  0.6857
  480TMC3    O1 7202   1.086   3.288  15.627 -0.2695 -0.0347  0.1768
  480TMC3    O2 7203   0.517   3.597  15.604 -0.1719 -0.2016 -0.1996
  481MPD2     C 7204   2.521   3.073  14.421  0.7661 -0.0809 -0.8212
  481MPD2    C1 7205   2.391   3.028  14.424 -0.0486 -0.2887  0.1617
  481MPD2    C2 7206   2.342   2.965  14.535 -0.0383  0.3317 -0.3620
  481MPD2    C3 7207   2.418   2.975  14.652 -0.0438  0.1763  0.3863
  481MPD2    C4 7208   2.553   3.007  14.643 -0.6963  0.1284  0.2460
  481MPD2    C5 7209   2.603   3.053  14.528  0.2505 -0.0196  1.5164
  481MPD2     H 7210   2.241   2.926  14.534 -0.2201  0.7975  0.1472
  481MPD2    H1 7211   2.622   3.015  14.726  0.5107  0.5696 -0.7977
  481MPD2    H2 7212   2.557   3.120  14.330  2.2430  0.9349  0.2875
  481MPD2    H3 7213   2.706   3.086  14.533  0.4228 -0.3541  0.1835
  481MPD2     N 7214   2.360   2.951  14.777  0.3387  0.3923 -0.7901
  481MPD2    H5 7215   2.423   2.945  14.856 -1.6058  1.8036  0.8875
  481MPD2    N1 7216   2.320   3.043  14.305  0.0717  0.5128 -0.0535
  481MPD2    H7 7217   2.371   3.105  14.243  0.5443  1.1897  1.0203
  482TMC3    C1 7218   2.171   3.034  14.132  0.7023  0.6389  0.0556
  482TMC3    C2 7219   2.070   2.966  14.079  0.5716  0.2798 -0.5471
  482TMC3    C3 7220   2.008   3.025  13.971  0.2352 -0.3160  0.1206
  482TMC3    C4 7221   2.216   3.151  14.079 -0.3579 -0.3351 -0.5927
  482TMC3    C5 7222   2.160   3.205  13.967  0.4513  0.3397  0.6289
  482TMC3    C6 7223   2.051   3.141  13.904 -0.7994  0.1697 -0.2735
  482TMC3     C 7224   2.212   2.980  14.261  0.2086  0.4683 -0.1692
  482TMC3     O 7225   2.148   2.892  14.321 -0.0332  0.3195  0.2860
  482TMC3     H 7226   2.020   2.885  14.129  0.8743  1.4307  1.6110
  482TMC3    H1 7227   2.291   3.205  14.135  1.6195 -1.1321 -2.4862
  482TMC3    H2 7228   2.021   3.165  13.803 -2.9023  0.8139  0.5037
  482TMC3    C7 7229   2.178   3.352  13.940 -0.2936  0.2832  0.2541
  482TMC3    C8 7230   1.931   2.933  13.891  0.0743  0.1230 -0.2859
  482TMC3    O1 7231   2.073   3.404  13.900  0.0458  0.1671  0.3631
  482TMC3    O2 7232   1.965   2.819  13.893  0.2021  0.6383 -0.1077
  483TMC3    C1 7233   0.164   1.999   1.055 -0.2541  0.3864 -0.0035
  483TMC3    C2 7234   0.217   2.113   1.001 -0.1904 -0.4368 -0.2573
  483TMC3    C3 7235   0.342   2.157   1.040 -0.3580 -0.4243  0.6948
  483TMC3    C4 7236   0.247   1.919   1.136 -0.2142  1.3266  0.4447
  483TMC3    C5 7237   0.371   1.962   1.171  0.8158 -0.2269 -0.2336
  483TMC3    C6 7238   0.419   2.087   1.126 -0.2136 -0.1768  0.2663
  483TMC3     C 7239   0.037   1.951   0.995  0.0684  0.0476  0.5220
  483TMC3     O 7240   4.703   2.029   0.936 -0.1154  0.1484  0.5640
  483TMC3     H 7241   0.156   2.180   0.942  1.2468 -0.7331 -2.0823
  483TMC3    H1 7242   0.201   1.849   1.204 -1.8049  1.8316 -0.1128
  483TMC3    H2 7243   0.525   2.104   1.140 -0.0161 -1.4664  0.3165
  483TMC3    C7 7244   0.453   1.880   1.256 -0.7019 -0.0554 -0.2873
  483TMC3    C8 7245   0.417   2.237   0.941  0.0461  0.2103  0.5691
  483TMC3    O1 7246   0.415   1.761   1.258  0.4417 -0.9093  0.0798
  483TMC3    O2 7247   0.380   2.248   0.824 -0.6223  0.6249  0.3215
  484MPD2     C 7248   3.100   0.017  13.132  0.0234 -0.2378 -0.4760
  484MPD2    C1 7249   3.030   4.725  13.019  0.4055  0.0221 -0.2286
  484MPD2    C2 7250   3.099   4.732  12.902  0.3169  0.0889  0.3544
  484MPD2    C3 7251   3.237   0.009  12.896  0.0812 -0.3514 -0.0098
  484MPD2    C4 7252   3.308   0.027  13.016 -0.7999  0.3446  0.5631
  484MPD2    C5 7253   3.236   0.031  13.132 -0.4149 -0.0226 -0.3825
  484MPD2     H 7254   3.044   4.716  12.810  2.2865 -1.1229 -0.6256
  484MPD2    H1 7255   3.415   0.042  13.026 -0.4941 -3.0856  2.4698
  484MPD2    H2 7256   3.055   0.037  13.229  0.3376  0.8347 -0.5470
  484MPD2    H3 7257   3.284   0.073  13.220  0.6156  0.4677 -1.1911
  484MPD2     N 7258   3.306   0.022  12.770 -0.6079  0.0424  0.3297
  484MPD2    H5 7259   3.407   0.021  12.779 -0.5305 -2.8202 -0.8324
  484MPD2    N1 7260   2.892   4.708  13.017  0.3965  0.5152  0.6605
  484MPD2    H7 7261   2.853   4.676  12.929  3.2353  0.2829 -0.5138
  485TMC3    C1 7262   3.355   0.073  12.549 -1.0462  0.0026 -0.0084
  485TMC3    C2 7263   3.479   0.018  12.553 -0.0892 -0.0619  0.2745
  485TMC3    C3 7264   3.597   0.087  12.531 -1.1237 -0.2911  0.8345
  485TMC3    C4 7265   3.340   0.207  12.516 -0.6175 -0.1406 -0.3213
  485TMC3    C5 7266   3.455   0.279  12.482 -0.1110  0.1799 -0.4580
  485TMC3    C6 7267   3.581   0.225  12.501  0.6246 -0.7562  0.4261
  485TMC3     C 7268   3.258   0.032  12.643  0.2067 -0.5159 -0.1996
  485TMC3     O 7269   3.140   0.056  12.616 -0.3871  0.6478 -0.0472
  485TMC3     H 7270   3.490   4.657  12.586 -0.2713 -0.3754 -0.6107
  485TMC3    H1 7271   3.242   0.252  12.510  0.2466  1.6799 -0.8714
  485TMC3    H2 7272   3.661   0.288  12.463  0.0256  0.4906  1.2424
  485TMC3    C7 7273   3.455   0.410  12.434 -0.1528  0.9011 -0.3771
  485TMC3    C8 7274   3.722   0.025  12.503 -0.3462 -0.0965  0.0674
  485TMC3    O1 7275   3.511   0.481  12.517  0.0326  0.4535 -0.8700
  485TMC3    O2 7276   3.789   0.091  12.425  0.5145  0.2443 -0.8524
  486MPD2     C 7277   0.793   3.949  13.070 -0.0456  0.0060  0.1859
  486MPD2    C1 7278   0.702   3.879  12.994 -1.2093 -0.4160 -0.1511
  486MPD2    C2 7279   0.604   3.952  12.932  0.5699 -0.1200  0.3772
  486MPD2    C3 7280   0.606   4.095  12.936 -0.0988 -0.3681  0.2715
  486MPD2    C4 7281   0.702   4.162  13.013 -0.7717 -0.6499 -0.7653
  486MPD2    C5 7282   0.787   4.089  13.086  0.2357  0.4267 -0.0771
  486MPD2     H 7283   0.539   3.909  12.857 -0.0715  0.7487  0.4306
  486MPD2    H1 7284   0.709   4.269  13.032  1.5276 -1.3385  2.3415
  486MPD2    H2 7285   0.873   3.894  13.118  0.5829 -1.5714 -2.7027
  486MPD2    H3 7286   0.860   4.142  13.147 -2.1683  0.3899  2.8153
  486MPD2     N 7287   0.500   4.160  12.871  0.1238  0.3173 -0.0506
  486MPD2    H5 7288   0.438   4.096  12.823  0.3260 -0.4605  0.7201
  486MPD2    N1 7289   0.708   3.741  12.994  0.1484 -0.6053 -0.0101
  486MPD2    H7 7290   0.786   3.699  13.043  0.1792 -1.3845 -0.7178
  487TMC3    C1 7291   0.644   3.516  12.954 -0.9872  0.3565 -0.0347
  487TMC3    C2 7292   0.648   3.414  12.865 -1.0370 -0.0405  0.4545
  487TMC3    C3 7293   0.660   3.284  12.910  0.0131 -0.4243 -0.7820
  487TMC3    C4 7294   0.643   3.493  13.088 -0.1051  0.3573  0.4945
  487TMC3    C5 7295   0.657   3.363  13.133 -0.8440  0.5323 -0.3558
  487TMC3    C6 7296   0.674   3.262  13.043 -1.4412 -0.0931 -0.4838
  487TMC3     C 7297   0.625   3.656  12.917 -0.3554  0.2871  0.1377
  487TMC3     O 7298   0.530   3.693  12.856  0.1591  0.4253 -0.2219
  487TMC3     H 7299   0.646   3.431  12.758  0.7318  0.9831  0.5980
  487TMC3    H1 7300   0.615   3.574  13.154  1.0376 -0.2417  1.7174
  487TMC3    H2 7301   0.654   3.163  13.083 -2.2105  0.0152 -0.6024
  487TMC3    C7 7302   0.555   3.331  13.224 -0.6848  0.5385  0.1930
  487TMC3    C8 7303   0.551   3.204  12.845 -0.6974 -0.7641 -0.2605
  487TMC3    O1 7304   0.581   3.256  13.316 -0.5437 -0.8160 -0.3722
  487TMC3    O2 7305   0.446   3.260  12.819 -0.2309 -0.4907 -0.1333
  488MPD2     C 7306   0.333   0.271  16.275  0.5784  0.3457  0.3197
  488MPD2    C1 7307   0.386   0.368  16.353 -0.2297  0.3024 -0.6492
  488MPD2    C2 7308   0.364   0.366  16.491 -0.1228  0.1381 -0.0189
  488MPD2    C3 7309   0.294   0.264  16.546  0.3551  0.1084  0.5531
  488MPD2    C4 7310   0.255   0.154  16.474 -0.1356 -0.6313 -0.6658
  488MPD2    C5 7311   0.263   0.166  16.337 -0.3373 -0.0999  1.0580
  488MPD2     H 7312   0.392   0.451  16.551  1.4627 -0.5822  0.2642
  488MPD2    H1 7313   0.204   0.074  16.525 -0.8328 -0.2281 -0.7199
  488MPD2    H2 7314   0.338   0.269  16.167 -0.0798 -0.3986  0.3115
  488MPD2    H3 7315   0.224   0.093  16.266 -1.9214  1.3836  0.4031
  488MPD2     N 7316   0.259   0.279  16.681  0.2192 -0.4023 -0.5006
  488MPD2    H5 7317   0.267   0.371  16.724  0.4249 -0.1083 -1.1595
  488MPD2    N1 7318   0.467   0.473  16.303 -0.1400  0.1783  0.5466
  488MPD2    H7 7319   0.500   0.538  16.374  2.7045  0.8827 -1.3963
  489TMC3    C1 7320   0.223   0.244  16.908  0.0907 -0.7601 -0.1163
  489TMC3    C2 7321   0.203   0.382  16.921  0.3317  0.9468 -0.1537
  489TMC3    C3 7322   0.203   0.437  17.044  0.2799  0.1313  0.6894
  489TMC3    C4 7323   0.257   0.172  17.019  0.0199 -0.3098  0.0509
  489TMC3    C5 7324   0.245   0.231  17.140 -0.2293 -0.1295 -0.2087
  489TMC3    C6 7325   0.236   0.368  17.162 -0.3283  0.5425  0.3600
  489TMC3     C 7326   0.240   0.182  16.777 -0.1005 -0.1945  1.0474
  489TMC3     O 7327   0.232   0.055  16.772 -0.1083 -0.5051 -0.0095
  489TMC3     H 7328   0.166   0.451  16.847 -1.1715 -0.4442 -0.6995
  489TMC3    H1 7329   0.266   0.064  17.006 -0.1647 -0.3393  0.1673
  489TMC3    H2 7330   0.226   0.418  17.258  0.5498  3.3384 -1.0054
  489TMC3    C7 7331   0.236   0.141  17.258 -0.3914  0.8928  0.5189
  489TMC3    C8 7332   0.260   0.569  17.032  0.7178 -0.0951 -0.3611
  489TMC3    O1 7333   0.245   0.188  17.369  0.0554 -0.2385  0.3343
  489TMC3    O2 7334   0.333   0.592  16.939  0.1851 -0.0027 -0.0532
  490MPD2     C 7335   0.925   4.666  16.930 -0.2919  0.6012  0.3905
  490MPD2    C1 7336   0.954   4.668  17.067 -0.4860  0.3740 -0.4619
  490MPD2    C2 7337   1.024   0.026  17.114 -0.0817 -0.1523 -0.2254
  490MPD2    C3 7338   1.071   0.129  17.040 -0.0726 -0.9188  0.5368
  490MPD2    C4 7339   1.037   0.134  16.909  0.3257 -0.2129 -0.6882
  490MPD2    C5 7340   0.970   0.030  16.855 -0.2524  0.2269  0.0923
  490MPD2     H 7341   1.058   0.025  17.217  2.1416 -0.0849 -0.9540
  490MPD2    H1 7342   1.066   0.222  16.853  0.9367  0.1504  0.2024
  490MPD2    H2 7343   0.876   4.582  16.884 -0.8338  1.4750 -0.6348
  490MPD2    H3 7344   0.944   0.050  16.752 -0.4002  1.1934  0.3098
  490MPD2     N 7345   1.172   0.214  17.087  0.8099  0.0447  0.1568
  490MPD2    H5 7346   1.236   0.250  17.017 -1.5027 -0.2687 -2.1281
  490MPD2    N1 7347   0.931   4.565  17.158 -0.1297 -0.2772  0.2117
  490MPD2    H7 7348   0.971   4.569  17.252  1.3596 -1.0793 -0.3897
  491TMC3    C1 7349   0.890   4.343  17.234  0.8578  0.5472  0.4186
  491TMC3    C2 7350   0.876   4.385  17.365 -0.4278 -0.5139  0.3904
  491TMC3    C3 7351   0.861   4.284  17.453  0.1581  0.0358 -0.0038
  491TMC3    C4 7352   0.898   4.216  17.190 -0.0553  0.0782  0.5859
  491TMC3    C5 7353   0.882   4.116  17.286 -0.4387 -0.0667  0.3610
  491TMC3    C6 7354   0.868   4.149  17.420  0.8611 -0.2260  0.7623
  491TMC3     C 7355   0.883   4.439  17.118 -1.1297 -0.4337 -0.3067
  491TMC3     O 7356   0.840   4.401  17.010 -0.6853 -0.1351  0.3993
  491TMC3     H 7357   0.868   4.491  17.384 -0.1434 -0.4160 -0.0478
  491TMC3    H1 7358   0.906   4.178  17.089 -1.9580 -2.4407  1.3903
  491TMC3    H2 7359   0.848   4.076  17.498 -0.9420  0.6339  1.0943
  491TMC3    C7 7360   0.866   3.981  17.244  0.0151 -0.1710 -0.5122
  491TMC3    C8 7361   0.812   4.313  17.590  0.7612 -0.3242 -0.9753
  491TMC3    O1 7362   0.821   3.975  17.128  0.0454 -0.2192  0.1056
  491TMC3    O2 7363   0.739   4.226  17.632  0.0314 -0.0111  0.1801
  492MPD2     C 7364   1.603   0.904  11.856 -0.1443 -0.4361  0.9207
  492MPD2    C1 7365   1.515   0.832  11.769  0.3542 -0.3442  0.0371
  492MPD2    C2 7366   1.423   0.745  11.831 -0.1285  0.3360 -1.0554
  492MPD2    C3 7367   1.435   0.712  11.971  0.3094  0.7435 -0.7765
  492MPD2    C4 7368   1.521   0.784  12.050  0.0165  0.7771  0.1160
  492MPD2    C5 7369   1.604   0.876  11.990  0.0010  0.5611 -0.3461
  492MPD2     H 7370   1.357   0.692  11.763  1.9677 -2.4707 -0.9365
  492MPD2    H1 7371   1.520   0.773  12.158 -1.9585 -1.7411 -0.1548
  492MPD2    H2 7372   1.680   0.971  11.821 -0.8396 -0.7408 -1.2042
  492MPD2    H3 7373   1.685   0.918  12.049  0.4227 -2.4731  1.2138
  492MPD2     N 7374   1.354   0.607  12.036  0.2336 -0.7761 -0.4678
  492MPD2    H5 7375   1.376   0.598  12.135 -1.1707  2.0569  0.0945
  492MPD2    N1 7376   1.521   0.864  11.633 -0.3360 -0.1991 -0.7476
  492MPD2    H7 7377   1.587   0.936  11.606  0.3127 -0.7957 -0.7744
  493TMC3    C1 7378   1.471   0.851  11.402 -0.4061  0.3184 -0.9391
  493TMC3    C2 7379   1.505   0.981  11.370 -0.7081 -0.5596 -0.0982
  493TMC3    C3 7380   1.451   1.034  11.260 -0.2126  0.5056 -0.0784
  493TMC3    C4 7381   1.394   0.772  11.321 -0.8387  0.0755 -0.3861
  493TMC3    C5 7382   1.334   0.840  11.219  0.0759 -0.4475 -0.0649
  493TMC3    C6 7383   1.353   0.968  11.186 -0.5481  0.8790  0.4062
  493TMC3     C 7384   1.438   0.812  11.539 -0.8056 -0.2983 -0.5183
  493TMC3     O 7385   1.346   0.731  11.547 -0.2104 -0.0678  0.2578
  493TMC3     H 7386   1.560   1.040  11.443  0.3473 -3.0361  1.0964
  493TMC3    H1 7387   1.392   0.665  11.340  1.4722  0.3373  1.3573
  493TMC3    H2 7388   1.306   1.019  11.103 -0.0270 -0.1830 -0.5370
  493TMC3    C7 7389   1.194   0.801  11.208  1.1492  0.1281  0.0371
  493TMC3    C8 7390   1.518   1.149  11.199 -0.6929 -0.0356 -0.1110
  493TMC3    O1 7391   1.138   0.843  11.108 -0.0044  0.4949 -0.2297
  493TMC3    O2 7392   1.472   1.197  11.098  0.0311  0.1465 -0.0753
  494TMC3    C1 7393   1.623   1.642   0.211 -0.2319 -0.2209 -0.0209
  494TMC3    C2 7394   1.703   1.532   0.240 -0.1314 -0.2787 -0.0385
  494TMC3    C3 7395   1.773   1.478   0.136 -0.8715 -0.1106 -0.7151
  494TMC3    C4 7396   1.617   1.699   0.078  0.9690  0.3612 -0.1203
  494TMC3    C5 7397   1.667   1.628  17.741 -0.3581 -0.5412 -0.1570
  494TMC3    C6 7398   1.752   1.519   0.005  0.2991 -0.2752  0.3727
  494TMC3     C 7399   1.528   1.688   0.310  0.5623 -0.6547  0.2024
  494TMC3     O 7400   1.418   1.733   0.276 -0.5004 -0.1348  0.4453
  494TMC3     H 7401   1.709   1.490   0.339  2.1004  0.1628  0.0125
  494TMC3    H1 7402   1.575   1.799   0.071  0.6471  0.2881  0.7511
  494TMC3    H2 7403   1.805   1.474  17.686 -0.5983 -0.5718 -0.0376
  494TMC3    C7 7404   1.698   1.686  17.609 -0.3366 -0.1357 -0.2190
  494TMC3    C8 7405   1.848   1.359   0.158 -0.1578 -0.8732 -0.0420
  494TMC3    O1 7406   1.775   1.624  17.537 -0.4410  0.4236 -0.0307
  494TMC3    O2 7407   1.802   1.294   0.247  0.0725 -0.1101  0.0700
  495TMC3    C1 7408   0.989   3.933  14.780  0.4030 -0.2237  0.1084
  495TMC3    C2 7409   0.887   3.932  14.694  0.1613 -0.0139  0.2901
  495TMC3    C3 7410   0.773   3.991  14.727  0.0733 -0.3968  0.0214
  495TMC3    C4 7411   0.982   3.994  14.900 -0.3255 -0.2821  0.0489
  495TMC3    C5 7412   0.858   4.052  14.939  0.5697  0.3539 -0.5736
  495TMC3    C6 7413   0.757   4.047  14.848  0.1481 -0.0022 -0.1877
  495TMC3     C 7414   1.057   3.812  14.795  0.0953 -0.3364  0.2149
  495TMC3     O 7415   1.152   3.798  14.868 -0.0374 -0.3725  0.0711
  495TMC3     H 7416   0.900   3.893  14.594  1.6470  1.6728 -0.1671
  495TMC3    H1 7417   1.062   3.983  14.971  1.7831  1.3790 -2.0735
  495TMC3    H2 7418   0.666   4.102  14.867  0.5868  1.0570 -1.1085
  495TMC3    C7 7419   0.821   3.990  15.062 -0.1735 -0.2919 -0.1630
  495TMC3    C8 7420   0.652   3.929  14.681 -0.0780  0.1700 -0.3160
  495TMC3    O1 7421   0.907   3.963  15.144 -0.5705 -0.2731  0.4442
  495TMC3    O2 7422   0.544   3.969  14.724 -0.1191 -0.2793 -0.2746
  496MPD2     C 7423   2.871   4.167  16.023  0.3387  0.4475  0.0058
  496MPD2    C1 7424   2.788   4.069  15.963  1.0051  0.4514 -0.3492
  496MPD2    C2 7425   2.726   3.977  16.051  0.2711  0.1426 -0.1311
  496MPD2    C3 7426   2.746   3.975  16.182  0.7745 -0.0319 -0.3948
  496MPD2    C4 7427   2.843   4.061  16.236  0.0611  0.7874  0.2995
  496MPD2    C5 7428   2.904   4.157  16.155 -0.4244  0.3420  0.1904
  496MPD2     H 7429   2.679   3.885  16.019 -0.3849  0.7347 -0.8466
  496MPD2    H1 7430   2.888   4.050  16.334 -2.2325  1.4684  1.4200
  496MPD2    H2 7431   2.928   4.238  15.964 -0.3008  0.2583 -0.8480
  496MPD2    H3 7432   2.987   4.222  16.183 -1.0163  1.3136 -0.3038
  496MPD2     N 7433   2.675   3.880  16.263 -0.5042 -0.0337  0.1672
  496MPD2    H5 7434   2.605   3.828  16.211  0.5306 -1.1452 -0.1249
  496MPD2    N1 7435   2.781   4.064  15.820  0.0368  0.1315 -0.4708
  496MPD2    H7 7436   2.837   4.125  15.762  1.6734  0.1258  1.1046
  497TMC3    C1 7437   2.634   3.709  16.411  0.0235  0.4770 -0.4203
  497TMC3    C2 7438   2.526   3.678  16.336 -0.1487  0.1045  0.1462
  497TMC3    C3 7439   2.472   3.550  16.359 -0.3155  0.5759 -0.4536
  497TMC3    C4 7440   2.684   3.634  16.519 -0.0525  0.1493 -0.0864
  497TMC3    C5 7441   2.622   3.515  16.533  0.3148 -0.1970  0.3076
  497TMC3    C6 7442   2.523   3.465  16.450  0.1880  0.0544  0.5447
  497TMC3     C 7443   2.709   3.833  16.392  0.5528  0.0007  0.1699
  497TMC3     O 7444   2.816   3.858  16.445 -0.5712  0.2113  0.4672
  497TMC3     H 7445   2.470   3.757  16.287 -1.5919 -0.5346  0.7576
  497TMC3    H1 7446   2.768   3.670  16.576 -0.4024  1.1524 -0.1986
  497TMC3    H2 7447   2.472   3.372  16.474  2.3606 -0.7692  1.9857
  497TMC3    C7 7448   2.647   3.440  16.656 -0.2823  0.2841 -0.2266
  497TMC3    C8 7449   2.353   3.503  16.291  0.1149 -0.4146  0.2918
  497TMC3    O1 7450   2.549   3.385  16.707  0.5812 -0.1490  0.2481
  497TMC3    O2 7451   2.295   3.404  16.337  0.2232 -0.1347 -0.0541
  498MPD2     C 7452   2.768   1.310   9.743 -0.1251 -0.3756 -0.3489
  498MPD2    C1 7453   2.845   1.225   9.817 -0.2969  0.2319 -0.1676
  498MPD2    C2 7454   2.778   1.118   9.872  0.0295 -0.1888 -0.1216
  498MPD2    C3 7455   2.642   1.097   9.866 -0.2232  0.3620  0.4609
  498MPD2    C4 7456   2.568   1.198   9.808 -0.8606 -0.3154 -0.0716
  498MPD2    C5 7457   2.635   1.301   9.748 -0.0328  0.4076 -0.2712
  498MPD2     H 7458   2.835   1.038   9.918 -1.1514  0.0722  1.8088
  498MPD2    H1 7459   2.460   1.205   9.809 -0.8543 -0.3051  0.9354
  498MPD2    H2 7460   2.822   1.391   9.695  0.1482 -1.2882 -1.5644
  498MPD2    H3 7461   2.567   1.376   9.709 -1.2904 -1.0550 -0.8802
  498MPD2     N 7462   2.588   0.990   9.942 -0.1236 -0.2404 -1.3013
  498MPD2    H5 7463   2.657   0.936   9.994 -0.9457  1.7606  1.8121
  498MPD2    N1 7464   2.985   1.236   9.831 -0.3646  0.4711 -0.2073
  498MPD2    H7 7465   3.024   1.173   9.900 -1.7367 -0.7872 -0.5800
  499TMC3    C1 7466   3.202   1.333   9.850 -0.0248  0.1365  0.3833
  499TMC3    C2 7467   3.203   1.299   9.981  0.9153  0.3649  0.6034
  499TMC3    C3 7468   3.325   1.308  10.047 -0.5363  0.2351 -0.3458
  499TMC3    C4 7469   3.315   1.374   9.782 -0.2659 -0.2218  0.0066
  499TMC3    C5 7470   3.432   1.381   9.851 -0.4219 -0.0125  0.6766
  499TMC3    C6 7471   3.441   1.343   9.984  1.0430  0.2782 -0.0116
  499TMC3     C 7472   3.070   1.332   9.783  0.9166 -0.0904 -0.2066
  499TMC3     O 7473   3.070   1.396   9.679  0.6193 -0.4126 -0.4564
  499TMC3     H 7474   3.110   1.281  10.032  0.7967 -2.6110 -0.6622
  499TMC3    H1 7475   3.315   1.392   9.676 -0.1877 -0.5785 -0.0538
  499TMC3    H2 7476   3.538   1.347  10.033  1.1769 -0.2360 -0.2376
  499TMC3    C7 7477   3.550   1.386   9.782  0.6498 -0.3062 -0.6049
  499TMC3    C8 7478   3.314   1.281  10.185  0.2647  0.2296 -0.3245
  499TMC3    O1 7479   3.645   1.331   9.835  0.2376  0.3596  0.0155
  499TMC3    O2 7480   3.206   1.293  10.245 -0.4146  0.0854  0.3493
  500MPD2     C 7481   0.494   1.381  11.249 -0.1233  0.1237  0.0143
  500MPD2    C1 7482   0.432   1.505  11.280  0.5453  0.9216 -0.2396
  500MPD2    C2 7483   0.356   1.570  11.179 -0.5028 -0.0110  0.6560
  500MPD2    C3 7484   0.355   1.518  11.050 -0.0384 -0.2795  0.1402
  500MPD2    C4 7485   0.423   1.402  11.019 -0.2465 -0.1390  0.0925
  500MPD2    C5 7486   0.486   1.334  11.122 -0.0967  0.0288 -0.0725
  500MPD2     H 7487   0.309   1.665  11.199  0.2137  0.6328 -0.6708
  500MPD2    H1 7488   0.419   1.352  10.923 -1.2544  0.7740 -0.3427
  500MPD2    H2 7489   0.556   1.329  11.320  0.1701  0.3846 -0.0480
  500MPD2    H3 7490   0.537   1.240  11.102  0.1887  0.2536 -0.4056
  500MPD2     N 7491   0.280   1.587  10.955 -0.3605 -0.3273  0.6625
  500MPD2    H5 7492   0.214   1.661  10.981 -0.7152 -0.7258  0.8926
  500MPD2    N1 7493   0.459   1.569  11.404 -0.4033  0.5144  0.5444
  500MPD2    H7 7494   0.410   1.656  11.422 -0.0976  1.1934 -1.8824
  501TMC3    C1 7495   0.541   1.629  11.616  0.4865  0.7013  0.1808
  501TMC3    C2 7496   0.450   1.728  11.602 -0.2684 -0.0035  0.2026
  501TMC3    C3 7497   0.489   1.858  11.603  0.4899  0.1339  0.4152
  501TMC3    C4 7498   0.668   1.663  11.650 -0.2953  0.5318 -0.8143
  501TMC3    C5 7499   0.704   1.794  11.662  0.1024 -0.6195  0.4997
  501TMC3    C6 7500   0.613   1.896  11.646 -0.0216 -0.5377  0.6459
  501TMC3     C 7501   0.533   1.527  11.512 -0.1594  0.0360 -0.0822
  501TMC3     O 7502   0.594   1.422  11.530 -0.2958  0.0521 -0.0078
  501TMC3     H 7503   0.347   1.713  11.574 -0.3240  0.2437  0.2738
  501TMC3    H1 7504   0.741   1.586  11.672  0.1276  1.0365 -0.4557
  501TMC3    H2 7505   0.629   2.002  11.663  1.4458 -0.6131 -0.2984
  501TMC3    C7 7506   0.847   1.824  11.675  0.0588 -0.0831 -0.2032
  501TMC3    C8 7507   0.447   1.921  11.477 -0.1194  0.1681  0.0927
  501TMC3    O1 7508   0.916   1.802  11.578 -0.1974 -0.0526  0.0231
  501TMC3    O2 7509   0.345   1.875  11.429  0.0974 -0.5342  0.2103
  502TMC3    C1 7510   0.120   4.566  15.191  0.5120 -0.1910 -0.4092
  502TMC3    C2 7511   0.128   4.664  15.100 -0.4221 -0.4439 -0.6850
  502TMC3    C3 7512   0.018   4.683  15.021  0.2306 -0.5522 -1.0437
  502TMC3    C4 7513   0.020   4.471  15.187 -0.4427 -0.2075 -0.0892
  502TMC3    C5 7514   4.667   4.481  15.092 -0.1699  0.2826  0.2832
  502TMC3    C6 7515   4.659   4.590  15.016 -0.1882  0.5336  0.3030
  502TMC3     C 7516   0.211   4.567  15.306 -0.3521 -0.2982 -0.2006
  502TMC3     O 7517   0.326   4.610  15.284 -0.0386 -0.5013 -0.4360
  502TMC3     H 7518   0.215   4.729  15.106  0.0096 -0.8177 -2.7350
  502TMC3    H1 7519   0.015   4.395  15.264  0.6479 -0.5158 -0.3364
  502TMC3    H2 7520   4.576   4.606  14.948 -1.6496  0.2572  2.0109
  502TMC3    C7 7521   4.550   4.409  15.129  0.3415  0.6586  0.9692
  502TMC3    C8 7522   0.032   0.043  14.919 -0.5555  0.3509  0.1160
  502TMC3    O1 7523   4.562   4.289  15.157  0.2009  0.1233  0.1116
  502TMC3    O2 7524   0.075   0.153  14.947  0.4224 -0.1325 -0.6000
  503MPD2     C 7525   1.940   0.678  17.203  0.2350 -0.0302 -0.3583
  503MPD2    C1 7526   2.075   0.670  17.186 -1.0002 -0.4420 -0.8224
  503MPD2    C2 7527   2.137   0.557  17.240  0.0994  0.4515  0.7521
  503MPD2    C3 7528   2.066   0.465  17.320 -0.1484 -0.4452 -0.3177
  503MPD2    C4 7529   1.931   0.475  17.331  0.2118  0.6595 -0.6052
  503MPD2    C5 7530   1.873   0.573  17.254  0.8080  0.1910  0.2377
  503MPD2     H 7531   2.245   0.554  17.245  0.1036  2.4949  2.1808
  503MPD2    H1 7532   1.872   0.408  17.393  1.3017  1.4494  1.2936
  503MPD2    H2 7533   1.888   0.771  17.180 -1.0452 -0.3178  1.3936
  503MPD2    H3 7534   1.766   0.580  17.270  0.6619  3.4504 -2.1684
  503MPD2     N 7535   2.143   0.367  17.383  0.3939  0.0595 -0.0830
  503MPD2    H5 7536   2.243   0.366  17.370  0.4641  3.9302  0.2917
  503MPD2    N1 7537   2.153   0.766  17.131  0.4661  0.0741  0.0393
  503MPD2    H7 7538   2.253   0.753  17.122  0.3592 -0.6338 -0.0908
  504TMC3    C1 7539   2.194   0.204  17.551  0.5303 -0.0679 -0.3176
  504TMC3    C2 7540   2.179   0.177  17.683 -0.0371 -0.5206 -0.4809
  504TMC3    C3 7541   2.292   0.130  17.760  0.9121  0.3325  0.3397
  504TMC3    C4 7542   2.322   0.184  17.498 -0.0192 -0.0012  0.2506
  504TMC3    C5 7543   2.430   0.143  17.568 -0.3588  0.2769 -0.2944
  504TMC3    C6 7544   2.420   0.129  17.708  0.2307 -0.2829  0.5451
  504TMC3     C 7545   2.092   0.281  17.481 -0.3069  0.6860 -0.3149
  504TMC3     O 7546   1.987   0.278  17.549  0.5434 -0.4577 -0.6911
  504TMC3     H 7547   2.089   0.188  17.741 -0.3111 -0.9893 -0.8125
  504TMC3    H1 7548   2.334   0.188  17.390 -1.2861 -3.1072 -0.0151
  504TMC3    H2 7549   2.509   0.121   0.006  1.6366 -0.8800 -1.5534
  504TMC3    C7 7550   2.554   0.128  17.497  0.1625 -1.0456  0.4105
  504TMC3    C8 7551   2.264   0.125   0.140  0.1323  0.0337  0.2636
  504TMC3    O1 7552   2.554   0.094  17.383 -0.3584 -0.1985 -0.2861
  504TMC3    O2 7553   2.147   0.119   0.182  0.1699  0.2938 -1.1704
  505MPD2     C 7554   1.968   0.367  11.104  0.6154 -0.1395 -0.0129
  505MPD2    C1 7555   2.048   0.271  11.046  0.2319 -0.7073  0.3353
  505MPD2    C2 7556   2.186   0.295  11.037  0.2641  0.0555 -0.0980
  505MPD2    C3 7557   2.248   0.409  11.084 -0.4704 -0.0056  0.0080
  505MPD2    C4 7558   2.160   0.510  11.111  0.0500 -0.4519 -0.5134
  505MPD2    C5 7559   2.027   0.486  11.129  0.3023 -0.2830  0.5891
  505MPD2     H 7560   2.253   0.216  11.007 -1.3142 -1.5840  0.6931
  505MPD2    H1 7561   2.201   0.610  11.126 -0.0405 -0.5766  0.5438
  505MPD2    H2 7562   1.862   0.349  11.115  0.8357 -1.3028  0.1507
  505MPD2    H3 7563   1.967   0.570  11.165 -1.5021 -1.1488 -0.4088
  505MPD2     N 7564   2.391   0.425  11.098  1.0555  0.3526 -0.7216
  505MPD2    H5 7565   2.431   0.517  11.115  0.9900  0.3486 -0.5502
  505MPD2    N1 7566   1.989   0.151  11.005  0.6862  0.1327 -0.0105
  505MPD2    H7 7567   1.889   0.137  11.008  0.7035 -0.1585 -0.6349
  506TMC3    C1 7568   1.977   4.718  10.853  0.2014 -0.0707  0.4294
  506TMC3    C2 7569   1.901   0.053  10.766  0.2108 -0.0538 -0.2831
  506TMC3    C3 7570   1.920   0.024  10.633  0.1728  0.5171  0.1567
  506TMC3    C4 7571   2.049   4.611  10.808  0.3664  0.2400  0.9752
  506TMC3    C5 7572   2.064   4.585  10.676  0.4811 -0.0248  0.0950
  506TMC3    C6 7573   2.002   4.664  10.581 -0.3251 -0.5076  0.2799
  506TMC3     C 7574   2.058   0.053  10.936 -0.1097 -0.3687  0.2604
  506TMC3     O 7575   2.180   0.046  10.905 -0.1763  0.1662  0.0627
  506TMC3     H 7576   1.856   0.147  10.796  0.5517 -0.1390  0.4930
  506TMC3    H1 7577   2.102   4.551  10.882  2.2127  2.3980  1.3959
  506TMC3    H2 7578   2.015   4.650  10.474 -1.5932 -0.3398  0.1044
  506TMC3    C7 7579   2.205   4.560  10.640  0.3081 -0.6152  0.2226
  506TMC3    C8 7580   1.856   0.119  10.537  0.4124  0.3367  0.0313
  506TMC3    O1 7581   2.221   4.516  10.528  0.0114  0.3986 -0.1262
  506TMC3    O2 7582   1.760   0.186  10.570  0.3914 -0.4153 -0.6520
  507TMC3    C1 7583   2.634   0.244  15.059  0.4201  0.0303  0.9576
  507TMC3    C2 7584   2.509   0.190  15.082  0.6047 -0.6939  0.0890
  507TMC3    C3 7585   2.400   0.256  15.035  0.3927 -0.8926  0.4587
  507TMC3    C4 7586   2.645   0.375  15.029 -0.5827 -0.0992 -0.6602
  507TMC3    C5 7587   2.538   0.434  14.971 -0.0941 -0.0955  0.2921
  507TMC3    C6 7588   2.418   0.367  14.960 -0.5180 -0.6587  0.3054
  507TMC3     C 7589   2.748   0.170  15.098  0.7508 -0.2188 -0.6098
  507TMC3     O 7590   2.731   0.080  15.183 -0.3323 -0.3019  0.1512
  507TMC3     H 7591   2.496   0.090  15.123  1.8976 -1.6802 -1.8836
  507TMC3    H1 7592   2.742   0.420  15.041  0.0750 -1.6111 -0.3311
  507TMC3    H2 7593   2.340   0.431  14.921 -0.2460 -0.8212 -0.5089
  507TMC3    C7 7594   2.523   0.578  14.983 -0.2308  0.3840 -0.5461
  507TMC3    C8 7595   2.284   0.261  15.119 -0.0536 -0.3444  0.4473
  507TMC3    O1 7596   2.407   0.629  14.993 -0.5013  0.2233  0.0605
  507TMC3    O2 7597   2.249   0.158  15.176  0.3242  0.0074 -0.2350
  508MPD2     C 7598   4.026   2.123  15.894  0.3730 -0.3821 -0.2091
  508MPD2    C1 7599   4.065   2.231  15.967  0.9345  0.3948 -0.4645
  508MPD2    C2 7600   4.014   2.355  15.934 -0.7224 -0.4088 -0.5283
  508MPD2    C3 7601   3.902   2.370  15.852 -0.7581 -0.0130  0.3747
  508MPD2    C4 7602   3.850   2.256  15.795 -0.4577 -0.5835 -0.2008
  508MPD2    C5 7603   3.929   2.140  15.801 -0.1176  0.1234  0.3207
  508MPD2     H 7604   4.048   2.446  15.982 -2.2565 -0.3762  0.5019
  508MPD2    H1 7605   3.770   2.271  15.723 -1.6507 -2.2510  0.7788
  508MPD2    H2 7606   4.070   2.024  15.903 -1.3535 -1.0544  0.8181
  508MPD2    H3 7607   3.905   2.053  15.742 -1.2924 -0.2330  1.3292
  508MPD2     N 7608   3.855   2.503  15.830  0.0016  0.0991 -0.1443
  508MPD2    H5 7609   3.916   2.575  15.868  0.9680  0.0061 -1.5480
  508MPD2    N1 7610   4.162   2.222  16.074  0.3231  0.5783  0.0221
  508MPD2    H7 7611   4.221   2.139  16.079  0.1394  0.5411  1.3291
  509TMC3    C1 7612   3.776   2.845  15.593 -0.9268 -0.2970 -0.3311
  509TMC3    C2 7613   3.875   2.906  15.664  0.1219 -0.3137  0.3938
  509TMC3    C3 7614   3.893   2.862  15.792 -1.1704  0.7974 -0.4701
  509TMC3    C4 7615   3.702   2.733  15.635 -0.9832 -0.2689 -0.0874
  509TMC3    C5 7616   3.733   2.681  15.757  0.0813 -0.3346 -0.0391
  509TMC3    C6 7617   3.830   2.747  15.836  0.3100  0.3535 -0.0940
  509TMC3     C 7618   3.721   2.920  15.484 -0.2946 -0.0203 -0.4186
  509TMC3     O 7619   3.610   2.884  15.446 -0.5978 -0.2398 -0.4762
  509TMC3     H 7620   3.942   2.982  15.625  0.8881 -1.0860  0.2112
  509TMC3    H1 7621   3.621   2.691  15.577  0.9546 -3.3369 -0.5838
  509TMC3    H2 7622   3.840   2.721  15.941 -0.6771  0.5855  0.0549
  509TMC3    C7 7623   3.745   2.537  15.755 -0.0613 -0.0584  0.1577
  509TMC3    C8 7624   4.020   2.869  15.842  0.0879 -0.2425 -0.2654
  509TMC3    O1 7625   3.666   2.463  15.695 -0.1284  0.0625 -0.6255
  509TMC3    O2 7626   4.053   2.764  15.890  0.4402  0.1202  0.5725
  510MPD2     C 7627   2.040   4.313  14.745 -0.1378 -0.7242 -1.4005
  510MPD2    C1 7628   2.080   4.188  14.780  0.4673  0.4889  0.2729
  510MPD2    C2 7629   2.203   4.148  14.745  0.0700  0.5576  0.2131
  510MPD2    C3 7630   2.285   4.241  14.692 -0.2797 -0.2608  0.3928
  510MPD2    C4 7631   2.235   4.361  14.641  0.5390  0.6341  0.1313
  510MPD2    C5 7632   2.104   4.391  14.661 -0.1363 -1.0972 -0.7017
  510MPD2     H 7633   2.238   4.052  14.780 -1.5745 -0.2394 -0.3221
  510MPD2    H1 7634   2.307   4.424  14.589  2.0914 -2.2278 -1.1856
  510MPD2    H2 7635   1.941   4.348  14.773  1.6693  2.9909  0.3927
  510MPD2    H3 7636   2.077   4.493  14.639  2.8223 -0.5585 -1.8730
  510MPD2     N 7637   2.422   4.200  14.679 -0.6542  0.1373  1.0232
  510MPD2    H5 7638   2.457   4.111  14.713  1.5511 -0.5443 -2.9833
  510MPD2    N1 7639   2.015   4.106  14.875  0.2854 -0.5114  0.1762
  510MPD2    H7 7640   2.055   4.016  14.900 -0.7902 -1.0316  0.0276
  511TMC3    C1 7641   1.870   4.024  15.051 -0.2472  0.8842 -0.4458
  511TMC3    C2 7642   1.779   4.051  15.147 -0.7740 -0.0172  0.2182
  511TMC3    C3 7643   1.720   3.951  15.217  0.7335  0.2052 -0.3799
  511TMC3    C4 7644   1.880   3.892  15.016 -0.5582  0.4974 -0.3330
  511TMC3    C5 7645   1.809   3.789  15.069 -0.5458  0.7521 -0.2812
  511TMC3    C6 7646   1.728   3.823  15.170 -0.1171  0.8475 -0.8120
  511TMC3     C 7647   1.906   4.137  14.959  0.5416 -0.5733  0.1597
  511TMC3     O 7648   1.848   4.240  14.977  0.7663 -0.3016 -0.0564
  511TMC3     H 7649   1.778   4.147  15.197  1.2208  1.1757 -2.0285
  511TMC3    H1 7650   1.940   3.854  14.935 -0.5464  1.5792 -0.8293
  511TMC3    H2 7651   1.664   3.752  15.221 -0.5100  0.5400 -1.7494
  511TMC3    C7 7652   1.865   3.654  15.063 -0.0200 -0.0747 -0.2653
  511TMC3    C8 7653   1.625   4.004  15.319 -0.5266  0.0205 -0.3987
  511TMC3    O1 7654   1.981   3.641  15.017 -0.0749 -0.3167 -0.0036
  511TMC3    O2 7655   1.648   4.112  15.376  0.1131 -0.1386  0.3506
  512TMC3    C1 7656   0.754   3.544  13.731 -1.1645 -0.5140 -0.3228
  512TMC3    C2 7657   0.867   3.512  13.796 -0.2142 -0.0172  0.6200
  512TMC3    C3 7658   0.976   3.485  13.725 -0.2253 -0.2580  0.2945
  512TMC3    C4 7659   0.747   3.561  13.594 -0.4004  0.3386  0.6373
  512TMC3    C5 7660   0.861   3.517  13.532 -0.4481 -0.1088  0.6373
  512TMC3    C6 7661   0.976   3.485  13.594  0.9133 -0.0596  0.5241
  512TMC3     C 7662   0.630   3.522  13.808 -0.7511 -0.3028 -0.0674
  512TMC3     O 7663   0.630   3.486  13.925 -0.4328  0.0041  0.1700
  512TMC3     H 7664   0.869   3.475  13.897  3.1253 -1.9760 -0.1658
  512TMC3    H1 7665   0.655   3.575  13.539 -0.2173 -2.2914 -0.3284
  512TMC3    H2 7666   1.067   3.464  13.539  0.5041 -0.2880 -0.0622
  512TMC3    C7 7667   0.880   3.546  13.393  0.6712  0.5134  0.6306
  512TMC3    C8 7668   1.103   3.450  13.790  0.6349 -0.0734  0.0787
  512TMC3    O1 7669   0.815   3.644  13.355  0.4117 -0.1345 -0.3227
  512TMC3    O2 7670   1.185   3.381  13.730 -0.0173 -0.5833  0.7243
  513MPD2     C 7671   2.551   3.424  13.495 -0.7405  0.4800 -0.5394
  513MPD2    C1 7672   2.589   3.350  13.383 -0.6920 -0.1661  0.5568
  513MPD2    C2 7673   2.708   3.279  13.378 -0.1023  0.2389 -0.5896
  513MPD2    C3 7674   2.791   3.288  13.492  0.4653  0.5139 -0.2119
  513MPD2    C4 7675   2.745   3.350  13.608 -0.1981 -0.0780 -0.3362
  513MPD2    C5 7676   2.624   3.408  13.612  0.2094  1.0097  0.4933
  513MPD2     H 7677   2.742   3.238  13.284 -1.2221  0.2424 -0.9924
  513MPD2    H1 7678   2.804   3.372  13.696 -0.0265 -0.5745 -0.3251
  513MPD2    H2 7679   2.451   3.466  13.502 -1.1429  0.1063 -3.9834
  513MPD2    H3 7680   2.583   3.446  13.704  0.6485 -2.2302  2.0212
  513MPD2     N 7681   2.915   3.227  13.467  0.1850 -0.0059  0.0623
  513MPD2    H5 7682   2.923   3.197  13.370 -2.5519  2.3883 -0.8666
  513MPD2    N1 7683   2.508   3.357  13.273  0.0558  0.7080  0.1004
  513MPD2    H7 7684   2.417   3.403  13.280 -0.4115 -0.5556  2.3061
  514TMC3    C1 7685   2.438   3.335  13.037  0.2670  0.4451  0.0509
  514TMC3    C2 7686   2.445   3.473  13.026 -0.2558 -0.1153 -0.1863
  514TMC3    C3 7687   2.469   3.521  12.898 -0.4864  0.5862 -0.4002
  514TMC3    C4 7688   2.464   3.256  12.926  0.5855 -0.1397  0.0384
  514TMC3    C5 7689   2.499   3.309  12.806  0.6028 -0.2212 -0.0929
  514TMC3    C6 7690   2.485   3.441  12.786  0.8272  0.5053 -0.3800
  514TMC3     C 7691   2.516   3.284  13.158  0.0986 -0.2330 -0.0629
  514TMC3     O 7692   2.599   3.201  13.122  0.3064 -0.6685  0.4510
  514TMC3     H 7693   2.453   3.542  13.109  1.2954 -0.2839 -0.1879
  514TMC3    H1 7694   2.469   3.148  12.928 -0.0595 -0.1343  1.5546
  514TMC3    H2 7695   2.501   3.477  12.685 -2.2463  1.2720 -0.5891
  514TMC3    C7 7696   2.638   3.264  12.787 -0.5720  0.0407  0.6403
  514TMC3    C8 7697   2.517   3.655  12.888  0.0426  0.0774 -0.1123
  514TMC3    O1 7698   2.672   3.152  12.814 -0.1152  0.5663  0.5218
  514TMC3    O2 7699   2.538   3.716  12.994  0.5896 -0.4211 -0.3258
  515MPD2     C 7700   0.962   0.634  14.601  0.6779 -0.0137  0.0297
  515MPD2    C1 7701   0.950   0.506  14.652  0.2150  0.1609 -0.0608
  515MPD2    C2 7702   1.023   0.477  14.765 -0.2209  0.2140  0.2837
  515MPD2    C3 7703   1.110   0.572  14.813  0.3353 -0.6914 -0.2095
  515MPD2    C4 7704   1.127   0.693  14.747 -0.2901  0.1680 -0.0209
  515MPD2    C5 7705   1.041   0.726  14.649 -0.2568 -0.1789 -0.0251
  515MPD2     H 7706   1.017   0.382  14.816 -0.9037  1.0161  1.6881
  515MPD2    H1 7707   1.203   0.758  14.788  0.8721  0.2986 -2.4201
  515MPD2    H2 7708   0.896   0.659  14.519  0.5048  1.3656  0.5823
  515MPD2    H3 7709   1.046   0.823  14.600  1.7196 -0.5589 -0.5725
  515MPD2     N 7710   1.185   0.548  14.934  0.3830  0.6723 -0.8490
  515MPD2    H5 7711   1.246   0.622  14.967 -2.3917  1.8585  1.5897
  515MPD2    N1 7712   0.864   0.407  14.597 -0.7567 -0.4112 -0.1121
  515MPD2    H7 7713   0.864   0.315  14.639 -1.5196 -1.2800 -2.0564
  516TMC3    C1 7714   0.714   0.293  14.449  0.1638  0.3248  0.2651
  516TMC3    C2 7715   0.664   0.284  14.324 -0.2768 -0.8291 -0.6406
  516TMC3    C3 7716   0.583   0.181  14.289 -0.1467 -0.4391 -0.3541
  516TMC3    C4 7717   0.697   0.193  14.540 -0.0109  0.5199  0.6751
  516TMC3    C5 7718   0.620   0.094  14.500 -0.7121  0.0159 -0.3360
  516TMC3    C6 7719   0.550   0.089  14.383  0.1884  0.8219  0.3710
  516TMC3     C 7720   0.787   0.417  14.483  0.0836  1.4154 -0.9781
  516TMC3     O 7721   0.794   0.499  14.391  0.1798 -0.1791 -0.6438
  516TMC3     H 7722   0.670   0.370  14.258  2.0502 -1.3964 -1.1611
  516TMC3    H1 7723   0.731   0.200  14.642  0.7103 -1.4168  0.5732
  516TMC3    H2 7724   0.494   0.002  14.354  1.8463 -0.6847  1.6534
  516TMC3    C7 7725   0.595   4.738  14.608  0.3259 -0.1232 -1.2430
  516TMC3    C8 7726   0.516   0.165  14.156  0.0083  0.5187  0.2835
  516TMC3    O1 7727   0.674   4.732  14.703 -0.0376  0.2643  0.3292
  516TMC3    O2 7728   0.444   0.071  14.141 -0.3327  0.3578 -0.6094
  517MPD2     C 7729   0.450   1.907  17.581  0.6984 -0.2535  0.0380
  517MPD2    C1 7730   0.583   1.899  17.627 -0.1587 -0.2060 -0.3909
  517MPD2    C2 7731   0.642   2.004  17.699 -0.7482  0.3301 -0.4429
  517MPD2    C3 7732   0.565   2.102  17.745  0.0747  0.6918  0.4906
  517MPD2    C4 7733   0.431   2.115  17.700  0.2791 -0.3098 -0.5390
  517MPD2    C5 7734   0.378   2.022  17.614  0.1018  0.0942 -0.4260
  517MPD2     H 7735   0.748   1.999  17.719 -0.3742  2.2143 -2.0175
  517MPD2    H1 7736   0.367   2.195  17.737 -0.8254 -2.0044  1.2361
  517MPD2    H2 7737   0.409   1.827  17.520  2.6877 -2.8370  2.0673
  517MPD2    H3 7738   0.278   2.038  17.574 -0.5300  3.2674  2.3836
  517MPD2     N 7739   0.615   2.208   0.056  0.2712  0.2589 -0.1327
  517MPD2    H5 7740   0.559   2.290   0.076  2.6862  2.0117 -0.6222
  517MPD2    N1 7741   0.659   1.783  17.607  0.0171 -0.5679  0.8430
  517MPD2    H7 7742   0.752   1.791  17.647 -0.0873  2.0430  0.5833
  518TMC3    C1 7743   0.732   1.569  17.531 -0.8542  0.2103 -0.0635
  518TMC3    C2 7744   0.695   1.436  17.517  0.4881 -0.8198  0.5493
  518TMC3    C3 7745   0.785   1.345  17.471 -0.6859 -0.9646  0.3770
  518TMC3    C4 7746   0.864   1.608  17.520 -0.0422 -0.5198 -0.2882
  518TMC3    C5 7747   0.954   1.512  17.482  0.2691  0.3241  0.3001
  518TMC3    C6 7748   0.914   1.385  17.455 -0.2283  0.4445 -0.0638
  518TMC3     C 7749   0.624   1.663  17.553  0.0957  0.4186 -0.3832
  518TMC3     O 7750   0.513   1.621  17.527  0.3759  0.6339 -0.2925
  518TMC3     H 7751   0.594   1.407  17.543 -0.8077  2.5764 -0.7030
  518TMC3    H1 7752   0.893   1.713  17.519 -1.0157 -0.2471  1.1233
  518TMC3    H2 7753   0.981   1.317  17.404 -1.0152 -2.1872  2.3923
  518TMC3    C7 7754   1.088   1.557  17.450  0.5714 -0.2118  0.4133
  518TMC3    C8 7755   0.752   1.201  17.463 -0.0294 -0.0175 -0.0201
  518TMC3    O1 7756   1.109   1.676  17.431  0.0893  0.2594  0.5272
  518TMC3    O2 7757   0.829   1.139  17.393  0.1591  0.4397 -0.7315
  519MPD2     C 7758   2.317   0.690  14.169 -1.1001 -0.3803 -0.3773
  519MPD2    C1 7759   2.204   0.634  14.220 -0.3909 -0.2948  0.4784
  519MPD2    C2 7760   2.212   0.519  14.302  0.5917  0.0793  0.7059
  519MPD2    C3 7761   2.332   0.453  14.316 -0.0674  0.4534  0.1236
  519MPD2    C4 7762   2.450   0.521  14.274 -0.4336 -0.4528  0.6560
  519MPD2    C5 7763   2.436   0.641  14.203 -0.2669 -0.4949 -0.4312
  519MPD2     H 7764   2.124   0.473  14.346 -1.1591  3.0241  0.3160
  519MPD2    H1 7765   2.542   0.466  14.289 -0.0559  0.3111  1.1724
  519MPD2    H2 7766   2.310   0.787  14.121  0.7240  0.4697  1.0996
  519MPD2    H3 7767   2.519   0.697  14.161 -0.3435  1.0086  1.4663
  519MPD2     N 7768   2.342   0.324  14.367  0.0826 -0.3432 -0.4693
  519MPD2    H5 7769   2.435   0.284  14.377  0.0399 -0.5659 -0.9732
  519MPD2    N1 7770   2.076   0.684  14.185 -0.4935  0.1058 -0.2967
  519MPD2    H7 7771   1.999   0.634  14.230 -0.4014 -0.6933 -1.0390
  520TMC3    C1 7772   2.271   0.107  14.394 -0.6658 -0.1174  0.2900
  520TMC3    C2 7773   2.195   0.031  14.307 -0.5079 -0.9347  0.0113
  520TMC3    C3 7774   2.253   4.651  14.267  0.0362 -0.6382 -1.2168
  520TMC3    C4 7775   2.390   0.078  14.447 -0.1110  0.0619  0.0647
  520TMC3    C5 7776   2.434   4.698  14.407 -0.3134 -0.3407 -0.5968
  520TMC3    C6 7777   2.370   4.610  14.325  0.1231 -0.1849 -0.1540
  520TMC3     C 7778   2.230   0.245  14.401  0.5166 -0.1415 -0.2752
  520TMC3     O 7779   2.111   0.259  14.367  0.4074  0.1752  0.2654
  520TMC3     H 7780   2.106   0.063  14.254  0.6240  0.5049 -1.0226
  520TMC3    H1 7781   2.443   0.142  14.517  1.9204 -1.8040  0.2472
  520TMC3    H2 7782   2.413   4.511  14.318  3.3611  1.3186 -1.3869
  520TMC3    C7 7783   2.570   4.678  14.443 -0.4003 -0.0351 -0.8775
  520TMC3    C8 7784   2.210   4.580  14.151 -0.1522 -0.5654 -0.7984
  520TMC3    O1 7785   2.609   4.693  14.557  0.1048 -0.3089 -0.2259
  520TMC3    O2 7786   2.281   4.490  14.109  0.7872  1.1782  0.2081
  521MPD2     C 7787   3.143   2.341  17.360  0.0170 -0.7136 -0.4418
  521MPD2    C1 7788   3.142   2.452  17.281 -0.4797  0.3626  0.7151
  521MPD2    C2 7789   3.260   2.503  17.231  0.0226  0.3061 -0.3071
  521MPD2    C3 7790   3.386   2.449  17.270 -0.0810 -0.2637 -0.0168
  521MPD2    C4 7791   3.385   2.346  17.357 -0.8041  0.1380  0.1799
  521MPD2    C5 7792   3.265   2.290  17.396  0.2185 -0.5549  0.6905
  521MPD2     H 7793   3.252   2.593  17.172 -2.1028 -1.2908 -2.4538
  521MPD2    H1 7794   3.473   2.290  17.387 -1.0697  1.2543  3.0378
  521MPD2    H2 7795   3.052   2.305  17.406 -0.9905  0.0168 -1.8622
  521MPD2    H3 7796   3.269   2.198  17.454  1.5349 -0.8980  0.0499
  521MPD2     N 7797   3.502   2.523  17.243 -0.3792 -0.2591  0.2823
  521MPD2    H5 7798   3.486   2.598  17.177  1.0604 -0.6856 -0.5485
  521MPD2    N1 7799   3.017   2.507  17.258  0.5845 -0.1221  0.9923
  521MPD2    H7 7800   2.944   2.460  17.311  1.5052  0.0784  2.4224
  522TMC3    C1 7801   3.735   2.565  17.222  0.1243  0.2258 -0.1116
  522TMC3    C2 7802   3.868   2.536  17.248 -0.2727 -0.2445  0.3257
  522TMC3    C3 7803   3.957   2.620  17.193  0.7543 -0.7724 -0.2624
  522TMC3    C4 7804   3.703   2.669  17.135 -0.6703 -0.1995 -0.6455
  522TMC3    C5 7805   3.799   2.747  17.079 -1.3250 -0.3575  0.0051
  522TMC3    C6 7806   3.929   2.719  17.107  0.5473 -0.5190  0.1830
  522TMC3     C 7807   3.630   2.500  17.291 -0.1138 -0.1528 -0.5712
  522TMC3     O 7808   3.667   2.425  17.382  0.6166 -0.2216 -0.2119
  522TMC3     H 7809   3.904   2.455  17.310 -0.2526 -0.1591  0.4258
  522TMC3    H1 7810   3.602   2.682  17.099 -1.3000  1.0355  1.5823
  522TMC3    H2 7811   4.009   2.789  17.084  0.3473 -1.2906 -2.7983
  522TMC3    C7 7812   3.779   2.801  16.946  0.6693 -0.1584 -0.1153
  522TMC3    C8 7813   4.092   2.578  17.209 -0.5692  0.5534  0.2068
  522TMC3    O1 7814   3.877   2.819  16.879 -0.0715  0.4644  0.3660
  522TMC3    O2 7815   4.132   2.519  17.307 -0.2430 -0.4720 -0.1220
  523MPD2     C 7816   0.598   3.860  10.589 -0.5545  0.3024  0.3120
  523MPD2    C1 7817   0.548   3.737  10.584  0.3883 -0.4546  0.6530
  523MPD2    C2 7818   0.452   3.704  10.501  0.2053  0.7440  0.2287
  523MPD2    C3 7819   0.387   3.803  10.428 -0.4751  0.6115  0.1078
  523MPD2    C4 7820   0.441   3.931  10.429 -0.5395 -0.0047  0.4606
  523MPD2    C5 7821   0.546   3.960  10.514 -0.0985  0.7134  0.3568
  523MPD2     H 7822   0.419   3.601  10.497 -0.1487  0.8644 -0.0473
  523MPD2    H1 7823   0.407   4.023  10.383  1.9015  0.6608 -0.0125
  523MPD2    H2 7824   0.690   3.875  10.644  1.4277 -1.0770 -2.6487
  523MPD2    H3 7825   0.599   4.054  10.509  0.6584  0.3928  2.5595
  523MPD2     N 7826   0.276   3.774  10.353  0.0974 -0.0631  0.0300
  523MPD2    H5 7827   0.247   3.677  10.350 -1.2360  0.2852  1.8670
  523MPD2    N1 7828   0.614   3.641  10.668 -0.0238 -0.1256 -0.0462
  523MPD2    H7 7829   0.704   3.662  10.711 -0.3744 -0.4798  0.8757
  524TMC3    C1 7830   0.088   3.798  10.208 -0.1875 -0.2103 -0.1255
  524TMC3    C2 7831   0.089   3.673  10.169 -0.2208  0.1785  0.0406
  524TMC3    C3 7832   4.731   3.645  10.075  0.3835 -0.3625  0.1241
  524TMC3    C4 7833   4.710   3.871  10.207  0.5879  0.1447 -0.1937
  524TMC3    C5 7834   4.602   3.821  10.142  0.1857  0.0154  0.2166
  524TMC3    C6 7835   4.612   3.714  10.062  0.9428  0.6011 -0.4807
  524TMC3     C 7836   0.189   3.857  10.288 -0.4615  0.7251  0.3337
  524TMC3     O 7837   0.185   3.978  10.287 -0.2111 -0.0850 -0.0014
  524TMC3     H 7838   0.185   3.624  10.162  1.6256  3.5954  1.1635
  524TMC3    H1 7839   4.703   3.969  10.252  0.4924  0.6849 -1.3652
  524TMC3    H2 7840   4.528   3.688   9.999  0.1713 -2.6722  1.8558
  524TMC3    C7 7841   4.480   3.896  10.164  0.4522 -0.5162  0.3363
  524TMC3    C8 7842   0.034   3.565   9.961  0.9755 -0.6182  0.4164
  524TMC3    O1 7843   4.494   4.010  10.209  0.3323 -0.0854 -0.3097
  524TMC3    O2 7844   0.156   3.552   9.937 -0.2837 -0.4020  0.5210
  525MPD2     C 7845   3.424   4.666  14.705 -0.1475 -0.4631  0.4640
  525MPD2    C1 7846   3.544   4.722  14.713 -0.5632 -0.3191 -0.6452
  525MPD2    C2 7847   3.573   0.102  14.648 -0.0313 -0.1406 -0.2631
  525MPD2    C3 7848   3.480   0.166  14.567  0.6323  0.4917 -0.3099
  525MPD2    C4 7849   3.356   0.109  14.574 -0.2118 -0.3357 -0.5265
  525MPD2    C5 7850   3.329   4.737  14.644  0.1883 -0.3480 -0.5583
  525MPD2     H 7851   3.669   0.149  14.666 -0.1116  0.2268 -0.8140
  525MPD2    H1 7852   3.280   0.149  14.506 -0.8087  1.1095  0.9812
  525MPD2    H2 7853   3.390   4.580  14.762  1.6375 -0.2727  1.7788
  525MPD2    H3 7854   3.229   4.695  14.643 -0.0290  0.0880  2.4255
  525MPD2     N 7855   3.504   0.284  14.508  0.3457 -0.3701 -0.5317
  525MPD2    H5 7856   3.415   0.320  14.475  0.6769  0.0063 -1.0190
  525MPD2    N1 7857   3.643   4.665  14.799  0.0571  0.6918 -0.3777
  525MPD2    H7 7858   3.731   4.715  14.800 -1.2865  3.0062  0.4965
  526TMC3    C1 7859   3.761   4.511  14.946  0.5557 -0.3341 -0.1892
  526TMC3    C2 7860   3.743   4.431  15.061  0.5572 -0.1305 -0.5175
  526TMC3    C3 7861   3.849   4.374  15.122 -0.1492  0.4257  0.2218
  526TMC3    C4 7862   3.880   4.514  14.883  0.0076  0.2962 -0.5289
  526TMC3    C5 7863   3.983   4.455  14.948  0.5866  0.4853  0.4839
  526TMC3    C6 7864   3.976   4.401  15.069 -0.9946  0.0306 -0.0710
  526TMC3     C 7865   3.642   4.551  14.876  0.1664  0.4384  0.3638
  526TMC3     O 7866   3.544   4.488  14.915 -0.1860  0.0946 -0.2520
  526TMC3     H 7867   3.644   4.413  15.100  0.6466  0.4338 -0.0251
  526TMC3    H1 7868   3.880   4.550  14.781  0.7535 -1.4504 -1.1479
  526TMC3    H2 7869   4.074   4.371  15.106 -1.1903 -0.2207  0.2410
  526TMC3    C7 7870   4.114   4.465  14.883 -0.1556  0.3656  0.5762
  526TMC3    C8 7871   3.844   4.332  15.260 -0.4317  0.4147 -0.1409
  526TMC3    O1 7872   4.144   4.580  14.847  0.3092 -0.6658  0.2932
  526TMC3    O2 7873   3.950   4.337  15.322 -0.0753  0.2905 -0.1605
  527MPD2     C 7874   1.562   3.039   0.952  0.6080 -0.5271  0.8988
  527MPD2    C1 7875   1.590   2.907   0.975  0.6166  0.1173 -0.5800
  527MPD2    C2 7876   1.699   2.851   0.914  0.1975 -0.2954  0.3529
  527MPD2    C3 7877   1.793   2.924   0.843  0.6660  0.5585 -0.1079
  527MPD2    C4 7878   1.774   3.063   0.830 -0.3263 -0.6822 -0.1738
  527MPD2    C5 7879   1.656   3.112   0.881  0.5833 -0.0628 -0.0619
  527MPD2     H 7880   1.703   2.743   0.921  0.9694 -0.2450  0.6376
  527MPD2    H1 7881   1.829   3.128   0.763 -1.1599 -1.2317 -1.4009
  527MPD2    H2 7882   1.473   3.088   0.991 -0.1267 -1.5526  0.5318
  527MPD2    H3 7883   1.624   3.208   0.841  1.9906  0.5849  0.3617
  527MPD2     N 7884   1.893   2.856   0.781 -0.3236  0.4354 -0.1698
  527MPD2    H5 7885   1.876   2.756   0.773 -0.3914  0.5238 -1.1245
  527MPD2    N1 7886   1.503   2.817   1.042  0.7756  0.4007  0.5356
  527MPD2    H7 7887   1.539   2.722   1.052 -1.3016 -0.6865 -2.4568
  528TMC3    C1 7888   1.313   2.742   1.154  0.5499  0.4163  1.0960
  528TMC3    C2 7889   1.344   2.618   1.110 -0.1391  0.3896  0.3367
  528TMC3    C3 7890   1.246   2.525   1.107  0.6151 -0.7619  0.1786
  528TMC3    C4 7891   1.183   2.763   1.196 -0.0837  0.0487 -0.4584
  528TMC3    C5 7892   1.088   2.666   1.202  0.3402 -0.0381 -0.5249
  528TMC3    C6 7893   1.120   2.543   1.151  0.1181 -0.4035  0.1121
  528TMC3     C 7894   1.384   2.852   1.088  0.4785 -0.6035  0.3914
  528TMC3     O 7895   1.314   2.949   1.071  0.2777  0.0066  0.1169
  528TMC3     H 7896   1.444   2.596   1.075  0.3117  1.4782  0.9615
  528TMC3    H1 7897   1.163   2.865   1.228  1.0933  0.5433 -1.2996
  528TMC3    H2 7898   1.045   2.464   1.158  0.0524 -0.3915 -0.4395
  528TMC3    C7 7899   0.954   2.688   1.250  0.3703  0.7190  0.2461
  528TMC3    C8 7900   1.282   2.417   1.016  0.4548 -0.5931 -0.6528
  528TMC3    O1 7901   0.882   2.592   1.265 -0.0687  0.0825 -0.5017
  528TMC3    O2 7902   1.397   2.377   1.014 -0.0723 -0.3026 -0.5630
  529MPD2     C 7903   4.597   0.991   1.333  0.0853 -0.5922 -0.3682
  529MPD2    C1 7904   4.611   0.885   1.243 -0.3042 -0.3095 -0.1663
  529MPD2    C2 7905   4.538   0.887   1.119 -0.2194 -0.2235  0.8869
  529MPD2    C3 7906   4.458   0.997   1.082  0.1789 -0.2682 -0.1578
  529MPD2    C4 7907   4.440   1.095   1.181 -0.6188  0.0531 -0.0682
  529MPD2    C5 7908   4.512   1.092   1.300  0.5531  0.1093 -0.6493
  529MPD2     H 7909   4.547   0.800   1.055 -0.8266 -0.2798  0.8820
  529MPD2    H1 7910   4.374   1.176   1.156  0.2423  0.6972 -0.2386
  529MPD2    H2 7911   4.640   0.980   1.432  1.6337 -1.4538 -1.1386
  529MPD2    H3 7912   4.494   1.177   1.365 -2.1751  0.3185 -1.6780
  529MPD2     N 7913   4.400   1.018   0.952 -0.1313  0.1962  0.4916
  529MPD2    H5 7914   4.328   1.089   0.958 -0.2303  0.1370 -0.0335
  529MPD2    N1 7915   4.703   0.775   1.271 -0.3106 -0.0644 -0.0566
  529MPD2    H7 7916   4.705   0.703   1.199  0.3112 -1.2994  1.2016
  530TMC3    C1 7917   0.119   0.640   1.385  0.6104 -0.0602  0.6033
  530TMC3    C2 7918   0.229   0.638   1.462  0.3238  0.4803 -0.6499
  530TMC3    C3 7919   0.293   0.518   1.483 -0.0978 -0.6005  0.1054
  530TMC3    C4 7920   0.057   0.526   1.340 -0.3541  0.2017 -0.3334
  530TMC3    C5 7921   0.127   0.408   1.353 -0.0011  0.4052 -0.4128
  530TMC3    C6 7922   0.239   0.404   1.432  0.0693  1.1979 -0.4799
  530TMC3     C 7923   0.038   0.761   1.383  0.5730  0.1032 -0.5885
  530TMC3     O 7924   0.070   0.845   1.468 -0.0096 -0.1840  0.4720
  530TMC3     H 7925   0.274   0.723   1.513  0.3568  0.5503 -0.7942
  530TMC3    H1 7926   4.705   0.520   1.284  0.8098 -0.9047 -2.1720
  530TMC3    H2 7927   0.279   0.309   1.464  0.1829  1.2441 -0.4871
  530TMC3    C7 7928   0.048   0.287   1.376  0.3175  0.5874 -0.8873
  530TMC3    C8 7929   0.419   0.510   1.552 -1.0933  0.9400 -0.7531
  530TMC3    O1 7930   0.095   0.179   1.350 -0.2334  0.8818  0.5985
  530TMC3    O2 7931   0.434   0.584   1.647  0.3675 -0.0738 -0.5130
  531MPD2     C 7932   3.132   3.387  12.772  0.2310  0.3124  0.4982
  531MPD2    C1 7933   3.060   3.328  12.879  0.5220  0.4456  0.8130
  531MPD2    C2 7934   2.919   3.315  12.863  0.3566  0.5681  0.2457
  531MPD2    C3 7935   2.859   3.369  12.754 -0.7540 -0.1609  0.2972
  531MPD2    C4 7936   2.933   3.435  12.656  0.4439 -0.2071 -0.0405
  531MPD2    C5 7937   3.068   3.445  12.664  0.2770 -0.4211 -0.1395
  531MPD2     H 7938   2.860   3.273  12.943  0.3616 -0.2720 -0.1990
  531MPD2    H1 7939   2.889   3.488  12.573  1.0314 -0.8799 -0.7837
  531MPD2    H2 7940   3.240   3.400  12.780  0.4992 -0.9694 -0.9917
  531MPD2    H3 7941   3.116   3.489  12.577  0.1749  1.3531  0.7143
  531MPD2     N 7942   2.715   3.368  12.743  0.3672 -0.9982 -0.3225
  531MPD2    H5 7943   2.673   3.434  12.678  1.4202 -0.2463 -0.2475
  531MPD2    N1 7944   3.128   3.295  13.001 -0.0869 -0.3398  0.3849
  531MPD2    H7 7945   3.226   3.321  13.003 -0.0706 -0.1741 -2.0850
  532TMC3    C1 7946   3.167   3.237  13.228  0.5775  0.3274  0.1936
  532TMC3    C2 7947   3.116   3.173  13.342  0.0007  0.0326  0.2588
  532TMC3    C3 7948   3.145   3.217  13.472 -0.3398  0.3491  0.0077
  532TMC3    C4 7949   3.250   3.343  13.247  0.0466 -0.1805  0.0139
  532TMC3    C5 7950   3.286   3.380  13.372 -0.2989 -0.3165  0.7489
  532TMC3    C6 7951   3.233   3.321  13.486  0.4731 -0.5443 -0.1964
  532TMC3     C 7952   3.073   3.243  13.111 -0.2680 -0.8589 -0.4929
  532TMC3     O 7953   2.967   3.188  13.136  0.1918  0.3146  0.0221
  532TMC3     H 7954   3.049   3.091  13.318 -0.1919 -0.2869  1.8991
  532TMC3    H1 7955   3.308   3.397  13.173  0.4242 -1.2329 -0.4557
  532TMC3    H2 7956   3.240   3.371  13.582  2.7962  0.7339 -1.0010
  532TMC3    C7 7957   3.399   3.473  13.366 -0.2283  0.5725 -0.9272
  532TMC3    C8 7958   3.023   3.248  13.544  0.9480 -0.1317  0.7602
  532TMC3    O1 7959   3.398   3.571  13.292  0.1195  0.4968 -0.1008
  532TMC3    O2 7960   3.023   3.284  13.662 -0.2243 -0.0514 -0.0407
  533TMC3    C1 7961   3.625   0.487  14.485  0.6304  0.1242 -0.3780
  533TMC3    C2 7962   3.732   0.543  14.429 -0.0149  0.0663  0.3722
  533TMC3    C3 7963   3.771   0.671  14.470 -0.7873 -0.7090 -0.2238
  533TMC3    C4 7964   3.565   0.555  14.589 -1.0196  0.0827  0.2438
  533TMC3    C5 7965   3.615   0.665  14.648  0.9398 -0.6662  0.3315
  533TMC3    C6 7966   3.717   0.726  14.587 -0.1958  0.7956  0.2864
  533TMC3     C 7967   3.628   0.342  14.490 -0.2053 -0.4275  0.0492
  533TMC3     O 7968   3.743   0.304  14.501  0.0427  0.4038  0.8438
  533TMC3     H 7969   3.784   0.488  14.352  0.9756 -0.2790  1.2773
  533TMC3    H1 7970   3.490   0.501  14.645 -0.4496 -1.5206 -0.5410
  533TMC3    H2 7971   3.762   0.812  14.635 -1.2642  0.8907  1.1160
  533TMC3    C7 7972   3.602   0.665  14.788 -1.1790 -1.0167  0.8483
  533TMC3    C8 7973   3.892   0.722  14.421  0.1220 -0.9412 -0.7254
  533TMC3    O1 7974   3.531   0.580  14.845 -0.4751  0.2796  0.2168
  533TMC3    O2 7975   3.975   0.639  14.402 -0.8743  0.0904  0.3113
  534MPD2     C 7976   2.016   1.847   1.167 -0.0035 -0.4255 -0.2722
  534MPD2    C1 7977   1.884   1.860   1.205  0.8324 -0.4877  0.4975
  534MPD2    C2 7978   1.798   1.763   1.178  0.0778 -0.1889  0.0031
  534MPD2    C3 7979   1.843   1.648   1.116  0.1346  0.0009 -0.4736
  534MPD2    C4 7980   1.977   1.632   1.092 -0.1119  0.5348 -1.1702
  534MPD2    C5 7981   2.071   1.732   1.114  0.8927  0.3640  0.0970
  534MPD2     H 7982   1.692   1.770   1.201 -0.4247 -2.1177 -1.8099
  534MPD2    H1 7983   2.027   1.545   1.053  0.6875 -0.0614  1.2224
  534MPD2    H2 7984   2.093   1.923   1.182 -0.4025  0.0899 -0.8345
  534MPD2    H3 7985   2.177   1.723   1.097  0.8761  0.5710 -0.1207
  534MPD2     N 7986   1.759   1.539   1.076 -0.0011  0.1141  0.2407
  534MPD2    H5 7987   1.808   1.465   1.027 -0.7656 -0.3056  0.1234
  534MPD2    N1 7988   1.822   1.981   1.253  0.7028  0.2507  1.0664
  534MPD2    H7 7989   1.721   1.981   1.268  0.3613 -1.1005 -1.2837
  535TMC3    C1 7990   1.577   1.400   1.051  0.1405 -0.2188  0.0933
  535TMC3    C2 7991   1.469   1.347   1.119 -1.0595  0.3314  0.5357
  535TMC3    C3 7992   1.358   1.314   1.045 -0.7623 -0.3426  0.7194
  535TMC3    C4 7993   1.590   1.400   0.916  0.5850 -0.0316 -0.0307
  535TMC3    C5 7994   1.470   1.369   0.849  0.0367  0.3707 -0.5900
  535TMC3    C6 7995   1.354   1.331   0.913 -0.3305 -0.4009  0.2905
  535TMC3     C 7996   1.633   1.519   1.115  0.5852  0.0148 -0.3009
  535TMC3     O 7997   1.576   1.567   1.216  0.1714 -0.1716  0.4309
  535TMC3     H 7998   1.459   1.360   1.226 -0.0234  3.4868  0.2393
  535TMC3    H1 7999   1.670   1.437   0.853  1.0539 -0.9294  0.0383
  535TMC3    H2 8000   1.273   1.282   0.860  0.1294  0.7807 -1.5108
  535TMC3    C7 8001   1.465   1.377   0.700 -0.1339 -0.7033 -0.0654
  535TMC3    C8 8002   1.284   1.201   1.086 -0.1264 -0.1988  0.0281
  535TMC3    O1 8003   1.567   1.359   0.634  0.4089 -0.3167  0.8030
  535TMC3    O2 8004   1.179   1.162   1.033  0.3010  0.0165  0.3582
  536MPD2     C 8005   0.517   3.909  16.459 -0.2669 -0.0911  0.3194
  536MPD2    C1 8006   0.398   3.845  16.470  0.8642 -0.1424  0.3785
  536MPD2    C2 8007   0.295   3.862  16.376  0.5597  0.6406  0.2400
  536MPD2    C3 8008   0.315   3.947  16.271  0.0050  0.2049 -0.3133
  536MPD2    C4 8009   0.440   4.003  16.252  0.0155  0.4431  0.6231
  536MPD2    C5 8010   0.535   3.983  16.349 -0.0708 -0.4154 -0.0663
  536MPD2     H 8011   0.201   3.809  16.385  0.5467  0.8265  1.2134
  536MPD2    H1 8012   0.466   4.069  16.170  4.2421 -0.0639  1.5538
  536MPD2    H2 8013   0.601   3.894  16.526 -0.3072  0.4681  0.4894
  536MPD2    H3 8014   0.636   4.020  16.332  0.8062 -2.4025  0.7530
  536MPD2     N 8015   0.214   3.979  16.176  0.6861  0.0065 -0.2070
  536MPD2    H5 8016   0.233   4.054  16.111 -1.3671 -0.2625 -1.1134
  536MPD2    N1 8017   0.376   3.773  16.588  0.3335 -0.3788 -0.2662
  536MPD2    H7 8018   0.454   3.769  16.654 -1.4685 -0.6628  1.8440
  537TMC3    C1 8019   0.278   3.639  16.745 -0.0620  0.4280  0.1404
  537TMC3    C2 8020   0.375   3.680  16.831 -0.1274 -0.1183 -0.1843
  537TMC3    C3 8021   0.394   3.616  16.950  0.2838 -0.1714  0.2263
  537TMC3    C4 8022   0.208   3.525  16.772 -0.4271 -0.7740  0.5341
  537TMC3    C5 8023   0.228   3.461  16.888  0.7561 -1.0985 -0.1383
  537TMC3    C6 8024   0.327   3.500  16.985  0.5136  0.1661  0.1139
  537TMC3     C 8025   0.264   3.699  16.616  0.4666  0.6429  0.9068
  537TMC3     O 8026   0.174   3.652  16.551  0.1023  0.6524  0.1297
  537TMC3     H 8027   0.420   3.778  16.816  1.9460 -1.5648 -3.3811
  537TMC3    H1 8028   0.143   3.483  16.696 -0.3454 -0.4739  0.2977
  537TMC3    H2 8029   0.354   3.429  17.061  1.6247 -0.6929 -1.0767
  537TMC3    C7 8030   0.130   3.363  16.918 -0.1571 -0.0598 -0.4599
  537TMC3    C8 8031   0.512   3.650  17.029 -0.1868  0.7577  0.2347
  537TMC3    O1 8032   0.070   3.314  16.827 -0.4107  0.4940 -0.6055
  537TMC3    O2 8033   0.586   3.732  16.982  0.2645 -1.1714 -0.0486
  538TMC3    C1 8034   1.142   3.340  11.562  0.1776  0.0635  0.3771
  538TMC3    C2 8035   1.240   3.431  11.588 -0.2405  0.0127 -0.2549
  538TMC3    C3 8036   1.249   3.543  11.505  0.0944  0.3583 -0.0578
  538TMC3    C4 8037   1.045   3.370  11.465 -0.7719  0.1805 -0.1687
  538TMC3    C5 8038   1.058   3.489  11.399  0.2343  0.3140  0.1293
  538TMC3    C6 8039   1.157   3.580  11.412  0.5587 -0.1985  0.7481
  538TMC3     C 8040   1.143   3.210  11.626 -0.0588  0.2632  0.5348
  538TMC3     O 8041   1.042   3.152  11.659 -0.1068  0.5310  0.0151
  538TMC3     H 8042   1.322   3.422  11.658 -1.4114  2.0046  1.3682
  538TMC3    H1 8043   0.980   3.289  11.435 -1.5328  1.2228 -1.3199
  538TMC3    H2 8044   1.170   3.673  11.357 -1.0367 -0.5632 -0.2453
  538TMC3    C7 8045   0.954   3.515  11.301 -0.4615 -0.3036 -0.5355
  538TMC3    C8 8046   1.379   3.598  11.507  0.4111 -0.2741 -0.5807
  538TMC3    O1 8047   0.855   3.443  11.313 -0.2745 -0.4338 -0.0245
  538TMC3    O2 8048   1.426   3.615  11.618 -0.9844 -0.1470 -0.5855
  539MPD2     C 8049   1.059   2.433  12.215  0.0578  0.0922  0.5746
  539MPD2    C1 8050   1.128   2.528  12.139 -0.3297 -0.6605  0.6296
  539MPD2    C2 8051   1.062   2.642  12.102  0.4179  0.4216  0.2449
  539MPD2    C3 8052   0.937   2.664  12.141 -0.3401 -0.0595 -0.7192
  539MPD2    C4 8053   0.860   2.576  12.215 -0.2039  0.4068 -0.5762
  539MPD2    C5 8054   0.925   2.460  12.247 -0.5955 -0.5117 -0.6159
  539MPD2     H 8055   1.116   2.714  12.041 -0.7205  1.6969  0.7515
  539MPD2    H1 8056   0.757   2.592  12.245  1.2374  2.5856  3.2078
  539MPD2    H2 8057   1.084   2.330  12.236 -0.5366  0.5350  3.5113
  539MPD2    H3 8058   0.879   2.383  12.308  1.7922 -0.9635  0.6163
  539MPD2     N 8059   0.867   2.780  12.096 -1.0107  0.1075 -0.5964
  539MPD2    H5 8060   0.765   2.780  12.103 -0.8877  1.4528  1.0648
  539MPD2    N1 8061   1.261   2.507  12.103  0.6786  0.0777 -0.1613
  539MPD2    H7 8062   1.310   2.566  12.036 -0.3003  1.8630  0.6800
  540TMC3    C1 8063   0.820   2.989  11.996  0.0470  0.3619 -0.0594
  540TMC3    C2 8064   0.844   3.068  11.891 -0.1535  0.8435  0.7434
  540TMC3    C3 8065   0.760   3.176  11.868  0.2005  0.1839 -0.6420
  540TMC3    C4 8066   0.718   3.014  12.076  0.0955  0.2147 -0.8160
  540TMC3    C5 8067   0.657   3.134  12.065  0.6029 -0.0087  0.2316
  540TMC3    C6 8068   0.661   3.213  11.949  0.3127 -0.1160 -0.2823
  540TMC3     C 8069   0.916   2.885  12.024  0.7778  0.0820 -0.5490
  540TMC3     O 8070   1.033   2.910  12.012  0.0173  0.3906 -0.3760
  540TMC3     H 8071   0.919   3.036  11.819 -2.4997 -1.8734 -0.4902
  540TMC3    H1 8072   0.707   2.949  12.162 -2.2110  1.8764  0.1454
  540TMC3    H2 8073   0.611   3.305  11.921 -0.4448 -0.3409  0.3277
  540TMC3    C7 8074   0.537   3.149  12.141 -0.0847 -0.1691 -0.2918
  540TMC3    C8 8075   0.724   3.196  11.729 -1.0574  0.9176  0.1234
  540TMC3    O1 8076   0.484   3.054  12.189  0.5236  0.4313 -0.1792
  540TMC3    O2 8077   0.666   3.299  11.697  0.6342  0.5692 -0.4587
  541MPD2     C 8078   4.429   3.375  13.288 -0.4296 -0.7410  0.3685
  541MPD2    C1 8079   4.462   3.338  13.159 -0.2233 -0.5816 -0.5264
  541MPD2    C2 8080   4.448   3.436  13.057 -0.4162  0.6108 -0.3071
  541MPD2    C3 8081   4.414   3.565  13.094 -0.1784  0.5472 -0.0119
  541MPD2    C4 8082   4.379   3.602  13.220  0.4569  0.8860  0.1308
  541MPD2    C5 8083   4.391   3.507  13.324  0.2286 -0.3468 -0.2852
  541MPD2     H 8084   4.463   3.417  12.951 -1.5921  0.0989 -0.3755
  541MPD2    H1 8085   4.337   3.698  13.245 -0.3040  0.4170  0.6648
  541MPD2    H2 8086   4.428   3.295  13.361  0.1187 -1.0463  0.0472
  541MPD2    H3 8087   4.351   3.521  13.424  0.5241 -0.0957 -0.2010
  541MPD2     N 8088   4.391   3.663  12.996 -0.2941  0.8526  0.2955
  541MPD2    H5 8089   4.372   3.635  12.901  0.2248 -1.7423  0.9519
  541MPD2    N1 8090   4.504   3.205  13.135  0.3503 -0.0055 -0.3477
  541MPD2    H7 8091   4.490   3.143  13.213 -0.4606 -0.7275 -1.0548
  542TMC3    C1 8092   4.325   3.853  12.902  0.5445  0.0152  0.4083
  542TMC3    C2 8093   4.210   3.802  12.845 -0.3671 -0.3569 -0.4729
  542TMC3    C3 8094   4.153   3.874  12.746 -0.4190 -0.3616 -0.1488
  542TMC3    C4 8095   4.375   3.975  12.862  0.0057  0.1687  0.0690
  542TMC3    C5 8096   4.331   4.024  12.740  0.0901 -0.3130 -0.2572
  542TMC3    C6 8097   4.209   3.990  12.694 -0.7608 -0.0502 -0.1652
  542TMC3     C 8098   4.384   3.793  13.020  0.5152  0.5113 -0.0203
  542TMC3     O 8099   4.434   3.858  13.114 -0.3526 -0.1713  0.2247
  542TMC3     H 8100   4.156   3.719  12.890 -1.0503  0.3983  0.0966
  542TMC3    H1 8101   4.462   4.016  12.911 -0.3445  0.2918  0.5844
  542TMC3    H2 8102   4.171   4.040  12.605  1.6118 -0.2604 -1.2770
  542TMC3    C7 8103   4.408   4.128  12.679 -0.1887 -0.1043  0.0586
  542TMC3    C8 8104   4.055   3.821  12.661 -0.6731 -0.1360  0.3941
  542TMC3    O1 8105   4.495   4.178  12.747 -0.1705  0.1227  0.0254
  542TMC3    O2 8106   3.977   3.894  12.604 -0.2949  0.5118  0.4223
  543TMC3    C1 8107   3.732   4.657  17.538  0.1673  0.0265 -0.2063
  543TMC3    C2 8108   3.665   4.539  17.561  0.4209 -0.2896  0.4203
  543TMC3    C3 8109   3.700   4.452  17.664 -0.4229  0.4712  0.4215
  543TMC3    C4 8110   3.833   4.697  17.620  0.3514 -0.2472 -0.4657
  543TMC3    C5 8111   3.858   4.612  17.725 -0.5357  0.4036 -0.4365
  543TMC3    C6 8112   3.785   4.499  17.755  0.3885  0.7086 -1.3835
  543TMC3     C 8113   3.745   4.720  17.403 -0.0535 -0.1407 -0.1615
  543TMC3     O 8114   3.841   0.055  17.381  0.2325  0.0061 -0.2779
  543TMC3     H 8115   3.596   4.496  17.490  1.0054  0.1994 -0.4502
  543TMC3    H1 8116   3.884   0.050  17.603 -1.5149  0.6887 -0.7979
  543TMC3    H2 8117   3.827   4.434   0.066 -2.7054  0.9690  0.6028
  543TMC3    C7 8118   3.986   4.621   0.035  0.1155 -0.2277  0.4627
  543TMC3    C8 8119   3.683   4.310  17.640 -0.0356  0.1211 -0.1063
  543TMC3    O1 8120   3.978   4.575   0.149 -0.2901  0.1375  0.4268
  543TMC3    O2 8121   3.645   4.272  17.532 -0.7728  0.3053  0.2090
  544MPD2     C 8122   3.726   3.803  17.758  0.3339  0.3219 -0.4445
  544MPD2    C1 8123   3.683   3.864  17.644  0.7884  0.1277 -0.1053
  544MPD2    C2 8124   3.682   4.007  17.634  0.3720  0.5335  0.3838
  544MPD2    C3 8125   3.715   4.082  17.746 -0.1279 -0.1046  0.0016
  544MPD2    C4 8126   3.761   4.025   0.097 -0.0654  0.2426  0.7016
  544MPD2    C5 8127   3.753   3.887   0.100 -0.2629  0.0277 -0.1882
  544MPD2     H 8128   3.637   4.064  17.553  1.1977 -1.7149 -1.6655
  544MPD2    H1 8129   3.809   4.083   0.175  0.8118  1.6808 -0.9216
  544MPD2    H2 8130   3.738   3.695  17.760  0.3571  0.3466  1.3417
  544MPD2    H3 8131   3.804   3.836   0.182 -0.6895 -0.5756 -0.2978
  544MPD2     N 8132   3.715   4.227  17.751  0.5877 -0.1227  0.0948
  544MPD2    H5 8133   3.735   4.269   0.077  0.2704 -0.2538  0.2241
  544MPD2    N1 8134   3.645   3.779  17.535 -0.2324  0.2166 -0.1964
  544MPD2    H7 8135   3.666   3.680  17.543  0.2572  0.4047  0.8648
  545TMC3    C1 8136   3.567   3.737  17.309 -0.0144  0.1589 -0.1214
  545TMC3    C2 8137   3.449   3.755  17.245 -0.5356  0.1956  0.1498
  545TMC3    C3 8138   3.436   3.694  17.125  0.2218 -0.3853 -0.2648
  545TMC3    C4 8139   3.672   3.662  17.263  0.1402  0.5117  0.0321
  545TMC3    C5 8140   3.659   3.607  17.133 -0.9997  0.4907  0.1612
  545TMC3    C6 8141   3.543   3.631  17.064 -0.6754  0.0191  0.5675
  545TMC3     C 8142   3.578   3.826  17.424 -0.1729 -0.1293 -0.4028
  545TMC3     O 8143   3.511   3.931  17.416  0.4283  0.3059  0.2241
  545TMC3     H 8144   3.369   3.803  17.301 -0.6371 -0.7440  0.8142
  545TMC3    H1 8145   3.762   3.663  17.323 -0.0890  0.0824  0.3836
  545TMC3    H2 8146   3.524   3.592  16.965  1.2616  0.1610  0.1326
  545TMC3    C7 8147   3.778   3.559  17.056  0.5545  0.1910  0.6173
  545TMC3    C8 8148   3.323   3.720  17.041 -0.0827 -0.3803  0.3439
  545TMC3    O1 8149   3.759   3.534  16.937 -0.2304  0.0108 -0.6332
  545TMC3    O2 8150   3.304   3.637  16.954  0.9198 -0.4864 -0.3292
  546MPD2     C 8151   0.548   4.489  17.497 -0.5165  0.1857  0.1080
  546MPD2    C1 8152   0.513   4.511  17.368  0.2311 -0.2082 -0.0909
  546MPD2    C2 8153   0.554   4.620  17.299  0.7016 -0.2569 -0.7431
  546MPD2    C3 8154   0.635   4.714  17.363  0.1373 -0.3267  0.5919
  546MPD2    C4 8155   0.671   4.697  17.494 -0.7376 -0.4010 -0.8689
  546MPD2    C5 8156   0.624   4.583  17.559  0.1616 -0.3588  0.3369
  546MPD2     H 8157   0.510   4.645  17.203 -3.1509 -1.2497  0.7561
  546MPD2    H1 8158   0.718   0.032  17.556  0.4304  0.0245 -2.2911
  546MPD2    H2 8159   0.504   4.406  17.551 -1.5433 -0.2461 -1.3901
  546MPD2    H3 8160   0.650   4.569  17.663  1.5561  1.7870  0.2867
  546MPD2     N 8161   0.665   0.095  17.305 -0.6246 -0.2592  0.4526
  546MPD2    H5 8162   0.693   0.166  17.372  0.8576 -0.0404 -0.4142
  546MPD2    N1 8163   0.419   4.419  17.306 -0.1788 -0.7296  0.1955
  546MPD2    H7 8164   0.379   4.358  17.376 -0.0946 -2.1332 -0.9860
  547TMC3    C1 8165   0.259   4.337  17.137 -0.6317 -0.6850 -0.3451
  547TMC3    C2 8166   0.178   4.374  17.030 -0.0445  0.1594  0.2852
  547TMC3    C3 8167   0.058   4.308  17.016 -0.0745 -0.1309 -0.7557
  547TMC3    C4 8168   0.211   4.248  17.229 -0.2994 -0.2563  0.4449
  547TMC3    C5 8169   0.087   4.185  17.207  0.6309  0.8469  0.6595
  547TMC3    C6 8170   0.010   4.218  17.102  0.0104 -0.0269  0.3853
  547TMC3     C 8171   0.376   4.419  17.173 -0.5740  0.2075 -0.2041
  547TMC3     O 8172   0.425   4.486  17.085 -0.3087 -0.1340  0.7500
  547TMC3     H 8173   0.214   4.446  16.957 -0.9629 -0.8141 -1.1354
  547TMC3    H1 8174   0.270   4.227  17.318  1.0181 -0.4854 -0.4810
  547TMC3    H2 8175   4.660   4.167  17.075 -0.3510  0.1166  1.3197
  547TMC3    C7 8176   0.037   4.100  17.321 -0.3889 -0.2358 -0.2482
  547TMC3    C8 8177   4.711   4.346  16.915 -0.0510 -0.3226 -0.4931
  547TMC3    O1 8178   0.074   4.131  17.435  0.0078  0.4725  0.2060
  547TMC3    O2 8179   4.595   4.304  16.912 -0.1531 -0.2622 -0.1787
  548MPD2     C 8180   4.633   0.839  12.926  0.4049 -0.5133 -0.9996
  548MPD2    C1 8181   4.668   0.703  12.915  0.2612 -0.2079  0.6670
  548MPD2    C2 8182   0.058   0.668  12.904 -0.5656  0.2806 -0.0951
  548MPD2    C3 8183   0.153   0.774  12.874  0.4003  0.2841  0.3945
  548MPD2    C4 8184   0.116   0.908  12.888  0.1292 -0.3266 -0.3983
  548MPD2    C5 8185   4.727   0.937  12.920  0.1061 -0.2634 -0.0125
  548MPD2     H 8186   0.089   0.564  12.907 -0.4969  0.2138 -2.9178
  548MPD2    H1 8187   0.183   0.993  12.880  3.0871 -2.7545 -1.2079
  548MPD2    H2 8188   4.531   0.869  12.944  1.1961  1.7766 -0.2926
  548MPD2    H3 8189   4.704   1.037  12.953  0.3033 -0.0806 -0.4351
  548MPD2     N 8190   0.284   0.735  12.846  0.6480 -0.7339  0.3329
  548MPD2    H5 8191   0.297   0.634  12.847  1.6793 -0.5900  0.7710
  548MPD2    N1 8192   4.557   0.611  12.917 -0.9807 -0.6671 -0.1366
  548MPD2    H7 8193   4.468   0.656  12.903 -0.4029  0.3386 -0.5632
  549TMC3    C1 8194   4.425   0.411  12.888 -0.5615 -0.2613  0.5497
  549TMC3    C2 8195   4.344   0.493  12.819  0.3261 -0.5008 -0.5637
  549TMC3    C3 8196   4.223   0.444  12.780 -0.6023  0.5694 -0.1629
  549TMC3    C4 8197   4.390   0.282  12.920  0.4029 -0.7889  0.5215
  549TMC3    C5 8198   4.271   0.237  12.875 -0.3100 -0.2491 -0.5943
  549TMC3    C6 8199   4.190   0.313  12.796  0.2922  1.0717  0.1300
  549TMC3     C 8200   4.559   0.472  12.928 -0.0972  0.2940 -0.6611
  549TMC3     O 8201   4.656   0.399  12.964 -0.0168  0.6058 -0.6899
  549TMC3     H 8202   4.368   0.596  12.797  1.5585 -0.1176  2.4926
  549TMC3    H1 8203   4.449   0.219  12.984 -0.5734 -0.9710  1.2456
  549TMC3    H2 8204   4.099   0.269  12.758  0.3277  0.3129  0.8942
  549TMC3    C7 8205   4.245   0.091  12.881  0.4255  0.0276 -0.1305
  549TMC3    C8 8206   4.143   0.514  12.681  0.1755 -0.1566 -0.1501
  549TMC3    O1 8207   4.132   0.051  12.872 -0.3910 -0.4830 -0.2941
  549TMC3    O2 8208   4.086   0.439  12.599 -0.2674 -0.5563  0.7983
  550TMC3    C1 8209   3.370   3.053  12.232 -0.5474  0.6271 -0.6227
  550TMC3    C2 8210   3.385   3.042  12.363 -0.1021 -0.1576 -0.5170
  550TMC3    C3 8211   3.329   3.140  12.443  0.0346 -0.1969 -0.7360
  550TMC3    C4 8212   3.296   3.150  12.171 -0.4083  0.4554 -1.0022
  550TMC3    C5 8213   3.220   3.225  12.253  0.2200 -0.4118 -0.1745
  550TMC3    C6 8214   3.232   3.222  12.390  0.0597  0.0908  0.0135
  550TMC3     C 8215   3.459   2.973  12.153 -0.0348  0.4781 -0.3431
  550TMC3     O 8216   3.485   2.862  12.198  0.4319 -0.5300  0.2921
  550TMC3     H 8217   3.462   2.972  12.394  0.5879  1.1294  0.6613
  550TMC3    H1 8218   3.274   3.139  12.065  1.2915  3.8631 -1.7189
  550TMC3    H2 8219   3.167   3.282  12.453 -1.9453 -1.3606 -0.6843
  550TMC3    C7 8220   3.127   3.327  12.193 -0.8219 -0.6153 -0.8574
  550TMC3    C8 8221   3.424   3.218  12.522 -0.1258  0.3313 -0.5652
  550TMC3    O1 8222   3.056   3.392  12.270  0.5503 -0.0151 -0.1285
  550TMC3    O2 8223   3.534   3.173  12.535  0.0348  0.0188 -0.3969
  551TMC3    C1 8224   1.150   1.303  13.871  0.1519  0.0181  0.1893
  551TMC3    C2 8225   1.257   1.377  13.831 -0.0335 -0.5684  0.5305
  551TMC3    C3 8226   1.374   1.363  13.901  0.0784  0.0387  0.4656
  551TMC3    C4 8227   1.154   1.227  13.986 -0.7379 -0.1784 -0.1556
  551TMC3    C5 8228   1.273   1.225  14.059  0.1031 -0.1947 -0.3116
  551TMC3    C6 8229   1.381   1.293  14.017 -0.8638 -0.3682  0.0457
  551TMC3     C 8230   1.029   1.311  13.791 -0.1838 -0.4743  0.4650
  551TMC3     O 8231   1.030   1.378  13.689  0.3569 -0.2831 -0.5609
  551TMC3     H 8232   1.239   1.446  13.749  0.7994  0.2042  0.9997
  551TMC3    H1 8233   1.073   1.163  14.019 -1.9218  1.7177  0.6205
  551TMC3    H2 8234   1.470   1.308  14.077 -2.0331  0.5251  1.5747
  551TMC3    C7 8235   1.255   1.248  14.198 -0.0454  0.5674 -0.7956
  551TMC3    C8 8236   1.487   1.434  13.846 -0.0962 -0.5183  0.6120
  551TMC3    O1 8237   1.355   1.219  14.263 -0.2340  0.0087 -0.4139
  551TMC3    O2 8238   1.576   1.469  13.919  0.1445 -0.1909  0.2425
  552MPD2     C 8239   3.611   3.426  14.255 -0.3121  0.1480 -0.1939
  552MPD2    C1 8240   3.581   3.297  14.279  0.0509 -0.3014 -0.2633
  552MPD2    C2 8241   3.590   3.254  14.414  0.1426  0.8381  0.1549
  552MPD2    C3 8242   3.639   3.335  14.510  0.7242 -0.4312 -0.2414
  552MPD2    C4 8243   3.684   3.462  14.480 -0.1027  0.5291  0.0140
  552MPD2    C5 8244   3.672   3.510  14.354 -0.5921 -0.0991  0.4085
  552MPD2     H 8245   3.562   3.150  14.430 -1.6306  1.2710 -0.1953
  552MPD2    H1 8246   3.713   3.543  14.546  0.3660  0.5583 -0.2233
  552MPD2    H2 8247   3.589   3.470  14.159  0.8928 -1.6125 -1.2708
  552MPD2    H3 8248   3.685   3.617  14.337  0.7269 -0.7695 -2.7471
  552MPD2     N 8249   3.651   3.289  14.649  0.1491  0.1888  0.4138
  552MPD2    H5 8250   3.686   3.355  14.719  0.7894  0.8601 -0.5468
  552MPD2    N1 8251   3.535   3.210  14.182  0.1724 -0.3984  0.3952
  552MPD2    H7 8252   3.502   3.122  14.222  0.6213  0.5390  2.8449
  553TMC3    C1 8253   3.425   3.147  13.979 -1.3574 -0.1672  0.4621
  553TMC3    C2 8254   3.439   3.135  13.844  0.3649  0.1845  0.2384
  553TMC3    C3 8255   3.374   3.037  13.774 -0.1915 -0.1658 -0.1849
  553TMC3    C4 8256   3.348   3.056  14.045  0.3530  0.4325  0.0386
  553TMC3    C5 8257   3.300   2.947  13.980 -0.4399  0.2033 -0.3390
  553TMC3    C6 8258   3.312   2.938  13.846  0.8271 -0.4888  0.1861
  553TMC3     C 8259   3.515   3.236  14.050  0.0333 -0.2193 -1.0904
  553TMC3     O 8260   3.549   3.334  13.982  0.1445 -0.3141 -1.1514
  553TMC3     H 8261   3.501   3.195  13.779 -0.3178  1.7791  1.0629
  553TMC3    H1 8262   3.344   3.054  14.153  1.3743  0.3542  0.0718
  553TMC3    H2 8263   3.272   2.850  13.797 -0.9535  1.8087 -2.5584
  553TMC3    C7 8264   3.350   2.832  14.044  0.1597  0.3389  0.6177
  553TMC3    C8 8265   3.384   3.022  13.625  0.0766 -0.0643 -0.7941
  553TMC3    O1 8266   3.286   2.779  14.134  0.1228  0.5710  0.1258
  553TMC3    O2 8267   3.465   3.103  13.581  0.1867  0.6606  0.8463
  554TMC3    C1 8268   0.426   2.704  11.804 -0.4664  0.3802  0.1532
  554TMC3    C2 8269   0.346   2.640  11.718  0.0862 -0.6695 -0.6920
  554TMC3    C3 8270   0.283   2.714  11.626  1.0279  0.2866 -0.9730
  554TMC3    C4 8271   0.452   2.837  11.799  0.6356  0.7436 -0.9383
  554TMC3    C5 8272   0.379   2.914  11.706 -1.0269  0.1943  0.3419
  554TMC3    C6 8273   0.289   2.851  11.624 -0.0944 -0.3850  0.0407
  554TMC3     C 8274   0.505   2.623  11.897  0.3559  0.3683  0.1369
  554TMC3     O 8275   0.614   2.661  11.931 -0.3515  0.4007 -0.4590
  554TMC3     H 8276   0.366   2.533  11.709 -2.1069 -1.1998  0.9116
  554TMC3    H1 8277   0.516   2.885  11.872  1.0112 -0.1830 -0.6564
  554TMC3    H2 8278   0.226   2.895  11.548 -0.3036  1.4468  1.2728
  554TMC3    C7 8279   0.354   3.054  11.747  0.1924 -0.3679  0.3562
  554TMC3    C8 8280   0.188   2.652  11.536  0.9975 -0.3383  0.3367
  554TMC3    O1 8281   0.372   3.086  11.864 -0.1043 -0.7839  0.3946
  554TMC3    O2 8282   0.195   2.686  11.415 -0.0902  0.2034 -0.3819
  555TMC3    C1 8283   4.302   1.892  15.703  0.2184  0.5761 -0.0997
  555TMC3    C2 8284   4.358   1.920  15.823 -0.0528 -0.3017 -0.1944
  555TMC3    C3 8285   4.381   1.815  15.909  0.1521 -0.4863 -0.6283
  555TMC3    C4 8286   4.290   1.760  15.664 -0.0792  0.2708 -0.2630
  555TMC3    C5 8287   4.324   1.657  15.752  0.2815  0.2610 -0.4878
  555TMC3    C6 8288   4.364   1.687  15.881 -0.7966 -0.0750  0.3875
  555TMC3     C 8289   4.300   2.007  15.606  0.0293 -0.0857  0.6302
  555TMC3     O 8290   4.382   2.095  15.622 -0.0601 -0.1659  0.3067
  555TMC3     H 8291   4.390   2.020  15.850  0.6907 -0.6402  0.1853
  555TMC3    H1 8292   4.243   1.736  15.570 -0.8788 -2.7274  0.8982
  555TMC3    H2 8293   4.376   1.606  15.952 -2.1985  1.0153  1.8626
  555TMC3    C7 8294   4.351   1.527  15.701  0.6686  0.5958  0.2722
  555TMC3    C8 8295   4.382   1.862  16.048 -0.4907 -0.2828 -0.5401
  555TMC3    O1 8296   4.378   1.443  15.792 -0.1411  0.2144  0.1468
  555TMC3    O2 8297   4.325   1.972  16.069  0.3171 -0.2159  0.0010
  556MPD2     C 8298   2.337   4.084  11.169  0.4844  0.1227 -0.1048
  556MPD2    C1 8299   2.236   4.010  11.221 -0.1294  0.1386 -0.7276
  556MPD2    C2 8300   2.145   3.955  11.130 -0.5071 -0.9148  0.0415
  556MPD2    C3 8301   2.163   3.970  10.990 -0.2131 -0.5907 -0.2074
  556MPD2    C4 8302   2.280   4.028  10.946 -0.1533  0.1659 -0.1823
  556MPD2    C5 8303   2.355   4.094  11.033  0.1284  0.4952  0.3702
  556MPD2     H 8304   2.053   3.907  11.162 -1.7204  0.9271 -0.7577
  556MPD2    H1 8305   2.303   4.031  10.840 -3.9606  1.6880 -0.9699
  556MPD2    H2 8306   2.404   4.139  11.234  0.9500 -0.5286 -0.0295
  556MPD2    H3 8307   2.443   4.153  11.010 -0.4320  1.3721  0.4498
  556MPD2     N 8308   2.061   3.910  10.911 -0.3570  0.1463 -0.5002
  556MPD2    H5 8309   1.983   3.862  10.954 -1.1640  1.5097 -0.4275
  556MPD2    N1 8310   2.210   3.987  11.361 -0.3373 -0.4870 -0.4799
  556MPD2    H7 8311   2.127   3.938  11.391 -1.0167  0.8757 -0.1431
  557TMC3    C1 8312   1.952   3.810  10.732 -0.5370  0.4768  0.2507
  557TMC3    C2 8313   1.993   3.704  10.656  0.1396 -0.2138 -0.6264
  557TMC3    C3 8314   1.931   3.583  10.671 -0.1041 -0.1436 -0.3663
  557TMC3    C4 8315   1.850   3.790  10.825 -0.1696 -0.1563  0.0089
  557TMC3    C5 8316   1.774   3.677  10.825  0.0303  0.4844  0.6623
  557TMC3    C6 8317   1.826   3.570  10.758  0.4033  0.5754  0.2231
  557TMC3     C 8318   2.056   3.904  10.770  0.0059  0.1461  0.1165
  557TMC3     O 8319   2.136   3.935  10.684  0.2487  0.0495 -0.2595
  557TMC3     H 8320   2.089   3.706  10.606 -0.8340  1.3552 -2.4012
  557TMC3    H1 8321   1.821   3.875  10.886  0.7874 -1.2597  1.9902
  557TMC3    H2 8322   1.777   3.475  10.777  1.8443  0.0272  1.2413
  557TMC3    C7 8323   1.700   3.667  10.941  0.2094 -0.7004 -0.3492
  557TMC3    C8 8324   1.980   3.470  10.593 -0.3055 -0.4065  0.6320
  557TMC3    O1 8325   1.576   3.667  10.930 -0.3741  0.4144 -0.1268
  557TMC3    O2 8326   2.099   3.454  10.565  0.0803  0.0350 -0.2548
  558TMC3    C1 8327   0.180   1.625  10.745  0.6226 -0.1550 -0.3834
  558TMC3    C2 8328   0.044   1.618  10.784  0.7621  0.0994 -0.5682
  558TMC3    C3 8329   4.688   1.627  10.686 -0.1984 -0.2326  0.3521
  558TMC3    C4 8330   0.220   1.646  10.619  0.4933 -0.2845  0.6402
  558TMC3    C5 8331   0.119   1.652  10.531  0.0679 -0.2384  0.1683
  558TMC3    C6 8332   4.727   1.642  10.552  0.1782  0.0345  0.1874
  558TMC3     C 8333   0.287   1.562  10.818  0.1097  0.4946 -0.6329
  558TMC3     O 8334   0.374   1.507  10.757  0.4988  0.0347 -0.1354
  558TMC3     H 8335   0.022   1.581  10.884  1.4564  0.5660 -0.2376
  558TMC3    H1 8336   0.322   1.639  10.584  0.1584  0.8299 -0.5714
  558TMC3    H2 8337   4.655   1.651  10.472 -1.6079  0.8587  1.8860
  558TMC3    C7 8338   0.158   1.670  10.390 -0.0988  0.2545 -0.0393
  558TMC3    C8 8339   4.551   1.626  10.717  0.4872  0.9582  0.1770
  558TMC3    O1 8340   0.259   1.739  10.367  0.1640  0.0497 -0.2290
  558TMC3    O2 8341   4.474   1.616  10.628  0.4609 -0.4035 -0.1072
  559MPD2     C 8342   4.734   2.298  10.812 -0.5864  0.2612 -0.1730
  559MPD2    C1 8343   4.658   2.245  10.913  0.0297 -0.5803 -0.1775
  559MPD2    C2 8344   4.707   2.260  11.043  0.1690 -0.2726 -0.0611
  559MPD2    C3 8345   0.093   2.306  11.060  0.4265  0.9101 -0.3845
  559MPD2    C4 8346   0.171   2.342  10.955  0.1360  0.1008  0.2964
  559MPD2    C5 8347   0.123   2.333  10.825 -0.2334 -0.4851 -0.4149
  559MPD2     H 8348   4.646   2.243  11.131  0.5550  1.3042  0.5181
  559MPD2    H1 8349   0.275   2.369  10.973  0.7402 -1.0119 -1.5660
  559MPD2    H2 8350   4.694   2.304  10.711  1.0285  0.2831 -0.8105
  559MPD2    H3 8351   0.180   2.355  10.736  0.0153 -0.4981 -0.2598
  559MPD2     N 8352   0.142   2.306  11.190  0.1464 -0.1624 -0.1506
  559MPD2    H5 8353   0.084   2.253  11.254 -0.4825 -0.1924 -0.7440
  559MPD2    N1 8354   4.527   2.195  10.886 -0.0903  0.5768  0.2668
  559MPD2    H7 8355   4.490   2.197  10.792  1.7953  0.3227 -0.4774
  560TMC3    C1 8356   0.287   2.311  11.378  0.3375 -0.4297 -0.5547
  560TMC3    C2 8357   0.190   2.246  11.451 -0.1211  0.2640  0.5280
  560TMC3    C3 8358   0.224   2.217  11.580  0.0249 -0.5476  0.1534
  560TMC3    C4 8359   0.405   2.351  11.430  0.4016 -0.1622 -0.4162
  560TMC3    C5 8360   0.430   2.339  11.568 -0.0910  0.3546  0.0398
  560TMC3    C6 8361   0.342   2.266  11.646  0.4766  0.7190  0.4278
  560TMC3     C 8362   0.258   2.354  11.239 -0.1990 -0.1932 -0.3547
  560TMC3     O 8363   0.343   2.428  11.191  0.3559  0.1586  0.2146
  560TMC3     H 8364   0.119   2.182  11.400 -1.9118  2.2852  0.4713
  560TMC3    H1 8365   0.485   2.377  11.362  0.0839  2.5078  0.2455
  560TMC3    H2 8366   0.353   2.268  11.754 -0.6568  2.3329  0.5175
  560TMC3    C7 8367   0.564   2.314  11.620  0.2273  0.2131  0.4361
  560TMC3    C8 8368   0.135   2.115  11.639 -0.1981  0.9658 -0.7148
  560TMC3    O1 8369   0.567   2.227  11.705 -0.2382 -0.1603  0.1379
  560TMC3    O2 8370   0.033   2.090  11.583  0.1285 -0.5358  0.2039
  561TMC3    C1 8371   2.228   1.650  11.557  0.4561 -0.4074 -0.5670
  561TMC3    C2 8372   2.184   1.663  11.689  0.4036  0.3185 -0.3412
  561TMC3    C3 8373   2.203   1.778  11.760 -0.3757  0.6805  0.2033
  561TMC3    C4 8374   2.301   1.752  11.488  0.5257 -0.4375 -1.0454
  561TMC3    C5 8375   2.321   1.863  11.563 -0.3088 -0.5312  0.2244
  561TMC3    C6 8376   2.269   1.876  11.692 -0.3943  0.7093  0.4872
  561TMC3     C 8377   2.229   1.518  11.500 -0.0519  0.2557  0.1431
  561TMC3     O 8378   2.134   1.447  11.513  0.5784 -0.0687  0.6688
  561TMC3     H 8379   2.128   1.584  11.737  0.9650 -0.9646 -1.7797
  561TMC3    H1 8380   2.323   1.749  11.382  1.8783 -3.0077 -0.7033
  561TMC3    H2 8381   2.294   1.966  11.746 -0.8532  1.9948 -1.4487
  561TMC3    C7 8382   2.359   1.974  11.489  0.0772  0.2009  0.9640
  561TMC3    C8 8383   2.238   1.761  11.898 -0.5991  0.2435 -1.0448
  561TMC3    O1 8384   2.303   2.074  11.529  0.5964 -0.1022 -0.5794
  561TMC3    O2 8385   2.334   1.823  11.944 -0.0066 -0.1688 -0.7622
  562TMC3    C1 8386   4.004   2.053  16.475 -0.5142 -0.1617  0.3537
  562TMC3    C2 8387   3.921   2.149  16.419 -0.9501 -0.4117  0.4145
  562TMC3    C3 8388   3.877   2.131  16.294 -0.3778  0.4169  0.3023
  562TMC3    C4 8389   4.035   1.939  16.411  0.0059  0.1361  0.3106
  562TMC3    C5 8390   3.980   1.924  16.283  0.1955  0.1778 -0.4337
  562TMC3    C6 8391   3.903   2.014  16.226 -0.0791  0.2021  0.1697
  562TMC3     C 8392   4.049   2.088  16.605  0.1877  0.3551  0.1577
  562TMC3     O 8393   4.016   2.196  16.648  0.1876 -0.5696 -0.4356
  562TMC3     H 8394   3.908   2.246  16.465  0.3931  0.0247 -0.1125
  562TMC3    H1 8395   4.113   1.874  16.449  0.1386  1.5299  2.4053
  562TMC3    H2 8396   3.868   2.000  16.124 -0.8091  1.3855  0.2604
  562TMC3    C7 8397   4.020   1.809  16.204  0.2111 -0.1376 -0.1138
  562TMC3    C8 8398   3.739   2.182  16.292 -0.0718  0.4200 -0.3392
  562TMC3    O1 8399   4.023   1.831  16.083 -0.1795 -0.6413  0.1818
  562TMC3    O2 8400   3.681   2.177  16.397  0.1720 -0.0827 -0.0481
  563MPD2     C 8401   1.580   3.537  15.637  0.6280 -0.6299  0.2819
  563MPD2    C1 8402   1.606   3.429  15.719  0.0100 -0.7625  0.1420
  563MPD2    C2 8403   1.731   3.361  15.709 -0.2779  0.0952 -0.5221
  563MPD2    C3 8404   1.830   3.415  15.629  0.2242 -0.2826  0.8454
  563MPD2    C4 8405   1.803   3.525  15.548 -0.0202  0.4740 -0.4312
  563MPD2    C5 8406   1.676   3.575  15.548  0.0135  0.3604  0.5231
  563MPD2     H 8407   1.744   3.277  15.775 -2.8135 -0.9339 -1.3452
  563MPD2    H1 8408   1.873   3.562  15.473 -0.2300 -1.0067 -1.3566
  563MPD2    H2 8409   1.495   3.603  15.639 -0.6810 -2.3510  1.5305
  563MPD2    H3 8410   1.649   3.658  15.484  1.4900  0.8018  0.4671
  563MPD2     N 8411   1.958   3.355  15.643 -0.5912  0.6182 -0.3509
  563MPD2    H5 8412   1.964   3.273  15.703 -0.2674  1.0279  0.1842
  563MPD2    N1 8413   1.514   3.390  15.820 -0.1525 -0.7912 -0.5797
  563MPD2    H7 8414   1.541   3.316  15.883 -1.8258 -0.8066  0.1288
  564TMC3    C1 8415   1.323   3.350  15.946  0.1073 -0.1028  0.2097
  564TMC3    C2 8416   1.195   3.309  15.935  0.4256  0.1381 -0.4590
  564TMC3    C3 8417   1.130   3.243  16.039 -0.1171  0.3735  0.3454
  564TMC3    C4 8418   1.386   3.324  16.066 -0.4086 -0.6793 -0.4294
  564TMC3    C5 8419   1.318   3.268  16.167  0.0841 -0.1426 -0.5585
  564TMC3    C6 8420   1.185   3.234  16.163  0.9372 -0.2595 -1.0239
  564TMC3     C 8421   1.381   3.426  15.834 -0.0384  0.2984 -0.0526
  564TMC3     O 8422   1.311   3.501  15.777 -0.3231 -0.1206  0.5801
  564TMC3     H 8423   1.145   3.331  15.842  3.7522 -0.9016 -2.5214
  564TMC3    H1 8424   1.488   3.345  16.095 -1.4362  3.9366 -0.0924
  564TMC3    H2 8425   1.146   3.211  16.261  1.1591  1.2550 -0.5811
  564TMC3    C7 8426   1.388   3.184  16.257  0.0372  0.0862 -0.5148
  564TMC3    C8 8427   1.096   3.106  16.007  0.0750  0.0530  0.3574
  564TMC3    O1 8428   1.486   3.233  16.317  0.3603  0.0562  0.5630
  564TMC3    O2 8429   1.107   3.026  16.101  0.2289  0.1683 -0.4291
  565TMC3    C1 8430   1.640   0.493  10.583 -0.8229 -0.2196  0.7092
  565TMC3    C2 8431   1.603   0.414  10.687  0.6698  0.6112 -0.0445
  565TMC3    C3 8432   1.479   0.365  10.680  0.7096  0.1781 -0.7631
  565TMC3    C4 8433   1.563   0.517  10.473  0.0568 -0.0385  0.2965
  565TMC3    C5 8434   1.435   0.465  10.470 -0.6679 -0.1770  0.1194
  565TMC3    C6 8435   1.392   0.389  10.571  0.2889 -0.6593  0.0206
  565TMC3     C 8436   1.773   0.548  10.569  1.3880  0.5064 -0.1414
  565TMC3     O 8437   1.786   0.665  10.535  0.3404  0.3262  0.2736
  565TMC3     H 8438   1.670   0.389  10.769  0.3163  0.5657  0.2305
  565TMC3    H1 8439   1.609   0.566  10.388  0.7637  0.9991  1.2585
  565TMC3    H2 8440   1.286   0.375  10.592  0.1754 -0.6951 -0.6008
  565TMC3    C7 8441   1.352   0.512  10.357 -0.3887  0.2810 -0.2905
  565TMC3    C8 8442   1.440   0.275  10.787  0.8258 -0.2402  0.4643
  565TMC3    O1 8443   1.419   0.563  10.268  0.4722  0.0433  0.2787
  565TMC3    O2 8444   1.502   0.288  10.894  0.2453 -0.3590 -0.4451
  566MPD2     C 8445   3.579   1.729  14.562 -0.5443 -0.8556  0.3663
  566MPD2    C1 8446   3.540   1.829  14.484  0.4100 -0.2168  0.1050
  566MPD2    C2 8447   3.432   1.813  14.399 -0.5787 -0.3629 -0.2349
  566MPD2    C3 8448   3.361   1.697  14.392 -0.2361  0.2143  0.2203
  566MPD2    C4 8449   3.392   1.594  14.477 -0.1360 -0.0256  0.6314
  566MPD2    C5 8450   3.502   1.614  14.559 -1.7479  0.2152 -0.1402
  566MPD2     H 8451   3.407   1.899  14.339  2.0346 -0.7217 -1.7963
  566MPD2    H1 8452   3.342   1.498  14.478  1.6838 -1.0263 -1.3424
  566MPD2    H2 8453   3.662   1.738  14.631  0.4717 -0.3866 -0.9118
  566MPD2    H3 8454   3.522   1.538  14.634 -1.6613 -1.3277 -1.7034
  566MPD2     N 8455   3.255   1.672  14.298 -0.3415  0.0012 -0.4072
  566MPD2    H5 8456   3.210   1.581  14.290 -0.6172 -0.0334  1.3798
  566MPD2    N1 8457   3.613   1.946  14.472 -0.6195  0.7987 -0.6284
  566MPD2    H7 8458   3.709   1.946  14.504 -0.2993 -0.3559 -1.6008
  567TMC3    C1 8459   3.680   2.154  14.383 -0.0059  0.5257 -0.8115
  567TMC3    C2 8460   3.680   2.219  14.264  0.1972 -0.4470  0.0669
  567TMC3    C3 8461   3.793   2.288  14.223 -0.1202 -0.2594  0.1728
  567TMC3    C4 8462   3.796   2.141  14.452  0.5380 -0.3472 -0.2286
  567TMC3    C5 8463   3.908   2.217  14.409 -0.6818  0.2842  0.5433
  567TMC3    C6 8464   3.908   2.288  14.295 -0.3245  0.5747 -0.6566
  567TMC3     C 8465   3.576   2.061  14.411  0.1641 -0.3504 -0.1908
  567TMC3     O 8466   3.469   2.101  14.367 -0.0692 -0.2530  0.0950
  567TMC3     H 8467   3.604   2.192  14.192  3.1299 -0.7935 -2.8765
  567TMC3    H1 8468   3.794   2.097  14.550 -0.1349  0.1123 -0.0366
  567TMC3    H2 8469   4.000   2.337  14.265  0.8591  0.4309  2.7662
  567TMC3    C7 8470   4.013   2.243  14.504  0.4208 -1.0540 -0.3700
  567TMC3    C8 8471   3.798   2.321  14.082 -0.1338  0.9513  0.6285
  567TMC3    O1 8472   4.083   2.341  14.486 -0.1180  0.2021 -0.0797
  567TMC3    O2 8473   3.684   2.307  14.032  0.1863 -0.1131 -0.4319
  568MPD2     C 8474   1.160   1.552  16.187  0.0722 -0.0932  0.0404
  568MPD2    C1 8475   1.159   1.645  16.288  0.2865 -0.2774 -0.3810
  568MPD2    C2 8476   1.116   1.770  16.259 -0.5781 -0.4346  0.2463
  568MPD2    C3 8477   1.072   1.804  16.131  0.2411  0.6863 -0.5952
  568MPD2    C4 8478   1.072   1.709  16.032  0.0081  0.3821 -0.3886
  568MPD2    C5 8479   1.114   1.579  16.062 -0.2237  0.1084 -0.5443
  568MPD2     H 8480   1.115   1.849  16.333 -2.2660  0.1409 -0.3801
  568MPD2    H1 8481   1.047   1.729  15.928 -3.1105  0.1239  0.3038
  568MPD2    H2 8482   1.176   1.451  16.222  2.6011 -0.3177 -1.7866
  568MPD2    H3 8483   1.115   1.502  15.986 -0.7979 -0.0081 -0.4331
  568MPD2     N 8484   1.056   1.944  16.109  0.1032 -0.9329  0.7165
  568MPD2    H5 8485   1.076   2.002  16.190 -0.6629 -0.0108  0.2350
  568MPD2    N1 8486   1.203   1.605  16.415  0.0437  0.1136 -0.0175
  568MPD2    H7 8487   1.211   1.504  16.425  3.5733  0.5298  1.2163
  569TMC3    C1 8488   1.034   2.156  16.016  0.2121 -0.2030  0.4022
  569TMC3    C2 8489   1.020   2.197  16.147  0.2387  0.0738  0.0509
  569TMC3    C3 8490   1.060   2.322  16.180  0.5069  0.1697 -0.0660
  569TMC3    C4 8491   1.090   2.239  15.925 -0.1329  0.4003  0.0479
  569TMC3    C5 8492   1.120   2.368  15.952 -0.1610  0.3195 -0.4945
  569TMC3    C6 8493   1.104   2.403  16.083  0.1352 -0.2221  0.1608
  569TMC3     C 8494   1.038   2.011  15.994 -0.0870  0.3450 -0.0903
  569TMC3     O 8495   1.023   1.975  15.875  0.1671  0.0956 -0.2201
  569TMC3     H 8496   0.967   2.145  16.226 -0.3817 -0.7658 -0.9226
  569TMC3    H1 8497   1.107   2.207  15.823 -1.7533  0.3326 -0.1917
  569TMC3    H2 8498   1.123   2.505  16.115  1.4775 -0.9487  1.7260
  569TMC3    C7 8499   1.132   2.468  15.844  0.2731  0.6074 -0.0179
  569TMC3    C8 8500   1.046   2.376  16.313 -0.3323  0.1529 -0.1185
  569TMC3    O1 8501   1.135   2.428  15.729  0.2327  0.1710 -0.1268
  569TMC3    O2 8502   0.940   2.349  16.369 -0.0700  0.0863 -0.0898
  570TMC3    C1 8503   0.586   0.611  16.155 -0.1202 -0.4658  0.5677
  570TMC3    C2 8504   0.657   0.623  16.043 -0.3859  0.4077  0.0582
  570TMC3    C3 8505   0.723   0.738  16.023  0.0355 -0.2333 -0.7179
  570TMC3    C4 8506   0.579   0.710  16.249 -0.8902 -0.0520  0.4190
  570TMC3    C5 8507   0.645   0.824  16.229 -0.6690  0.1607 -0.6911
  570TMC3    C6 8508   0.719   0.847  16.117  0.2755  0.1896 -0.5455
  570TMC3     C 8509   0.503   0.494  16.174 -0.8153 -0.1508 -0.2666
  570TMC3     O 8510   0.467   0.433  16.070  0.0755  0.7196  0.3434
  570TMC3     H 8511   0.662   0.540  15.973  1.1088  0.9538 -0.4680
  570TMC3    H1 8512   0.519   0.706  16.339 -0.6667  1.8835  0.6553
  570TMC3    H2 8513   0.782   0.935  16.115  1.1644 -0.3886  2.2106
  570TMC3    C7 8514   0.599   0.938  16.308  0.2824  0.7066 -0.7624
  570TMC3    C8 8515   0.792   0.769  15.894 -0.2844 -0.1036 -0.0025
  570TMC3    O1 8516   0.574   0.911  16.426  0.4442  0.5007 -0.5479
  570TMC3    O2 8517   0.844   0.880  15.884 -0.2217 -0.1050 -0.6021
  571MPD2     C 8518   2.606   2.349   0.422  0.1291 -0.2654 -0.2043
  571MPD2    C1 8519   2.655   2.232   0.364 -0.2305 -0.2002 -0.2761
  571MPD2    C2 8520   2.774   2.246   0.300  0.4581  0.1519  0.3194
  571MPD2    C3 8521   2.841   2.366   0.285  0.3571 -0.2767  0.1767
  571MPD2    C4 8522   2.786   2.484   0.340 -0.2031  0.4318  0.5882
  571MPD2    C5 8523   2.671   2.466   0.417 -0.2115  0.3017 -0.2578
  571MPD2     H 8524   2.810   2.161   0.242 -0.3425 -0.4674  0.7172
  571MPD2    H1 8525   2.821   2.586   0.328  1.7082 -0.3695 -0.7570
  571MPD2    H2 8526   2.516   2.343   0.483  0.5669 -1.4018  0.3331
  571MPD2    H3 8527   2.619   2.553   0.454 -0.8493  0.9278 -2.6493
  571MPD2     N 8528   2.954   2.391   0.199  0.4781 -0.2157 -0.6172
  571MPD2    H5 8529   2.988   2.483   0.174 -0.0721  0.3860  0.8522
  571MPD2    N1 8530   2.591   2.111   0.396 -0.4956 -0.4684  0.4202
  571MPD2    H7 8531   2.513   2.116   0.462 -0.3134  2.7742  0.3882
  572TMC3    C1 8532   3.152   2.339   0.078 -0.3812  0.4917  0.0413
  572TMC3    C2 8533   3.256   2.258   0.097  0.4167 -0.2760 -0.6176
  572TMC3    C3 8534   3.366   2.278   0.009 -0.4167  0.0176  0.0017
  572TMC3    C4 8535   3.145   2.447  17.757  0.6905  0.0027 -0.5390
  572TMC3    C5 8536   3.262   2.481  17.690  0.1230 -0.0784  0.4661
  572TMC3    C6 8537   3.369   2.393  17.696 -0.2415  0.0141  0.2735
  572TMC3     C 8538   3.029   2.289   0.140 -0.2463  0.5650  0.6498
  572TMC3     O 8539   3.016   2.170   0.148  0.3551  0.0530  0.2707
  572TMC3     H 8540   3.251   2.165   0.153  1.2791 -0.2743 -0.5416
  572TMC3    H1 8541   3.051   2.500  17.749 -0.3232 -1.2822  2.8372
  572TMC3    H2 8542   3.457   2.403  17.634 -0.2342 -0.0907  0.2657
  572TMC3    C7 8543   3.274   2.610  17.624  0.5370 -0.2550 -0.1671
  572TMC3    C8 8544   3.493   2.220   0.048  0.7857  0.5097 -0.5727
  572TMC3    O1 8545   3.175   2.682  17.636 -0.2324 -0.1587 -0.0356
  572TMC3    O2 8546   3.559   2.175  17.717  0.0601 -0.8928 -0.3625
  573MPD2     C 8547   0.047   3.511   0.314 -1.1776 -0.3664 -0.5007
  573MPD2    C1 8548   4.679   3.558   0.250 -0.8199 -0.0602  0.4653
  573MPD2    C2 8549   4.676   3.560   0.111  0.1159 -0.0975 -0.3741
  573MPD2    C3 8550   0.036   3.507   0.034 -0.0018 -0.3923  0.6764
  573MPD2    C4 8551   0.147   3.461   0.095  0.2158  0.5445 -0.0410
  573MPD2    C5 8552   0.146   3.452   0.234 -0.2658 -0.5277 -0.0918
  573MPD2     H 8553   4.603   3.616   0.054 -0.7068 -2.6280 -1.7838
  573MPD2    H1 8554   0.234   3.423   0.044  0.4678  1.2383 -0.1318
  573MPD2    H2 8555   0.064   3.524   0.420 -0.7717  0.5345 -0.6789
  573MPD2    H3 8556   0.230   3.409   0.287 -1.0395  1.6166  2.8415
  573MPD2     N 8557   0.025   3.488  17.655 -0.5547 -0.0758  0.0434
  573MPD2    H5 8558   0.111   3.463  17.606 -1.3989 -2.3605 -0.2723
  573MPD2    N1 8559   4.581   3.627   0.334 -0.4875  0.0204 -0.2948
  573MPD2    H7 8560   4.590   3.611   0.434  1.2364  1.1205 -0.2925
  574TMC3    C1 8561   4.677   3.521  17.441  0.2721  0.3847 -0.4533
  574TMC3    C2 8562   4.571   3.509  17.352  0.2623  0.2620  0.1122
  574TMC3    C3 8563   4.587   3.563  17.232 -0.1078  0.5379 -0.3397
  574TMC3    C4 8564   0.044   3.601  17.417  0.0778  0.7844  0.8193
  574TMC3    C5 8565   0.062   3.642  17.287 -0.0441  0.6064  0.8600
  574TMC3    C6 8566   4.704   3.627  17.197  0.1467 -0.7945 -0.5414
  574TMC3     C 8567   4.649   3.491  17.582 -0.0609 -0.7366  0.3745
  574TMC3     O 8568   4.529   3.489  17.614  0.2457  0.5770  0.9109
  574TMC3     H 8569   4.485   3.450  17.383  1.4573 -1.2678  0.4933
  574TMC3    H1 8570   0.127   3.602  17.487  2.5987  1.2689 -2.1776
  574TMC3    H2 8571   4.723   3.666  17.098  1.4725 -0.0479 -0.0034
  574TMC3    C7 8572   0.177   3.720  17.249 -0.0635 -0.9613  0.2233
  574TMC3    C8 8573   4.486   3.534  17.129 -0.1215  0.5746 -0.3994
  574TMC3    O1 8574   0.200   3.751  17.130 -0.5144  0.1316  0.0778
  574TMC3    O2 8575   4.527   3.557  17.015  0.2522 -0.0193 -0.3184
  575TMC3    C1 8576   1.575   4.714  11.572  0.0660 -0.2628 -0.3236
  575TMC3    C2 8577   1.543   4.583  11.599  0.8341  0.0756  0.4548
  575TMC3    C3 8578   1.452   4.513  11.524 -0.2728  0.4475 -0.7092
  575TMC3    C4 8579   1.541   0.027  11.455  0.1833  0.7943  0.4323
  575TMC3    C5 8580   1.444   4.702  11.386 -0.2177 -0.6623  0.1429
  575TMC3    C6 8581   1.400   4.572  11.416 -0.1245  0.6793 -0.4838
  575TMC3     C 8582   1.646   0.041  11.683 -0.4829  0.4037 -0.4383
  575TMC3     O 8583   1.684   4.715  11.774 -0.5394 -0.2319 -0.4138
  575TMC3     H 8584   1.586   4.537  11.687 -1.0286 -1.5005  0.5387
  575TMC3    H1 8585   1.594   0.116  11.424  0.1762  0.3953 -0.6956
  575TMC3    H2 8586   1.323   4.517  11.363  0.4987 -0.6975  0.0420
  575TMC3    C7 8587   1.418   0.012  11.260  0.6404 -0.0808 -0.3751
  575TMC3    C8 8588   1.423   4.374  11.570 -0.1296  0.4547  0.0135
  575TMC3    O1 8589   1.499   0.094  11.221  0.3602 -0.3117 -0.2032
  575TMC3    O2 8590   1.375   4.309  11.480  0.2253  0.3643 -0.4460
  576MPD2     C 8591   1.707   1.314  13.202  0.7957 -0.9191  0.4490
  576MPD2    C1 8592   1.609   1.311  13.111 -0.5104  0.7664 -0.0338
  576MPD2    C2 8593   1.481   1.280  13.159  0.0945  0.2506  0.2815
  576MPD2    C3 8594   1.459   1.256  13.299 -0.4318 -0.3991  0.3519
  576MPD2    C4 8595   1.561   1.253  13.386 -0.5917 -0.2985 -0.1470
  576MPD2    C5 8596   1.686   1.285  13.335  0.4815  0.3252  0.3022
  576MPD2     H 8597   1.398   1.277  13.091  1.2976 -1.2199 -1.1170
  576MPD2    H1 8598   1.560   1.225  13.491 -0.0471  0.6166  0.1034
  576MPD2    H2 8599   1.813   1.327  13.180  0.2314  2.8841  0.1168
  576MPD2    H3 8600   1.765   1.290  13.410  0.4203 -2.1109  0.5351
  576MPD2     N 8601   1.330   1.211  13.337  0.0446  0.8254  0.2679
  576MPD2    H5 8602   1.254   1.196  13.272 -0.1215 -0.3581  0.7400
  576MPD2    N1 8603   1.628   1.331  12.977  0.0409  0.1311  0.1298
  576MPD2    H7 8604   1.549   1.335  12.913 -0.3352 -3.0284  0.4372
  577TMC3    C1 8605   1.739   1.409  12.781  0.1216  0.0513  0.1065
  577TMC3    C2 8606   1.851   1.419  12.710  0.0553  0.5314  0.4574
  577TMC3    C3 8607   1.850   1.458  12.578  0.2463  0.7597  0.3258
  577TMC3    C4 8608   1.625   1.444  12.732 -0.1035  0.2718 -0.2419
  577TMC3    C5 8609   1.620   1.474  12.600 -0.2197 -0.1011  0.0699
  577TMC3    C6 8610   1.732   1.488  12.519  0.2202 -0.1098 -0.4760
  577TMC3     C 8611   1.752   1.367  12.919  0.0208  0.0744  0.1148
  577TMC3     O 8612   1.863   1.369  12.973  0.3547 -0.4397 -0.5665
  577TMC3     H 8613   1.948   1.384  12.744  0.1431  1.0675  0.7652
  577TMC3    H1 8614   1.538   1.447  12.797 -0.6608 -1.8815 -0.9104
  577TMC3    H2 8615   1.718   1.492  12.411 -0.7197 -0.3085 -0.3636
  577TMC3    C7 8616   1.493   1.532  12.558 -0.0754 -0.2892  0.6380
  577TMC3    C8 8617   1.980   1.457  12.509  0.3154 -0.5051  0.3618
  577TMC3    O1 8618   1.392   1.479  12.598 -0.0043 -0.4388 -0.2067
  577TMC3    O2 8619   2.077   1.399  12.558 -0.4713  0.0095  0.0920
  578MPD2     C 8620   0.187   1.045   1.186 -0.4989  0.6828  0.1147
  578MPD2    C1 8621   0.182   0.949   1.093 -0.7861 -0.1477  0.1803
  578MPD2    C2 8622   0.281   0.844   1.095  0.2675  0.0795 -0.2266
  578MPD2    C3 8623   0.374   0.844   1.193  0.4316 -0.5026  0.1622
  578MPD2    C4 8624   0.362   0.936   1.299  0.1336 -0.3654 -0.2825
  578MPD2    C5 8625   0.268   1.036   1.290  0.0159  0.3869  0.3870
  578MPD2     H 8626   0.268   0.770   1.016  1.0316 -0.2643 -0.0259
  578MPD2    H1 8627   0.435   0.934   1.379  0.3943 -3.0219 -0.5860
  578MPD2    H2 8628   0.122   1.131   1.193 -1.2727  0.1071 -0.0064
  578MPD2    H3 8629   0.254   1.108   1.370  1.1713  0.8974  0.1218
  578MPD2     N 8630   0.471   0.747   1.184  0.1322 -0.8290 -0.0070
  578MPD2    H5 8631   0.485   0.693   1.099 -0.6780 -1.3100  0.1699
  578MPD2    N1 8632   0.104   0.990   0.982 -0.5487 -0.6779  0.3810
  578MPD2    H7 8633   0.053   1.077   0.984  1.1922  0.3587  0.2357
  579TMC3    C1 8634   0.679   0.645   1.218 -0.2730  0.7886  0.0016
  579TMC3    C2 8635   0.802   0.676   1.263  0.6399  0.1384  0.2536
  579TMC3    C3 8636   0.906   0.590   1.227 -0.4336 -0.1894  0.0875
  579TMC3    C4 8637   0.650   0.524   1.152  0.0628 -0.5530 -0.5893
  579TMC3    C5 8638   0.756   0.443   1.122  0.7234 -0.2712 -0.1369
  579TMC3    C6 8639   0.884   0.475   1.161  0.4139  0.4660  0.6166
  579TMC3     C 8640   0.579   0.732   1.272  0.3229 -0.5422 -0.1912
  579TMC3     O 8641   0.609   0.807   1.363 -0.3907 -0.2117 -0.0643
  579TMC3     H 8642   0.828   0.770   1.310  1.5503  0.5491 -1.0671
  579TMC3    H1 8643   0.548   0.492   1.133 -0.6050  0.3688  1.4300
  579TMC3    H2 8644   0.973   0.423   1.129 -0.2006 -1.2525  1.7279
  579TMC3    C7 8645   0.731   0.319   1.045  0.2130  0.2696  0.3816
  579TMC3    C8 8646   1.047   0.623   1.263  0.7201 -0.5606  0.9798
  579TMC3    O1 8647   0.809   0.231   1.073  0.4149  0.0807  0.4899
  579TMC3    O2 8648   1.129   0.533   1.282 -0.2918  0.7916  0.8964
  580TMC3    C1 8649   4.559   0.532  12.512  0.6035 -0.4419  0.3199
  580TMC3    C2 8650   4.651   0.629  12.533  0.2534 -1.5423 -0.4443
  580TMC3    C3 8651   0.030   0.584  12.573 -0.3825 -0.4085  0.1534
  580TMC3    C4 8652   4.572   0.401  12.529  0.3460 -0.0647  0.1405
  580TMC3    C5 8653   4.691   0.364  12.584  0.2805 -0.4571 -0.0813
  580TMC3    C6 8654   0.051   0.453  12.604 -0.0952 -0.5906  0.1947
  580TMC3     C 8655   4.431   0.584  12.472  0.3358  0.5513  0.7505
  580TMC3     O 8656   4.391   0.683  12.531 -0.4104  0.2995  0.2672
  580TMC3     H 8657   4.615   0.728  12.508 -1.2159 -1.4258  2.0943
  580TMC3    H1 8658   4.488   0.333  12.535  0.7935 -0.6188  0.1828
  580TMC3    H2 8659   0.150   0.424  12.636 -0.2894 -0.0934  1.2713
  580TMC3    C7 8660   4.716   0.225  12.581  0.0690 -0.5684  0.5329
  580TMC3    C8 8661   0.141   0.663  12.532 -0.2542  0.3515  0.2250
  580TMC3    O1 8662   0.002   0.170  12.688 -0.1057  0.2586  0.1320
  580TMC3    O2 8663   0.249   0.612  12.526  0.2514 -0.1587 -0.0911
  581MPD2     C 8664   2.276   0.037  14.829  0.3219 -0.1240 -1.1080
  581MPD2    C1 8665   2.197   4.678  14.872  0.3786  0.3708 -0.3805
  581MPD2    C2 8666   2.064   4.691  14.848  0.0704  0.1157  0.2552
  581MPD2    C3 8667   2.005   0.064  14.794  0.2416 -0.7790  0.8737
  581MPD2    C4 8668   2.090   0.170  14.763  0.1191  0.2653 -0.3912
  581MPD2    C5 8669   2.226   0.148  14.768  0.9008 -0.0478  0.8113
  581MPD2     H 8670   2.002   4.610  14.885 -0.0254 -0.4678 -1.1791
  581MPD2    H1 8671   2.055   0.261  14.715  0.3689  0.3650 -0.3831
  581MPD2    H2 8672   2.382   0.018  14.824 -0.2993 -3.6005 -1.2720
  581MPD2    H3 8673   2.291   0.215  14.713 -0.4566 -1.0413 -1.9975
  581MPD2     N 8674   1.867   0.086  14.787 -1.1306  0.4538  0.1333
  581MPD2    H5 8675   1.836   0.180  14.763  0.1927  0.6626 -0.7707
  581MPD2    N1 8676   2.242   4.565  14.939  0.2013 -0.6870  0.1321
  581MPD2    H7 8677   2.176   4.493  14.964  2.1735 -2.3734  0.4810
  582TMC3    C1 8678   2.378   4.426  15.071 -0.5363 -0.0406 -0.6442
  582TMC3    C2 8679   2.479   4.422  15.165 -0.8198  0.2048  0.1688
  582TMC3    C3 8680   2.505   4.305  15.236 -0.3586  0.6008 -0.2044
  582TMC3    C4 8681   2.309   4.315  15.036  0.1036 -0.2732  0.4956
  582TMC3    C5 8682   2.332   4.195  15.104 -0.6826  0.5736 -0.4749
  582TMC3    C6 8683   2.422   4.199  15.212 -0.0107  0.6433 -0.3832
  582TMC3     C 8684   2.371   4.548  14.989  0.7004 -0.1509 -0.6399
  582TMC3     O 8685   2.469   4.618  14.977 -0.2237  0.5709 -0.4353
  582TMC3     H 8686   2.536   4.511  15.187  1.9553 -1.3077 -0.7072
  582TMC3    H1 8687   2.224   4.321  14.970  1.4195  0.6271 -1.1114
  582TMC3    H2 8688   2.423   4.111  15.276  1.5033  0.8768 -0.0874
  582TMC3    C7 8689   2.232   4.086  15.122 -0.1360  0.9118  0.5384
  582TMC3    C8 8690   2.508   4.336  15.380  0.1279 -0.1891  0.2378
  582TMC3    O1 8691   2.221   3.994  15.040 -0.0335  0.7651 -0.4904
  582TMC3    O2 8692   2.429   4.265  15.446 -0.0191 -0.8065 -0.0595
  583MPD2     C 8693   2.733   1.407  17.072 -0.1359 -0.7095  0.3086
  583MPD2    C1 8694   2.699   1.437  16.940 -0.2536  0.7329  0.1179
  583MPD2    C2 8695   2.592   1.521  16.917 -0.2984  0.4745 -0.4113
  583MPD2    C3 8696   2.519   1.572  17.017  0.2348  0.9560  0.0337
  583MPD2    C4 8697   2.552   1.550  17.146  0.2383 -0.5411  0.8360
  583MPD2    C5 8698   2.655   1.466  17.171  0.5669  0.4185 -0.5247
  583MPD2     H 8699   2.567   1.553  16.816  2.5884  2.1984 -0.5739
  583MPD2    H1 8700   2.489   1.589  17.225 -0.7169  0.8833 -0.6226
  583MPD2    H2 8701   2.818   1.343  17.093  1.6799  1.9391  0.9570
  583MPD2    H3 8702   2.680   1.447  17.275  0.3709 -0.4310 -0.6311
  583MPD2     N 8703   2.393   1.636  16.979  0.4258 -0.1135 -0.1613
  583MPD2    H5 8704   2.393   1.659  16.881 -0.5907 -0.1818 -0.1684
  583MPD2    N1 8705   2.770   1.400  16.829  0.0520 -0.2415  0.2428
  583MPD2    H7 8706   2.747   1.444  16.740 -0.1901  0.1209  0.4811
  584TMC3    C1 8707   2.164   1.689  16.987  0.4427 -0.4586 -0.0448
  584TMC3    C2 8708   2.180   1.792  16.902  0.5149  0.3718 -0.1976
  584TMC3    C3 8709   2.070   1.869  16.864 -0.1088  0.3814  0.5739
  584TMC3    C4 8710   2.042   1.663  17.044  0.0952  0.2676  0.0308
  584TMC3    C5 8711   1.938   1.739  16.995 -0.4939  0.1022 -0.9695
  584TMC3    C6 8712   1.947   1.849  16.906  1.1627  0.2514  0.5171
  584TMC3     C 8713   2.279   1.631  17.054 -0.2193 -0.0143  0.2901
  584TMC3     O 8714   2.259   1.566  17.155 -0.5498  0.1443 -0.0970
  584TMC3     H 8715   2.281   1.816  16.871  1.5344 -1.4626  1.6846
  584TMC3    H1 8716   2.029   1.580  17.112 -1.3712 -0.5290 -1.2035
  584TMC3    H2 8717   1.858   1.906  16.880  1.9554  1.7341  1.0454
  584TMC3    C7 8718   1.833   1.746  17.096 -0.2022  0.1903 -0.1187
  584TMC3    C8 8719   2.090   1.995  16.796  0.0976  0.6120 -0.1653
  584TMC3    O1 8720   1.819   1.642  17.159 -0.2252 -0.9419 -0.1795
  584TMC3    O2 8721   2.016   2.034  16.706 -0.1703  0.0254  0.1834
  585MPD2     C 8722   1.390   0.608   0.209 -0.4147 -0.7737  0.2554
  585MPD2    C1 8723   1.483   0.648   0.116 -0.2751 -0.2030  0.8872
  585MPD2    C2 8724   1.507   0.562   0.011 -0.1674 -0.2707 -0.4415
  585MPD2    C3 8725   1.437   0.447  17.758 -0.0961 -0.0776  0.6710
  585MPD2    C4 8726   1.342   0.411   0.094 -0.0829  0.2656  0.7401
  585MPD2    C5 8727   1.327   0.487   0.203 -0.2218  0.7120 -0.2803
  585MPD2     H 8728   1.591   0.589  17.711  0.3463  2.6367  1.4177
  585MPD2    H1 8729   1.286   0.318   0.097  2.5912 -1.3508 -0.3400
  585MPD2    H2 8730   1.394   0.665   0.301  2.0429 -1.6436  0.6830
  585MPD2    H3 8731   1.278   0.448   0.292  1.3255 -0.6101 -0.0122
  585MPD2     N 8732   1.444   0.368  17.639  0.1794  0.0553 -0.1619
  585MPD2    H5 8733   1.382   0.288  17.631  2.0648 -1.5659  1.3734
  585MPD2    N1 8734   1.542   0.776   0.137 -0.0289 -0.3866  0.4677
  585MPD2    H7 8735   1.517   0.823   0.223 -2.6846 -0.7675 -0.0940
  586TMC3    C1 8736   1.504   0.300  17.419 -0.0693 -0.6947  0.3298
  586TMC3    C2 8737   1.604   0.268  17.329 -0.1059  0.2388  0.1334
  586TMC3    C3 8738   1.565   0.224  17.203 -0.5846 -0.0805 -0.5970
  586TMC3    C4 8739   1.373   0.296  17.384 -1.0760 -0.2632  0.2882
  586TMC3    C5 8740   1.340   0.264  17.250 -0.1547  0.4878 -0.5570
  586TMC3    C6 8741   1.436   0.219  17.163  0.2370 -0.2120  0.1868
  586TMC3     C 8742   1.544   0.376  17.548 -0.6531  0.3143 -0.0352
  586TMC3     O 8743   1.656   0.420  17.562  0.0109  0.3735  0.0529
  586TMC3     H 8744   1.706   0.273  17.364  0.4061 -1.6327 -1.0615
  586TMC3    H1 8745   1.291   0.332  17.445 -0.2662  0.9251  0.6606
  586TMC3    H2 8746   1.400   0.183  17.068 -1.6280 -0.6622  1.0642
  586TMC3    C7 8747   1.198   0.239  17.220 -0.4271  0.6061  0.3739
  586TMC3    C8 8748   1.665   0.168  17.114  0.0221 -0.1847 -0.0180
  586TMC3    O1 8749   1.124   0.236  17.316 -0.5040  0.0119  0.2143
  586TMC3    O2 8750   1.771   0.152  17.168  0.4810  0.4463 -0.1866
  587TMC3    C1 8751   4.077   4.026  16.547 -0.4558  0.2966  0.1287
  587TMC3    C2 8752   4.019   4.112  16.643 -0.0202 -0.1400  0.4046
  587TMC3    C3 8753   4.089   4.217  16.689  0.6444  0.6908 -0.8096
  587TMC3    C4 8754   4.195   4.049  16.492  0.6191  0.1420  0.2319
  587TMC3    C5 8755   4.265   4.148  16.555  0.0799  0.1943 -1.4332
  587TMC3    C6 8756   4.216   4.236  16.650 -0.3552 -0.4570 -0.1338
  587TMC3     C 8757   4.001   3.918  16.485 -0.7779 -0.0644 -0.2352
  587TMC3     O 8758   4.043   3.875  16.382 -0.8502 -0.6805  0.3052
  587TMC3     H 8759   3.915   4.091  16.668 -0.0599 -0.0242  0.3394
  587TMC3    H1 8760   4.242   3.988  16.416 -0.5181 -1.6014  0.9370
  587TMC3    H2 8761   4.280   4.310  16.696  0.9795 -1.1733 -0.8493
  587TMC3    C7 8762   4.400   4.162  16.500 -1.2198  0.3585  0.2769
  587TMC3    C8 8763   4.054   4.265  16.821 -0.2696 -0.0219  1.0156
  587TMC3    O1 8764   4.458   4.054  16.485 -0.0745  0.3846  0.4165
  587TMC3    O2 8765   4.148   4.296  16.892  0.0943 -0.6305  0.6668
  588TMC3    C1 8766   0.849   2.700  10.437 -0.4077 -0.0234 -0.1468
  588TMC3    C2 8767   0.838   2.606  10.533  0.6058 -0.2573 -0.6587
  588TMC3    C3 8768   0.943   2.553  10.596  0.2905 -0.5044 -0.3199
  588TMC3    C4 8769   0.981   2.725  10.394  0.9800  0.2595  0.4480
  588TMC3    C5 8770   1.088   2.686  10.467  0.3397  0.1517  0.6060
  588TMC3    C6 8771   1.072   2.598  10.565 -0.0085  0.0154  0.5440
  588TMC3     C 8772   0.774   2.815  10.459  0.4885  0.1426  0.5906
  588TMC3     O 8773   0.651   2.821  10.472  0.0047  0.7518 -0.1845
  588TMC3     H 8774   0.742   2.582  10.577 -0.2120 -0.3487 -2.4867
  588TMC3    H1 8775   0.989   2.789  10.307 -1.4270 -0.0506 -0.0039
  588TMC3    H2 8776   1.158   2.559  10.618 -1.2910 -3.6884 -0.0880
  588TMC3    C7 8777   1.184   2.799  10.478  0.6584 -0.3025 -0.0769
  588TMC3    C8 8778   0.920   2.429  10.670  0.1505 -0.0310  0.0859
  588TMC3    O1 8779   1.144   2.906  10.434  0.1916 -0.2126  0.1924
  588TMC3    O2 8780   0.809   2.409  10.714 -0.0780 -0.5991  0.4404
  589TMC3    C1 8781   0.487   3.772   1.081 -0.0998 -0.6124 -0.4486
  589TMC3    C2 8782   0.589   3.847   1.136  0.7086 -0.3705 -0.2725
  589TMC3    C3 8783   0.713   3.789   1.136 -0.3310 -0.0543 -0.2858
  589TMC3    C4 8784   0.524   3.661   1.003 -0.4945  0.5277 -0.4160
  589TMC3    C5 8785   0.653   3.617   0.998  0.2251  0.6555  0.1261
  589TMC3    C6 8786   0.754   3.679   1.070  0.4368 -0.7806  0.2769
  589TMC3     C 8787   0.362   3.834   1.046 -0.2813 -0.4746  0.3302
  589TMC3     O 8788   0.254   3.773   1.029 -0.2013  0.1980  0.1196
  589TMC3     H 8789   0.565   3.937   1.191 -0.6173 -1.1053  0.3807
  589TMC3    H1 8790   0.442   3.616   0.949  0.8665 -2.3330 -0.0997
  589TMC3    H2 8791   0.854   3.643   1.093  0.2979 -1.3978 -0.0910
  589TMC3    C7 8792   0.670   3.485   0.952 -0.0099 -0.4909 -0.0656
  589TMC3    C8 8793   0.813   3.867   1.200 -0.1070 -0.0844 -0.1893
  589TMC3    O1 8794   0.570   3.418   0.935  0.0560  0.2569 -0.1416
  589TMC3    O2 8795   0.763   3.938   1.295 -0.0066  0.0928  0.1839
  590MPD2     C 8796   0.136   2.018  16.512  0.3665  0.2005 -0.2546
  590MPD2    C1 8797   0.099   2.135  16.432 -0.5736  0.0229  0.4755
  590MPD2    C2 8798   0.196   2.205  16.365  0.4510  0.7030  0.0267
  590MPD2    C3 8799   0.330   2.171  16.367  0.0317  0.0840  0.2538
  590MPD2    C4 8800   0.366   2.054  16.447  0.1879 -0.5216  0.5394
  590MPD2    C5 8801   0.269   1.989  16.519  0.7559  0.4217  0.7081
  590MPD2     H 8802   0.169   2.298  16.317 -1.2922 -0.3860 -1.1023
  590MPD2    H1 8803   0.467   2.016  16.454  0.3172 -0.1556  0.7038
  590MPD2    H2 8804   0.071   1.947  16.561  1.0727 -0.7678 -0.7298
  590MPD2    H3 8805   0.300   1.903  16.578 -1.3593 -0.7248  0.1374
  590MPD2     N 8806   0.432   2.257  16.313  0.7324 -0.8136  0.3055
  590MPD2    H5 8807   0.401   2.341  16.267 -1.6025 -1.4662  0.6701
  590MPD2    N1 8808   4.702   2.157  16.429  0.4697 -0.0509 -0.0230
  590MPD2    H7 8809   4.636   2.108  16.488  0.1915 -0.7066 -0.8877
  591TMC3    C1 8810   0.643   2.350  16.253 -0.2435  0.3879  0.2577
  591TMC3    C2 8811   0.699   2.325  16.129  0.1029  0.2824  0.1487
  591TMC3    C3 8812   0.727   2.424  16.038 -0.5607 -0.1735  1.1187
  591TMC3    C4 8813   0.606   2.479  16.277 -0.0252 -0.3512  0.7483
  591TMC3    C5 8814   0.646   2.582  16.193 -0.2897  0.4836  0.1531
  591TMC3    C6 8815   0.706   2.554  16.073  1.2489 -1.1851  0.1313
  591TMC3     C 8816   0.569   2.242  16.319  1.3394 -0.2802  0.3664
  591TMC3     O 8817   0.632   2.148  16.367  0.4066  0.2308 -0.6473
  591TMC3     H 8818   0.722   2.221  16.110 -0.2949  0.0757  0.8117
  591TMC3    H1 8819   0.556   2.494  16.373 -0.0696  0.2243  0.6336
  591TMC3    H2 8820   0.746   2.631  16.009 -1.2258 -0.3432 -0.3772
  591TMC3    C7 8821   0.597   2.718  16.223 -0.5021  0.0106  0.4347
  591TMC3    C8 8822   0.753   2.389  15.898  0.4627 -0.0388 -0.3825
  591TMC3    O1 8823   0.544   2.737  16.331 -0.4653  0.0376  0.6586
  591TMC3    O2 8824   0.782   2.273  15.876  0.5776  0.2189 -0.1893
  592MPD2     C 8825   0.802   0.557  11.701  0.8321 -0.2365 -0.1283
  592MPD2    C1 8826   0.800   0.541  11.832  0.5161  1.1896  0.3401
  592MPD2    C2 8827   0.738   0.432  11.896  0.1247 -0.4666  0.1004
  592MPD2    C3 8828   0.670   0.345  11.810 -0.0704  0.1915  0.2254
  592MPD2    C4 8829   0.649   0.381  11.677 -0.0627 -0.4906  0.0771
  592MPD2    C5 8830   0.717   0.488  11.627  0.4283  0.3222  0.1366
  592MPD2     H 8831   0.756   0.418  12.002  0.1746 -0.5244  0.0848
  592MPD2    H1 8832   0.581   0.323  11.614  0.1926  0.3791 -0.9851
  592MPD2    H2 8833   0.865   0.632  11.656  1.5481 -0.6464  0.1934
  592MPD2    H3 8834   0.704   0.518  11.524  2.7246 -2.0362 -0.8674
  592MPD2     N 8835   0.619   0.225  11.866  0.7041  0.6380 -0.2037
  592MPD2    H5 8836   0.634   0.209  11.965 -1.3311 -0.0489  0.0047
  592MPD2    N1 8837   0.870   0.644  11.903 -0.3436 -0.1281  0.3093
  592MPD2    H7 8838   0.933   0.693  11.840 -2.2472  2.1196  0.1555
  593TMC3    C1 8839   0.968   0.768  12.073  0.6810 -0.2657  0.5994
  593TMC3    C2 8840   1.014   0.763  12.200 -0.5375 -0.1180  0.2370
  593TMC3    C3 8841   1.129   0.831  12.218  0.2318 -0.1280 -0.4047
  593TMC3    C4 8842   1.023   0.842  11.967 -1.0432  0.3191 -0.5324
  593TMC3    C5 8843   1.146   0.897  11.988 -0.7763 -0.1538 -0.1450
  593TMC3    C6 8844   1.192   0.895  12.116  0.0683 -0.0591  0.1607
  593TMC3     C 8845   0.871   0.665  12.037 -0.6135 -0.7761 -0.2583
  593TMC3     O 8846   0.806   0.619  12.132 -0.3764  0.1216 -0.4144
  593TMC3     H 8847   0.963   0.696  12.268  1.6079 -0.5969  1.3703
  593TMC3    H1 8848   0.965   0.860  11.877 -0.0804 -3.1897 -1.8807
  593TMC3    H2 8849   1.292   0.936  12.125  1.2437 -2.5838 -1.4248
  593TMC3    C7 8850   1.209   0.988  11.887  0.2219  0.4061  0.0388
  593TMC3    C8 8851   1.193   0.849  12.346 -0.5657  0.1475  0.5682
  593TMC3    O1 8852   1.284   1.081  11.926 -0.8245 -0.1330  0.2007
  593TMC3    O2 8853   1.312   0.877  12.334 -0.0754 -0.3681  0.6524
  594MPD2     C 8854   4.271   3.204  15.158  0.2743  0.3252  0.3703
  594MPD2    C1 8855   4.192   3.269  15.064 -0.1306  0.6833 -0.3292
  594MPD2    C2 8856   4.259   3.359  14.980 -0.2921 -0.0965  0.1633
  594MPD2    C3 8857   4.393   3.382  14.983 -0.3692 -0.5168 -0.7537
  594MPD2    C4 8858   4.469   3.315  15.079  0.1918 -0.6727  0.4583
  594MPD2    C5 8859   4.406   3.221  15.155  0.3436 -0.5962 -0.3245
  594MPD2     H 8860   4.201   3.411  14.905  1.0253  2.6885  1.1132
  594MPD2    H1 8861   4.574   3.337  15.097  0.2811 -2.0861  1.6299
  594MPD2    H2 8862   4.236   3.130  15.229  0.5627 -0.2291 -0.0639
  594MPD2    H3 8863   4.463   3.163  15.227  2.4476  1.1953 -0.5586
  594MPD2     N 8864   4.446   3.471  14.886  0.7095  0.0541  0.2859
  594MPD2    H5 8865   4.379   3.524  14.831  0.3721 -1.5755 -0.8931
  594MPD2    N1 8866   4.056   3.226  15.049 -0.2558 -0.7500  0.9308
  594MPD2    H7 8867   4.037   3.139  15.099  1.9976  0.2700  3.6041
  595TMC3    C1 8868   0.041   3.736  14.692 -0.0857  0.8237  0.4070
  595TMC3    C2 8869   0.010   3.619  14.765 -0.2309  1.1368 -0.3540
  595TMC3    C3 8870   4.621   3.616  14.811 -0.2701  0.0004  0.0784
  595TMC3    C4 8871   4.697   3.845  14.682  0.3080 -0.5706  0.1191
  595TMC3    C5 8872   4.574   3.829  14.739  0.0332 -0.5661  0.1856
  595TMC3    C6 8873   4.530   3.716  14.799  0.0327  0.1153 -0.3246
  595TMC3     C 8874   0.154   3.735  14.597 -0.3050 -0.1793 -0.8217
  595TMC3     O 8875   0.181   3.846  14.558 -1.0283 -0.2951 -0.1115
  595TMC3     H 8876   0.077   3.537  14.790 -0.3996  0.6541 -1.4905
  595TMC3    H1 8877   4.724   3.928  14.618 -1.3257  2.8762  3.8535
  595TMC3    H2 8878   4.439   3.710  14.858 -0.8408 -0.9633 -1.7757
  595TMC3    C7 8879   4.489   3.951  14.741 -0.1574 -0.0113  0.6599
  595TMC3    C8 8880   4.583   3.502  14.883  0.1102 -0.6109 -0.2413
  595TMC3    O1 8881   4.368   3.933  14.763  0.0615  0.2896 -0.5402
  595TMC3    O2 8882   4.670   3.427  14.924 -0.0225  0.2118  0.5842
  596MPD2     C 8883   3.631   1.365  17.079  0.6809 -0.6732 -0.1966
  596MPD2    C1 8884   3.594   1.473  16.997  0.6209  0.2744  0.1174
  596MPD2    C2 8885   3.596   1.455  16.859  0.4185  0.6026 -0.3435
  596MPD2    C3 8886   3.610   1.323  16.811  0.3558  0.6011  0.1075
  596MPD2    C4 8887   3.643   1.219  16.898  0.1747  0.1801 -0.5294
  596MPD2    C5 8888   3.652   1.240  17.031  0.4585  0.1569  0.0420
  596MPD2     H 8889   3.580   1.537  16.790  0.6247  0.3949 -0.6371
  596MPD2    H1 8890   3.652   1.114  16.871 -1.9302 -0.0305 -0.4522
  596MPD2    H2 8891   3.625   1.355  17.187  1.1739 -0.1529 -0.1194
  596MPD2    H3 8892   3.665   1.158  17.101 -0.6711  1.7150  2.0751
  596MPD2     N 8893   3.592   1.279  16.677 -0.5310  0.2696  0.0470
  596MPD2    H5 8894   3.624   1.186  16.651  0.4476  1.4181 -2.9398
  596MPD2    N1 8895   3.570   1.601  17.045  0.3558 -0.2427 -0.0386
  596MPD2    H7 8896   3.566   1.679  16.979  1.8806 -0.8573 -0.8704
  597TMC3    C1 8897   3.519   1.767  17.192 -0.0693 -0.0036 -1.0771
  597TMC3    C2 8898   3.586   1.846  17.100 -0.3664 -0.1646  0.1926
  597TMC3    C3 8899   3.530   1.968  17.083 -0.1411  0.8328  0.5039
  597TMC3    C4 8900   3.406   1.797  17.263  0.4818  0.1322 -0.5750
  597TMC3    C5 8901   3.358   1.922  17.237  0.2654  0.9050 -0.1963
  597TMC3    C6 8902   3.414   2.012  17.151  0.7936  0.1433 -0.2301
  597TMC3     C 8903   3.540   1.627  17.175  0.8722  0.3212 -0.3316
  597TMC3     O 8904   3.551   1.552  17.272 -1.1243 -0.7086 -0.2308
  597TMC3     H 8905   3.681   1.813  17.060  1.0531  1.7870  1.9891
  597TMC3    H1 8906   3.359   1.720  17.323  2.7578  0.7109  1.9124
  597TMC3    H2 8907   3.384   2.116  17.158  0.1131  0.0111 -1.2220
  597TMC3    C7 8908   3.216   1.933  17.269  0.3993 -0.2688 -0.8765
  597TMC3    C8 8909   3.622   2.059  17.026 -0.0689 -0.0190  0.1768
  597TMC3    O1 8910   3.178   1.855  17.353  0.0081 -0.2258 -0.4013
  597TMC3    O2 8911   3.743   2.045  17.009 -0.1590  0.2379 -0.1063
  598TMC3    C1 8912   1.525   2.804  15.651 -0.8533 -0.0402  0.3180
  598TMC3    C2 8913   1.429   2.773  15.563 -0.0078  0.1144  0.2629
  598TMC3    C3 8914   1.417   2.851  15.452 -0.4762 -0.4932  0.1955
  598TMC3    C4 8915   1.607   2.917  15.632  0.0997  0.1797  0.1405
  598TMC3    C5 8916   1.591   2.995  15.519  0.1852  0.2424 -0.9528
  598TMC3    C6 8917   1.501   2.953  15.426  0.1139  0.1384 -0.2044
  598TMC3     C 8918   1.539   2.725  15.772  0.3397 -0.1892  0.0797
  598TMC3     O 8919   1.575   2.783  15.873 -0.0288 -0.0608  0.0756
  598TMC3     H 8920   1.357   2.700  15.598  0.4888 -0.2352  0.5683
  598TMC3    H1 8921   1.690   2.927  15.701 -0.2767  0.4894  0.5483
  598TMC3    H2 8922   1.511   2.990  15.325 -1.5896 -0.7984 -0.7201
  598TMC3    C7 8923   1.706   3.069  15.481  0.4308 -0.3426  0.6215
  598TMC3    C8 8924   1.288   2.829  15.388  0.0534 -0.7610  0.1510
  598TMC3    O1 8925   1.809   3.049  15.548  0.7916 -0.6724 -0.1113
  598TMC3    O2 8926   1.258   2.710  15.375  0.4480 -0.4618 -0.4492
  599MPD2     C 8927   1.568   0.381  15.740 -0.2173  0.4328  0.5692
  599MPD2    C1 8928   1.499   0.269  15.732 -0.0595 -0.2410  0.3833
  599MPD2    C2 8929   1.358   0.270  15.745  0.1274  0.0938 -0.5328
  599MPD2    C3 8930   1.294   0.387  15.776 -0.0869  0.3412  0.9801
  599MPD2    C4 8931   1.369   0.505  15.786 -0.3737 -0.0996 -0.2236
  599MPD2    C5 8932   1.501   0.501  15.766 -0.1681 -0.5366  0.0522
  599MPD2     H 8933   1.315   0.174  15.768 -2.2081  0.6432 -2.6468
  599MPD2    H1 8934   1.330   0.600  15.822  0.4987  0.4014 -0.5985
  599MPD2    H2 8935   1.676   0.380  15.737 -0.2026 -0.1499  1.2726
  599MPD2    H3 8936   1.565   0.588  15.780  0.4608 -1.2724  1.8394
  599MPD2     N 8937   1.168   0.393  15.847  0.5177  0.0335 -0.5015
  599MPD2    H5 8938   1.143   0.482  15.889 -0.3463 -1.0139  1.1928
  599MPD2    N1 8939   1.580   0.149  15.733 -0.3704  0.8822 -0.2815
  599MPD2    H7 8940   1.680   0.162  15.746  0.0165 -1.0947 -1.3817
  600TMC3    C1 8941   0.969   0.338  15.946  0.9743 -0.9249  0.4545
  600TMC3    C2 8942   0.873   0.239  15.959 -0.2340 -0.2411 -0.7930
  600TMC3    C3 8943   0.800   0.230  16.075 -0.1692  0.0208 -0.2794
  600TMC3    C4 8944   0.982   0.432  16.039 -0.7699 -0.8621  0.6271
  600TMC3    C5 8945   0.922   0.407  16.167  0.2165 -0.8470  0.3384
  600TMC3    C6 8946   0.826   0.311  16.179 -0.0973  0.4000  0.2646
  600TMC3     C 8947   1.076   0.300  15.853 -0.2325  0.5685  0.1879
  600TMC3     O 8948   1.082   0.187  15.811 -0.0928  0.0094 -0.1390
  600TMC3     H 8949   0.866   0.157  15.888 -0.2406  1.3394 -2.6290
  600TMC3    H1 8950   1.063   0.504  16.035 -1.7917  0.3393  1.5406
  600TMC3    H2 8951   0.778   0.289  16.273  0.0563  1.6142  0.6266
  600TMC3    C7 8952   0.921   0.500  16.283  0.4030 -0.2214 -0.3260
  600TMC3    C8 8953   0.703   0.126  16.105 -0.8063  0.1302  0.2437
  600TMC3    O1 8954   0.820   0.507  16.346 -0.6061 -0.3344  0.0839
  600TMC3    O2 8955   0.704   0.081  16.215 -0.1700 -0.3207 -0.0380
  601MPD2     C 8956   3.534   3.051  17.579  0.0410  0.0027 -0.3557
  601MPD2    C1 8957   3.403   3.021  17.566  0.0164  0.1749 -0.5904
  601MPD2    C2 8958   3.363   2.884  17.569 -0.3802  0.6925  0.5113
  601MPD2    C3 8959   3.447   2.775  17.587 -0.2625  0.3841  0.2240
  601MPD2    C4 8960   3.586   2.808  17.580 -0.0558  0.2531 -0.5462
  601MPD2    C5 8961   3.619   2.942  17.569 -0.2803 -0.7956  1.2941
  601MPD2     H 8962   3.256   2.868  17.563  0.3922 -3.3526 -2.4745
  601MPD2    H1 8963   3.662   2.731  17.581  0.1136  0.4376  1.2392
  601MPD2    H2 8964   3.574   3.152  17.580 -0.3726  0.1708 -0.8664
  601MPD2    H3 8965   3.727   2.953  17.577 -0.5947  2.3093  1.1900
  601MPD2     N 8966   3.404   2.646  17.606 -0.5979 -0.0938  0.0947
  601MPD2    H5 8967   3.477   2.577  17.621 -0.2769  0.7038  2.1869
  601MPD2    N1 8968   3.311   3.121  17.547 -0.4590  0.4495 -0.0316
  601MPD2    H7 8969   3.210   3.105  17.552 -0.5461  0.9562 -0.2276
  602TMC3    C1 8970   3.227   3.340  17.509  0.2574 -0.2024  0.5812
  602TMC3    C2 8971   3.253   3.475  17.522 -0.7960 -0.3775  0.3341
  602TMC3    C3 8972   3.144   3.557  17.525 -0.1043  0.6202  0.0614
  602TMC3    C4 8973   3.097   3.290  17.493 -0.0051 -0.3355  0.6295
  602TMC3    C5 8974   2.997   3.376  17.490 -0.0465 -0.3055  0.3405
  602TMC3    C6 8975   3.017   3.510  17.507  0.2394 -1.0793  0.4479
  602TMC3     C 8976   3.339   3.255  17.525 -0.5178 -0.1173 -0.5147
  602TMC3     O 8977   3.446   3.312  17.510 -0.2954  0.4386 -0.6617
  602TMC3     H 8978   3.352   3.520  17.527 -1.3861  0.6310  2.6445
  602TMC3    H1 8979   3.091   3.183  17.478 -0.6976 -0.1335 -0.4988
  602TMC3    H2 8980   2.932   3.576  17.520  0.9784  0.6145 -3.2251
  602TMC3    C7 8981   2.862   3.331  17.457 -0.0882  0.2559 -0.9173
  602TMC3    C8 8982   3.176   3.695  17.497 -0.1212 -0.0718  1.0777
  602TMC3    O1 8983   2.830   3.231  17.513 -0.5422 -0.1138  0.3645
  602TMC3    O2 8984   3.279   3.747  17.535 -0.1687 -0.1608  0.3751
  603TMC3    C1 8985   1.129   4.363  11.736  0.1699  0.2323  0.2026
  603TMC3    C2 8986   1.138   4.315  11.866 -0.0693  0.2246 -0.3172
  603TMC3    C3 8987   1.171   4.399  11.974 -0.8194  0.2620  0.1756
  603TMC3    C4 8988   1.145   4.498  11.721  0.0873  0.4937 -0.2835
  603TMC3    C5 8989   1.167   4.582  11.829  0.0341  0.4220  0.1138
  603TMC3    C6 8990   1.196   4.534  11.954  0.4908  0.1752  0.0527
  603TMC3     C 8991   1.082   4.282  11.626  0.0197  0.4292 -1.0924
  603TMC3     O 8992   1.050   4.340  11.522  0.3273 -0.4727  0.5109
  603TMC3     H 8993   1.130   4.208  11.883 -0.2881  0.0323 -1.6039
  603TMC3    H1 8994   1.145   4.544  11.622 -0.6937 -0.7930 -0.8863
  603TMC3    H2 8995   1.196   4.600  12.040  2.6504 -2.3324  1.9829
  603TMC3    C7 8996   1.225   4.712  11.793  1.4262  0.4540  0.2860
  603TMC3    C8 8997   1.223   4.341  12.094  0.0629  0.3239 -0.0731
  603TMC3    O1 8998   1.302   0.015  11.878 -0.3886 -0.2442  0.1904
  603TMC3    O2 8999   1.190   4.227  12.113 -0.0622 -0.3285 -0.1976
  604MPD2     C 9000   2.518   2.715  16.435 -0.2273  0.1205 -0.2293
  604MPD2    C1 9001   2.413   2.642  16.392  0.0655  1.0179  0.2576
  604MPD2    C2 9002   2.427   2.552  16.293  0.3594  0.4297 -0.4264
  604MPD2    C3 9003   2.555   2.533  16.238  0.0172 -0.5976 -0.8663
  604MPD2    C4 9004   2.658   2.617  16.271  0.3118  0.3666 -0.4879
  604MPD2    C5 9005   2.641   2.702  16.377 -0.2617 -0.1390  0.6593
  604MPD2     H 9006   2.351   2.485  16.256 -0.8534  1.5255  0.0553
  604MPD2    H1 9007   2.756   2.602  16.227  0.3135 -0.8160 -0.0848
  604MPD2    H2 9008   2.504   2.785  16.516 -1.1539  0.4167 -0.6412
  604MPD2    H3 9009   2.725   2.750  16.425  0.8484 -1.7854  0.3727
  604MPD2     N 9010   2.556   2.432  16.141  0.0542 -0.1575  0.5008
  604MPD2    H5 9011   2.472   2.377  16.124  1.1076 -1.7207  0.3109
  604MPD2    N1 9012   2.294   2.665  16.465  0.0335  0.8051  0.0271
  604MPD2    H7 9013   2.290   2.744  16.528 -0.7417  1.0333 -0.3104
  605TMC3    C1 9014   2.061   2.645  16.527 -0.2640 -0.9568 -0.2503
  605TMC3    C2 9015   2.111   2.684  16.642  0.2362 -0.5278 -0.6183
  605TMC3    C3 9016   2.074   2.797  16.709  0.1982 -0.1007  0.4267
  605TMC3    C4 9017   1.952   2.709  16.477 -0.4617 -0.2281 -0.4381
  605TMC3    C5 9018   1.899   2.814  16.551 -0.2463  0.4038  0.3496
  605TMC3    C6 9019   1.967   2.869  16.659  0.5961 -0.4331  0.7113
  605TMC3     C 9020   2.172   2.608  16.437  0.1265  0.6414 -0.1575
  605TMC3     O 9021   2.136   2.553  16.333 -0.0480 -0.2009  0.4892
  605TMC3     H 9022   2.197   2.632  16.683  0.7683 -0.8599 -2.1792
  605TMC3    H1 9023   1.908   2.673  16.385  0.0514 -1.2351 -0.2953
  605TMC3    H2 9024   1.941   2.966  16.700 -0.1773 -0.3762  0.0912
  605TMC3    C7 9025   1.785   2.882  16.500  0.3210  0.3408 -0.0853
  605TMC3    C8 9026   2.190   2.875  16.747  0.5977  0.3164  0.2597
  605TMC3    O1 9027   1.757   2.988  16.559 -0.2402  0.0196 -0.2950
  605TMC3    O2 9028   2.256   2.888  16.646 -0.2267 -0.4014 -0.0699
  606TMC3    C1 9029   3.319   1.571   0.729  0.0511  0.3163  0.0409
  606TMC3    C2 9030   3.448   1.614   0.724 -0.7705  1.1869  0.7724
  606TMC3    C3 9031   3.544   1.535   0.785 -0.1924  0.6435  0.1046
  606TMC3    C4 9032   3.285   1.448   0.781 -0.0305  0.0497 -0.5329
  606TMC3    C5 9033   3.395   1.374   0.828 -0.4581  0.8293 -0.2609
  606TMC3    C6 9034   3.526   1.415   0.845  0.4323  0.6190 -0.0487
  606TMC3     C 9035   3.212   1.656   0.684  0.0160 -0.3610 -0.2305
  606TMC3     O 9036   3.100   1.624   0.717 -0.5522 -0.2629 -0.0821
  606TMC3     H 9037   3.481   1.699   0.666 -0.6640  1.4084  1.1535
  606TMC3    H1 9038   3.185   1.412   0.798 -0.2118  1.4859  1.4128
  606TMC3    H2 9039   3.600   1.345   0.883  0.8096  0.9381 -0.2050
  606TMC3    C7 9040   3.381   1.236   0.861 -0.2887 -0.6762  0.2409
  606TMC3    C8 9041   3.687   1.543   0.751 -0.4129 -0.4826  0.1031
  606TMC3    O1 9042   3.449   1.182   0.950 -0.1903 -0.6858 -0.5601
  606TMC3    O2 9043   3.762   1.499   0.840 -0.4301  0.2997 -0.4184
  607MPD2     C 9044   0.834   4.629  11.904 -0.9082  0.1568 -0.7520
  607MPD2    C1 9045   0.875   4.676  12.026 -0.1979 -0.2729  0.3313
  607MPD2    C2 9046   0.854   4.604  12.138  0.8751  0.6075 -0.3301
  607MPD2    C3 9047   0.770   4.495  12.142  0.3539 -0.0420 -0.1397
  607MPD2    C4 9048   0.734   4.449  12.019 -0.9670  0.1343 -0.3332
  607MPD2    C5 9049   0.769   4.513  11.903 -0.0959  0.0290  0.4157
  607MPD2     H 9050   0.887   4.651  12.230  1.0145 -0.3493  0.1084
  607MPD2    H1 9051   0.666   4.364  12.016 -1.3591  0.4268  0.1696
  607MPD2    H2 9052   0.859   4.674  11.809 -0.0922  0.4998 -0.3738
  607MPD2    H3 9053   0.720   4.476  11.814  2.6982 -1.5584 -0.4739
  607MPD2     N 9054   0.722   4.449  12.267 -0.4956 -0.1230  0.2248
  607MPD2    H5 9055   0.753   4.506  12.345  2.8109 -2.1325  0.3947
  607MPD2    N1 9056   0.936   0.066  12.047  0.6030  0.0563  0.1636
  607MPD2    H7 9057   0.976   0.077  12.140 -1.2640 -0.4099  1.0361
  608TMC3    C1 9058   1.041   0.262  12.025 -0.2639  0.7496  0.9794
  608TMC3    C2 9059   1.001   0.286  12.148 -0.1138 -0.1438 -0.3451
  608TMC3    C3 9060   1.079   0.371  12.225 -0.4571  0.7907  1.1640
  608TMC3    C4 9061   1.152   0.325  11.973  0.6970 -0.1754 -0.4633
  608TMC3    C5 9062   1.217   0.419  12.050 -0.2477  0.1548  0.8548
  608TMC3    C6 9063   1.184   0.437  12.187 -0.0288 -0.4917  0.8144
  608TMC3     C 9064   0.975   0.158  11.957  0.1020 -0.4026 -0.2005
  608TMC3     O 9065   0.959   0.164  11.834  0.5551  0.0482  0.0028
  608TMC3     H 9066   0.899   0.262  12.177 -0.1465 -0.1610 -0.4740
  608TMC3    H1 9067   1.181   0.312  11.869 -0.7254  1.7820 -1.0961
  608TMC3    H2 9068   1.216   0.522  12.247 -0.7067 -0.7590  1.5649
  608TMC3    C7 9069   1.273   0.525  11.967  1.0457  0.0386 -0.5231
  608TMC3    C8 9070   1.043   0.381  12.366  0.2622 -1.1588 -0.5093
  608TMC3    O1 9071   1.225   0.530  11.853 -0.6343 -0.0459 -0.1256
  608TMC3    O2 9072   1.058   0.487  12.428 -0.4227  0.7006  0.4475
  609TMC3    C1 9073   3.745   3.137   9.365 -0.8078  0.6228  0.5266
  609TMC3    C2 9074   3.772   3.265   9.317 -0.1574 -0.9024 -0.1466
  609TMC3    C3 9075   3.891   3.328   9.349  0.3362 -0.0308 -0.3593
  609TMC3    C4 9076   3.843   3.078   9.441 -0.0268 -0.2584 -0.3281
  609TMC3    C5 9077   3.955   3.147   9.482  0.4392  0.5850 -0.4578
  609TMC3    C6 9078   3.986   3.269   9.432  0.0551 -0.0107 -0.1616
  609TMC3     C 9079   3.603   3.088   9.351 -1.0633  0.6596  0.7186
  609TMC3     O 9080   3.521   3.169   9.304  0.2841  0.8962  0.4319
  609TMC3     H 9081   3.711   3.318   9.245 -0.8616 -3.1152 -1.1790
  609TMC3    H1 9082   3.806   2.989   9.491  0.6478 -1.4551 -1.9859
  609TMC3    H2 9083   4.088   3.306   9.443 -0.1414  0.2793  0.6653
  609TMC3    C7 9084   4.052   3.092   9.580  0.0524  0.1127  0.3291
  609TMC3    C8 9085   3.915   3.454   9.282 -0.2554  0.6867 -0.2121
  609TMC3    O1 9086   4.136   3.171   9.617  0.4780  0.3235  0.1161
  609TMC3    O2 9087   3.830   3.503   9.210 -0.7856 -0.4812 -0.7302
  610TMC3    C1 9088   1.179   4.341  13.040 -0.7558  0.4214  0.6583
  610TMC3    C2 9089   1.257   4.442  12.995 -0.6100 -0.3099 -0.0482
  610TMC3    C3 9090   1.385   4.423  12.946 -0.6642 -0.2226 -0.3454
  610TMC3    C4 9091   1.226   4.213  13.037 -0.0303  0.3851  0.2651
  610TMC3    C5 9092   1.353   4.192  12.993 -0.3468  0.3050  0.3465
  610TMC3    C6 9093   1.436   4.296  12.950  0.3663  0.4074  0.9198
  610TMC3     C 9094   1.078   4.366  13.137  0.7251 -0.3375 -0.2709
  610TMC3     O 9095   1.064   4.270  13.214  0.2665  0.2315  0.5807
  610TMC3     H 9096   1.235   4.542  13.029 -1.1638 -0.1405 -0.9148
  610TMC3    H1 9097   1.167   4.128  13.070 -0.0228 -0.1022 -0.9720
  610TMC3    H2 9098   1.534   4.273  12.909  0.9117  0.8370  1.9907
  610TMC3    C7 9099   1.414   4.070  13.043 -0.5641  0.0880  0.1731
  610TMC3    C8 9100   1.435   4.503  12.838 -0.4382 -0.0713 -0.9885
  610TMC3    O1 9101   1.533   4.074  13.039 -0.1283  0.1498  0.1170
  610TMC3    O2 9102   1.545   4.472  12.787  0.2341  0.3843  0.2916
  611MPD2     C 9103   0.370   0.191  11.096  0.5297 -0.0949 -0.5950
  611MPD2    C1 9104   0.398   0.205  10.963 -0.0914 -0.3972  0.5605
  611MPD2    C2 9105   0.531   0.234  10.928 -0.2734  0.2155  0.1804
  611MPD2    C3 9106   0.626   0.230  11.027  0.1148  0.1911 -0.4991
  611MPD2    C4 9107   0.588   0.216  11.160  0.2540  0.7219  0.0215
  611MPD2    C5 9108   0.463   0.198  11.195 -0.3164 -0.6593 -0.3495
  611MPD2     H 9109   0.555   0.247  10.823 -0.3049 -0.1371  0.1306
  611MPD2    H1 9110   0.653   0.194  11.244  2.3878  3.2673 -0.9476
  611MPD2    H2 9111   0.270   0.168  11.132  0.6716 -1.6165 -1.1468
  611MPD2    H3 9112   0.432   0.180  11.298 -0.8590  1.8649 -0.0768
  611MPD2     N 9113   0.763   0.241  11.001  0.1716  0.1802 -0.0894
  611MPD2    H5 9114   0.825   0.246  11.081  1.2773  0.5045 -0.9644
  611MPD2    N1 9115   0.279   0.209  10.881  0.4208 -0.3061 -0.5167
  611MPD2    H7 9116   0.191   0.195  10.929 -0.8080 -0.4107 -2.7922
  612TMC3    C1 9117   0.961   0.332  10.920  1.2079  0.1205 -0.5415
  612TMC3    C2 9118   1.030   0.308  11.036  0.0064  0.6031  0.1844
  612TMC3    C3 9119   1.141   0.379  11.057 -0.3827  0.2153 -0.6143
  612TMC3    C4 9120   1.010   0.415  10.820 -0.0054 -0.1368 -0.5985
  612TMC3    C5 9121   1.121   0.488  10.848  0.4058 -0.2480 -0.3524
  612TMC3    C6 9122   1.188   0.469  10.964 -0.9045 -0.2326 -0.2357
  612TMC3     C 9123   0.827   0.292  10.890  0.5349  0.1720 -0.4715
  612TMC3     O 9124   0.793   0.275  10.773  0.0023 -0.0267 -0.3338
  612TMC3     H 9125   0.988   0.234  11.103  0.9902  0.1885  0.3403
  612TMC3    H1 9126   0.947   0.433  10.734 -2.7251  2.2255  1.8706
  612TMC3    H2 9127   1.277   0.525  10.991 -1.0046 -0.1243 -0.1337
  612TMC3    C7 9128   1.155   0.603  10.763 -0.2651 -0.0073  0.4227
  612TMC3    C8 9129   1.221   0.361  11.174  0.5200 -0.0459 -0.6398
  612TMC3    O1 9130   1.101   0.604  10.651 -0.0165 -0.0919 -0.2486
  612TMC3    O2 9131   1.305   0.450  11.198 -0.3912 -0.2469  0.1261
  613MPD2     C 9132   4.546   1.009  17.229  0.3568 -0.5291  0.1853
  613MPD2    C1 9133   4.557   1.117  17.141 -0.4789  0.4650  0.7957
  613MPD2    C2 9134   4.471   1.100  17.029  0.5371 -0.1909 -0.8568
  613MPD2    C3 9135   4.419   0.980  16.984  0.4456  0.1893  0.5684
  613MPD2    C4 9136   4.434   0.871  17.066 -0.2801  0.5952  0.0750
  613MPD2    C5 9137   4.489   0.888  17.192 -0.8580 -0.1980  0.5472
  613MPD2     H 9138   4.454   1.189  16.970 -0.3192  0.3714  0.2259
  613MPD2    H1 9139   4.398   0.770  17.049 -0.6930  0.5871  0.9678
  613MPD2    H2 9140   4.596   1.020  17.324 -0.2593  1.9202  0.2193
  613MPD2    H3 9141   4.502   0.795  17.248 -1.0076  2.2308  4.5934
  613MPD2     N 9142   4.335   0.964  16.870  0.0587 -0.6572  0.6413
  613MPD2    H5 9143   4.284   0.877  16.855 -1.3640  0.9819 -3.8500
  613MPD2    N1 9144   4.624   1.240  17.182  0.1115  0.3185 -0.3428
  613MPD2    H7 9145   4.652   1.237  17.280  0.4711 -1.0456 -0.4821
  614TMC3    C1 9146   4.640   1.342  16.953 -0.2986  0.3072 -0.5150
  614TMC3    C2 9147   4.704   1.242  16.876 -0.8598  0.3353 -0.0829
  614TMC3    C3 9148   4.678   1.254  16.743  0.3821 -0.1362  0.1171
  614TMC3    C4 9149   4.571   1.443  16.899  0.4827 -0.1785  0.2999
  614TMC3    C5 9150   4.553   1.451  16.763 -0.9112 -0.1192  0.6723
  614TMC3    C6 9151   4.600   1.352  16.688 -0.3284 -0.4955 -0.4662
  614TMC3     C 9152   4.661   1.351  17.100  0.4080 -0.3600 -0.0037
  614TMC3     O 9153   4.709   1.455  17.135  0.4909 -0.5055 -0.2634
  614TMC3     H 9154   0.025   1.170  16.928  0.2531  3.2851  2.6153
  614TMC3    H1 9155   4.541   1.525  16.962  1.0161 -0.6442  1.1533
  614TMC3    H2 9156   4.588   1.348  16.580 -0.1365  2.7605 -0.6356
  614TMC3    C7 9157   4.517   1.587  16.716 -0.2781 -0.3840  0.0319
  614TMC3    C8 9158   4.675   1.129  16.669 -0.6507 -0.6359 -0.0358
  614TMC3    O1 9159   4.490   1.670  16.803  0.4091 -0.0612 -0.0083
  614TMC3    O2 9160   4.613   1.126  16.566  0.0012 -0.8832  0.4037
  615MPD2     C 9161   3.615   2.833  16.131  0.1906  0.4906  0.2339
  615MPD2    C1 9162   3.696   2.932  16.087 -0.1754  0.4884 -0.6947
  615MPD2    C2 9163   3.649   3.018  15.988  0.4305 -0.2912 -0.1634
  615MPD2    C3 9164   3.525   3.000  15.929  0.0446  0.1308 -0.6165
  615MPD2    C4 9165   3.439   2.907  15.982 -0.3733  0.3983  0.5575
  615MPD2    C5 9166   3.489   2.823  16.078  0.3835  0.5612  0.0711
  615MPD2     H 9167   3.712   3.100  15.957 -3.1944  2.5361  0.0414
  615MPD2    H1 9168   3.343   2.891  15.935  0.9190 -2.3486 -1.1175
  615MPD2    H2 9169   3.639   2.762  16.210  1.8794  1.9509  1.0415
  615MPD2    H3 9170   3.428   2.744  16.120  0.5766 -0.1668 -1.0243
  615MPD2     N 9171   3.484   3.071  15.812 -0.5117  0.6284 -0.0874
  615MPD2    H5 9172   3.397   3.047  15.766 -0.2776  1.8331 -1.1736
  615MPD2    N1 9173   3.832   2.952  16.126 -0.2379 -0.4343  0.1047
  615MPD2    H7 9174   3.862   3.045  16.098  2.3089 -1.7503 -1.5695
  616TMC3    C1 9175   4.039   2.875  16.207 -0.8368  0.8943  0.5292
  616TMC3    C2 9176   4.082   3.006  16.203  0.6115 -0.1423 -1.1031
  616TMC3    C3 9177   4.220   3.025  16.205  0.8886  0.4452 -0.4537
  616TMC3    C4 9178   4.125   2.770  16.196 -0.1948  0.3363  0.0752
  616TMC3    C5 9179   4.258   2.800  16.180  0.6125 -0.3295  0.1628
  616TMC3    C6 9180   4.312   2.919  16.193 -0.0837  0.0260  0.5366
  616TMC3     C 9181   3.900   2.845  16.181  0.7016  1.0397  0.1868
  616TMC3     O 9182   3.869   2.726  16.200 -0.4383  0.1906  0.9401
  616TMC3     H 9183   4.015   3.088  16.225  2.3448  1.0167 -0.2346
  616TMC3    H1 9184   4.096   2.666  16.184 -3.0995  0.9553  1.7564
  616TMC3    H2 9185   4.418   2.936  16.175  0.0001  0.5819  1.5476
  616TMC3    C7 9186   4.339   2.691  16.126  0.0881  0.7733 -0.2964
  616TMC3    C8 9187   4.265   3.159  16.185  0.8129 -0.0446  0.1879
  616TMC3    O1 9188   4.451   2.676  16.174 -0.2811 -0.1771 -0.1929
  616TMC3    O2 9189   4.184   3.240  16.143 -0.4459 -0.3875  0.3282
  617MPD2     C 9190   1.836   1.260  13.807 -0.1507 -0.6851  0.5631
  617MPD2    C1 9191   1.865   1.191  13.917 -0.8790 -0.1081  0.3966
  617MPD2    C2 9192   1.777   1.097  13.967 -0.4591 -0.9447 -0.3556
  617MPD2    C3 9193   1.656   1.079  13.903  0.0306  0.6332 -0.4722
  617MPD2    C4 9194   1.638   1.140  13.785  0.5527 -0.2344  0.5827
  617MPD2    C5 9195   1.729   1.230  13.738  0.1523  0.3523 -0.3926
  617MPD2     H 9196   1.808   1.039  14.053 -1.1622  0.7837  1.0648
  617MPD2    H1 9197   1.543   1.138  13.734  0.5118 -1.5478  0.7125
  617MPD2    H2 9198   1.902   1.338  13.771 -1.3663  0.2770  0.4004
  617MPD2    H3 9199   1.707   1.291  13.650 -2.6693 -2.2707 -1.4804
  617MPD2     N 9200   1.553   0.991  13.948  0.3923 -0.5454 -0.0825
  617MPD2    H5 9201   1.470   0.978  13.892  0.2599  3.0292 -0.7127
  617MPD2    N1 9202   1.985   1.223  13.982 -0.5528 -0.5675 -0.0457
  617MPD2    H7 9203   2.043   1.296  13.941  1.1093 -1.9029 -0.0758
  618TMC3    C1 9204   2.191   1.140  14.074 -0.0086 -0.3835  0.5365
  618TMC3    C2 9205   2.263   1.086  14.175  0.1934 -0.5689  0.3995
  618TMC3    C3 9206   2.393   1.084  14.154  0.4198 -0.3111 -0.0867
  618TMC3    C4 9207   2.244   1.189  13.956 -0.5851  0.2819  0.2089
  618TMC3    C5 9208   2.380   1.174  13.940 -0.3271  0.8792  0.1254
  618TMC3    C6 9209   2.455   1.126  14.039  0.1371 -0.3468 -0.4685
  618TMC3     C 9210   2.040   1.140  14.080  0.0534  0.6455 -0.3930
  618TMC3     O 9211   1.990   1.068  14.161 -0.0108 -0.5103  0.6201
  618TMC3     H 9212   2.218   1.038  14.261 -0.7626 -2.0255 -0.8989
  618TMC3    H1 9213   2.192   1.234  13.873  2.7055 -1.7751 -2.9701
  618TMC3    H2 9214   2.564   1.128  14.032  0.2558 -2.8203  0.7340
  618TMC3    C7 9215   2.440   1.237  13.827 -0.8420 -0.0013  0.1113
  618TMC3    C8 9216   2.473   1.038  14.263  0.2613 -0.3714 -0.0845
  618TMC3    O1 9217   2.379   1.323  13.777  0.2205 -0.1512  0.4257
  618TMC3    O2 9218   2.437   1.052  14.378 -0.2602  0.0847 -0.1876
  619MPD2     C 9219   3.515   2.559  13.796 -0.1993 -0.1014  0.0241
  619MPD2    C1 9220   3.466   2.633  13.688  0.1090  0.3493  0.1226
  619MPD2    C2 9221   3.329   2.644  13.675 -0.2946 -0.2401  0.3675
  619MPD2    C3 9222   3.240   2.583  13.762 -0.5856  0.6241  0.9308
  619MPD2    C4 9223   3.294   2.495  13.858 -0.5870 -0.1905 -0.1767
  619MPD2    C5 9224   3.428   2.487  13.872 -0.0545  0.1582  0.1611
  619MPD2     H 9225   3.293   2.715  13.601 -2.3593 -1.8552 -0.1793
  619MPD2    H1 9226   3.230   2.461  13.939 -1.2429  1.2623 -0.0837
  619MPD2    H2 9227   3.618   2.543  13.827 -0.5832 -0.7667  0.9502
  619MPD2    H3 9228   3.470   2.437  13.959 -0.8397 -2.0609 -0.7243
  619MPD2     N 9229   3.094   2.605  13.755 -0.5872  0.0890 -0.3122
  619MPD2    H5 9230   3.032   2.544  13.807  0.6000  0.9384  2.1432
  619MPD2    N1 9231   3.553   2.696  13.598 -0.0958 -0.1980  0.3107
  619MPD2    H7 9232   3.507   2.740  13.518 -1.7747  0.6940  1.7613
  620TMC3    C1 9233   3.746   2.809  13.517  0.4255 -0.0343 -0.4367
  620TMC3    C2 9234   3.685   2.818  13.392 -0.5039 -0.6338  1.0664
  620TMC3    C3 9235   3.731   2.918  13.309 -0.3082 -0.1521  0.0918
  620TMC3    C4 9236   3.846   2.898  13.549  0.1976 -0.1872 -0.2733
  620TMC3    C5 9237   3.896   2.989  13.461  0.1835 -0.2454  0.3861
  620TMC3    C6 9238   3.842   2.995  13.336  0.6955  0.6192 -0.3709
  620TMC3     C 9239   3.684   2.733  13.621  0.2079  0.3655 -0.4868
  620TMC3     O 9240   3.740   2.733  13.730  0.3967 -0.3211  0.6025
  620TMC3     H 9241   3.604   2.751  13.365 -0.6572 -0.3927  0.9203
  620TMC3    H1 9242   3.886   2.895  13.649  0.9747 -0.8243 -0.6070
  620TMC3    H2 9243   3.861   3.075  13.266 -1.8130  1.2766 -0.3108
  620TMC3    C7 9244   3.900   3.117  13.528 -0.2492  0.1163  0.0253
  620TMC3    C8 9245   3.687   2.951  13.172 -0.0261 -0.1307  0.1871
  620TMC3    O1 9246   3.848   3.134  13.635  0.1845 -0.3556 -0.3100
  620TMC3    O2 9247   3.773   2.990  13.096  0.0503 -0.1544 -0.5296
  621MPD2     C 9248   3.230   2.575  10.278  0.0951 -0.2145 -0.0665
  621MPD2    C1 9249   3.336   2.621  10.193  0.5813 -0.2450 -0.3490
  621MPD2    C2 9250   3.321   2.714  10.091 -0.0323  0.1361 -0.3289
  621MPD2    C3 9251   3.196   2.765  10.066 -0.5107 -0.2138 -0.1024
  621MPD2    C4 9252   3.091   2.715  10.145 -0.6431 -1.4195  0.8152
  621MPD2    C5 9253   3.110   2.625  10.247 -0.9004 -0.4528  0.2958
  621MPD2     H 9254   3.406   2.733  10.027 -0.3435 -0.7623 -0.9964
  621MPD2    H1 9255   2.991   2.748  10.123 -0.3031 -2.2699 -1.9125
  621MPD2    H2 9256   3.238   2.510  10.364 -0.8564 -0.8253 -0.4456
  621MPD2    H3 9257   3.030   2.589  10.311 -0.5602 -1.6753  0.0327
  621MPD2     N 9258   3.176   2.861   9.964 -0.0075  0.0786  0.4119
  621MPD2    H5 9259   3.258   2.893   9.915  1.6172 -2.2642  1.5913
  621MPD2    N1 9260   3.469   2.575  10.203 -0.1972  0.6493  0.2154
  621MPD2    H7 9261   3.533   2.611  10.134  3.7206 -0.2411  3.3653
  622TMC3    C1 9262   3.634   2.412  10.253  0.6092 -0.2540 -0.2316
  622TMC3    C2 9263   3.685   2.338  10.356  0.3367  0.1559 -0.5067
  622TMC3    C3 9264   3.817   2.301  10.341  0.2103  0.3350 -0.5846
  622TMC3    C4 9265   3.693   2.426  10.130 -0.6028  0.4117  0.6404
  622TMC3    C5 9266   3.814   2.375  10.114  0.1488  0.1435  0.1265
  622TMC3    C6 9267   3.880   2.318  10.218  0.3291 -0.2653  0.0680
  622TMC3     C 9268   3.514   2.481  10.288 -0.4571  0.0619 -0.2943
  622TMC3     O 9269   3.455   2.447  10.391  0.6010 -0.1482  0.0058
  622TMC3     H 9270   3.648   2.347  10.458 -1.4325  0.3810 -1.1643
  622TMC3    H1 9271   3.645   2.474  10.045 -2.7971 -0.7120  1.2470
  622TMC3    H2 9272   3.982   2.287  10.201  0.5913  0.7186 -0.1099
  622TMC3    C7 9273   3.865   2.359   9.977 -0.3972 -0.6383 -0.1182
  622TMC3    C8 9274   3.888   2.210  10.437  0.3540  0.4416 -0.4535
  622TMC3    O1 9275   3.987   2.341   9.971 -0.1991 -0.4658 -0.0636
  622TMC3    O2 9276   4.003   2.188  10.413 -0.0519  0.3476 -0.0354
  623MPD2     C 9277   2.723   3.553  16.025  0.5676  0.4684 -0.2912
  623MPD2    C1 9278   2.653   3.441  16.049  0.2684  0.1303  0.2270
  623MPD2    C2 9279   2.691   3.359  16.148  0.2583  0.7932  0.3686
  623MPD2    C3 9280   2.805   3.384  16.232  0.6962  0.9993 -0.6516
  623MPD2    C4 9281   2.875   3.499  16.205  0.1138  0.0920 -0.2341
  623MPD2    C5 9282   2.829   3.590  16.108 -0.1832 -0.7306 -0.3610
  623MPD2     H 9283   2.641   3.264  16.158 -3.0353  2.5352  0.5372
  623MPD2    H1 9284   2.967   3.533  16.252 -0.2052  2.0268 -1.0244
  623MPD2    H2 9285   2.695   3.633  15.958  1.0457  1.1274  0.2970
  623MPD2    H3 9286   2.872   3.690  16.104 -2.9523  0.5223  1.3015
  623MPD2     N 9287   2.840   3.291  16.335 -0.2329 -0.3955 -0.1313
  623MPD2    H5 9288   2.778   3.212  16.350 -0.2431 -0.3623 -0.0023
  623MPD2    N1 9289   2.542   3.391  15.977  0.7983  0.2556  0.2062
  623MPD2    H7 9290   2.502   3.304  16.010  0.0101  0.1104 -1.1502
  624TMC3    C1 9291   3.077   3.081  16.679  0.1334  0.1762 -0.5829
  624TMC3    C2 9292   2.964   3.019  16.723 -0.2186  0.0210 -0.7663
  624TMC3    C3 9293   2.843   3.056  16.659  0.0856 -0.0437 -0.0137
  624TMC3    C4 9294   3.079   3.177  16.584  0.8032  0.6558  0.7935
  624TMC3    C5 9295   2.958   3.203  16.525 -0.9695  0.1652 -0.5000
  624TMC3    C6 9296   2.844   3.147  16.560 -0.3315 -0.1946 -0.3978
  624TMC3     C 9297   3.205   3.021  16.722  0.2293 -0.2989  0.6498
  624TMC3     O 9298   3.206   2.954  16.821  0.0135 -0.7346 -0.0004
  624TMC3     H 9299   2.980   2.924  16.771  0.6760 -0.7602 -2.6354
  624TMC3    H1 9300   3.170   3.229  16.556 -0.2431  1.2368 -1.5377
  624TMC3    H2 9301   2.751   3.187  16.522 -0.7081 -1.5869 -0.9226
  624TMC3    C7 9302   2.958   3.293  16.410 -0.0890 -0.0364 -0.1096
  624TMC3    C8 9303   2.714   3.006  16.706 -0.0571  0.5460 -0.4065
  624TMC3    O1 9304   3.053   3.363  16.383 -0.6181  0.7040 -0.5103
  624TMC3    O2 9305   2.626   3.009  16.622  0.4463  0.2218  0.6265
  625MPD2     C 9306   3.335   4.273   0.744 -0.0549 -0.3394 -0.8811
  625MPD2    C1 9307   3.328   4.380   0.832  0.1569  0.0282 -0.6663
  625MPD2    C2 9308   3.423   4.396   0.935  0.0419  0.0644  0.0818
  625MPD2    C3 9309   3.534   4.314   0.940  0.3814  0.0699  0.5295
  625MPD2    C4 9310   3.543   4.214   0.845 -0.8281 -0.7518  0.1479
  625MPD2    C5 9311   3.442   4.190   0.753  0.3924  0.2929 -0.0346
  625MPD2     H 9312   3.412   4.490   0.987 -1.9129 -0.7959  1.2436
  625MPD2    H1 9313   3.631   4.150   0.840  0.5993  1.4084 -2.6693
  625MPD2    H2 9314   3.266   4.257   0.662 -0.1836 -1.8727 -0.4782
  625MPD2    H3 9315   3.446   4.101   0.691 -0.4896  0.4250 -0.2768
  625MPD2     N 9316   3.638   4.354   1.032 -0.4520  0.8126 -0.2104
  625MPD2    H5 9317   3.628   4.436   1.090 -0.4861  2.2338 -2.2270
  625MPD2    N1 9318   3.222   4.471   0.827 -0.8636  0.5169  0.4430
  625MPD2    H7 9319   3.237   4.549   0.891  0.1259 -0.0273  0.8566
  626TMC3    C1 9320   3.019   4.585   0.778 -0.5173  0.0882 -0.8390
  626TMC3    C2 9321   2.922   4.615   0.680 -0.5750 -0.6912  0.3052
  626TMC3    C3 9322   2.821   4.700   0.712 -0.1607 -0.1697  0.7797
  626TMC3    C4 9323   3.009   4.635   0.909  0.3236 -0.0208  0.0096
  626TMC3    C5 9324   2.908   4.716   0.932  0.1688  0.6349 -0.8085
  626TMC3    C6 9325   2.815   0.009   0.842 -0.3596 -0.1327  0.1385
  626TMC3     C 9326   3.109   4.476   0.744 -0.0914  0.0689 -0.4507
  626TMC3     O 9327   3.070   4.390   0.668  0.3078  0.1735 -0.2951
  626TMC3     H 9328   2.941   4.574   0.582 -1.2597 -1.7690  0.6253
  626TMC3    H1 9329   3.088   4.617   0.982  0.9689  0.9377 -0.4607
  626TMC3    H2 9330   2.724   0.063   0.868 -0.8313 -0.4481 -0.8349
  626TMC3    C7 9331   2.929   0.055   1.047 -0.4526 -0.2023  0.1190
  626TMC3    C8 9332   2.725   4.734   0.611 -0.1498 -0.5883  0.0641
  626TMC3    O1 9333   2.992   0.007   1.145 -0.1472  0.0922 -0.7690
  626TMC3    O2 9334   2.745   4.681   0.504  0.1429  0.4526 -0.5000
  627MPD2     C 9335   1.182   4.424  14.495  0.0036 -0.4390  0.2669
  627MPD2    C1 9336   1.268   4.411  14.590 -0.2055 -0.2650  0.1839
  627MPD2    C2 9337   1.296   4.278  14.623  0.3507  0.0988  0.2253
  627MPD2    C3 9338   1.240   4.166  14.563  0.1756  0.1534 -1.0340
  627MPD2    C4 9339   1.160   4.188  14.456  0.5309 -0.4158 -0.4748
  627MPD2    C5 9340   1.137   4.314  14.418  0.1262 -0.1963  0.0332
  627MPD2     H 9341   1.378   4.261  14.691  0.2400 -2.3411 -0.2421
  627MPD2    H1 9342   1.116   4.116  14.389 -2.7130 -0.3928  1.5910
  627MPD2    H2 9343   1.160   4.523  14.457 -1.8275 -0.3895  1.4851
  627MPD2    H3 9344   1.071   4.339  14.336  1.7775 -1.2320 -1.6234
  627MPD2     N 9345   1.303   4.047  14.586  0.0131 -0.4329  0.2560
  627MPD2    H5 9346   1.375   4.054  14.657  0.7260 -1.5345 -0.3600
  627MPD2    N1 9347   1.333   4.518  14.658  0.0490 -0.1311  0.6094
  627MPD2    H7 9348   1.401   4.501  14.732 -0.0551 -0.1189  0.7077
  628TMC3    C1 9349   1.429   4.729  14.720  0.8878  0.2582 -0.0778
  628TMC3    C2 9350   1.557   4.693  14.729  0.1410 -0.5608  0.5338
  628TMC3    C3 9351   1.645   0.040  14.778 -0.0560  0.9069 -0.8274
  628TMC3    C4 9352   1.383   0.103  14.767  0.2514 -0.0812 -0.4925
  628TMC3    C5 9353   1.472   0.195  14.801  1.1601  0.0621  0.6327
  628TMC3    C6 9354   1.604   0.168  14.812  0.4659  0.1590 -0.3724
  628TMC3     C 9355   1.336   4.658  14.630 -1.0808 -0.0408  0.3114
  628TMC3     O 9356   1.279   4.724  14.542  0.6276  0.0334 -0.0293
  628TMC3     H 9357   1.578   4.591  14.699  1.3862 -0.0340 -0.3811
  628TMC3    H1 9358   1.280   0.134  14.754 -0.2070 -1.0617  0.7574
  628TMC3    H2 9359   1.667   0.252  14.839  0.1759  0.8593 -1.8588
  628TMC3    C7 9360   1.447   0.328  14.751 -0.4060 -0.6207 -0.2166
  628TMC3    C8 9361   1.781   4.729  14.811 -0.6702  0.0376 -0.2155
  628TMC3    O1 9362   1.364   0.333  14.662  0.1615 -0.1683  0.0167
  628TMC3    O2 9363   1.791   4.608  14.820 -0.3618  0.0797 -0.1286
  629MPD2     C 9364   4.644   3.516  16.163  0.1621  0.1893 -0.5587
  629MPD2    C1 9365   4.684   3.411  16.236  0.1240  0.1000  0.3643
  629MPD2    C2 9366   4.598   3.306  16.261  0.7714 -0.2055  0.0697
  629MPD2    C3 9367   4.468   3.296  16.205  0.6267  0.0095  0.3747
  629MPD2    C4 9368   4.423   3.410  16.138  0.0670 -0.7077  0.1030
  629MPD2    C5 9369   4.511   3.518  16.113 -0.1863  0.5179 -0.1478
  629MPD2     H 9370   4.619   3.221  16.325  1.0322  0.2364  0.5750
  629MPD2    H1 9371   4.327   3.415  16.087 -0.4003  0.6557  1.1190
  629MPD2    H2 9372   4.720   3.592  16.148 -0.1780  0.5502 -0.4825
  629MPD2    H3 9373   4.462   3.598  16.060 -2.1590 -0.0161  0.8629
  629MPD2     N 9374   4.396   3.177  16.216 -0.2764 -0.1432 -0.2916
  629MPD2    H5 9375   4.447   3.102  16.262 -0.4418 -0.2290 -0.2507
  629MPD2    N1 9376   0.074   3.417  16.276  0.5874  0.8241  0.3986
  629MPD2    H7 9377   0.122   3.504  16.257  0.4752  0.7359 -0.2966
  630TMC3    C1 9378   0.273   3.373  16.416 -0.0550  0.2402  0.0042
  630TMC3    C2 9379   0.352   3.463  16.350  0.2435  0.0816 -0.3590
  630TMC3    C3 9380   0.481   3.474  16.401  0.1663 -0.1397 -0.4137
  630TMC3    C4 9381   0.312   3.305  16.529 -0.2427  0.4069 -0.6374
  630TMC3    C5 9382   0.436   3.314  16.576  0.0808  0.4064 -0.1789
  630TMC3    C6 9383   0.522   3.406  16.517  0.0057 -0.8237 -0.3609
  630TMC3     C 9384   0.141   3.327  16.366 -0.3345  0.4949 -0.0504
  630TMC3     O 9385   0.105   3.213  16.388 -0.5558 -0.3258  0.2216
  630TMC3     H 9386   0.308   3.533  16.279  0.2340 -0.4221 -0.8508
  630TMC3    H1 9387   0.251   3.223  16.566  0.4517  1.1133  2.0397
  630TMC3    H2 9388   0.626   3.422  16.545 -0.6486 -0.3257  1.7655
  630TMC3    C7 9389   0.461   3.241  16.697  0.4113  0.5797  0.2362
  630TMC3    C8 9390   0.568   3.574  16.335  0.2482  0.6485  0.5107
  630TMC3    O1 9391   0.394   3.139  16.722  0.1698 -0.1853 -0.0287
  630TMC3    O2 9392   0.665   3.607  16.401 -0.2642  0.2361  0.0731
  631MPD2     C 9393   2.650   3.393  15.470 -0.1462 -0.2278 -0.7255
  631MPD2    C1 9394   2.727   3.511  15.458  0.5303  0.7064  0.0619
  631MPD2    C2 9395   2.863   3.493  15.484  0.5128 -0.7291  0.4452
  631MPD2    C3 9396   2.916   3.375  15.522 -0.1641  0.2752 -0.1708
  631MPD2    C4 9397   2.844   3.258  15.522 -0.0064  0.1117 -0.7666
  631MPD2    C5 9398   2.705   3.271  15.511 -0.5490  0.0933  0.5837
  631MPD2     H 9399   2.935   3.574  15.479 -0.2511  0.0957  2.9863
  631MPD2    H1 9400   2.878   3.157  15.540 -0.7756 -0.4112 -2.2541
  631MPD2    H2 9401   2.542   3.395  15.456 -0.6177 -0.1490  3.0243
  631MPD2    H3 9402   2.640   3.186  15.530 -1.4966  0.9302  1.0871
  631MPD2     N 9403   3.052   3.375  15.540  0.4723  0.3801 -0.2769
  631MPD2    H5 9404   3.104   3.460  15.524  0.9148  0.2449  0.4313
  631MPD2    N1 9405   2.666   3.637  15.432 -0.8433  0.3781  0.8810
  631MPD2    H7 9406   2.566   3.649  15.440 -0.8511  2.5591 -2.3775
  632TMC3    C1 9407   2.662   3.871  15.421  0.4008 -0.0856 -0.9487
  632TMC3    C2 9408   2.620   3.888  15.548  0.3066  0.0313  0.2282
  632TMC3    C3 9409   2.669   4.002  15.612 -0.3636 -0.3250  0.3713
  632TMC3    C4 9410   2.717   3.974  15.353  0.4357 -0.1932 -0.0380
  632TMC3    C5 9411   2.750   4.092  15.412  0.1922  0.4447  0.4625
  632TMC3    C6 9412   2.740   4.102  15.549 -0.1108 -0.2351  0.6178
  632TMC3     C 9413   2.742   3.750  15.406  0.6343 -0.1734 -0.0413
  632TMC3     O 9414   2.860   3.779  15.392 -0.5445 -0.1758 -0.1833
  632TMC3     H 9415   2.582   3.802  15.602 -1.8977  1.9135  1.7033
  632TMC3    H1 9416   2.764   3.954  15.257 -2.1389 -0.0640 -1.3350
  632TMC3    H2 9417   2.771   4.193  15.600 -0.6016  0.4142 -0.2320
  632TMC3    C7 9418   2.857   4.156  15.337  0.1350  0.1702 -0.4161
  632TMC3    C8 9419   2.679   3.989  15.757 -0.1386 -0.0174  0.0370
  632TMC3    O1 9420   2.848   4.159  15.212  0.2015 -0.2169  0.3681
  632TMC3    O2 9421   2.599   3.910  15.804 -0.2184 -0.8480 -0.4535
  633MPD2     C 9422   2.871   1.545  17.738 -0.7802 -0.1512  0.4170
  633MPD2    C1 9423   2.944   1.442  17.670 -0.4456  0.4915  0.6972
  633MPD2    C2 9424   2.952   1.325  17.731 -0.5085  0.1556  0.2734
  633MPD2    C3 9425   2.894   1.300   0.092  0.6807  0.4391 -0.5307
  633MPD2    C4 9426   2.856   1.404   0.171  0.9337 -0.8323 -0.3396
  633MPD2    C5 9427   2.846   1.526   0.107  0.6305 -0.2276  0.3119
  633MPD2     H 9428   2.999   1.245  17.675 -1.1162 -0.5163  0.7260
  633MPD2    H1 9429   2.822   1.392   0.273 -1.0592 -0.0672 -0.8976
  633MPD2    H2 9430   2.845   1.640  17.693  0.8891 -0.6377 -1.5743
  633MPD2    H3 9431   2.814   1.609   0.168  1.6196  0.0105  0.5084
  633MPD2     N 9432   2.884   1.169   0.142 -0.2065 -0.0304  0.5189
  633MPD2    H5 9433   2.853   1.157   0.238  0.7195  0.4085  0.8728
  633MPD2    N1 9434   3.002   1.456  17.541  0.0145 -0.0128  0.2781
  633MPD2    H7 9435   3.049   1.375  17.503 -0.8115  0.8066 -2.5182
  634TMC3    C1 9436   3.059   1.551  17.331  0.2653 -0.4521 -1.3476
  634TMC3    C2 9437   3.136   1.449  17.293 -0.2661  0.3529 -0.2398
  634TMC3    C3 9438   3.153   1.431  17.164 -0.2932 -0.0900 -0.3274
  634TMC3    C4 9439   3.000   1.635  17.240 -0.0219  0.3036  0.6431
  634TMC3    C5 9440   3.026   1.612  17.111 -0.4263  0.0982  0.4919
  634TMC3    C6 9441   3.110   1.510  17.066 -0.0950 -0.5774  0.1146
  634TMC3     C 9442   2.997   1.575  17.469 -1.3255 -1.1635  0.0560
  634TMC3     O 9443   2.920   1.671  17.480  0.2635 -0.0597 -0.3484
  634TMC3     H 9444   3.164   1.380  17.372  0.7555  0.9129 -0.1188
  634TMC3    H1 9445   2.949   1.724  17.276 -1.2849  0.0249 -0.4621
  634TMC3    H2 9446   3.115   1.488  16.960 -1.4839 -0.6460  0.0546
  634TMC3    C7 9447   2.963   1.692  17.015 -0.4472  0.2504  0.0126
  634TMC3    C8 9448   3.199   1.291  17.138  0.3873 -0.0094 -1.8870
  634TMC3    O1 9449   3.012   1.683  16.905  0.0051 -0.1916 -0.2772
  634TMC3    O2 9450   3.204   1.212  17.234 -0.0362 -0.0326 -0.3486
  635TMC3    C1 9451   2.543   1.888   0.409 -0.0963 -0.2455  0.5030
  635TMC3    C2 9452   2.593   1.761   0.410  0.2323  0.2734  0.3171
  635TMC3    C3 9453   2.511   1.655   0.427  0.2313 -0.1998 -0.4289
  635TMC3    C4 9454   2.413   1.913   0.440  0.0439 -0.4206  0.3902
  635TMC3    C5 9455   2.331   1.805   0.452 -0.1851 -0.3451  0.4651
  635TMC3    C6 9456   2.374   1.673   0.442  0.4271 -0.4611 -0.5934
  635TMC3     C 9457   2.636   1.987   0.360  0.3704 -0.2008 -0.1788
  635TMC3     O 9458   2.736   1.955   0.304 -0.0690 -0.2022 -0.4275
  635TMC3     H 9459   2.701   1.763   0.408  0.2800 -1.7350 -0.1457
  635TMC3    H1 9460   2.366   2.010   0.427  3.5398  1.1319 -0.6348
  635TMC3    H2 9461   2.311   1.593   0.478  1.2404 -1.5243 -1.5446
  635TMC3    C7 9462   2.205   1.813   0.510  1.1231 -0.0209 -0.1628
  635TMC3    C8 9463   2.573   1.523   0.424  0.5446 -0.7798 -0.0515
  635TMC3    O1 9464   2.114   1.742   0.467 -0.5287 -0.0179  0.2083
  635TMC3    O2 9465   2.686   1.522   0.465 -0.6369  0.1176 -0.1672
  636MPD2     C 9466   4.123   1.558  16.087 -0.3733 -0.3884 -0.3345
  636MPD2    C1 9467   4.101   1.577  16.224  0.2909  1.2123 -0.6004
  636MPD2    C2 9468   4.125   1.478  16.316 -0.5177 -0.2918 -0.0607
  636MPD2    C3 9469   4.172   1.355  16.270 -0.1158  0.2954 -0.1064
  636MPD2    C4 9470   4.191   1.342  16.135  0.6985  0.7827  0.2601
  636MPD2    C5 9471   4.169   1.438  16.041 -0.2357 -0.2459  0.2549
  636MPD2     H 9472   4.115   1.495  16.423  1.2859 -0.1163  0.0741
  636MPD2    H1 9473   4.222   1.250  16.086  1.2565  0.6757  0.8203
  636MPD2    H2 9474   4.104   1.638  16.016  0.1465  0.4533  0.4779
  636MPD2    H3 9475   4.187   1.408  15.938 -0.6109  0.8330 -0.1250
  636MPD2     N 9476   4.200   1.251  16.358  0.0330 -0.4762 -1.1155
  636MPD2    H5 9477   4.187   1.279  16.454  1.0649  1.6018 -1.5878
  636MPD2    N1 9478   4.059   1.698  16.276  0.0884 -0.1433 -0.8501
  636MPD2    H7 9479   4.059   1.703  16.378  0.1537 -0.6957 -0.8226
  637TMC3    C1 9480   4.239   1.034  16.436  0.1536  0.6346 -0.5370
  637TMC3    C2 9481   4.224   1.078  16.566 -0.4800  0.2962  0.3968
  637TMC3    C3 9482   4.241   0.995  16.667  0.5783 -0.0090  0.1531
  637TMC3    C4 9483   4.261   0.897  16.404 -0.0852 -0.2567 -0.6966
  637TMC3    C5 9484   4.284   0.816  16.509  0.8153  0.6003  0.8978
  637TMC3    C6 9485   4.271   0.863  16.642  0.0599  0.0486  0.0511
  637TMC3     C 9486   4.242   1.127  16.329 -0.8216 -0.3670  0.0411
  637TMC3     O 9487   4.289   1.083  16.227 -0.6140 -0.0703  0.2231
  637TMC3     H 9488   4.196   1.180  16.586  0.4502  1.0779 -2.2965
  637TMC3    H1 9489   4.282   0.869  16.301 -0.1825 -1.5239 -0.3725
  637TMC3    H2 9490   4.283   0.787  16.718 -1.8918 -0.5786 -0.2583
  637TMC3    C7 9491   4.364   0.687  16.489 -0.9470  0.1856 -0.7040
  637TMC3    C8 9492   4.313   1.064  16.777 -0.0059  0.1753  0.1235
  637TMC3    O1 9493   4.328   0.619  16.390  0.2890  0.5467  0.1747
  637TMC3    O2 9494   4.327   1.181  16.771 -0.4302 -0.6125  0.1536
  638MPD2     C 9495   3.868   0.790  15.012  0.1296  0.4062  0.4751
  638MPD2    C1 9496   3.769   0.708  14.962 -0.2309 -0.0427  0.2617
  638MPD2    C2 9497   3.768   0.576  15.011  0.3256 -0.4457  0.5062
  638MPD2    C3 9498   3.844   0.541  15.118 -0.0430  0.5667  0.8491
  638MPD2    C4 9499   3.942   0.633  15.164  0.3669  0.1033  0.1221
  638MPD2    C5 9500   3.945   0.756  15.114 -0.4881 -0.0083  0.0840
  638MPD2     H 9501   3.696   0.505  14.973  1.9213  0.6434 -4.5359
  638MPD2    H1 9502   4.002   0.601  15.248 -2.6677 -1.3058  1.7633
  638MPD2    H2 9503   3.885   0.893  14.980 -3.2402  0.9917  0.5336
  638MPD2    H3 9504   4.021   0.828  15.144  0.1008 -0.9538  0.8589
  638MPD2     N 9505   3.826   0.409  15.175 -0.1871  0.4872 -0.4501
  638MPD2    H5 9506   3.751   0.360  15.128 -0.8398  2.7286 -1.7294
  638MPD2    N1 9507   3.698   0.744  14.847  0.3093  0.5247 -0.2536
  638MPD2    H7 9508   3.749   0.819  14.801  2.0695 -1.3871 -1.3782
  639TMC3    C1 9509   3.845   0.233  15.331 -0.8522 -0.2811 -0.3068
  639TMC3    C2 9510   3.712   0.194  15.323 -0.0906  0.0294  1.1785
  639TMC3    C3 9511   3.671   0.084  15.390  0.5799  0.7067 -0.0972
  639TMC3    C4 9512   3.940   0.152  15.395 -0.4641  0.0429  0.2122
  639TMC3    C5 9513   3.884   0.037  15.445 -1.1652 -0.3982 -0.2635
  639TMC3    C6 9514   3.750   0.012  15.470  0.3968 -0.2781  0.2970
  639TMC3     C 9515   3.898   0.354  15.276  0.9017 -0.7573  1.3086
  639TMC3     O 9516   4.009   0.388  15.312 -0.3606 -0.2873  0.0101
  639TMC3     H 9517   3.638   0.258  15.276 -0.9056 -1.1291  0.8762
  639TMC3    H1 9518   4.045   0.180  15.397  0.0799 -1.9036 -0.6514
  639TMC3    H2 9519   3.717   4.670  15.530  1.3906  0.1787  1.4840
  639TMC3    C7 9520   3.982   4.677  15.477  0.0993 -0.2997  0.0038
  639TMC3    C8 9521   3.574   0.008  15.322 -0.4088 -0.4085  0.0316
  639TMC3    O1 9522   3.968   4.606  15.577  0.3959  0.1665  0.5154
  639TMC3    O2 9523   3.536   0.049  15.211 -0.3105 -0.0400 -0.1761
  640MPD2     C 9524   3.924   4.363  10.711 -0.4688  0.2043 -0.5036
  640MPD2    C1 9525   4.003   4.330  10.601  0.6234  0.2143 -0.1735
  640MPD2    C2 9526   4.083   4.432  10.542  0.2655 -0.2025 -0.1200
  640MPD2    C3 9527   4.066   4.564  10.594 -0.1948 -0.9195 -0.0877
  640MPD2    C4 9528   3.968   4.596  10.687  0.7685 -0.4933  0.1093
  640MPD2    C5 9529   3.906   4.491  10.749  0.2006  0.6105  0.0721
  640MPD2     H 9530   4.152   4.412  10.462 -0.8126 -1.7761 -0.6577
  640MPD2    H1 9531   3.950   4.696  10.725  0.4302 -0.0885 -1.1168
  640MPD2    H2 9532   3.864   4.282  10.753  0.0795  0.4237  0.7097
  640MPD2    H3 9533   3.844   4.509  10.836 -0.8387  1.7507 -0.9042
  640MPD2     N 9534   4.126   4.678  10.541  0.4435 -0.2256  0.0028
  640MPD2    H5 9535   4.105   0.024  10.587 -0.9682 -2.0675  2.9109
  640MPD2    N1 9536   4.007   4.195  10.562  0.1117  0.1827 -0.0959
  640MPD2    H7 9537   3.929   4.134  10.585  0.8868 -0.5463  0.6076
  641TMC3    C1 9538   4.075   3.998  10.450  0.1021 -1.0144  0.3695
  641TMC3    C2 9539   4.180   3.910  10.436 -0.3153 -0.4464 -0.1595
  641TMC3    C3 9540   4.149   3.782  10.410  0.1681  1.0647 -0.2992
  641TMC3    C4 9541   3.945   3.959  10.450  0.1011 -0.3688  0.0243
  641TMC3    C5 9542   3.921   3.829  10.424 -0.0420 -0.2790 -0.6092
  641TMC3    C6 9543   4.016   3.738  10.396  0.7811  0.5409 -0.6375
  641TMC3     C 9544   4.099   4.136  10.479 -0.0955  0.3862  0.0883
  641TMC3     O 9545   4.200   4.183  10.430 -0.0780  0.0101  1.0822
  641TMC3     H 9546   4.282   3.946  10.438 -0.4637  0.0259 -1.4678
  641TMC3    H1 9547   3.866   4.031  10.466  1.3829  0.7517  1.3171
  641TMC3    H2 9548   3.992   3.637  10.365  0.6889  0.5266 -0.5163
  641TMC3    C7 9549   3.790   3.788  10.376  0.4722 -0.5350 -0.3407
  641TMC3    C8 9550   4.248   3.674  10.389 -0.3944  0.1875  0.2629
  641TMC3    O1 9551   3.768   3.665  10.380  0.8943 -0.7590  0.3733
  641TMC3    O2 9552   4.217   3.579  10.318  0.1973 -0.4534 -0.1319
  642TMC3    C1 9553   0.487   0.776  12.729 -0.8386  0.1277 -0.0314
  642TMC3    C2 9554   0.585   0.858  12.689 -0.4470 -0.2514 -0.0420
  642TMC3    C3 9555   0.682   0.808  12.603 -1.0920  0.1541 -0.3719
  642TMC3    C4 9556   0.488   0.645  12.696 -0.0373 -0.2443  0.4208
  642TMC3    C5 9557   0.592   0.592  12.630  0.5540  0.6696 -0.1352
  642TMC3    C6 9558   0.692   0.667  12.580 -0.9932 -0.5288 -0.2226
  642TMC3     C 9559   0.384   0.831  12.823 -0.5320 -0.2348  0.4031
  642TMC3     O 9560   0.398   0.947  12.858 -0.1610 -0.5132 -0.0997
  642TMC3     H 9561   0.600   0.962  12.713 -0.6336 -0.1257 -0.4809
  642TMC3    H1 9562   0.398   0.587  12.712  1.5602 -2.8965 -0.1345
  642TMC3    H2 9563   0.776   0.630  12.523 -0.6936 -0.5938  0.2550
  642TMC3    C7 9564   0.563   0.469  12.555 -0.4837 -0.0721 -0.2595
  642TMC3    C8 9565   0.748   0.892  12.506  0.5443  0.4991  0.0886
  642TMC3    O1 9566   0.619   0.460  12.448 -0.1654 -0.0414 -0.4518
  642TMC3    O2 9567   0.846   0.844  12.446 -0.1817  0.7318  0.3230
  643TMC3    C1 9568   4.538   4.196   0.272  0.6784  0.0191  0.4246
  643TMC3    C2 9569   4.405   4.226   0.243 -0.1986 -0.2141  0.3478
  643TMC3    C3 9570   4.331   4.129   0.183 -0.1574 -0.8787 -0.6848
  643TMC3    C4 9571   4.599   4.078   0.223  0.9875  0.3326 -0.1036
  643TMC3    C5 9572   4.519   3.992   0.144 -0.8105  0.3636  0.0564
  643TMC3    C6 9573   4.383   4.016   0.136 -0.4068  0.2017 -0.4566
  643TMC3     C 9574   4.616   4.273   0.370 -0.6266  0.5275  0.4563
  643TMC3     O 9575   4.594   4.394   0.382  0.4640 -0.4160 -0.2984
  643TMC3     H 9576   4.366   4.321   0.275 -1.4161  0.1928 -2.4169
  643TMC3    H1 9577   4.706   4.068   0.223  1.2236  2.7696 -0.0837
  643TMC3    H2 9578   4.311   3.952   0.084  0.3399 -1.8029  0.9657
  643TMC3    C7 9579   4.592   3.950   0.022 -0.3512  0.5751  0.8141
  643TMC3    C8 9580   4.218   4.182   0.099  0.0184  0.2657 -0.5949
  643TMC3    O1 9581   4.710   3.979   0.008 -0.2542  0.3737  1.0506
  643TMC3    O2 9582   4.130   4.104   0.063  0.7085 -0.3964  0.1686
  644MPD2     C 9583   3.554   4.096   9.564  0.3744  1.0887  0.3851
  644MPD2    C1 9584   3.496   3.972   9.565  0.4313  0.0557 -0.0921
  644MPD2    C2 9585   3.415   3.936   9.456  0.5667 -0.4463 -0.1963
  644MPD2    C3 9586   3.401   4.033   9.352 -0.2635 -0.3680 -0.2782
  644MPD2    C4 9587   3.456   4.158   9.359 -0.0444 -0.1230  0.1503
  644MPD2    C5 9588   3.538   4.187   9.466  0.4944  0.0879 -0.8371
  644MPD2     H 9589   3.373   3.838   9.442 -0.2896 -0.1315  0.1721
  644MPD2    H1 9590   3.451   4.229   9.277  0.2259 -0.1735  0.0880
  644MPD2    H2 9591   3.610   4.124   9.652  0.8578 -1.2433  0.8153
  644MPD2    H3 9592   3.576   4.288   9.471  2.3952 -0.6583 -0.2547
  644MPD2     N 9593   3.328   3.986   9.235  0.4164  0.1811  0.3969
  644MPD2    H5 9594   3.310   3.887   9.237  2.3878 -0.1638  1.0896
  644MPD2    N1 9595   3.540   3.890   9.668 -0.7160 -0.0024  0.3778
  644MPD2    H7 9596   3.599   3.933   9.738 -1.4779 -3.0505  2.9087
  645TMC3    C1 9597   3.223   3.991   9.014  0.4791 -0.0046  0.1915
  645TMC3    C2 9598   3.234   4.050   8.896 -0.0918 -0.1447  0.1088
  645TMC3    C3 9599   3.178   3.987   8.791 -0.1060 -0.4503  0.3956
  645TMC3    C4 9600   3.165   3.868   9.033 -0.3885 -0.1745 -0.3111
  645TMC3    C5 9601   3.112   3.808   8.919  0.2728 -0.4559 -0.1628
  645TMC3    C6 9602   3.115   3.866   8.796 -0.1067  0.0254  1.0509
  645TMC3     C 9603   3.292   4.062   9.117  0.8415  0.2464 -0.5201
  645TMC3     O 9604   3.296   4.182   9.101  0.3367  0.0456 -0.5433
  645TMC3     H 9605   3.276   4.149   8.887  0.5827 -0.3104  1.5314
  645TMC3    H1 9606   3.156   3.834   9.136  0.2396  1.1628  0.1913
  645TMC3    H2 9607   3.069   3.805   8.719 -0.5041 -0.4802  1.6877
  645TMC3    C7 9608   3.092   3.662   8.922  0.3421  0.2252 -0.3229
  645TMC3    C8 9609   3.154   4.067   8.670  0.4773 -0.7981  0.2006
  645TMC3    O1 9610   3.035   3.622   8.821  0.2205 -0.0121  0.5132
  645TMC3    O2 9611   3.175   4.189   8.684  0.8809  0.6939  0.0333
  646MPD2     C 9612   4.035   4.071  14.805  0.1637  0.3759  0.1701
  646MPD2    C1 9613   3.953   4.042  14.913  0.1212  0.0948 -1.2501
  646MPD2    C2 9614   3.823   4.093  14.909 -0.4309  0.5415 -0.3485
  646MPD2    C3 9615   3.781   4.166  14.801 -0.0725 -0.4102 -0.2181
  646MPD2    C4 9616   3.867   4.196  14.701 -0.1948 -0.1919 -0.3893
  646MPD2    C5 9617   3.994   4.152  14.704 -0.3253  1.4205  0.7290
  646MPD2     H 9618   3.762   4.087  14.999  0.6876 -1.6798  0.2541
  646MPD2    H1 9619   3.847   4.263  14.619 -3.3512  0.5236  0.9828
  646MPD2    H2 9620   4.135   4.030  14.805  0.2563  0.6359 -1.8841
  646MPD2    H3 9621   4.060   4.183  14.624 -2.0191 -0.1313 -1.2858
  646MPD2     N 9622   3.640   4.210  14.796 -0.0748 -0.3266 -0.3343
  646MPD2    H5 9623   3.579   4.192  14.875  1.3834 -1.9590  0.4287
  646MPD2    N1 9624   4.016   3.971  15.019 -0.4233 -0.6424 -0.0853
  646MPD2    H7 9625   4.112   3.941  15.003 -0.5242 -0.5867 -0.8049
  647TMC3    C1 9626   4.021   3.854  15.219  0.2706  0.3537 -0.1809
  647TMC3    C2 9627   3.956   3.740  15.256 -0.5232 -0.0974  0.0383
  647TMC3    C3 9628   4.031   3.627  15.262 -0.0483  0.3457  0.1372
  647TMC3    C4 9629   4.158   3.861  15.218  0.0887 -0.0769 -0.2692
  647TMC3    C5 9630   4.231   3.746  15.238  0.2894  0.3194 -0.3887
  647TMC3    C6 9631   4.167   3.630  15.260 -0.0617  0.0978  0.3144
  647TMC3     C 9632   3.950   3.943  15.131 -0.2914 -0.2477  0.0011
  647TMC3     O 9633   3.832   3.963  15.153 -0.2066 -0.2127 -0.0141
  647TMC3     H 9634   3.848   3.741  15.256 -0.5359 -1.0107 -1.4646
  647TMC3    H1 9635   4.188   3.962  15.190  0.2110  0.4666  1.8377
  647TMC3    H2 9636   4.230   3.542  15.262  1.1629  0.9470 -1.0501
  647TMC3    C7 9637   4.380   3.741  15.221 -0.1204  0.3695 -0.3299
  647TMC3    C8 9638   3.965   3.502  15.309  0.1800 -0.0680 -0.1382
  647TMC3    O1 9639   4.434   3.649  15.279 -0.6645  0.1041  0.6669
  647TMC3    O2 9640   4.045   3.411  15.336 -0.0377  0.0850 -0.4502
  648TMC3    C1 9641   3.552   1.301  16.449 -0.3329  0.2425  0.8594
  648TMC3    C2 9642   3.569   1.165  16.432 -0.5517  0.6353 -0.0022
  648TMC3    C3 9643   3.542   1.112  16.312  0.0243 -0.0498  0.0030
  648TMC3    C4 9644   3.521   1.387  16.349  0.0115  0.2601 -0.1451
  648TMC3    C5 9645   3.484   1.320  16.235  0.4898  0.2878 -0.3177
  648TMC3    C6 9646   3.491   1.184  16.209 -0.3354  0.0678 -0.1676
  648TMC3     C 9647   3.546   1.356  16.579 -0.3709 -0.3964 -0.4154
  648TMC3     O 9648   3.493   1.466  16.581 -0.0699  0.1422 -0.3036
  648TMC3     H 9649   3.583   1.090  16.508  0.8454  0.1824 -0.7177
  648TMC3    H1 9650   3.496   1.491  16.368 -0.5468  0.3393 -1.2875
  648TMC3    H2 9651   3.452   1.139  16.119  0.9068  0.3141 -0.8339
  648TMC3    C7 9652   3.410   1.397  16.142  0.7914  0.9334  0.1898
  648TMC3    C8 9653   3.580   0.977  16.280  0.1196 -0.5235 -0.2519
  648TMC3    O1 9654   3.408   1.355  16.028 -0.4559 -0.1398 -0.3571
  648TMC3    O2 9655   3.569   0.898  16.374  0.5742  0.4473  0.1565
  649TMC3    C1 9656   2.105   2.774  12.366  0.3423 -0.8417  0.4596
  649TMC3    C2 9657   2.223   2.822  12.348  0.8265 -0.9185  0.2768
  649TMC3    C3 9658   2.310   2.822  12.455  0.9658  0.2330 -0.0477
  649TMC3    C4 9659   2.063   2.715  12.482  0.2462 -0.0921  0.9324
  649TMC3    C5 9660   2.164   2.690  12.572 -0.4411  0.1578 -0.8543
  649TMC3    C6 9661   2.285   2.748  12.564  0.1243  0.1772 -0.4546
  649TMC3     C 9662   1.995   2.846  12.308  0.0966  0.1468 -0.4339
  649TMC3     O 9663   1.908   2.878  12.386 -0.3326 -0.0262 -0.0334
  649TMC3     H 9664   2.251   2.868  12.254 -1.5326  1.0801  0.5677
  649TMC3    H1 9665   1.960   2.689  12.505  0.4731 -2.2676 -0.5402
  649TMC3    H2 9666   2.359   2.741  12.643  0.8377 -1.6260 -1.2655
  649TMC3    C7 9667   2.131   2.619  12.694 -0.0395  0.2061  0.7221
  649TMC3    C8 9668   2.441   2.899  12.456  0.0166  0.2755  0.4239
  649TMC3    O1 9669   2.013   2.614  12.723 -0.4316 -0.1093  0.1132
  649TMC3    O2 9670   2.512   2.883  12.554 -0.4235 -0.0011 -0.3702
  650TMC3    C1 9671   0.329   4.314  12.817  0.0408  1.1549  0.2424
  650TMC3    C2 9672   0.229   4.355  12.896  0.2295 -0.4876 -0.0858
  650TMC3    C3 9673   0.110   4.351  12.840 -0.2687 -0.7023  0.0562
  650TMC3    C4 9674   0.316   4.279  12.690  0.0030  0.5637 -0.6369
  650TMC3    C5 9675   0.190   4.280  12.624 -0.3982  0.2189  0.0649
  650TMC3    C6 9676   0.086   4.311  12.710  0.4847  0.4275  0.2749
  650TMC3     C 9677   0.457   4.292  12.885 -0.0035 -0.0817  0.3198
  650TMC3     O 9678   0.494   4.373  12.965  0.0945  0.0217  0.7307
  650TMC3     H 9679   0.242   4.399  12.994 -1.3043 -0.7727  0.2521
  650TMC3    H1 9680   0.405   4.254  12.634 -1.2867 -1.0521 -1.9450
  650TMC3    H2 9681   4.727   4.305  12.671  1.4800 -0.7536 -2.1737
  650TMC3    C7 9682   0.192   4.373  12.515 -0.4908 -0.5974  0.2669
  650TMC3    C8 9683   0.015   4.436  12.904 -0.1733  0.2992 -1.0157
  650TMC3    O1 9684   0.266   4.340  12.417  0.5251  0.0585  0.0017
  650TMC3    O2 9685   0.054   4.544  12.947  0.3175 -0.3443 -0.1012
  651MPD2     C 9686   3.602   1.696  11.154 -0.9509 -0.7607 -0.0101
  651MPD2    C1 9687   3.591   1.827  11.110  0.1729 -0.9648  0.6487
  651MPD2    C2 9688   3.694   1.914  11.111 -0.5729 -0.0947 -0.3336
  651MPD2    C3 9689   3.816   1.861  11.145  0.3949 -0.1705 -0.5066
  651MPD2    C4 9690   3.830   1.724  11.186  0.1672  0.3282  0.0248
  651MPD2    C5 9691   3.723   1.648  11.200 -0.5565  0.2065  0.1438
  651MPD2     H 9692   3.691   2.016  11.075  0.2695 -0.1507 -0.5729
  651MPD2    H1 9693   3.925   1.674  11.202  0.5447  0.9213 -0.3556
  651MPD2    H2 9694   3.511   1.636  11.148 -1.7197  0.5409 -1.3251
  651MPD2    H3 9695   3.744   1.544  11.223 -2.7327 -0.1940  0.2649
  651MPD2     N 9696   3.933   1.946  11.125 -0.0968  0.1711 -0.3827
  651MPD2    H5 9697   3.921   2.035  11.077  0.9579  1.2559  1.3763
  651MPD2    N1 9698   3.471   1.883  11.062  0.5640  0.0843 -0.3140
  651MPD2    H7 9699   3.469   1.980  11.033  0.3432 -0.5835 -2.5432
  652TMC3    C1 9700   4.321   2.096  10.952 -0.5345 -0.7291 -0.1133
  652TMC3    C2 9701   4.265   1.990  11.018 -0.5948 -0.0402  0.0682
  652TMC3    C3 9702   4.132   1.974  11.020 -0.4995 -0.8272  0.6911
  652TMC3    C4 9703   4.241   2.166  10.868 -0.3177  0.5628  0.5276
  652TMC3    C5 9704   4.111   2.135  10.849 -0.5913  0.1175 -0.2127
  652TMC3    C6 9705   4.051   2.038  10.921  0.2947 -0.0133 -0.0019
  652TMC3     C 9706   4.459   2.122  10.978 -0.7511  0.3501  0.4134
  652TMC3     O 9707   4.511   2.066  11.078 -0.2935 -0.0398 -1.0417
  652TMC3     H 9708   4.323   1.942  11.096 -0.4451 -0.6285 -0.4026
  652TMC3    H1 9709   4.288   2.241  10.805 -0.5971 -0.6276 -1.0942
  652TMC3    H2 9710   3.945   2.020  10.910  0.2550 -0.1927  0.6822
  652TMC3    C7 9711   4.015   2.246  10.812 -0.5246 -0.4997 -0.0613
  652TMC3    C8 9712   4.062   1.907  11.130  0.1164  0.3295  0.5164
  652TMC3    O1 9713   3.909   2.237  10.876 -0.0987  0.0870 -0.4926
  652TMC3    O2 9714   4.127   1.844  11.213 -0.2446  0.3895 -0.0762
  653MPD2     C 9715   2.560   1.387  17.699  0.3776  0.5275 -0.2733
  653MPD2    C1 9716   2.524   1.469  17.596  0.5501  0.3610 -0.5183
  653MPD2    C2 9717   2.494   1.414  17.474 -0.5509  0.8352  0.3966
  653MPD2    C3 9718   2.513   1.283  17.444  0.2721  0.2483 -0.2101
  653MPD2    C4 9719   2.559   1.199  17.551  0.3358  0.0798 -0.4420
  653MPD2    C5 9720   2.569   1.251  17.675  0.0804  0.6853  0.1891
  653MPD2     H 9721   2.469   1.483  17.394  0.5002  1.9216  1.0029
  653MPD2    H1 9722   2.572   1.092  17.541 -0.0292 -0.0889  0.9232
  653MPD2    H2 9723   2.586   1.415   0.037  1.0627 -2.6066  0.4002
  653MPD2    H3 9724   2.599   1.190  17.760 -1.5487  0.4191  0.5726
  653MPD2     N 9725   2.481   1.233  17.315  0.4581  0.5872  0.7141
  653MPD2    H5 9726   2.441   1.298  17.248 -4.0000 -1.6273  1.2050
  653MPD2    N1 9727   2.525   1.603  17.611  0.7060 -0.0434 -0.0406
  653MPD2    H7 9728   2.515   1.658  17.526  1.9911 -0.2565 -0.3295
  654TMC3    C1 9729   2.414   1.082  17.144  0.5778  0.1394 -0.5953
  654TMC3    C2 9730   2.394   1.187  17.066 -0.3847 -0.6958  0.0838
  654TMC3    C3 9731   2.275   1.202  17.005 -0.0507 -0.4364  0.2478
  654TMC3    C4 9732   2.321   0.988  17.158  0.0438  0.4745 -0.3702
  654TMC3    C5 9733   2.213   0.989  17.078  0.0833  0.0153  0.8103
  654TMC3    C6 9734   2.177   1.104  17.008  0.3179  0.6821  0.3108
  654TMC3     C 9735   2.492   1.103  17.271 -0.4980  0.1775  0.2403
  654TMC3     O 9736   2.522   1.010  17.345 -0.4394  0.0253  0.2743
  654TMC3     H 9737   2.472   1.261  17.055 -0.6273 -0.3969  0.3627
  654TMC3    H1 9738   2.331   0.907  17.230 -0.5763 -0.2857 -1.1413
  654TMC3    H2 9739   2.099   1.096  16.934  2.0326 -0.5920 -1.3650
  654TMC3    C7 9740   2.101   0.891  17.101  0.1153 -0.6469  0.2634
  654TMC3    C8 9741   2.265   1.276  16.882 -0.0145 -0.1957 -0.1443
  654TMC3    O1 9742   1.992   0.944  17.088  0.2567  0.8638 -0.0341
  654TMC3    O2 9743   2.365   1.292  16.810 -0.6700 -0.5777  0.4988
  655MPD2     C 9744   3.908   1.444  15.810  0.4710  0.2318 -0.1892
  655MPD2    C1 9745   3.901   1.571  15.755  0.2352 -0.0576 -0.0019
  655MPD2    C2 9746   3.956   1.591  15.630 -0.8667 -0.2085  0.6836
  655MPD2    C3 9747   4.011   1.491  15.561  0.2642  0.2163  0.2176
  655MPD2    C4 9748   4.004   1.361  15.612  0.1993  0.7073 -0.5358
  655MPD2    C5 9749   3.962   1.343  15.740 -0.0808  0.3060  0.0040
  655MPD2     H 9750   3.942   1.688  15.585 -0.5414 -0.5419 -0.1358
  655MPD2    H1 9751   4.033   1.279  15.547  1.7626 -0.3383  1.4963
  655MPD2    H2 9752   3.879   1.419  15.912  1.2007 -0.5637 -0.1734
  655MPD2    H3 9753   3.956   1.237  15.760 -2.8147  0.4965  0.2507
  655MPD2     N 9754   4.068   1.506  15.428  0.5355  0.9069 -0.4820
  655MPD2    H5 9755   4.107   1.422  15.386 -0.3141 -0.7379  2.0682
  655MPD2    N1 9756   3.835   1.674  15.825  0.3362  0.5901  0.2773
  655MPD2    H7 9757   3.841   1.764  15.778 -2.4432 -0.0702 -1.3610
  656TMC3    C1 9758   3.726   1.799  15.995 -0.4741 -0.3196  0.2861
  656TMC3    C2 9759   3.671   1.798  16.122 -0.4476  0.2279 -0.1739
  656TMC3    C3 9760   3.573   1.889  16.153  0.4332  0.6991  0.0901
  656TMC3    C4 9761   3.683   1.900  15.905  0.2011 -0.4321 -0.5731
  656TMC3    C5 9762   3.575   1.983  15.938 -0.1869 -0.2917  0.0370
  656TMC3    C6 9763   3.522   1.979  16.064 -0.0022  0.1185  0.0304
  656TMC3     C 9764   3.780   1.672  15.948 -0.1759  0.2730  0.2918
  656TMC3     O 9765   3.785   1.581  16.033 -0.3803  0.1777  0.0486
  656TMC3     H 9766   3.714   1.734  16.198 -2.0877 -1.1250 -0.3735
  656TMC3    H1 9767   3.720   1.896  15.803 -2.0337  0.3515 -1.4029
  656TMC3    H2 9768   3.445   2.048  16.096  0.6638  2.5315 -3.5656
  656TMC3    C7 9769   3.504   2.038  15.822  0.1496 -0.2512  0.3622
  656TMC3    C8 9770   3.511   1.878  16.281  0.3432  0.3553  0.1584
  656TMC3    O1 9771   3.569   2.034  15.721 -0.2439 -0.0063  0.0998
  656TMC3    O2 9772   3.540   1.777  16.337  0.5066  0.2784 -0.6050
  657TMC3    C1 9773   2.549   0.955  15.523  0.6937 -0.0850 -0.2415
  657TMC3    C2 9774   2.668   1.014  15.491 -0.6748 -0.2792  0.0965
  657TMC3    C3 9775   2.684   1.153  15.505  0.0204 -0.0799  0.4163
  657TMC3    C4 9776   2.441   1.030  15.555  0.1996 -0.5647  0.4053
  657TMC3    C5 9777   2.463   1.168  15.570 -0.1455  0.1067  0.5979
  657TMC3    C6 9778   2.580   1.231  15.540  0.3654  0.4692  0.0508
  657TMC3     C 9779   2.515   0.823  15.478 -0.3963 -0.1850 -0.9064
  657TMC3     O 9780   2.398   0.807  15.454 -0.2469  0.1146  0.3742
  657TMC3     H 9781   2.743   0.961  15.433 -1.0845 -0.0248 -0.6683
  657TMC3    H1 9782   2.349   0.983  15.587 -0.5520  1.3172  0.9583
  657TMC3    H2 9783   2.596   1.336  15.559  2.1405  0.2291 -0.0638
  657TMC3    C7 9784   2.346   1.261  15.573 -0.1537  0.4478  0.8452
  657TMC3    C8 9785   2.801   1.225  15.467  0.1698 -0.0742 -0.7567
  657TMC3    O1 9786   2.364   1.367  15.524 -0.2530 -0.0377 -0.2948
  657TMC3    O2 9787   2.796   1.344  15.446 -0.3648 -0.3355  0.5643
  658MPD2     C 9788   4.254   2.173  14.944  0.5247  0.0658 -0.1714
  658MPD2    C1 9789   4.206   2.052  14.904 -0.4093 -0.0386 -0.5345
  658MPD2    C2 9790   4.124   2.045  14.799 -0.2485  0.1396 -0.3543
  658MPD2    C3 9791   4.095   2.158  14.724 -0.3505  0.2265 -0.2409
  658MPD2    C4 9792   4.149   2.280  14.761  1.4502  0.6682 -0.4298
  658MPD2    C5 9793   4.229   2.285  14.874 -0.0063 -0.1943 -0.4154
  658MPD2     H 9794   4.075   1.951  14.775  0.0549 -0.3503  0.9231
  658MPD2    H1 9795   4.127   2.375  14.715 -0.0689  0.6144  0.1852
  658MPD2    H2 9796   4.327   2.182  15.024 -1.2369  1.0989  1.2984
  658MPD2    H3 9797   4.269   2.377  14.913  1.9884 -0.9705 -0.6354
  658MPD2     N 9798   4.026   2.144  14.600  0.1621  0.4047 -0.1302
  658MPD2    H5 9799   3.980   2.056  14.578  2.1151 -0.5329 -0.5300
  658MPD2    N1 9800   4.247   1.939  14.978 -0.4291 -0.1751  0.1437
  658MPD2    H7 9801   4.310   1.966  15.053  1.1877 -0.8630 -0.9738
  659TMC3    C1 9802   4.256   1.715  15.051 -0.8784 -0.0071 -0.7153
  659TMC3    C2 9803   4.204   1.719  15.172 -0.3164  0.0722  0.5083
  659TMC3    C3 9804   4.161   1.604  15.231 -0.2637 -0.4807 -0.0492
  659TMC3    C4 9805   4.273   1.596  14.989  0.7711  0.1431  0.3363
  659TMC3    C5 9806   4.232   1.474  15.049  0.6657  0.4886 -0.2302
  659TMC3    C6 9807   4.167   1.483  15.170  0.2030 -0.1602 -0.0922
  659TMC3     C 9808   4.209   1.810  14.954 -0.8802  0.1845 -0.1579
  659TMC3     O 9809   4.160   1.763  14.852 -0.9960  0.0806  0.1502
  659TMC3     H 9810   4.188   1.817  15.217 -3.1374  0.0118 -0.3206
  659TMC3    H1 9811   4.324   1.596  14.894  1.0065  2.4572  0.4649
  659TMC3    H2 9812   4.143   1.393  15.225  2.2985 -1.6508 -1.5993
  659TMC3    C7 9813   4.172   1.376  14.958 -0.4553 -0.0622  0.4305
  659TMC3    C8 9814   4.092   1.628  15.361  0.2551  0.4077  0.5007
  659TMC3    O1 9815   4.118   1.280  15.011 -1.0836 -0.7175  0.2575
  659TMC3    O2 9816   4.080   1.743  15.402 -0.0107 -0.0439  0.7137
  660MPD2     C 9817   2.161   0.183  13.021 -0.8490 -0.4067  0.6025
  660MPD2    C1 9818   2.027   0.204  13.025  0.0593  0.0456 -0.4978
  660MPD2    C2 9819   1.941   0.113  13.083 -0.0398 -0.3356 -0.1623
  660MPD2    C3 9820   1.989   0.005  13.149  0.2064  1.0359  0.5752
  660MPD2    C4 9821   2.127   4.721  13.149 -0.1437 -0.6919 -0.0966
  660MPD2    C5 9822   2.211   0.061  13.074  0.2512 -0.2784 -0.1297
  660MPD2     H 9823   1.833   0.128  13.077 -0.1732 -0.2363  2.2898
  660MPD2    H1 9824   2.172   4.634  13.195  0.6124 -0.0555  0.3607
  660MPD2    H2 9825   2.237   0.247  12.979 -1.4023 -1.5095 -2.0996
  660MPD2    H3 9826   2.318   0.044  13.063  0.5958  2.3395 -1.0504
  660MPD2     N 9827   1.912   4.642  13.212 -0.0255  0.0553 -0.7191
  660MPD2    H5 9828   1.956   4.553  13.234  0.9561  0.3570 -1.4514
  660MPD2    N1 9829   1.978   0.325  12.965  0.4556  0.0874  0.4429
  660MPD2    H7 9830   2.048   0.388  12.927  0.3263 -0.3968 -0.5800
  661TMC3    C1 9831   1.827   0.500  12.931  0.5063 -0.0601 -0.4623
  661TMC3    C2 9832   1.908   0.552  12.833  0.5102  1.0104  1.0657
  661TMC3    C3 9833   1.866   0.669  12.764 -0.6380 -0.1435  0.6529
  661TMC3    C4 9834   1.704   0.560  12.955 -0.1103 -0.1652 -0.1106
  661TMC3    C5 9835   1.662   0.661  12.872  0.1272 -0.2705  0.5149
  661TMC3    C6 9836   1.742   0.722  12.780 -0.4728  0.2750 -0.3843
  661TMC3     C 9837   1.849   0.373  12.986 -0.1109 -0.3562  0.4333
  661TMC3     O 9838   1.759   0.323  13.051 -0.1904 -0.1205  0.5170
  661TMC3     H 9839   2.008   0.516  12.808 -0.5990 -1.2410 -0.0975
  661TMC3    H1 9840   1.637   0.517  13.028  2.1110 -0.2031  1.9081
  661TMC3    H2 9841   1.708   0.807  12.721  0.0147 -0.4023 -1.6593
  661TMC3    C7 9842   1.531   0.711  12.889  0.5857 -0.3101  0.5717
  661TMC3    C8 9843   1.939   0.714  12.644 -0.1759 -0.8224 -0.5006
  661TMC3    O1 9844   1.493   0.712  13.009 -0.5939 -0.0700  0.1587
  661TMC3    O2 9845   2.021   0.639  12.597  0.3476 -0.1080  0.0087
  662MPD2     C 9846   1.866   4.710  16.696 -0.2914  0.1617 -0.5393
  662MPD2    C1 9847   1.891   4.676  16.829  0.1612  0.0529 -0.1321
  662MPD2    C2 9848   1.819   0.001  16.917  0.0035 -0.2757 -0.4231
  662MPD2    C3 9849   1.719   0.086  16.890 -0.3461 -0.1417  0.3636
  662MPD2    C4 9850   1.684   0.109  16.760 -0.0162 -0.7348 -0.7087
  662MPD2    C5 9851   1.763   0.058  16.665 -0.2636  0.8918  0.2032
  662MPD2     H 9852   1.829   4.710  17.020 -1.5852 -1.5672 -0.6729
  662MPD2    H1 9853   1.604   0.175  16.728  0.0455  0.5919  1.8568
  662MPD2    H2 9854   1.917   4.671  16.608  0.6009 -1.2454  0.5960
  662MPD2    H3 9855   1.739   0.085  16.562 -1.4953 -2.1564 -0.2884
  662MPD2     N 9856   1.635   0.157  16.979 -0.4490 -0.4512 -0.2902
  662MPD2    H5 9857   1.552   0.205  16.946 -0.3611  0.4704  0.8203
  662MPD2    N1 9858   1.990   4.587  16.862 -0.4789  0.0530 -0.5997
  662MPD2    H7 9859   2.027   4.583  16.956 -3.1475 -2.3679  0.3418
  663TMC3    C1 9860   2.126   4.396  16.838 -0.3320  1.3329  0.1481
  663TMC3    C2 9861   2.213   4.441  16.941  0.1807 -0.1708 -0.9104
  663TMC3    C3 9862   2.302   4.343  16.988  0.3589 -1.0218 -0.0742
  663TMC3    C4 9863   2.110   4.265  16.812  0.4986  0.2448  0.1657
  663TMC3    C5 9864   2.187   4.168  16.876 -0.2922 -0.5490 -0.5403
  663TMC3    C6 9865   2.295   4.208  16.948 -0.2143  0.2789 -0.3966
  663TMC3     C 9866   2.024   4.484  16.780 -0.1529 -0.6681  0.2359
  663TMC3     O 9867   1.977   4.442  16.673  0.0055 -0.1614 -0.0513
  663TMC3     H 9868   2.241   4.546  16.943  2.1729 -0.7732  3.3392
  663TMC3    H1 9869   2.018   4.244  16.758 -0.0114 -1.0687  1.5256
  663TMC3    H2 9870   2.339   4.136  17.016 -0.3787 -0.8414 -1.4970
  663TMC3    C7 9871   2.120   4.046  16.918  0.3620  0.1332  0.0662
  663TMC3    C8 9872   2.333   4.360  17.131  1.1550  0.6787 -0.1748
  663TMC3    O1 9873   2.146   3.996  17.029  0.9222  0.3233 -0.9271
  663TMC3    O2 9874   2.435   4.303  17.164 -0.0576 -0.3974  0.3178
  664MPD2     C 9875   4.727   2.501  17.591  0.0089 -0.2600  0.2280
  664MPD2    C1 9876   0.022   2.616  17.662  0.2015  0.8405 -0.2820
  664MPD2    C2 9877   0.005   2.628   0.031  0.3910  0.1316  0.6766
  664MPD2    C3 9878   4.710   2.517   0.104  0.3638  0.1652 -0.3168
  664MPD2    C4 9879   4.683   2.398   0.037 -0.4921 -0.5077 -0.4672
  664MPD2    C5 9880   4.684   2.396  17.666 -0.2337 -0.1974 -0.5392
  664MPD2     H 9881   0.040   2.716   0.084  0.2153 -0.5279  1.8798
  664MPD2    H1 9882   4.660   2.301   0.079 -2.6278  1.4768  2.9363
  664MPD2    H2 9883   4.734   2.496  17.483  0.0038 -1.1081  0.2670
  664MPD2    H3 9884   4.653   2.306  17.615 -0.6657  0.6832 -1.8334
  664MPD2     N 9885   4.716   2.527   0.244 -0.0713  0.4000 -0.3888
  664MPD2    H5 9886   4.726   2.619   0.285  0.1962 -0.3916  1.3256
  664MPD2    N1 9887   0.068   2.728  17.593  0.1483 -0.4882 -0.5269
  664MPD2    H7 9888   0.093   2.813  17.643 -0.8123  0.2571 -1.2758
  665TMC3    C1 9889   4.693   2.463   0.465 -0.2104  0.4881 -1.1358
  665TMC3    C2 9890   4.583   2.468   0.548  0.7569  0.0864 -0.0092
  665TMC3    C3 9891   4.605   2.547   0.660  0.0601  0.6769 -0.1186
  665TMC3    C4 9892   0.060   2.540   0.485 -0.9476 -0.4234  0.9430
  665TMC3    C5 9893   0.074   2.619   0.593 -0.5714 -0.4652  0.0838
  665TMC3    C6 9894   4.724   2.607   0.697  0.5258  0.3653 -0.3172
  665TMC3     C 9895   4.674   2.432   0.328 -0.2417 -0.0617 -0.3566
  665TMC3     O 9896   4.612   2.325   0.303  0.3348 -0.0113 -0.7822
  665TMC3     H 9897   4.487   2.425   0.525  0.4026  0.5151  0.6639
  665TMC3    H1 9898   0.139   2.524   0.412 -1.3691 -1.0549  0.6265
  665TMC3    H2 9899   4.736   2.670   0.784 -0.3523  2.8795 -2.0230
  665TMC3    C7 9900   0.172   2.725   0.580  0.3763  0.2963  0.0188
  665TMC3    C8 9901   4.496   2.574   0.746  0.5993 -0.5283 -0.2346
  665TMC3    O1 9902   0.225   2.714   0.472  0.0914  0.2186  0.9333
  665TMC3    O2 9903   4.514   2.667   0.827  0.3347  0.1349 -0.2238
  666TMC3    C1 9904   3.083   3.012   9.829  0.4117 -0.4226 -0.1911
  666TMC3    C2 9905   3.208   3.010   9.767 -0.6646  0.9491  0.3714
  666TMC3    C3 9906   3.274   3.128   9.746  0.4623 -0.6065 -0.4254
  666TMC3    C4 9907   3.024   3.133   9.861 -0.3464  0.6970  0.2730
  666TMC3    C5 9908   3.094   3.244   9.835 -0.8990 -0.4487  0.5765
  666TMC3    C6 9909   3.213   3.248   9.770 -0.5519 -0.1310  0.4895
  666TMC3     C 9910   3.053   2.920   9.935  0.3360  0.1754  0.2162
  666TMC3     O 9911   2.944   2.907   9.987 -0.5533 -0.0716 -0.2397
  666TMC3     H 9912   3.247   2.916   9.731 -0.8441  0.6452  0.9732
  666TMC3    H1 9913   2.944   3.127   9.934 -0.5962 -1.8571 -0.2125
  666TMC3    H2 9914   3.266   3.339   9.743 -0.5516  0.2451  1.7715
  666TMC3    C7 9915   3.024   3.366   9.883 -0.8466 -0.2073 -0.5964
  666TMC3    C8 9916   3.421   3.123   9.749  0.2284  0.1985 -0.4257
  666TMC3    O1 9917   2.929   3.360   9.958  0.4337 -0.4636 -0.3163
  666TMC3    O2 9918   3.475   3.020   9.786 -0.3741  0.0895 -0.2503
  667MPD2     C 9919   1.299   2.542  14.201  0.1083 -0.0880  0.2957
  667MPD2    C1 9920   1.179   2.603  14.231 -0.4139 -0.0460 -0.4847
  667MPD2    C2 9921   1.062   2.574  14.160  0.1681 -0.3330 -0.1591
  667MPD2    C3 9922   1.070   2.490  14.054  0.2536  0.7844  0.2335
  667MPD2    C4 9923   1.189   2.421  14.029 -0.2737  0.9585  0.0093
  667MPD2    C5 9924   1.298   2.445  14.103 -0.0385 -0.2622 -0.8020
  667MPD2     H 9925   0.965   2.615  14.184  1.1689  0.7309  2.0614
  667MPD2    H1 9926   1.200   2.341  13.958  0.9163 -0.3992  1.7020
  667MPD2    H2 9927   1.388   2.562  14.258  0.1165  3.3563 -0.9178
  667MPD2    H3 9928   1.390   2.395  14.075  0.1988 -0.4758  0.3981
  667MPD2     N 9929   0.961   2.443  13.981  0.1411  0.3600  0.4383
  667MPD2    H5 9930   0.980   2.376  13.907 -1.0598 -0.2008  0.6397
  667MPD2    N1 9931   1.162   2.698  14.326 -0.1356 -0.3430  1.1690
  667MPD2    H7 9932   1.073   2.748  14.333 -0.2416 -0.1203 -1.9148
  668TMC3    C1 9933   1.200   2.847  14.503 -0.4245  0.7052 -0.9402
  668TMC3    C2 9934   1.284   2.927  14.573 -0.1157  0.6199 -1.0997
  668TMC3    C3 9935   1.233   2.959  14.697 -0.6096 -0.2307  0.9328
  668TMC3    C4 9936   1.064   2.830  14.540  0.2634 -1.1029  0.8180
  668TMC3    C5 9937   1.021   2.874  14.662 -0.2751 -0.2761  0.0447
  668TMC3    C6 9938   1.113   2.925  14.746 -0.8321 -0.1158 -0.3154
  668TMC3     C 9939   1.259   2.749  14.408  0.3734 -0.3851  0.0288
  668TMC3     O 9940   1.380   2.730  14.422  0.4066 -0.2889 -0.0440
  668TMC3     H 9941   1.389   2.939  14.547  0.5132 -1.3712  0.4864
  668TMC3    H1 9942   0.990   2.768  14.493 -2.5526  3.4395 -0.7323
  668TMC3    H2 9943   1.072   2.970  14.836 -2.8207 -2.3688 -0.0652
  668TMC3    C7 9944   0.877   2.888  14.700  0.4028 -1.0240  0.1595
  668TMC3    C8 9945   1.325   3.019  14.782 -0.2739  0.5154 -0.1816
  668TMC3    O1 9946   0.851   2.959  14.800 -0.6801 -0.2126  0.0949
  668TMC3    O2 9947   1.290   3.024  14.898  0.0555 -0.2956 -0.2614
  669TMC3    C1 9948   3.713   3.011  15.004 -0.6389 -0.4554  0.2084
  669TMC3    C2 9949   3.624   3.044  14.906 -0.3217  0.9932  0.0296
  669TMC3    C3 9950   3.644   3.163  14.845  0.1807 -0.1606  0.4913
  669TMC3    C4 9951   3.809   3.098  15.053  0.2935  0.1589 -0.3143
  669TMC3    C5 9952   3.825   3.216  14.990 -0.6164  0.2108  0.0406
  669TMC3    C6 9953   3.737   3.258  14.889 -0.2173  0.4989  0.4414
  669TMC3     C 9954   3.687   2.884  15.066  0.7128 -0.5335 -0.5046
  669TMC3     O 9955   3.571   2.851  15.071 -0.3989  0.2798  0.4467
  669TMC3     H 9956   3.569   2.965  14.855  0.2678 -0.2687  1.3572
  669TMC3    H1 9957   3.870   3.066  15.137  0.0353  1.0417  0.2045
  669TMC3    H2 9958   3.760   3.346  14.831  1.8500  1.2601  2.4002
  669TMC3    C7 9959   3.954   3.295  14.994  0.2129 -0.1188 -0.2825
  669TMC3    C8 9960   3.602   3.171  14.702  0.2329 -0.4506 -0.3441
  669TMC3    O1 9961   3.965   3.394  14.920  0.0074  0.9497 -0.3278
  669TMC3    O2 9962   3.563   3.071  14.643  0.4093  0.0793 -0.1034
  670MPD2     C 9963   1.906   0.588  13.287 -0.0994 -0.3219 -0.1803
  670MPD2    C1 9964   2.009   0.610  13.376 -0.7060 -0.5760  0.4086
  670MPD2    C2 9965   1.982   0.639  13.505 -0.3473 -0.0438  0.1952
  670MPD2    C3 9966   1.856   0.644  13.560  0.2574  0.4208  0.2317
  670MPD2    C4 9967   1.753   0.631  13.464  0.0994 -1.1267 -0.4694
  670MPD2    C5 9968   1.780   0.613  13.328  0.0812  0.5123  0.0333
  670MPD2     H 9969   2.063   0.657  13.576  0.4442 -0.8099 -0.5204
  670MPD2    H1 9970   1.649   0.638  13.495  0.3325 -0.8724  0.2514
  670MPD2    H2 9971   1.924   0.576  13.181  2.5216 -1.4919  0.3946
  670MPD2    H3 9972   1.694   0.618  13.262  0.6533 -1.8617 -0.8954
  670MPD2     N 9973   1.849   0.673  13.690  0.0703  0.2183  0.8525
  670MPD2    H5 9974   1.935   0.683  13.744  0.8556  0.0906 -0.3791
  670MPD2    N1 9975   2.149   0.594  13.340 -0.1466  0.0363  0.2571
  670MPD2    H7 9976   2.206   0.615  13.422  0.4806  0.8307 -0.3814
  671TMC3    C1 9977   1.754   0.705  13.903  0.8548  0.3279 -0.1499
  671TMC3    C2 9978   1.876   0.747  13.935  0.6307  0.3650 -0.3756
  671TMC3    C3 9979   1.900   0.763  14.063  0.9697 -0.0516 -0.4913
  671TMC3    C4 9980   1.661   0.651  13.987 -0.0030 -0.1504 -0.4114
  671TMC3    C5 9981   1.699   0.661  14.119  0.2048  0.0551  0.2031
  671TMC3    C6 9982   1.816   0.717  14.158  0.5175 -0.0115 -0.2538
  671TMC3     C 9983   1.732   0.680  13.764  0.6312 -0.3986  0.3769
  671TMC3     O 9984   1.623   0.636  13.731 -0.1851 -0.4362 -0.1961
  671TMC3     H 9985   1.904   0.827  13.867 -0.5160 -1.2015 -2.6701
  671TMC3    H1 9986   1.567   0.606  13.956 -1.1743  1.3953  0.8571
  671TMC3    H2 9987   1.851   0.704  14.260  0.9491 -0.7659 -0.5001
  671TMC3    C7 9988   1.616   0.595  14.217 -0.0018 -0.1074 -0.0689
  671TMC3    C8 9989   2.043   0.773  14.082  0.2014 -0.4348  0.2183
  671TMC3    O1 9990   1.633   0.618  14.335 -0.4900  0.7047 -0.9208
  671TMC3    O2 9991   2.114   0.821  13.996 -0.2428  0.4411  0.4364
  672MPD2     C 9992   2.230   1.432   0.774  0.2473  0.1566  0.2971
  672MPD2    C1 9993   2.352   1.375   0.758 -0.7801 -0.4784 -0.4680
  672MPD2    C2 9994   2.466   1.456   0.771 -0.5681 -0.2436 -0.0804
  672MPD2    C3 9995   2.448   1.592   0.797  0.1515 -0.3276  0.4782
  672MPD2    C4 9996   2.324   1.647   0.797 -0.2469  0.3125  0.0849
  672MPD2    C5 9997   2.214   1.564   0.790  0.2121  0.5015  0.0324
  672MPD2     H 9998   2.566   1.416   0.755 -0.3207  0.0250  0.7994
  672MPD2    H1 9999   2.313   1.753   0.815  1.5708  0.4806  0.2054
  672MPD2    H210000   2.141   1.372   0.790 -0.5350  0.0149 -4.5022
  672MPD2    H310001   2.112   1.601   0.799 -0.3188 -0.7338 -0.9093
  672MPD2     N10002   2.554   1.682   0.808  0.1482  0.1488 -0.4537
  672MPD2    H510003   2.529   1.778   0.826 -0.9783 -0.2468  0.1004
  672MPD2    N110004   2.368   1.233   0.730  0.9701 -0.1027 -0.1151
  672MPD2    H710005   2.463   1.200   0.722  2.0450  3.0146  0.0241
  673TMC3    C110006   2.308   1.022   0.662  0.0972  0.4262  0.0987
  673TMC3    C210007   2.430   0.974   0.699  0.1100 -0.2168 -1.0649
  673TMC3    C310008   2.483   0.887   0.617  0.1903  0.1402  0.3117
  673TMC3    C410009   2.235   0.974   0.554 -0.2703  0.4915  0.5314
  673TMC3    C510010   2.290   0.878   0.471 -0.5512  0.1002  0.5322
  673TMC3    C610011   2.414   0.834   0.502 -0.4832 -0.4342  0.4979
  673TMC3     C10012   2.265   1.149   0.703  0.5686  0.6225 -0.0853
  673TMC3     O10013   2.142   1.166   0.696 -0.4841 -0.5399 -0.5771
  673TMC3     H10014   2.452   0.993   0.803 -0.7112  0.0876 -0.9468
  673TMC3    H110015   2.144   1.024   0.526 -0.0996 -0.2717 -1.3864
  673TMC3    H210016   2.447   0.749   0.444  0.3860  0.5785 -0.4871
  673TMC3    C710017   2.248   0.868   0.330  0.4083  0.2189  0.1729
  673TMC3    C810018   2.598   0.805   0.646 -0.2724 -0.2352  0.2875
  673TMC3    O110019   2.320   0.803   0.253 -0.0103  0.0442  0.2523
  673TMC3    O210020   2.625   0.707   0.579 -0.0967  0.2285 -0.1130
  674MPD2     C10021   2.206   0.890  17.471  0.2271  0.0838  0.0754
  674MPD2    C110022   2.110   0.799  17.515  0.2458 -0.1161 -0.0012
  674MPD2    C210023   1.981   0.837  17.521 -0.2882 -0.5401  0.4150
  674MPD2    C310024   1.946   0.966  17.501 -0.0228 -0.1194  0.3991
  674MPD2    C410025   2.040   1.057  17.454 -0.0898  0.0640  0.6451
  674MPD2    C510026   2.166   1.014  17.423  0.0973 -0.2237  0.1916
  674MPD2     H10027   1.907   0.770  17.564  0.7832 -0.7678  1.9281
  674MPD2    H110028   2.019   1.159  17.425  1.8199 -0.0058 -1.0239
  674MPD2    H210029   2.309   0.857  17.464 -0.2662 -1.4995  0.2581
  674MPD2    H310030   2.248   1.076  17.388 -0.6050  0.9955  0.6890
  674MPD2     N10031   1.826   1.006  17.565  0.2984  0.1728 -0.3313
  674MPD2    H510032   1.776   0.932  17.612 -2.5380  0.7520 -2.4622
  674MPD2    N110033   2.143   0.672  17.567 -0.8858  0.0050  0.1249
  674MPD2    H710034   2.064   0.626  17.610 -1.7680  0.7699 -0.6829
  675TMC3    C110035   2.284   0.521  17.698  0.0197  0.3891  0.5138
  675TMC3    C210036   2.195   0.524   0.040  0.1447 -0.5311 -0.4725
  675TMC3    C310037   2.239   0.488   0.165  0.4991 -0.9117 -0.6952
  675TMC3    C410038   2.411   0.484  17.728 -0.1165  0.0382  0.3348
  675TMC3    C510039   2.457   0.456   0.092  0.1680 -0.5629  0.4627
  675TMC3    C610040   2.363   0.458   0.196  0.1945  0.5848  0.1354
  675TMC3     C10041   2.271   0.625  17.588 -0.3018  0.9170 -0.4103
  675TMC3     O10042   2.375   0.666  17.541  0.5576  0.0957  0.3712
  675TMC3     H10043   2.094   0.565   0.041  0.3965  0.0963 -0.6343
  675TMC3    H110044   2.479   0.485  17.643  0.7248  0.8384  1.0164
  675TMC3    H210045   2.383   0.392   0.280 -0.2874  0.1759 -0.0734
  675TMC3    C710046   2.578   0.376   0.121 -0.4612  0.2147  0.1009
  675TMC3    C810047   2.134   0.501   0.275  0.6792  0.1039  1.0188
  675TMC3    O110048   2.629   0.318   0.030  0.6449 -0.0957 -0.5132
  675TMC3    O210049   2.013   0.491   0.249  0.0330  0.2663  0.9080
  676MPD2     C10050   0.365   4.611  11.126 -0.2006 -0.4466 -0.6548
  676MPD2    C110051   0.242   4.570  11.151 -0.1144  0.1784  0.2409
  676MPD2    C210052   0.174   4.496  11.061  0.6863  0.8339  0.2860
  676MPD2    C310053   0.234   4.464  10.944  0.1967 -0.1188 -0.2916
  676MPD2    C410054   0.360   4.506  10.917 -0.8707  0.0331 -0.3778
  676MPD2    C510055   0.417   4.587  11.002 -0.2330  0.1107 -0.6116
  676MPD2     H10056   0.077   4.457  11.091  1.3390 -1.9878 -1.2633
  676MPD2    H110057   0.402   4.480  10.820  1.4396 -1.0511  0.9067
  676MPD2    H210058   0.422   4.671  11.195 -0.7308 -3.8216  2.7504
  676MPD2    H310059   0.519   4.619  10.982  0.5789 -1.5182  0.8555
  676MPD2     N10060   0.175   4.386  10.839 -0.3851 -0.0039 -0.1905
  676MPD2    H510061   0.230   4.382  10.754  1.0875 -2.4455  0.8749
  676MPD2    N110062   0.178   4.601  11.272 -0.2939 -0.2630  0.3126
  676MPD2    H710063   0.082   4.568  11.281 -0.3401 -0.3731 -0.6021
  677TMC3    C110064   0.119   4.695  11.478 -0.9510 -0.4383  0.2748
  677TMC3    C210065   0.011   4.612  11.489 -0.2161 -0.0196 -0.0138
  677TMC3    C310066   4.670   4.639  11.592 -0.0995 -0.4754  0.2161
  677TMC3    C410067   0.147   0.042  11.575 -0.5549  0.5078 -0.0024
  677TMC3    C510068   0.057   0.062  11.678  0.8735  0.2712  0.3663
  677TMC3    C610069   4.683   4.735  11.692 -0.4647  0.2725 -0.2447
  677TMC3     C10070   0.228   4.669  11.382  0.5160  0.6546 -0.4625
  677TMC3     O10071   0.345   4.707  11.399 -0.3972 -0.0939 -0.0249
  677TMC3     H10072   4.729   4.531  11.421 -0.0228 -0.6569  0.6721
  677TMC3    H110073   0.241   0.096  11.579 -0.0541 -0.2908 -0.9403
  677TMC3    H210074   4.616   0.005  11.776  0.4191  0.6971  0.4030
  677TMC3    C710075   0.112   0.116  11.798 -0.4000 -0.0403  0.5841
  677TMC3    C810076   4.557   4.549  11.606 -0.2831 -1.3774  0.5253
  677TMC3    O110077   0.060   0.075  11.899 -0.0874  0.2164 -0.9282
  677TMC3    O210078   4.481   4.554  11.507  0.1101 -0.1697 -0.1528
  678MPD2     C10079   1.244   4.130   1.212 -0.4993 -1.1976  0.7358
  678MPD2    C110080   1.253   4.041   1.111 -0.9874  0.3241 -0.1407
  678MPD2    C210081   1.154   3.952   1.092 -0.3023  0.3463 -0.0324
  678MPD2    C310082   1.036   3.955   1.172  0.2359  0.3891  0.4911
  678MPD2    C410083   1.023   4.057   1.267  0.1781 -0.1677  0.9433
  678MPD2    C510084   1.127   4.145   1.287  0.0745  0.0052  0.3659
  678MPD2     H10085   1.157   3.883   1.009 -0.4116  0.2189  0.0682
  678MPD2    H110086   0.934   4.069   1.327 -0.6069 -0.5329 -0.1534
  678MPD2    H210087   1.323   4.189   1.258 -0.4649 -0.7499  0.0991
  678MPD2    H310088   1.118   4.221   1.363  0.4095  0.5482 -0.1408
  678MPD2     N10089   0.936   3.862   1.141 -0.0730 -0.9189  0.2301
  678MPD2    H510090   0.960   3.797   1.067  1.5766  0.0637 -0.1158
  678MPD2    N110091   1.366   4.025   1.029 -0.2079 -0.4864  0.2199
  678MPD2    H710092   1.371   3.942   0.971  2.7076  2.0164 -3.0615
  679TMC3    C110093   1.731   3.965   0.834  0.2695 -0.8731 -0.2701
  679TMC3    C210094   1.620   3.973   0.911 -0.8418  0.6140  0.3074
  679TMC3    C310095   1.556   4.086   0.914 -0.2066 -0.1047 -0.2336
  679TMC3    C410096   1.768   4.072   0.757  0.2788  0.6034 -0.6001
  679TMC3    C510097   1.707   4.192   0.782 -0.5321 -0.0499 -0.6773
  679TMC3    C610098   1.584   4.198   0.842  0.1099 -0.2467  0.2207
  679TMC3     C10099   1.790   3.835   0.804  0.1793 -0.2856 -0.6852
  679TMC3     O10100   1.879   3.836   0.716  0.3917 -0.0300 -0.1185
  679TMC3     H10101   1.580   3.879   0.949  1.9573 -1.0891 -0.9220
  679TMC3    H110102   1.854   4.060   0.693 -0.7016 -0.6316 -1.6901
  679TMC3    H210103   1.531   4.292   0.858 -1.0238 -0.8175 -0.1982
  679TMC3    C710104   1.744   4.302   0.694 -0.7958  0.6352 -0.6845
  679TMC3    C810105   1.478   4.112   1.029 -0.0196 -0.5172 -0.8406
  679TMC3    O110106   1.656   4.385   0.661  0.1130  0.0568  0.5035
  679TMC3    O210107   1.503   4.210   1.099  0.0370 -0.2064  0.5049
  680MPD2     C10108   1.607   2.816  13.512  0.4716 -0.2439 -0.0475
  680MPD2    C110109   1.713   2.749  13.565 -0.0161  0.5077  0.0479
  680MPD2    C210110   1.784   2.804  13.671 -0.3687 -0.4228 -0.4923
  680MPD2    C310111   1.755   2.930  13.716 -0.1788  1.5205 -0.2628
  680MPD2    C410112   1.650   3.001  13.668  0.0577  0.0181  0.2328
  680MPD2    C510113   1.581   2.941  13.564  0.2877 -0.4654 -0.3512
  680MPD2     H10114   1.865   2.738  13.701  0.8505  2.1525  1.8542
  680MPD2    H110115   1.625   3.098  13.710 -0.1700 -0.5630  1.4316
  680MPD2    H210116   1.547   2.771  13.433 -1.5771  1.8436  0.3238
  680MPD2    H310117   1.501   3.004  13.526  1.2315  1.3148  0.6047
  680MPD2     N10118   1.838   2.997  13.812  0.6141  0.1928  0.3575
  680MPD2    H510119   1.835   3.097  13.827  1.0608  0.2941 -0.2585
  680MPD2    N110120   1.756   2.621  13.522  0.5744 -0.9854  0.4887
  680MPD2    H710121   1.826   2.574  13.579  3.6635  0.8350 -1.7837
  681TMC3    C110122   1.772   2.413  13.425  0.6303 -0.1027  0.6786
  681TMC3    C210123   1.789   2.355  13.545 -0.0745 -0.2144 -0.8989
  681TMC3    C310124   1.871   2.241  13.543  0.0920 -0.2076  0.4200
  681TMC3    C410125   1.829   2.374  13.304 -0.0538 -0.1779 -0.0869
  681TMC3    C510126   1.911   2.263  13.309 -0.2020 -0.3532  0.5222
  681TMC3    C610127   1.920   2.185  13.422 -0.4907 -0.0234 -0.4947
  681TMC3     C10128   1.702   2.538  13.423  0.3019  0.2412  0.3644
  681TMC3     O10129   1.634   2.556  13.325 -0.1297 -0.0211  0.3153
  681TMC3     H10130   1.722   2.379  13.626 -1.5045 -2.2400 -1.4770
  681TMC3    H110131   1.819   2.438  13.217  0.4375 -1.4952 -1.1159
  681TMC3    H210132   1.980   2.095  13.430 -0.4745  0.0417  0.1807
  681TMC3    C710133   2.037   2.273  13.259 -1.6487  1.2280  0.9499
  681TMC3    C810134   1.881   2.173  13.667  0.5232  0.2071  0.9466
  681TMC3    O110135   2.129   2.237  13.331  0.3492  0.6396  0.4268
  681TMC3    O210136   1.888   2.050  13.657 -0.5478  0.5084  0.1740
  682MPD2     C10137   2.900   4.420  10.799 -0.2299  0.3500 -0.7107
  682MPD2    C110138   2.856   4.294  10.832  0.9004  0.6980  0.0012
  682MPD2    C210139   2.831   4.261  10.969 -0.5986  0.3504  0.4938
  682MPD2    C310140   2.854   4.345  11.076 -0.1821 -0.5532 -0.3664
  682MPD2    C410141   2.916   4.467  11.043  0.3521 -0.6158 -0.8874
  682MPD2    C510142   2.931   4.498  10.909  0.3843  0.6754 -0.3708
  682MPD2     H10143   2.787   4.164  10.986 -0.4027  0.1894  0.0750
  682MPD2    H110144   2.948   4.534  11.122 -1.8867 -0.9593  0.3025
  682MPD2    H210145   2.925   4.448  10.698  1.2068 -1.4561 -0.8510
  682MPD2    H310146   2.962   4.598  10.879  0.5322  0.1397 -2.0174
  682MPD2     N10147   2.845   4.308  11.215  0.0530 -0.6337 -0.3057
  682MPD2    H510148   2.899   4.354  11.288  0.3279 -0.8723 -0.3572
  682MPD2    N110149   2.836   4.190  10.733  0.2345  0.2074  0.0051
  682MPD2    H710150   2.795   4.107  10.774 -0.5337  0.5481 -0.0842
  683TMC3    C110151   2.974   4.103  11.519  0.2438  0.0436  0.2921
  683TMC3    C210152   2.955   3.971  11.507 -0.6162 -0.4437  0.6140
  683TMC3    C310153   2.843   3.929  11.443  0.0532  0.2905  0.2892
  683TMC3    C410154   2.902   4.191  11.438  0.3981  0.5298 -0.2170
  683TMC3    C510155   2.791   4.145  11.374  0.4499 -0.3518  0.2939
  683TMC3    C610156   2.759   4.013  11.376  0.2493 -1.2797  0.7668
  683TMC3     C10157   3.055   4.160  11.630  0.5631 -0.1542  0.3707
  683TMC3     O10158   3.096   4.275  11.613  0.3911 -0.6277  0.1951
  683TMC3     H10159   3.018   3.896  11.554 -1.3206 -0.1357  2.0702
  683TMC3    H110160   2.912   4.295  11.465 -2.6330  0.7299  0.2002
  683TMC3    H210161   2.672   3.978  11.322 -1.2036  0.4267  2.0031
  683TMC3    C710162   2.760   4.210  11.255 -0.8411  0.0422 -0.0921
  683TMC3    C810163   2.840   3.791  11.397  0.0530 -0.0801 -0.6103
  683TMC3    O110164   2.667   4.160  11.189 -0.2354  0.0651  0.5947
  683TMC3    O210165   2.740   3.758  11.334  0.0710 -0.0145  0.5070
  684MPD2     C10166   2.222   2.981  16.148  0.1441  0.5862  0.2752
  684MPD2    C110167   2.121   3.038  16.080 -0.3334 -0.4734 -0.0629
  684MPD2    C210168   2.012   3.104  16.135 -0.8252  0.4079 -0.2811
  684MPD2    C310169   2.013   3.111  16.270  0.1733 -0.1008 -0.1582
  684MPD2    C410170   2.107   3.033  16.338 -0.2242  0.3403 -0.2398
  684MPD2    C510171   2.211   2.967  16.280  0.0794 -0.0293  0.3988
  684MPD2     H10172   1.944   3.157  16.070  0.4010  2.8303  0.4078
  684MPD2    H110173   2.117   3.048  16.445  0.2952  0.8128 -0.3531
  684MPD2    H210174   2.297   2.919  16.100  0.8005  0.8014  1.0169
  684MPD2    H310175   2.287   2.918  16.339 -0.7689 -0.1028  1.4411
  684MPD2     N10176   1.922   3.203  16.337 -0.7055  0.0968  0.3810
  684MPD2    H510177   1.930   3.222  16.436  2.6647 -0.5477  0.2315
  684MPD2    N110178   2.142   3.062  15.941 -0.1793 -0.8079 -0.1239
  684MPD2    H710179   2.069   3.119  15.900 -1.7111 -2.9449 -0.3945
  685TMC3    C110180   2.279   3.155  15.778 -0.0575 -0.0336 -0.0474
  685TMC3    C210181   2.172   3.211  15.717 -0.3198 -0.2857  0.1177
  685TMC3    C310182   2.180   3.342  15.680 -0.1338  0.2614 -0.2627
  685TMC3    C410183   2.388   3.225  15.820  0.4263 -0.2975 -0.1202
  685TMC3    C510184   2.383   3.360  15.799  0.1256 -0.2897  0.5646
  685TMC3    C610185   2.290   3.419  15.718 -0.4124  0.6309 -0.2054
  685TMC3     C10186   2.262   3.039  15.866 -0.5429 -0.7102 -0.1904
  685TMC3     O10187   2.363   2.976  15.894 -0.4874 -0.5710  0.1319
  685TMC3     H10188   2.089   3.152  15.679 -0.0870 -0.2184 -0.4979
  685TMC3    H110189   2.472   3.187  15.877 -1.6244 -1.8036  1.9107
  685TMC3    H210190   2.299   3.521  15.685  1.7921  0.1840 -0.9883
  685TMC3    C710191   2.476   3.448  15.869  0.1370 -0.7608  0.4708
  685TMC3    C810192   2.075   3.415  15.609 -0.6595 -0.8190  0.0668
  685TMC3    O110193   2.478   3.565  15.845  0.7252 -0.3051 -0.6095
  685TMC3    O210194   2.102   3.525  15.557  0.0481  0.0442  0.4840
  686MPD2     C10195   3.031   3.668  15.808 -0.5658 -0.5451 -1.1840
  686MPD2    C110196   3.129   3.572  15.823  0.4836 -0.1603 -1.0796
  686MPD2    C210197   3.239   3.568  15.745 -0.5379  0.3645  0.0436
  686MPD2    C310198   3.257   3.662  15.648  0.0285 -0.2711 -0.8005
  686MPD2    C410199   3.160   3.759  15.631  0.2601 -0.8047  0.2698
  686MPD2    C510200   3.045   3.760  15.707 -0.8406  0.1071  0.0611
  686MPD2     H10201   3.313   3.489  15.760  1.1646  1.6212 -1.6945
  686MPD2    H110202   3.167   3.842  15.563 -1.6280 -1.2131 -0.4357
  686MPD2    H210203   2.947   3.683  15.875 -0.1611 -1.5109 -0.4658
  686MPD2    H310204   2.977   3.842  15.687 -1.9623 -0.8386 -0.0033
  686MPD2     N10205   3.368   3.680  15.564  0.2337  0.0026  0.1864
  686MPD2    H510206   3.387   3.778  15.543 -0.1269  0.1784  0.6791
  686MPD2    N110207   3.103   3.466  15.914 -0.1017  0.0143  0.6649
  686MPD2    H710208   3.012   3.469  15.960 -0.1692  1.4661  0.4317
  687TMC3    C110209   3.432   3.452  15.543  0.5290  0.9391  0.2513
  687TMC3    C210210   3.313   3.407  15.510  0.0877  0.1560 -0.3980
  687TMC3    C310211   3.270   3.285  15.547  0.0262  0.2218 -0.1956
  687TMC3    C410212   3.518   3.362  15.606 -0.6839  0.3566  0.3823
  687TMC3    C510213   3.481   3.239  15.640  0.3961  0.0055  0.0661
  687TMC3    C610214   3.358   3.193  15.608 -0.9174 -0.5110  0.4393
  687TMC3     C10215   3.467   3.591  15.544  0.5585 -0.6013 -0.4088
  687TMC3     O10216   3.587   3.619  15.525 -0.0914 -0.4443  0.1752
  687TMC3     H10217   3.263   3.478  15.446 -0.4142  1.1717  1.1284
  687TMC3    H110218   3.619   3.396  15.624  0.3102 -0.9506 -2.5956
  687TMC3    H210219   3.323   3.093  15.634 -0.4599 -1.4989 -2.7450
  687TMC3    C710220   3.551   3.177  15.755  0.0621  0.3826  0.1467
  687TMC3    C810221   3.130   3.268  15.580 -0.0073 -0.4394 -0.7147
  687TMC3    O110222   3.652   3.240  15.783 -0.3429  0.3021 -0.1477
  687TMC3    O210223   3.092   3.157  15.613 -0.2744 -0.2675  0.0607
  688MPD2     C10224   2.763   2.162  17.208 -0.3007  0.2707  0.1414
  688MPD2    C110225   2.806   2.068  17.300 -0.3182  0.0104  0.2546
  688MPD2    C210226   2.936   2.020  17.300  0.5686  0.2287 -0.3741
  688MPD2    C310227   3.025   2.069  17.204 -0.1363  0.4586 -0.0935
  688MPD2    C410228   2.978   2.166  17.115  0.3421  0.1263 -0.4870
  688MPD2    C510229   2.846   2.206  17.113 -0.0500 -0.2342  0.4184
  688MPD2     H10230   2.969   1.944  17.370  1.1500  2.0612  1.3601
  688MPD2    H110231   3.049   2.195  17.038 -1.3647  0.5260 -1.9394
  688MPD2    H210232   2.664   2.205  17.214 -0.5345 -0.0268 -1.6376
  688MPD2    H310233   2.806   2.273  17.038  0.7068  0.4863  0.6438
  688MPD2     N10234   3.156   2.020  17.187 -0.4819  0.8258 -0.2342
  688MPD2    H510235   3.210   2.054  17.108 -0.4314 -0.5915 -0.8196
  688MPD2    N110236   2.718   2.008  17.396  0.4968 -0.0445  0.5368
  688MPD2    H710237   2.759   1.951  17.468  1.8403  0.5884  0.2798
  689TMC3    C110238   2.531   1.980  17.528  0.2423 -0.8078 -0.3478
  689TMC3    C210239   2.458   2.062  17.608 -0.4804 -0.4662 -0.6212
  689TMC3    C310240   2.422   2.010  17.727 -0.4467  0.5885  0.1019
  689TMC3    C410241   2.570   1.853  17.569  0.0044  0.5257  0.5463
  689TMC3    C510242   2.538   1.814  17.694  0.1768 -0.2481 -0.5153
  689TMC3    C610243   2.461   1.891   0.017 -0.4500  0.0095  0.2780
  689TMC3     C10244   2.587   2.039  17.416 -0.2587 -0.2298  0.0524
  689TMC3     O10245   2.518   2.121  17.357  0.0509  0.2782  0.2360
  689TMC3     H10246   2.416   2.155  17.572 -0.2754 -0.2026 -0.1717
  689TMC3    H110247   2.624   1.787  17.502 -0.5052 -2.0427  2.6716
  689TMC3    H210248   2.427   1.857   0.113 -2.5454 -1.7342 -1.0960
  689TMC3    C710249   2.536   1.675  17.726  0.0372  0.5891  0.4041
  689TMC3    C810250   2.358   2.100   0.058  0.3149  0.0025  0.4870
  689TMC3    O110251   2.524   1.646   0.082 -0.6334  0.2206  0.4361
  689TMC3    O210252   2.379   2.220   0.044  0.1657  0.5632 -0.0042
  690MPD2     C10253   0.287   3.920  15.837 -0.0407 -0.3169 -0.0549
  690MPD2    C110254   0.214   3.906  15.722 -0.1156 -0.7843 -0.1558
  690MPD2    C210255   0.263   3.974  15.610  0.1390 -0.1484  0.4727
  690MPD2    C310256   0.391   4.020  15.610  0.1106 -0.3280 -0.1075
  690MPD2    C410257   0.461   4.029  15.729  0.2040 -0.5684  0.1175
  690MPD2    C510258   0.407   3.988  15.844 -0.2522  0.8266  0.6142
  690MPD2     H10259   0.200   3.955  15.524 -0.8486 -0.0964  1.1794
  690MPD2    H110260   0.536   4.106  15.737 -0.4289  0.4007 -3.0338
  690MPD2    H210261   0.258   3.868  15.928  0.2842  0.7893  0.6805
  690MPD2    H310262   0.458   3.997  15.940  1.3849 -0.5902 -0.1277
  690MPD2     N10263   0.438   4.078  15.493 -0.2057 -0.1758 -0.4078
  690MPD2    H510264   0.365   4.092  15.424 -1.5841 -0.2137  1.0374
  690MPD2    N110265   0.096   3.834  15.717  0.4148  0.2819  0.1324
  690MPD2    H710266   0.040   3.850  15.634  1.0610  0.5352 -0.2575
  691TMC3    C110267   4.678   3.674  15.767 -0.4698  0.3235  0.3917
  691TMC3    C210268   4.569   3.739  15.722 -0.4072  0.2554  0.0751
  691TMC3    C310269   4.457   3.665  15.675 -0.0409 -0.4296 -0.0916
  691TMC3    C410270   4.690   3.538  15.770  0.4541  0.5356 -0.6467
  691TMC3    C510271   4.577   3.469  15.737 -0.5344 -0.1142  0.1706
  691TMC3    C610272   4.463   3.530  15.689  0.6371  0.3326 -0.1403
  691TMC3     C10273   0.050   3.751  15.816  0.0063  0.3092 -0.3150
  691TMC3     O10274   0.100   3.703  15.920  0.1516 -0.1692  0.3203
  691TMC3     H10275   4.577   3.847  15.713 -0.4889  0.2840  0.3619
  691TMC3    H110276   0.042   3.495  15.804  0.4303 -0.3581 -1.6973
  691TMC3    H210277   4.379   3.472  15.652  2.0296 -2.4938  1.1134
  691TMC3    C710278   4.577   3.330  15.769  0.7070  0.2012 -0.6465
  691TMC3    C810279   4.333   3.725  15.634 -0.8502  0.0540 -0.1127
  691TMC3    O110280   4.680   3.265  15.747  0.0013  0.4693  0.3932
  691TMC3    O210281   4.252   3.641  15.611  0.1415  0.1777 -0.3035
  692TMC3    C110282   1.629   4.658  15.734  0.1154  0.6697  0.3202
  692TMC3    C210283   1.746   4.683  15.804  0.2040  0.6860 -1.2742
  692TMC3    C310284   1.812   4.584  15.868 -0.0289 -0.5892  0.4547
  692TMC3    C410285   1.581   4.530  15.724 -0.2078 -0.8139  0.5069
  692TMC3    C510286   1.652   4.435  15.793 -0.0097 -0.6330 -0.9452
  692TMC3    C610287   1.757   4.458  15.873  0.3576 -0.4370 -1.5356
  692TMC3     C10288   1.527   0.018  15.728 -0.2622 -0.0664 -0.5217
  692TMC3     O10289   1.417   4.719  15.696  0.0545  0.3807 -0.1547
  692TMC3     H10290   1.789   0.038  15.782 -0.4539  0.8899 -1.6536
  692TMC3    H110291   1.491   4.507  15.667  2.0661 -0.7474 -3.1261
  692TMC3    H210292   1.821   4.374  15.897 -0.5843 -0.1851  1.8050
  692TMC3    C710293   1.581   4.303  15.789  0.5394 -0.5317 -0.2653
  692TMC3    C810294   1.842   4.624  16.004 -0.2950  0.2601 -0.2296
  692TMC3    O110295   1.476   4.292  15.730  0.8241  0.2095 -0.1653
  692TMC3    O210296   1.842   4.533  16.087 -0.6883  0.0445 -0.0098
  693MPD2     C10297   0.676   3.816  10.988 -0.1943 -0.3116 -0.0166
  693MPD2    C110298   0.645   3.702  11.063  0.5176 -0.6849 -0.6739
  693MPD2    C210299   0.741   3.642  11.138  0.0331  0.3176  0.1757
  693MPD2    C310300   0.872   3.687  11.142  0.4632  0.6172  0.7827
  693MPD2    C410301   0.896   3.801  11.073  0.9216  0.1659 -0.7527
  693MPD2    C510302   0.803   3.863  10.998 -0.3545  0.0452 -0.0334
  693MPD2     H10303   0.712   3.552  11.191 -0.7709  0.0147 -0.7783
  693MPD2    H110304   0.996   3.842  11.066  1.1986 -0.1882  1.1192
  693MPD2    H210305   0.604   3.869  10.927 -1.2709 -0.0665  1.4484
  693MPD2    H310306   0.829   3.954  10.944  0.4767 -0.6240 -0.7826
  693MPD2     N10307   0.972   3.631  11.223 -0.5715  0.4208  0.3020
  693MPD2    H510308   1.063   3.674  11.236 -0.8965  0.3293  2.7629
  693MPD2    N110309   0.517   3.648  11.067 -0.0365 -0.1891  0.8281
  693MPD2    H710310   0.505   3.565  11.124  0.7922 -1.6498 -1.1134
  694TMC3    C110311   0.291   3.603  11.022  0.4340  0.1782  0.3630
  694TMC3    C210312   0.222   3.543  10.919  0.2780  0.1388 -0.3585
  694TMC3    C310313   0.113   3.464  10.953 -0.0549  0.0866 -0.4132
  694TMC3    C410314   0.250   3.607  11.148  0.0769 -0.4142  0.3673
  694TMC3    C510315   0.127   3.548  11.173 -0.2776 -0.3469  0.1023
  694TMC3    C610316   0.059   3.482  11.076 -0.8398 -0.3087 -0.1255
  694TMC3     C10317   0.403   3.688  10.994  0.5931 -0.1688  0.4931
  694TMC3     O10318   0.396   3.768  10.902  0.7269  0.9173  0.1341
  694TMC3     H10319   0.258   3.531  10.817  1.5406 -3.1854  0.5009
  694TMC3    H110320   0.317   3.632  11.229  0.9379  0.0284 -0.4759
  694TMC3    H210321   4.710   3.432  11.108 -0.7772 -0.3717 -0.0467
  694TMC3    C710322   0.151   3.458  11.286  0.5673 -0.0849 -0.5488
  694TMC3    C810323   0.074   3.347  10.883  0.1379 -0.4047  0.2180
  694TMC3    O110324   0.147   3.339  11.260  0.2355  0.0583 -0.1791
  694TMC3    O210325   4.728   3.280  10.931 -0.0556 -0.4244  0.0585
  695MPD2     C10326   2.103   4.524  13.876 -0.3611  0.2186  0.2837
  695MPD2    C110327   2.026   4.579  13.981 -0.1033 -0.7989  0.6467
  695MPD2    C210328   1.887   4.579  13.966  0.1349  1.2984 -0.2758
  695MPD2    C310329   1.833   4.535  13.851  0.6933 -0.9002  0.2758
  695MPD2    C410330   1.907   4.480  13.750  0.0673 -0.4731 -0.5523
  695MPD2    C510331   2.039   4.472  13.765  0.3305 -0.0448 -0.2606
  695MPD2     H10332   1.823   4.626  14.039  1.8584  1.4838  1.1294
  695MPD2    H110333   1.866   4.426  13.666 -0.1938  0.1272 -0.8102
  695MPD2    H210334   2.211   4.512  13.884 -0.2902 -0.1388 -1.1931
  695MPD2    H310335   2.103   4.435  13.687 -0.4255 -0.4449 -0.6854
  695MPD2     N10336   1.693   4.544  13.849  0.5631  0.5723  0.7940
  695MPD2    H510337   1.645   4.593  13.924 -2.3767 -0.9405 -0.0873
  695MPD2    N110338   2.086   4.623  14.103  0.2762 -0.2912  0.0799
  695MPD2    H710339   2.027   4.675  14.166  0.4252  0.9265 -0.7802
  696TMC3    C110340   1.483   4.567  13.775  0.4013  0.0572  0.1162
  696TMC3    C210341   1.440   4.593  13.902 -0.0586  0.8226  0.3425
  696TMC3    C310342   1.325   4.666  13.925  0.4861 -0.1267  0.4979
  696TMC3    C410343   1.414   4.605  13.666 -0.3925 -0.4326  1.0236
  696TMC3    C510344   1.299   4.677  13.685 -0.1455 -0.4410  0.1171
  696TMC3    C610345   1.252   4.701  13.813 -0.1422 -0.0380 -0.2062
  696TMC3     C10346   1.614   4.515  13.745 -0.3811  0.5054 -0.3801
  696TMC3     O10347   1.644   4.499  13.628  0.1779 -0.4759  0.5960
  696TMC3     H10348   1.504   4.563  13.984  0.8156 -0.5940 -0.8624
  696TMC3    H110349   1.454   4.600  13.566 -1.5586  2.8975  0.3723
  696TMC3    H210350   1.157   0.005  13.837 -0.1303  0.4148 -1.0187
  696TMC3    C710351   1.282   0.047  13.598  1.0043 -0.3968 -0.2209
  696TMC3    C810352   1.352   0.046  14.005  0.1389  0.2470 -0.5390
  696TMC3    O110353   1.310   0.048  13.477  0.0254 -0.1042  0.1408
  696TMC3    O210354   1.303   0.145  13.958  0.1697  0.6677  0.3684
  697MPD2     C10355   1.513   1.591  15.600  0.9909 -0.0327  0.3228
  697MPD2    C110356   1.461   1.542  15.482 -0.2131  0.3428  0.9506
  697MPD2    C210357   1.438   1.629  15.375 -0.0483 -1.5964 -0.5049
  697MPD2    C310358   1.456   1.766  15.391 -0.2649 -0.2154 -0.0217
  697MPD2    C410359   1.509   1.815  15.510  0.1332  0.1697  0.1715
  697MPD2    C510360   1.539   1.727  15.606  0.7507  0.3281 -0.2770
  697MPD2     H10361   1.410   1.585  15.280  1.1930 -0.5449 -1.3480
  697MPD2    H110362   1.540   1.918  15.523 -2.1065  0.7184  1.0940
  697MPD2    H210363   1.542   1.529  15.684 -0.9800 -0.6272  0.5471
  697MPD2    H310364   1.575   1.763  15.702 -0.3270  2.4909 -0.6666
  697MPD2     N10365   1.411   1.849  15.285  0.0853 -0.7968  0.3728
  697MPD2    H510366   1.359   1.796  15.216  2.1033 -1.3180 -0.7589
  697MPD2    N110367   1.449   1.404  15.453  0.8121 -0.0559 -0.0939
  697MPD2    H710368   1.402   1.384  15.365  0.9639 -3.5304  0.5985
  698TMC3    C110369   1.408   2.039  15.139 -0.1966 -0.6565 -0.3726
  698TMC3    C210370   1.352   2.160  15.136 -0.0810  0.2525  0.9000
  698TMC3    C310371   1.335   2.215  15.015  0.1022  0.4019  0.1219
  698TMC3    C410372   1.454   1.975  15.022  0.1128 -0.7529  1.0954
  698TMC3    C510373   1.438   2.040  14.906  0.1568  1.1260 -0.7169
  698TMC3    C610374   1.383   2.163  14.900  0.5978  0.2348 -0.2242
  698TMC3     C10375   1.447   1.985  15.266  0.0489  0.1279 -0.3616
  698TMC3     O10376   1.506   2.062  15.344  0.3816  0.3243  0.0102
  698TMC3     H10377   1.329   2.229  15.216  2.3110  2.5021 -0.3413
  698TMC3    H110378   1.484   1.871  15.028 -0.4538 -0.7833  3.3967
  698TMC3    H210379   1.358   2.210  14.806 -1.1206 -0.0101  0.1007
  698TMC3    C710380   1.454   1.974  14.777 -0.1474  0.2088  0.5159
  698TMC3    C810381   1.316   2.362  15.019 -0.7632 -0.2103 -0.4328
  698TMC3    O110382   1.384   2.014  14.681 -0.2187 -0.1589  0.1955
  698TMC3    O210383   1.235   2.417  15.092  0.0567  0.2777 -0.1689
  699TMC3    C110384   1.710   4.528  13.263 -0.4189 -0.1431 -0.0681
  699TMC3    C210385   1.773   4.429  13.324 -0.3448 -0.2385 -0.7051
  699TMC3    C310386   1.725   4.303  13.330 -0.0416 -0.3122 -0.3839
  699TMC3    C410387   1.576   4.514  13.232  0.6043  0.0520 -0.1949
  699TMC3    C510388   1.519   4.391  13.260 -0.1774  0.1070  0.1776
  699TMC3    C610389   1.598   4.280  13.282  1.1068  0.7593 -0.7681
  699TMC3     C10390   1.780   4.645  13.214  0.5732  0.1625  0.4929
  699TMC3     O10391   1.702   4.736  13.187  0.4855  0.6797  0.2377
  699TMC3     H10392   1.871   4.455  13.365 -1.1775 -0.9782  1.7721
  699TMC3    H110393   1.515   4.600  13.203 -1.9485 -1.7176 -0.0842
  699TMC3    H210394   1.562   4.179  13.269  1.7292  0.4768 -0.2454
  699TMC3    C710395   1.388   4.403  13.332 -0.1509  0.4996  0.2068
  699TMC3    C810396   1.752   4.221  13.445  0.7521 -0.7571 -0.2277
  699TMC3    O110397   1.304   4.482  13.284 -0.7006  0.4422  0.0813
  699TMC3    O210398   1.651   4.171  13.491 -0.5170  0.0450 -0.3872
  700TMC3    C110399   0.539   2.128  17.134 -0.1684 -1.3394 -0.1116
  700TMC3    C210400   0.614   2.017  17.148  0.3971 -0.4587  0.1161
  700TMC3    C310401   0.686   1.994  17.258  0.9094 -0.1719  0.2912
  700TMC3    C410402   0.538   2.221  17.233  1.1582  0.4626 -0.2357
  700TMC3    C510403   0.608   2.194  17.346 -0.0977  0.4879  0.1201
  700TMC3    C610404   0.680   2.080  17.365  0.5428  0.4149  0.4437
  700TMC3     C10405   0.516   2.184  17.002  0.6454  0.6539  0.2885
  700TMC3     O10406   0.474   2.107  16.913  0.4721 -0.3885 -0.2097
  700TMC3     H10407   0.638   1.961  17.059 -0.1135 -2.5307  1.2841
  700TMC3    H110408   0.471   2.306  17.237  1.0270  0.3385  0.2261
  700TMC3    H210409   0.721   2.071  17.465 -0.5342 -0.4201  0.8050
  700TMC3    C710410   0.634   2.299  17.441  0.5919 -0.2364  0.3375
  700TMC3    C810411   0.811   1.924  17.234  0.4437 -0.2222 -0.0797
  700TMC3    O110412   0.750   2.313  17.477  0.4048  0.1634 -0.1158
  700TMC3    O210413   0.810   1.832  17.154 -0.7088 -0.2775 -0.0351
  701TMC3    C110414   0.689   0.908  15.477 -0.3555  1.1435  0.1501
  701TMC3    C210415   0.643   0.879  15.351  0.2134  0.6882  0.0113
  701TMC3    C310416   0.692   0.966  15.254 -0.9687 -0.1575  0.6790
  701TMC3    C410417   0.782   1.000  15.505  0.5896  0.1645 -0.6667
  701TMC3    C510418   0.823   1.079  15.401 -0.2057  0.1540 -0.0353
  701TMC3    C610419   0.783   1.060  15.275 -0.1098  0.2294 -0.1660
  701TMC3     C10420   0.609   0.857  15.590  0.3313  0.1028  0.6844
  701TMC3     O10421   0.591   0.933  15.683  0.1325  0.4989 -0.0237
  701TMC3     H10422   0.573   0.799  15.326 -0.4512  0.8093  1.4960
  701TMC3    H110423   0.815   1.001  15.608 -0.7470  1.1745 -0.2420
  701TMC3    H210424   0.809   1.115  15.185 -0.3368 -0.2848 -0.5467
  701TMC3    C710425   0.914   1.196  15.413  0.0002  0.2132  0.5114
  701TMC3    C810426   0.690   0.918  15.116  0.5661 -0.0597 -0.3594
  701TMC3    O110427   0.954   1.239  15.308 -0.3961  0.0703 -0.0178
  701TMC3    O210428   0.795   0.928  15.060 -0.7157  0.2255 -0.1999
  702MPD2     C10429   4.736   4.541  10.219  0.4978 -0.4815  0.6098
  702MPD2    C110430   4.713   4.549  10.361  0.0113 -0.3128  0.4403
  702MPD2    C210431   4.698   4.674  10.426  0.0606 -0.2871 -0.4304
  702MPD2    C310432   4.713   0.043  10.351 -0.5082  0.6917 -0.2390
  702MPD2    C410433   4.739   0.036  10.216  0.0697  0.7125  0.7294
  702MPD2    C510434   0.013   4.659  10.152 -0.1790  0.2823 -0.5001
  702MPD2     H10435   4.673   4.679  10.532 -0.3016 -1.9023 -0.4275
  702MPD2    H110436   0.013   0.125  10.156 -1.4804 -0.2795 -1.1735
  702MPD2    H210437   4.720   4.449  10.164  1.0978  0.5691 -1.3585
  702MPD2    H310438   0.025   4.656  10.044  3.0428 -2.7118 -0.0398
  702MPD2     N10439   4.710   0.169  10.420 -0.2364  0.3870  0.4224
  702MPD2    H510440   4.669   0.176  10.512 -2.3567  1.5885 -0.5892
  702MPD2    N110441   4.707   4.428  10.438  0.1821 -0.5142 -0.2605
  702MPD2    H710442   4.682   4.437  10.536  0.5444  3.8558 -0.5904
  703TMC3    C110443   0.043   0.373  10.494  0.1538  0.4660 -0.8234
  703TMC3    C210444   4.665   0.360  10.565 -0.2022 -0.2554 -0.1178
  703TMC3    C310445   4.650   0.325  10.698  0.8496  0.5749  0.7150
  703TMC3    C410446   0.155   0.334  10.564 -0.0643 -0.3446  0.1473
  703TMC3    C510447   0.145   0.291  10.697  0.0482  0.0434 -0.3393
  703TMC3    C610448   0.024   0.286  10.763  1.1061 -0.6220  0.3026
  703TMC3     C10449   0.041   0.283  10.380  0.5139 -0.0715 -0.0655
  703TMC3     O10450   0.136   0.282  10.303  0.2624 -0.4175  0.0579
  703TMC3     H10451   4.573   0.386  10.513 -1.0318 -2.0537  0.4496
  703TMC3    H110452   0.241   0.330  10.499 -0.0703 -0.0473  0.1217
  703TMC3    H210453   0.015   0.241  10.861 -1.9858 -0.8254 -0.0687
  703TMC3    C710454   0.277   0.253  10.749  0.1503  0.5126  0.4831
  703TMC3    C810455   4.533   0.241  10.710 -0.2202 -0.2734  0.5064
  703TMC3    O110456   0.369   0.293  10.678 -0.0204  0.1444  0.4283
  703TMC3    O210457   4.496   0.207  10.599 -0.0557 -0.2123 -0.0658
  704TMC3    C110458   2.208   1.623  12.945  0.7641 -0.7573 -0.8073
  704TMC3    C210459   2.336   1.669  12.927  0.6395  0.1321 -0.2542
  704TMC3    C310460   2.436   1.600  12.982 -0.0667 -1.0773  0.3728
  704TMC3    C410461   2.181   1.517  13.033 -0.2561  0.1235  0.3385
  704TMC3    C510462   2.288   1.446  13.085 -0.3884 -0.2293  0.2577
  704TMC3    C610463   2.415   1.488  13.052  0.1316 -0.2805  0.0059
  704TMC3     C10464   2.099   1.681  12.872  0.4450  0.1261  0.2154
  704TMC3     O10465   1.995   1.683  12.936  0.6185  0.1284 -0.2647
  704TMC3     H10466   2.357   1.762  12.876 -0.0439  1.1163  1.2581
  704TMC3    H110467   2.081   1.476  13.029 -0.5982  1.1386 -1.5260
  704TMC3    H210468   2.504   1.427  13.064 -0.9076 -1.1941  3.1449
  704TMC3    C710469   2.270   1.303  13.120  0.8147 -0.4543  0.7012
  704TMC3    C810470   2.557   1.615  12.899 -0.5005  0.7602  0.2613
  704TMC3    O110471   2.365   1.225  13.114  0.4453 -0.5404  0.5473
  704TMC3    O210472   2.532   1.637  12.780  0.7830  0.0235  1.1558
  705MPD2     C10473   1.782   4.111  16.272  0.2852 -0.6979  0.4419
  705MPD2    C110474   1.790   4.250  16.256  0.1446 -0.1934  0.8094
  705MPD2    C210475   1.682   4.322  16.301 -0.5469 -0.0695  0.0189
  705MPD2    C310476   1.560   4.264  16.330  0.6116 -0.4236 -0.8729
  705MPD2    C410477   1.544   4.129  16.324  0.5218 -0.1573  0.0419
  705MPD2    C510478   1.660   4.056  16.309  0.2211  0.1715 -0.2592
  705MPD2     H10479   1.709   4.427  16.303 -0.5587 -0.0768  0.5645
  705MPD2    H110480   1.451   4.079  16.346 -0.0843  0.0931 -1.9071
  705MPD2    H210481   1.859   4.041  16.238  0.9052  0.0872  0.2283
  705MPD2    H310482   1.651   3.948  16.303 -1.7117  0.4564 -2.5922
  705MPD2     N10483   1.452   4.349  16.359 -0.1402 -0.1064 -0.2557
  705MPD2    H510484   1.360   4.306  16.353 -0.1371 -0.1773  0.2425
  705MPD2    N110485   1.912   4.313  16.226 -0.2772 -0.4491  0.5124
  705MPD2    H710486   1.909   4.414  16.217 -0.8899 -0.3617  1.8016
  706TMC3    C110487   2.337   4.371  16.049  0.4495  0.4039  0.3189
  706TMC3    C210488   2.365   4.473  16.133  0.9251  0.5645 -0.3824
  706TMC3    C310489   2.278   4.507  16.230  0.6291 -0.2611  0.5966
  706TMC3    C410490   2.220   4.309  16.057 -0.5813  0.3862 -0.7947
  706TMC3    C510491   2.120   4.355  16.140  0.5824 -0.1619  0.0084
  706TMC3    C610492   2.158   4.447  16.238  0.5246  0.5319  0.0815
  706TMC3     C10493   2.402   4.366  15.919 -0.1079 -0.1656  0.4207
  706TMC3     O10494   2.338   4.311  15.829 -0.4723 -0.1739  0.3490
  706TMC3     H10495   2.455   4.532  16.123 -0.9297  3.6387  0.7884
  706TMC3    H110496   2.199   4.230  15.986  1.4070 -0.7537 -0.1004
  706TMC3    H210497   2.084   4.481  16.310 -1.3839  1.2663 -2.1945
  706TMC3    C710498   2.026   4.257  16.172 -1.0914 -0.2751 -0.9298
  706TMC3    C810499   2.258   4.649  16.225 -0.0512 -0.0257  0.0930
  706TMC3    O110500   2.052   4.141  16.184 -0.3869 -0.1875 -0.1122
  706TMC3    O210501   2.284   4.704  16.121 -0.2819 -0.2826 -0.3391
  707TMC3    C110502   3.389   3.770   0.352  0.4740  0.5944 -0.0609
  707TMC3    C210503   3.369   3.665   0.427 -0.5657 -0.7043 -0.1533
  707TMC3    C310504   3.241   3.612   0.432 -0.1924 -0.2339 -0.4506
  707TMC3    C410505   3.290   3.835   0.282  0.1447 -0.0428 -1.0715
  707TMC3    C510506   3.171   3.768   0.270 -0.1603 -0.0838  0.0982
  707TMC3    C610507   3.145   3.662   0.350 -0.6835 -0.4856  0.1476
  707TMC3     C10508   3.525   3.815   0.347 -0.6321  0.7231 -0.1420
  707TMC3     O10509   3.614   3.733   0.359 -0.4111  0.0899 -0.5688
  707TMC3     H10510   3.452   3.624   0.484  0.8903 -0.6579 -2.2388
  707TMC3    H110511   3.316   3.910   0.209  2.2724 -1.1714 -1.4755
  707TMC3    H210512   3.049   3.626   0.385 -0.3218  0.7693  2.4434
  707TMC3    C710513   3.077   3.804   0.159 -0.2042 -0.0692 -0.3170
  707TMC3    C810514   3.211   3.482   0.493 -0.5651  0.5012 -0.7455
  707TMC3    O110515   3.072   3.922   0.143  0.2794  0.0867  0.0204
  707TMC3    O210516   3.095   3.441   0.483  0.0360 -0.5656 -0.2893
  708MPD2     C10517   0.555   3.116  13.942  0.6716  0.6856  0.4536
  708MPD2    C110518   0.437   3.088  14.000 -0.3151 -0.0474  0.2856
  708MPD2    C210519   0.436   3.075  14.138 -0.6365 -0.0854 -0.4558
  708MPD2    C310520   0.555   3.088  14.206  0.1007  0.6418  0.1601
  708MPD2    C410521   0.677   3.106  14.145 -0.8606 -0.4115  0.9059
  708MPD2    C510522   0.667   3.125  14.015  0.3768  0.5298  0.0172
  708MPD2     H10523   0.347   3.065  14.198  0.6055 -0.9149  1.2502
  708MPD2    H110524   0.771   3.123  14.196 -0.3914  0.1846 -0.1495
  708MPD2    H210525   0.565   3.099  13.835  2.1503  0.7295  0.5870
  708MPD2    H310526   0.762   3.143  13.965 -0.5039  3.0501 -0.7063
  708MPD2     N10527   0.560   3.067  14.347  0.3551 -0.2883  0.1408
  708MPD2    H510528   0.644   3.093  14.397 -0.1818  0.4175  0.6760
  708MPD2    N110529   0.319   3.065  13.925 -0.0688 -0.0115  0.0206
  708MPD2    H710530   0.328   3.092  13.827 -0.0258  1.4844  0.4457
  709TMC3    C110531   0.095   3.019  13.880 -0.2080  0.6457  0.0042
  709TMC3    C210532   0.106   3.084  13.752 -0.5867 -0.2595 -0.5117
  709TMC3    C310533   0.002   3.167  13.715  1.1010  0.4055 -0.0525
  709TMC3    C410534   4.722   3.026  13.954 -0.9145  0.6293 -0.7460
  709TMC3    C510535   4.623   3.121  13.913  1.0108  0.5076  0.7620
  709TMC3    C610536   4.634   3.193  13.792  0.8738 -0.5124  0.4893
  709TMC3     C10537   0.212   2.992  13.964 -0.0148  0.4556 -0.3806
  709TMC3     O10538   0.197   2.935  14.073  0.0799 -0.1527 -0.0181
  709TMC3     H10539   0.193   3.070  13.689 -0.0657  1.0705 -0.0787
  709TMC3    H110540   4.717   2.974  14.049  2.2705 -1.7726 -1.8932
  709TMC3    H210541   4.566   3.276  13.771  2.4145  0.7332  0.4558
  709TMC3    C710542   4.585   3.195  14.035 -0.0613  0.3440 -0.0127
  709TMC3    C810543   0.010   3.232  13.587  0.0978  0.3402  0.2907
  709TMC3    O110544   4.500   3.284  14.027 -0.0048 -0.3009 -0.1117
  709TMC3    O210545   4.640   3.266  13.547  0.1587 -0.3529 -0.4602
  710TMC3    C110546   1.640   4.741  17.727 -0.3072 -0.0574  0.8329
  710TMC3    C210547   1.740   0.022  17.637 -0.1183 -0.2659  0.8391
  710TMC3    C310548   1.865   0.000  17.684 -0.8329 -0.7139 -0.0580
  710TMC3    C410549   1.660   4.700   0.094 -0.4088 -0.1239  0.0125
  710TMC3    C510550   1.783   4.675   0.134  0.1260  0.3420 -0.0913
  710TMC3    C610551   1.889   4.701   0.050  0.4903 -0.1477  0.5013
  710TMC3     C10552   1.509   0.003  17.683  0.0329  0.5828  0.0275
  710TMC3     O10553   1.496   4.732  17.563  0.1590 -0.1695  0.3309
  710TMC3     H10554   1.718   0.051  17.535 -2.6838 -2.0719  0.8624
  710TMC3    H110555   1.586   4.687   0.172 -0.6278  1.6320  0.0879
  710TMC3    H210556   1.990   4.689   0.086  1.0571 -0.2327 -1.1312
  710TMC3    C710557   1.796   4.607   0.266  0.3338  0.3074  0.8354
  710TMC3    C810558   1.954   4.676  17.585 -0.4536  0.1469  0.5772
  710TMC3    O110559   1.695   4.569   0.331  0.0446  0.4487 -0.0016
  710TMC3    O210560   1.912   4.700  17.474  0.0549  0.6035 -0.2769
  711TMC3    C110561   1.295   0.417  15.106 -0.1038 -0.3843 -0.2168
  711TMC3    C210562   1.328   0.527  15.182 -0.5058 -0.2696  0.2165
  711TMC3    C310563   1.393   0.508  15.298  0.1578  0.5820  0.1194
  711TMC3    C410564   1.320   0.286  15.159 -0.7784  1.1361 -0.0920
  711TMC3    C510565   1.380   0.271  15.281 -0.0171  0.2145  0.8555
  711TMC3    C610566   1.424   0.382  15.352  0.1478 -0.2475  0.4990
  711TMC3     C10567   1.209   0.421  14.988 -0.2674  0.4476  0.2110
  711TMC3     O10568   1.176   0.310  14.943  0.0788 -0.1478  0.2502
  711TMC3     H10569   1.287   0.625  15.159 -1.3504 -0.5295  0.5977
  711TMC3    H110570   1.303   0.204  15.090  1.5813 -0.2648  1.0128
  711TMC3    H210571   1.457   0.370  15.455  1.5670 -0.2768  0.0319
  711TMC3    C710572   1.445   0.149  15.310  0.3273 -0.2976 -0.6126
  711TMC3    C810573   1.433   0.628  15.375 -0.0279 -0.3419  0.0325
  711TMC3    O110574   1.545   0.159  15.378  0.3427  0.4771 -0.1230
  711TMC3    O210575   1.381   0.734  15.348 -0.2864 -0.3548 -0.1587
  712MPD2     C10576   2.492   2.035  14.002  0.4999  0.2673  0.7808
  712MPD2    C110577   2.423   2.100  13.900 -0.1070  0.0405 -0.1715
  712MPD2    C210578   2.489   2.210  13.845 -0.4706  0.5188 -0.3566
  712MPD2    C310579   2.610   2.262  13.890  0.6702 -0.3455 -0.3358
  712MPD2    C410580   2.679   2.196  13.987 -0.2212 -0.0724 -0.3730
  712MPD2    C510581   2.613   2.082  14.038 -0.9521 -0.2568  0.8123
  712MPD2     H10582   2.431   2.255  13.765 -1.0863  0.9607  0.3337
  712MPD2    H110583   2.777   2.233  14.016 -0.5346  0.2549  0.2579
  712MPD2    H210584   2.449   1.948  14.050 -0.7062  0.8405  0.7368
  712MPD2    H310585   2.662   2.017  14.110 -1.0530 -0.9359  0.2717
  712MPD2     N10586   2.672   2.377  13.838  0.1926  1.0577 -0.4353
  712MPD2    H510587   2.765   2.409  13.866  0.0474 -0.4844  1.7909
  712MPD2    N110588   2.296   2.054  13.851  0.3023  0.9742 -0.4426
  712MPD2    H710589   2.273   2.085  13.757 -0.0470  2.6341  0.1845
  713TMC3    C110590   2.698   2.575  13.712  0.3613  0.4652  0.0859
  713TMC3    C210591   2.835   2.577  13.714  0.5981 -0.5592 -0.0172
  713TMC3    C310592   2.895   2.704  13.705 -0.3132  0.9788 -0.2517
  713TMC3    C410593   2.625   2.689  13.688  0.2864  0.4807  0.1449
  713TMC3    C510594   2.696   2.805  13.659  0.1656  0.6511  0.8126
  713TMC3    C610595   2.831   2.819  13.678 -0.0890  0.0561  0.2071
  713TMC3     C10596   2.614   2.461  13.741 -0.4890 -0.7569 -0.1685
  713TMC3     O10597   2.496   2.465  13.702 -0.6126 -0.4733  0.0347
  713TMC3     H10598   2.881   2.479  13.707 -1.3032 -1.5301  1.0162
  713TMC3    H110599   2.516   2.688  13.689  0.2918 -0.1611  0.5151
  713TMC3    H210600   2.881   2.914  13.660 -0.1608  0.2761  1.1896
  713TMC3    C710601   2.623   2.927  13.652 -0.3040 -0.0729  0.1319
  713TMC3    C810602   3.036   2.702  13.680  0.2988 -0.1354  0.4852
  713TMC3    O110603   2.683   3.020  13.706  0.5438 -0.0073  0.1644
  713TMC3    O210604   3.090   2.806  13.637 -1.1578  0.1803 -0.0686
  714MPD2     C10605   0.903   0.363   1.565 -0.3419  0.4922 -0.3140
  714MPD2    C110606   0.842   0.275   1.484  0.0563 -0.5056  0.5521
  714MPD2    C210607   0.703   0.292   1.469 -0.3457  0.2102  0.5262
  714MPD2    C310608   0.636   0.396   1.533  1.0407  0.9116 -0.4341
  714MPD2    C410609   0.705   0.493   1.601  0.0092  0.1211 -0.3513
  714MPD2    C510610   0.843   0.481   1.611 -0.4353 -0.4915 -0.8346
  714MPD2     H10611   0.650   0.229   1.399 -0.2507  2.1106 -1.2960
  714MPD2    H110612   0.663   0.585   1.639 -0.0818  0.1960 -0.6355
  714MPD2    H210613   1.011   0.350   1.576  0.1157  3.9834 -0.8715
  714MPD2    H310614   0.904   0.557   1.657 -2.4130  1.1619 -0.9497
  714MPD2     N10615   0.501   0.414   1.505 -0.3154  0.4830  0.7487
  714MPD2    H510616   0.452   0.347   1.447 -0.6175  1.6857 -0.3935
  714MPD2    N110617   0.907   0.168   1.421 -0.5418  0.8847 -0.0408
  714MPD2    H710618   1.009   0.170   1.417 -0.4881  1.9404  2.0620
  715TMC3    C110619   0.958   4.697   1.328  0.2657 -0.3912  0.2235
  715TMC3    C210620   0.928   4.618   1.225 -0.2964  0.3365  0.4012
  715TMC3    C310621   1.023   4.536   1.169  0.6759  0.4474  0.5359
  715TMC3    C410622   1.086   4.714   1.374  0.3402  0.5271  0.2966
  715TMC3    C510623   1.182   4.653   1.297  1.0782  0.1811  0.4287
  715TMC3    C610624   1.154   4.565   1.190  0.0750 -0.5428 -0.3788
  715TMC3     C10625   0.853   0.051   1.365 -0.2758 -0.0638 -0.4360
  715TMC3     O10626   0.736   0.015   1.361 -0.0642  0.1903 -0.3403
  715TMC3     H10627   0.826   4.608   1.191 -0.3655  1.4993  0.2582
  715TMC3    H110628   1.112   0.025   1.465 -0.3886  2.4721 -0.6197
  715TMC3    H210629   1.236   4.518   1.138  0.3143  0.5163 -0.9567
  715TMC3    C710630   1.288   0.012   1.271  0.0657  0.1389 -0.0306
  715TMC3    C810631   0.974   4.440   1.068 -0.6946  0.5342 -0.5239
  715TMC3    O110632   1.258   0.130   1.303  0.4429 -0.2651 -0.0553
  715TMC3    O210633   0.853   4.415   1.080  0.2989 -0.2463  0.2987
  716MPD2     C10634   4.602   3.672  10.501 -0.1537 -0.5375 -0.5347
  716MPD2    C110635   4.491   3.626  10.431  0.7173  0.4007  0.4377
  716MPD2    C210636   4.493   3.506  10.360  0.5037  0.9197 -0.0664
  716MPD2    C310637   4.610   3.431  10.366 -0.4610 -0.3494 -0.3829
  716MPD2    C410638   4.720   3.472  10.441  0.1218 -0.6766 -0.2020
  716MPD2    C510639   4.714   3.592  10.517 -0.0100  0.2601  0.2443
  716MPD2     H10640   4.414   3.456  10.304 -0.2043  1.0657  0.7983
  716MPD2    H110641   0.046   3.395  10.474  1.8328  0.6059 -0.7532
  716MPD2    H210642   4.602   3.767  10.554 -0.5295 -0.3681 -0.8345
  716MPD2    H310643   0.058   3.612  10.580 -1.8783  0.0338  2.8957
  716MPD2     N10644   4.593   3.306  10.302  0.6111 -0.4284 -0.1054
  716MPD2    H510645   4.501   3.288  10.265 -0.2606  2.0431  0.8667
  716MPD2    N110646   4.372   3.709  10.438  0.7181  0.5721  0.1532
  716MPD2    H710647   4.375   3.799  10.486 -1.3915  0.3210  0.7572
  717TMC3    C110648   4.654   3.098  10.218 -0.4500  0.0004  0.0324
  717TMC3    C210649   4.569   3.102  10.113  0.3758  0.3115  0.5794
  717TMC3    C310650   4.540   2.983  10.052  0.0042  0.1103  0.1429
  717TMC3    C410651   4.726   2.982  10.238 -0.2957 -0.2530 -0.1250
  717TMC3    C510652   4.703   2.869  10.161 -0.7620  1.0083  0.0899
  717TMC3    C610653   4.610   2.868  10.068  0.4296  0.4409 -1.1089
  717TMC3     C10654   4.701   3.219  10.280 -0.1253  1.1276 -0.3866
  717TMC3     O10655   0.078   3.225  10.311 -0.2979  0.3150  0.3815
  717TMC3     H10656   4.514   3.190  10.084 -0.0463  0.3702  1.5659
  717TMC3    H110657   0.062   2.976  10.314  0.1928 -0.2089 -0.6192
  717TMC3    H210658   4.593   2.783  10.003 -1.0186 -0.6096  0.6134
  717TMC3    C710659   0.034   2.747  10.187  0.5648 -0.2098  1.0086
  717TMC3    C810660   4.434   2.972   9.950  0.6682 -0.4043 -0.3577
  717TMC3    O110661   0.097   2.737  10.292 -0.3450  0.2404 -0.1157
  717TMC3    O210662   4.406   3.077   9.897 -0.0593 -0.0688  1.0110
  718MPD2     C10663   3.838   2.298  12.493 -0.0665  0.4403  1.0553
  718MPD2    C110664   3.705   2.259  12.516  0.2416 -0.1166  0.1658
  718MPD2    C210665   3.668   2.145  12.577  0.0278 -0.4799  0.0094
  718MPD2    C310666   3.764   2.068  12.635  0.0020  0.1456  1.0893
  718MPD2    C410667   3.899   2.100  12.619 -0.0855 -0.0843 -0.3624
  718MPD2    C510668   3.938   2.215  12.546 -0.4386 -0.3799 -0.4144
  718MPD2     H10669   3.562   2.123  12.584  0.1933 -1.0348  0.6563
  718MPD2    H110670   3.974   2.036  12.664  0.3445 -0.8232 -2.1464
  718MPD2    H210671   3.855   2.381  12.425  0.4905  1.2551  2.1737
  718MPD2    H310672   4.042   2.242  12.533 -0.4621  1.5071  3.2506
  718MPD2     N10673   3.718   1.955  12.705 -0.3306 -0.2574  0.3542
  718MPD2    H510674   3.622   1.924  12.692 -1.1201  2.3093 -0.0734
  718MPD2    N110675   3.609   2.339  12.457  0.2798  0.5692  0.4024
  718MPD2    H710676   3.652   2.409  12.397  0.3837  0.1241 -0.0473
  719TMC3    C110677   3.447   2.380  12.298  0.5001 -0.2046 -0.6406
  719TMC3    C210678   3.453   2.277  12.209  0.2350 -0.1459  0.1944
  719TMC3    C310679   3.561   2.260  12.122  0.4313  0.1614 -0.4694
  719TMC3    C410680   3.533   2.483  12.279 -0.2815 -1.0889  0.1013
  719TMC3    C510681   3.627   2.473  12.171  0.1491 -0.1344 -0.2954
  719TMC3    C610682   3.656   2.355  12.112 -1.0338  0.5101  0.6601
  719TMC3     C10683   3.481   2.314  12.426  0.2157 -0.7470 -0.7880
  719TMC3     O10684   3.407   2.228  12.475  0.5480  0.2613 -0.4554
  719TMC3     H10685   3.388   2.194  12.233  1.4091 -0.5719  1.9643
  719TMC3    H110686   3.527   2.566  12.348  0.0228  1.5429 -3.0512
  719TMC3    H210687   3.744   2.331  12.054 -2.1533 -1.9186 -0.0025
  719TMC3    C710688   3.732   2.572  12.164 -0.0436 -0.6537  0.4384
  719TMC3    C810689   3.609   2.125  12.133  0.1101  0.6584  0.8252
  719TMC3    O110690   3.818   2.564  12.079 -0.3765  0.3439 -0.0575
  719TMC3    O210691   3.719   2.108  12.180  0.9590  0.1060 -0.2305
  720MPD2     C10692   2.903   3.608  14.146  0.1182  0.2587  0.0820
  720MPD2    C110693   2.955   3.733  14.114  0.8050  0.1460  0.6581
  720MPD2    C210694   3.001   3.812  14.218  0.1919  0.3842 -0.3173
  720MPD2    C310695   3.013   3.754  14.344  0.6352 -0.3436  0.0202
  720MPD2    C410696   2.961   3.631  14.373  0.5321 -0.2354 -0.3177
  720MPD2    C510697   2.890   3.568  14.276 -0.3075  0.0073 -0.3101
  720MPD2     H10698   3.027   3.916  14.202  0.1853  0.3403 -0.6104
  720MPD2    H110699   2.974   3.580  14.468  0.5289  1.0962  0.3975
  720MPD2    H210700   2.864   3.550  14.063  2.5076  0.4491 -1.1675
  720MPD2    H310701   2.856   3.468  14.301  1.7237 -0.5295  0.3391
  720MPD2     N10702   3.083   3.829  14.439  0.7956  0.5988 -0.1906
  720MPD2    H510703   3.102   3.926  14.417 -0.6160  0.7374 -0.8135
  720MPD2    N110704   2.961   3.788  13.982  0.1290  0.1805  0.2816
  720MPD2    H710705   3.012   3.876  13.970  0.7907  0.0220  1.9470
  721TMC3    C110706   3.224   3.870  14.621 -0.0665 -0.0458  0.1771
  721TMC3    C210707   3.229   3.880  14.757  0.0645 -1.1593 -0.0976
  721TMC3    C310708   3.344   3.928  14.814 -0.8534 -0.5970  0.5441
  721TMC3    C410709   3.328   3.901  14.540 -0.6180 -0.5784  0.4700
  721TMC3    C510710   3.441   3.954  14.601  0.6819 -0.2863 -0.0962
  721TMC3    C610711   3.448   3.960  14.739  0.2937  0.4835 -0.1980
  721TMC3     C10712   3.109   3.794  14.570  0.2817 -0.5920  0.3045
  721TMC3     O10713   3.048   3.707  14.638 -0.3860 -0.1009 -0.2114
  721TMC3     H10714   3.145   3.849  14.819 -1.4253 -0.5394 -1.8160
  721TMC3    H110715   3.324   3.868  14.437 -0.9465  0.4706  0.1413
  721TMC3    H210716   3.543   3.986  14.786  1.3341 -1.1195 -1.4196
  721TMC3    C710717   3.564   3.940  14.522 -0.6175 -1.0962  0.1660
  721TMC3    C810718   3.352   3.944  14.957 -0.4070 -0.5040 -0.3485
  721TMC3    O110719   3.567   3.981  14.402  0.2971  0.3072 -0.3327
  721TMC3    O210720   3.461   3.989  14.994  0.7898 -0.7489 -0.2987
  722MPD2     C10721   1.600   2.613  13.006  0.0706 -0.1572  0.5953
  722MPD2    C110722   1.552   2.730  13.049  0.2888 -0.3032 -0.3056
  722MPD2    C210723   1.433   2.785  13.010  1.2653  0.2487  0.4118
  722MPD2    C310724   1.355   2.724  12.914 -0.2609  0.5421 -0.4501
  722MPD2    C410725   1.396   2.600  12.864 -0.4721  0.0969  0.5393
  722MPD2    C510726   1.511   2.545  12.924  0.5169 -0.2146  0.4597
  722MPD2     H10727   1.415   2.891  13.028  4.4056  0.8375 -0.0022
  722MPD2    H110728   1.342   2.541  12.791  1.2492 -0.6883 -0.1154
  722MPD2    H210729   1.688   2.564  13.046  0.5855  1.6682  1.6703
  722MPD2    H310730   1.547   2.449  12.890 -0.8510 -0.1494 -1.1500
  722MPD2     N10731   1.249   2.802  12.862 -0.3636  0.2242  0.4093
  722MPD2    H510732   1.230   2.893  12.902 -1.3683  0.1629  0.0770
  722MPD2    N110733   1.621   2.804  13.136 -0.7815 -0.5499 -0.8205
  722MPD2    H710734   1.578   2.890  13.167 -0.4729  0.3252 -2.8511
  723TMC3    C110735   1.069   2.869  12.722  0.3274  0.1330  0.6182
  723TMC3    C210736   0.990   2.838  12.615  0.6242  0.7416 -0.0005
  723TMC3    C310737   0.919   2.935  12.554  0.2133  0.4618  0.1263
  723TMC3    C410738   1.084   2.996  12.768  0.1996  0.0048  0.4548
  723TMC3    C510739   1.008   3.094  12.707  0.5895  0.8359 -0.2572
  723TMC3    C610740   0.922   3.067  12.604  0.2153  0.3849 -0.4960
  723TMC3     C10741   1.168   2.770  12.756  0.4172  0.1083 -0.2683
  723TMC3     O10742   1.169   2.661  12.694 -0.7394 -0.2859 -0.2023
  723TMC3     H10743   0.988   2.737  12.576 -0.6161  1.3308 -1.4978
  723TMC3    H110744   1.169   3.023  12.831 -0.0184  3.3148 -0.6913
  723TMC3    H210745   0.855   3.140  12.560 -2.6044 -1.1507  1.2570
  723TMC3    C710746   0.996   3.229  12.756 -0.1810  0.4188  0.4905
  723TMC3    C810747   0.797   2.892  12.490  0.5983 -0.5334  1.1652
  723TMC3    O110748   0.935   3.308  12.685 -0.3130 -0.6104 -0.1483
  723TMC3    O210749   0.756   2.975  12.405  0.1634  0.9313  0.8470
  724TMC3    C110750   1.935   1.287  10.852  0.1760 -0.1199  0.7980
  724TMC3    C210751   1.811   1.309  10.806 -0.0012  0.0823 -0.2125
  724TMC3    C310752   1.803   1.374  10.682 -0.4166 -0.8613  0.1218
  724TMC3    C410753   2.044   1.335  10.784  0.0995  0.8198 -0.3518
  724TMC3    C510754   2.029   1.391  10.659 -0.1167  0.5067 -0.2179
  724TMC3    C610755   1.909   1.411  10.606  0.3269  0.0879  0.3659
  724TMC3     C10756   1.964   1.233  10.981 -0.6147  0.3244  0.2647
  724TMC3     O10757   2.073   1.250  11.027 -0.0195 -0.2007 -0.3565
  724TMC3     H10758   1.734   1.312  10.883 -0.3370  0.4726 -0.5632
  724TMC3    H110759   2.143   1.331  10.829 -1.1523  0.2505  2.3355
  724TMC3    H210760   1.899   1.466  10.513  1.6423  2.3746  1.5726
  724TMC3    C710761   2.142   1.440  10.584 -0.4005 -0.5899  0.5409
  724TMC3    C810762   1.668   1.400  10.624 -0.3264 -0.3762  0.1682
  724TMC3    O110763   2.105   1.541  10.522 -0.2469 -0.2374 -0.3205
  724TMC3    O210764   1.587   1.320  10.669 -0.7536  0.8151  0.6644
  725TMC3    C110765   3.263   4.222  12.558 -0.2506  0.2751  0.3511
  725TMC3    C210766   3.168   4.253  12.465 -0.0848  0.6686  0.0669
  725TMC3    C310767   3.106   4.145  12.400 -0.6813  0.3009  0.2372
  725TMC3    C410768   3.312   4.095  12.582  0.4377  0.2938 -0.4033
  725TMC3    C510769   3.239   3.993  12.522  0.5307 -0.1785  0.4795
  725TMC3    C610770   3.141   4.018  12.431 -0.0287 -0.0808 -0.3578
  725TMC3     C10771   3.319   4.329  12.647  0.2638  0.3207 -0.3385
  725TMC3     O10772   3.328   4.446  12.612  0.2916  0.3516 -0.0579
  725TMC3     H10773   3.122   4.351  12.463 -1.3620  0.0470 -0.5799
  725TMC3    H110774   3.378   4.070  12.665  0.5959  0.5645 -0.4464
  725TMC3    H210775   3.088   3.936  12.383  0.2138 -0.8361  0.6705
  725TMC3    C710776   3.277   3.849  12.534  0.4661 -0.5054  0.5176
  725TMC3    C810777   2.988   4.173  12.321  0.7124 -0.6808 -0.5790
  725TMC3    O110778   3.208   3.771  12.467 -0.3507 -0.3278 -0.1602
  725TMC3    O210779   2.916   4.071  12.318  0.0819  0.6086  0.0765
  726MPD2     C10780   1.588   1.922  11.235  0.1323  0.0737 -0.6671
  726MPD2    C110781   1.505   1.954  11.130  0.1447  0.1430 -0.2357
  726MPD2    C210782   1.400   1.870  11.099  0.5489  0.1800  0.2180
  726MPD2    C310783   1.378   1.756  11.171 -0.3758 -0.2688  0.8199
  726MPD2    C410784   1.463   1.727  11.279 -0.1717 -0.1764 -0.0791
  726MPD2    C510785   1.563   1.810  11.306 -0.5521 -0.2643  0.0521
  726MPD2     H10786   1.333   1.907  11.022 -0.6592 -0.0645  1.1396
  726MPD2    H110787   1.439   1.640  11.339 -1.9953  0.9429  0.8068
  726MPD2    H210788   1.666   1.982  11.280 -0.1136 -0.9073  1.0415
  726MPD2    H310789   1.611   1.791  11.401 -0.4517  0.1733  0.0917
  726MPD2     N10790   1.275   1.669  11.143 -0.4478  0.2008 -0.0988
  726MPD2    H510791   1.266   1.606  11.222  3.5473 -0.3530 -0.0764
  726MPD2    N110792   1.514   2.071  11.057 -0.2511 -0.8405  0.2365
  726MPD2    H710793   1.434   2.106  11.006  0.6430  1.8309  0.6694
  727TMC3    C110794   1.612   2.283  11.001 -0.2214  0.4122  0.2739
  727TMC3    C210795   1.732   2.335  10.973 -0.0922  0.2238 -0.0605
  727TMC3    C310796   1.731   2.463  10.928  0.0091 -0.3065 -0.1486
  727TMC3    C410797   1.493   2.351  11.006  0.2284  0.3240 -0.1565
  727TMC3    C510798   1.498   2.479  10.958  0.3147 -0.2682  1.0117
  727TMC3    C610799   1.616   2.534  10.916 -0.4398 -0.2078  0.0776
  727TMC3     C10800   1.623   2.148  11.063  0.6395  0.3616 -0.1363
  727TMC3     O10801   1.737   2.115  11.096  0.5282 -0.1575  0.2081
  727TMC3     H10802   1.826   2.281  10.983  0.1894  0.8725  0.8736
  727TMC3    H110803   1.398   2.311  11.038  1.7235 -0.6699  3.0869
  727TMC3    H210804   1.616   2.621  10.852 -0.1083  0.9695  1.6943
  727TMC3    C710805   1.375   2.543  10.921 -0.6776  0.8275  0.1832
  727TMC3    C810806   1.849   2.495  10.854 -0.0261  0.2023  0.0133
  727TMC3    O110807   1.270   2.483  10.933  0.5429 -0.6502 -0.2334
  727TMC3    O210808   1.930   2.405  10.828  0.0887  0.1306 -0.7706
  728TMC3    C110809   0.597   4.180  15.350  0.3055  0.9721 -0.7482
  728TMC3    C210810   0.711   4.257  15.358  0.4187 -0.1487  0.3986
  728TMC3    C310811   0.724   4.365  15.278  0.6480  0.2783 -0.3109
  728TMC3    C410812   0.496   4.220  15.271 -0.0350 -0.1763  0.1091
  728TMC3    C510813   0.514   4.330  15.188 -0.4461  0.3830 -0.2604
  728TMC3    C610814   0.631   4.401  15.184  0.1848 -0.1750 -0.1949
  728TMC3     C10815   0.567   4.119  15.474 -0.1734 -0.4390 -0.4354
  728TMC3     O10816   0.656   4.107  15.554  0.1609  0.0377 -0.3381
  728TMC3     H10817   0.797   4.237  15.422 -1.0414  0.0460  2.4404
  728TMC3    H110818   0.410   4.158  15.252  2.0279 -2.8632 -0.5047
  728TMC3    H210819   0.634   4.496  15.131 -1.1432 -0.3875 -0.6484
  728TMC3    C710820   0.415   4.333  15.083 -0.4324 -0.3233  0.7227
  728TMC3    C810821   0.835   4.448  15.310 -0.2955 -0.1159 -0.0202
  728TMC3    O110822   0.301   4.304  15.106  0.0402 -0.9072 -0.6391
  728TMC3    O210823   0.929   4.383  15.347  1.2157 -0.3701  0.3034
  729MPD2     C10824   2.859   0.416  17.297 -0.0016 -0.2572  0.4017
  729MPD2    C110825   2.975   0.442  17.372  0.4865 -0.1864 -0.2539
  729MPD2    C210826   2.963   0.498  17.501 -0.0494  0.1293  0.4913
  729MPD2    C310827   2.843   0.533  17.552  0.2763 -0.4594 -0.1054
  729MPD2    C410828   2.723   0.506  17.482 -0.2415 -0.4564 -0.0348
  729MPD2    C510829   2.741   0.460  17.353 -0.3675 -0.2732 -0.2429
  729MPD2     H10830   3.056   0.513  17.554 -0.3197 -1.5434  1.4327
  729MPD2    H110831   2.629   0.554  17.508 -0.6169 -1.8765  1.2187
  729MPD2    H210832   2.862   0.373  17.197 -0.8024 -2.5217  1.3551
  729MPD2    H310833   2.648   0.448  17.298  0.8929 -1.4516 -2.1144
  729MPD2     N10834   2.835   0.599  17.675 -0.0165  0.2576 -0.5647
  729MPD2    H510835   2.745   0.638  17.700 -0.6316 -0.3506 -1.8532
  729MPD2    N110836   3.095   0.427  17.304 -0.1346  0.4395  0.0956
  729MPD2    H710837   3.088   0.406  17.205  0.1003  0.6113  0.0432
  730TMC3    C110838   2.884   0.691   0.119 -0.0684 -0.2356 -0.7520
  730TMC3    C210839   2.939   0.673   0.242 -0.7165  0.5431  0.2096
  730TMC3    C310840   2.961   0.783   0.314  0.6085  0.0912 -0.0551
  730TMC3    C410841   2.870   0.818   0.074 -0.1859 -0.4075 -0.1810
  730TMC3    C510842   2.900   0.932   0.145  0.4704 -0.2266 -0.8733
  730TMC3    C610843   2.953   0.911   0.268  0.2730 -1.0296  0.3571
  730TMC3     C10844   2.929   0.598   0.014 -0.4540 -0.7388 -0.0660
  730TMC3     O10845   3.046   0.567   0.019  0.2249 -0.0521 -0.7543
  730TMC3     H10846   2.967   0.578   0.284  1.4960  1.4106  0.6702
  730TMC3    H110847   2.825   0.828  17.739 -0.8143 -1.1152  0.0288
  730TMC3    H210848   2.990   0.995   0.326 -0.6602  0.6483 -1.4602
  730TMC3    C710849   2.916   1.056   0.073  0.1936  0.1750  0.0106
  730TMC3    C810850   3.016   0.762   0.454  0.2164  0.3237  0.1985
  730TMC3    O110851   2.927   1.044  17.716 -0.2357 -0.3715  0.0356
  730TMC3    O210852   3.064   0.652   0.471  0.8017 -0.0793  0.2805
  731MPD2     C10853   2.761   3.989  12.590  0.7272 -0.0073 -0.3516
  731MPD2    C110854   2.682   3.913  12.507  0.3104  0.9273 -1.1069
  731MPD2    C210855   2.605   3.814  12.569 -0.1719 -0.0776 -0.1136
  731MPD2    C310856   2.607   3.795  12.702  0.2030 -0.4406 -0.2923
  731MPD2    C410857   2.681   3.882  12.786 -0.8720  0.0174 -0.2990
  731MPD2    C510858   2.753   3.978  12.731 -0.4346 -0.6673  0.8063
  731MPD2     H10859   2.543   3.750  12.508 -0.4428 -0.6997  0.8152
  731MPD2    H110860   2.682   3.869  12.894  0.0798 -0.8813 -0.4138
  731MPD2    H210861   2.819   4.070  12.549  0.4914  0.1276 -0.4169
  731MPD2    H310862   2.795   4.049  12.801  0.7280 -1.1304  0.5782
  731MPD2     N10863   2.524   3.692  12.759 -0.2113 -0.0715  0.2029
  731MPD2    H510864   2.468   3.644  12.690  0.6379 -0.4563 -0.2178
  731MPD2    N110865   2.674   3.934  12.364  0.4585  0.1395 -0.9263
  731MPD2    H710866   2.754   3.988  12.331 -1.3544  1.4332 -3.2040
  732TMC3    C110867   2.592   3.925  12.140 -0.2166  0.9019  0.6266
  732TMC3    C210868   2.476   3.913  12.061  0.7502 -0.2185  0.2501
  732TMC3    C310869   2.499   3.896  11.920  0.2545  0.0021 -0.0615
  732TMC3    C410870   2.710   3.911  12.080  0.2175  0.8148 -0.3103
  732TMC3    C510871   2.722   3.912  11.948  0.0720 -0.1388  0.7981
  732TMC3    C610872   2.615   3.922  11.860 -0.3742  0.8502 -0.6031
  732TMC3     C10873   2.578   3.880  12.278  0.1069  0.4617 -0.2703
  732TMC3     O10874   2.476   3.818  12.300 -0.2631  0.8887  0.2804
  732TMC3     H10875   2.378   3.905  12.107 -0.6833  2.8461 -2.2986
  732TMC3    H110876   2.800   3.905  12.141  0.3641 -1.3926 -0.7560
  732TMC3    H210877   2.627   3.895  11.756  0.2385 -2.3730  0.3051
  732TMC3    C710878   2.826   3.833  11.885  0.1545 -0.4000  0.0431
  732TMC3    C810879   2.432   3.781  11.855  0.7037  0.7512 -0.1266
  732TMC3    O110880   2.872   3.882  11.782 -0.0533 -0.4669  0.2609
  732TMC3    O210881   2.465   3.748  11.743 -0.2607 -0.2757 -0.1939
  733TMC3    C110882   3.573   1.640  12.885  0.2264 -0.0717  0.4307
  733TMC3    C210883   3.678   1.737  12.894 -0.6116 -0.1130  0.0666
  733TMC3    C310884   3.765   1.746  12.793 -0.0142  0.6321  0.3424
  733TMC3    C410885   3.556   1.567  12.775 -0.2770 -0.4996  0.2499
  733TMC3    C510886   3.627   1.610  12.671 -0.7610 -0.6441 -0.6743
  733TMC3    C610887   3.736   1.688  12.677  0.1088 -0.5771  0.7497
  733TMC3     C10888   3.444   1.661  12.954 -0.3325  0.0798  0.0640
  733TMC3     O10889   3.346   1.633  12.890 -0.0685  0.3907 -0.6628
  733TMC3     H10890   3.672   1.814  12.970 -1.3586  0.0127 -0.1155
  733TMC3    H110891   3.468   1.505  12.763 -0.8124  0.3155 -0.0374
  733TMC3    H210892   3.799   1.710  12.592 -0.4980  1.1128  0.7295
  733TMC3    C710893   3.561   1.595  12.542 -1.0489  0.7010  0.2954
  733TMC3    C810894   3.809   1.885  12.781  0.1616  0.3766  0.0475
  733TMC3    O110895   3.467   1.521  12.538  0.8686 -0.7310  0.5113
  733TMC3    O210896   3.919   1.914  12.830 -0.4477 -0.1590 -0.0651
  734MPD2     C10897   0.801   0.154  12.751 -0.5902  0.0533 -0.2607
  734MPD2    C110898   0.842   0.062  12.663  0.2444 -1.0280 -0.0707
  734MPD2    C210899   0.907   0.100  12.550 -0.4042  0.2533  0.4864
  734MPD2    C310900   0.940   0.230  12.533  0.5576  0.1237 -0.1036
  734MPD2    C410901   0.894   0.326  12.618  0.2487  0.1123 -0.2158
  734MPD2    C510902   0.822   0.289  12.726 -0.2481  0.3167 -0.4753
  734MPD2     H10903   0.937   0.032  12.472  0.1603  1.1629 -0.1004
  734MPD2    H110904   0.906   0.432  12.598  0.1328  0.2660  0.5312
  734MPD2    H210905   0.732   0.116  12.826 -0.7093 -0.9117 -0.8627
  734MPD2    H310906   0.784   0.371  12.787 -1.2157 -0.2026 -0.3845
  734MPD2     N10907   0.999   0.260  12.408  0.0681  0.0194 -0.1188
  734MPD2    H510908   1.003   0.179  12.347  2.8823  0.2444 -0.2170
  734MPD2    N110909   0.795   4.674  12.680 -0.4701 -0.2235 -0.1827
  734MPD2    H710910   0.732   4.658  12.758  1.9195 -0.7150  1.6236
  735TMC3    C110911   0.712   4.457  12.622  0.2310 -0.7175  0.0507
  735TMC3    C210912   0.634   4.451  12.510  0.9078  0.4671 -0.4147
  735TMC3    C310913   0.621   4.332  12.437 -0.6402  0.0109  0.2028
  735TMC3    C410914   0.768   4.344  12.669  0.5482  0.1607 -0.4479
  735TMC3    C510915   0.743   4.224  12.613  0.2584  0.1447 -0.4370
  735TMC3    C610916   0.673   4.213  12.493  0.0922 -0.2099  0.0701
  735TMC3     C10917   0.804   4.568  12.595 -0.0788  0.1291 -0.1343
  735TMC3     O10918   0.861   4.568  12.486  0.3523  0.7169  0.4448
  735TMC3     H10919   0.593   4.539  12.462 -1.8040  0.7430  2.4270
  735TMC3    H110920   0.833   4.352  12.756 -0.8632 -3.5748  0.9373
  735TMC3    H210921   0.656   4.120  12.438  0.2417  0.1649 -0.6169
  735TMC3    C710922   0.827   4.115  12.663 -0.4122 -0.1046 -0.1092
  735TMC3    C810923   0.636   4.344  12.292 -0.4595 -0.4621 -0.4838
  735TMC3    O110924   0.928   4.134  12.728  0.4387 -0.5711  0.0927
  735TMC3    O210925   0.588   4.261  12.216  0.0673  0.2562 -0.4113
  736MPD2     C10926   0.784   3.765  12.598  0.2484 -0.1803 -0.4344
  736MPD2    C110927   0.855   3.877  12.613  0.0126 -0.4480  1.3582
  736MPD2    C210928   0.993   3.859  12.610 -0.0079 -0.2082  0.9191
  736MPD2    C310929   1.056   3.738  12.591 -0.2160  0.3143 -0.8491
  736MPD2    C410930   0.981   3.626  12.579  0.0106 -0.6126 -0.3200
  736MPD2    C510931   0.844   3.642  12.588  0.0102 -0.2489  0.0661
  736MPD2     H10932   1.048   3.953  12.608 -2.1672  0.9810 -1.6311
  736MPD2    H110933   1.013   3.525  12.558  1.1341 -0.7971  2.3430
  736MPD2    H210934   0.676   3.770  12.609  0.3127 -0.5337  0.3575
  736MPD2    H310935   0.773   3.561  12.603  0.2146 -0.3897  0.2793
  736MPD2     N10936   1.198   3.715  12.581  0.1713  0.0813  0.3080
  736MPD2    H510937   1.235   3.626  12.549 -1.9005 -1.5258  2.4102
  736MPD2    N110938   0.780   3.994  12.628  0.0162  0.2319 -0.6207
  736MPD2    H710939   0.680   3.985  12.609  0.4002 -2.6040 -1.2460
  737TMC3    C110940   1.427   3.785  12.593  0.3323 -0.3215 -0.2446
  737TMC3    C210941   1.509   3.897  12.613 -0.5264  0.2794 -0.2259
  737TMC3    C310942   1.613   3.919  12.530 -0.1176 -0.7335  0.9667
  737TMC3    C410943   1.466   3.690  12.501  0.3457 -0.5631  0.1950
  737TMC3    C510944   1.577   3.709  12.425  0.5126 -0.2072 -0.0638
  737TMC3    C610945   1.653   3.824  12.437  0.0588 -0.4757  0.0379
  737TMC3     C10946   1.286   3.807  12.634  0.2588  0.0169  0.9582
  737TMC3     O10947   1.272   3.909  12.699 -0.1195  0.2665  0.4690
  737TMC3     H10948   1.489   3.976  12.684 -2.0363 -1.1801  0.9797
  737TMC3    H110949   1.425   3.590  12.507 -1.3548  0.3816  4.2498
  737TMC3    H210950   1.741   3.844  12.377  0.2031 -0.8645  0.1217
  737TMC3    C710951   1.624   3.608  12.336 -0.1505  0.0866 -0.4729
  737TMC3    C810952   1.654   4.055  12.503  0.6349  0.6159 -0.3976
  737TMC3    O110953   1.626   3.494  12.389  0.4722 -0.3775 -0.0878
  737TMC3    O210954   1.769   4.072  12.475 -0.1634  0.4450  0.2412
  738MPD2     C10955   1.383   2.658  15.033 -0.0253  0.5429 -0.2566
  738MPD2    C110956   1.464   2.556  14.986 -0.2830  0.4632 -0.2000
  738MPD2    C210957   1.598   2.594  14.974 -0.2726  0.0916 -0.4355
  738MPD2    C310958   1.656   2.708  15.036 -0.0855 -0.2820 -0.0934
  738MPD2    C410959   1.571   2.802  15.094  0.7095  0.5393  0.6354
  738MPD2    C510960   1.436   2.774  15.087  0.3088  0.3337 -0.1694
  738MPD2     H10961   1.673   2.520  14.947  0.8689  0.6299  1.2469
  738MPD2    H110962   1.597   2.891  15.150 -0.2051  0.2180  1.5591
  738MPD2    H210963   1.276   2.643  15.037  0.2332 -1.6293 -1.3534
  738MPD2    H310964   1.363   2.847  15.118 -0.2050  0.0050 -0.6120
  738MPD2     N10965   1.794   2.727  15.028  0.4091  0.1236 -0.2825
  738MPD2    H510966   1.850   2.667  14.968 -1.4531  0.2927 -2.2203
  738MPD2    N110967   1.415   2.431  14.947 -0.6122 -0.7832 -0.6753
  738MPD2    H710968   1.476   2.363  14.904  0.5546 -0.7634  0.9389
  739TMC3    C110969   2.007   2.811  15.072 -0.5895 -0.4311  0.3678
  739TMC3    C210970   2.055   2.834  14.945 -0.1905 -0.3825  0.5565
  739TMC3    C310971   2.184   2.880  14.933 -0.0270 -0.0878  0.4037
  739TMC3    C410972   2.081   2.867  15.178  0.1451 -0.2275 -0.1492
  739TMC3    C510973   2.207   2.912  15.161  0.6098 -0.1035  0.3172
  739TMC3    C610974   2.265   2.914  15.038 -0.0646  0.2146 -0.1720
  739TMC3     C10975   1.865   2.817  15.100 -0.1737  0.3746 -0.1666
  739TMC3     O10976   1.834   2.894  15.187  0.4543 -0.2295  0.2735
  739TMC3     H10977   1.997   2.814  14.857  0.5105  0.0449 -0.0050
  739TMC3    H110978   2.041   2.868  15.279  1.0110  2.3065  0.1759
  739TMC3    H210979   2.361   2.954  15.007 -0.5275  0.2194 -1.5699
  739TMC3    C710980   2.286   2.909  15.284 -0.7098 -0.5642 -0.6218
  739TMC3    C810981   2.229   2.917  14.798  0.6029 -0.4565  0.4352
  739TMC3    O110982   2.235   2.919  15.395 -0.0283 -0.5893 -0.1006
  739TMC3    O210983   2.141   2.918  14.715  0.3227  0.4777 -0.0941
  740TMC3    C110984   2.653   4.221  14.640  0.3043  0.2498  0.1274
  740TMC3    C210985   2.683   4.154  14.752 -0.0229  0.7196 -0.3344
  740TMC3    C310986   2.818   4.122  14.772 -0.1600 -0.5221  0.6781
  740TMC3    C410987   2.748   4.243  14.536  0.9920 -0.8096  0.3082
  740TMC3    C510988   2.878   4.197  14.558  0.4362 -0.6614  0.1817
  740TMC3    C610989   2.916   4.138  14.675 -0.8893 -0.3839  0.4651
  740TMC3     C10990   2.518   4.269  14.600  0.2307 -1.0850 -0.3322
  740TMC3     O10991   2.510   4.348  14.505  0.1787  0.7279  0.7334
  740TMC3     H10992   2.619   4.149  14.840  0.2386 -1.5252 -0.2623
  740TMC3    H110993   2.718   4.305  14.452  3.8049 -1.8109 -1.4414
  740TMC3    H210994   3.018   4.112  14.699 -0.0835  2.2267 -0.1057
  740TMC3    C710995   2.964   4.168  14.447 -0.0872  0.0044  0.4351
  740TMC3    C810996   2.862   4.007  14.868 -0.1540 -0.5474  0.5804
  740TMC3    O110997   3.065   4.107  14.477  0.7873  0.0089  0.3911
  740TMC3    O210998   2.981   3.987  14.890  0.4528 -0.1584 -0.3810
  741TMC3    C110999   2.222   3.453  14.375 -0.3226  0.5881 -0.1892
  741TMC3    C211000   2.107   3.379  14.367  0.3953  0.3520 -0.2816
  741TMC3    C311001   2.088   3.275  14.464  0.3255 -0.1419 -0.0664
  741TMC3    C411002   2.314   3.448  14.485 -0.0350 -0.0909  0.3567
  741TMC3    C511003   2.278   3.354  14.579  0.4716  0.6145 -0.7056
  741TMC3    C611004   2.178   3.260  14.568 -0.3602  0.5570 -0.1019
  741TMC3     C11005   2.220   3.573  14.289 -0.2390 -0.1336 -0.2973
  741TMC3     O11006   2.112   3.611  14.242  0.2055 -0.1020  0.3604
  741TMC3     H11007   2.044   3.384  14.279 -1.1989 -0.4095  0.7974
  741TMC3    H111008   2.399   3.513  14.502 -2.0637  2.2335  1.7033
  741TMC3    H211009   2.169   3.182  14.642  4.3192 -0.4435 -0.5609
  741TMC3    C711010   2.372   3.338  14.687 -0.2514  0.0596 -0.5585
  741TMC3    C811011   1.982   3.173  14.440  0.9621  0.2044  0.6812
  741TMC3    O111012   2.490   3.364  14.657  0.0910  0.2173 -0.0382
  741TMC3    O211013   1.929   3.175  14.330  0.1264  0.5076 -0.0415
  742TMC3    C111014   2.545   1.624  15.426  0.2291 -0.1360  0.3392
  742TMC3    C211015   2.424   1.631  15.367  0.3575 -0.2656  0.4657
  742TMC3    C311016   2.404   1.601  15.239 -0.8639  0.1498 -0.3329
  742TMC3    C411017   2.649   1.587  15.343  0.1455 -0.2100 -0.7343
  742TMC3    C511018   2.630   1.559  15.212  0.8131 -0.7322 -0.3320
  742TMC3    C611019   2.504   1.566  15.156  0.8730  0.4102  0.4661
  742TMC3     C11020   2.566   1.640  15.573 -0.0697 -0.4888  0.2383
  742TMC3     O11021   2.470   1.673  15.644 -0.5275 -0.0566 -0.3511
  742TMC3     H11022   2.344   1.637  15.440 -1.2586 -1.8959 -1.1561
  742TMC3    H111023   2.750   1.576  15.382 -0.9848 -0.5899  2.0908
  742TMC3    H211024   2.482   1.555  15.050 -2.1963  0.7110  1.0595
  742TMC3    C711025   2.730   1.489  15.141 -0.3117  0.5501  0.0702
  742TMC3    C811026   2.263   1.610  15.184  0.6571  0.1184 -1.1564
  742TMC3    O111027   2.848   1.527  15.157  0.3537  0.2929 -0.3453
  742TMC3    O211028   2.241   1.557  15.079  0.4946 -0.7132 -0.4531
  743MPD2     C11029   4.092   3.553   1.323  0.6023 -0.1671  0.1866
  743MPD2    C111030   4.138   3.428   1.280  0.3989 -0.4773  0.0755
  743MPD2    C211031   4.262   3.381   1.321  0.6196  0.5225  0.8908
  743MPD2    C311032   4.347   3.468   1.395  0.0473  0.0368  0.0052
  743MPD2    C411033   4.292   3.586   1.446 -0.4563  0.4261  0.1041
  743MPD2    C511034   4.167   3.631   1.406  0.0206 -0.4485  0.4482
  743MPD2     H11035   4.300   3.283   1.295 -1.3782 -0.3761  1.4027
  743MPD2    H111036   4.351   3.651   1.509  2.6465 -1.8596 -0.3975
  743MPD2    H211037   3.989   3.581   1.304  0.6312  0.5835  1.0994
  743MPD2    H311038   4.116   3.721   1.440 -0.8389 -0.6440 -0.3072
  743MPD2     N11039   4.471   3.420   1.436  0.4339 -0.2030 -0.3758
  743MPD2    H511040   4.493   3.333   1.388  1.3818  0.0147 -0.3362
  743MPD2    N111041   4.045   3.352   1.211  0.5336  0.0310  0.2453
  743MPD2    H711042   3.948   3.379   1.201  0.6544  0.0780 -0.7150
  744TMC3    C111043   3.976   3.168   1.078  0.1457  0.5084  0.4473
  744TMC3    C211044   3.869   3.237   1.030 -0.1452  0.3114  0.0076
  744TMC3    C311045   3.789   3.172   0.943  0.0060 -0.3823  0.2007
  744TMC3    C411046   3.999   3.034   1.054 -0.1001  0.1662  0.0883
  744TMC3    C511047   3.902   2.973   0.980  0.1263  0.1667  0.0552
  744TMC3    C611048   3.796   3.039   0.922 -0.3662 -0.3915 -0.7736
  744TMC3     C11049   4.080   3.236   1.141 -0.0864  1.0645  0.7652
  744TMC3     O11050   4.190   3.193   1.119 -0.2756 -0.3364  0.5274
  744TMC3     H11051   3.854   3.344   1.040 -0.1444  0.3922 -0.9398
  744TMC3    H111052   4.094   2.988   1.080 -0.0045  0.0780 -0.4207
  744TMC3    H211053   3.732   2.990   0.850 -1.0589  0.8869 -1.0120
  744TMC3    C711054   3.923   2.841   0.932  0.0898  0.3706 -0.2811
  744TMC3    C811055   3.676   3.239   0.880  0.6744 -0.3436  0.2920
  744TMC3    O111056   3.818   2.786   0.904 -0.4056  0.1640 -1.0046
  744TMC3    O211057   3.698   3.354   0.852  0.4959 -0.6019 -0.2427
  745TMC3    C111058   2.107   1.914  13.837 -0.3003  0.0889 -0.3362
  745TMC3    C211059   2.068   1.808  13.913 -1.0077 -0.2174  0.4701
  745TMC3    C311060   2.050   1.687  13.856 -0.8984 -0.7465  0.1796
  745TMC3    C411061   2.131   1.901  13.704  0.0555  0.4355 -1.1287
  745TMC3    C511062   2.117   1.778  13.647 -0.0823 -0.9446 -0.6372
  745TMC3    C611063   2.081   1.666  13.720  0.3496 -0.8789  0.8753
  745TMC3     C11064   2.200   1.981  13.925 -0.1626  0.0644  0.1258
  745TMC3     O11065   2.206   1.950  14.041 -0.4719  0.4835  0.2710
  745TMC3     H11066   2.021   1.829  14.009 -2.3042 -0.9130 -0.0190
  745TMC3    H111067   2.162   1.989  13.649  1.1176  0.6820 -0.1487
  745TMC3    H211068   2.088   1.565  13.683  0.7553 -1.8093  3.4357
  745TMC3    C711069   2.106   1.767  13.504 -0.6136  0.4380  0.3776
  745TMC3    C811070   2.117   1.591  13.943  0.7676  1.0424  0.6651
  745TMC3    O111071   2.054   1.666  13.455  0.1565 -0.3611  0.0730
  745TMC3    O211072   2.120   1.473  13.913 -0.3708  0.3624  0.3493
  746TMC3    C111073   0.015   4.234  10.756 -0.2413 -0.2627 -0.3866
  746TMC3    C211074   0.055   4.260  10.626  0.1966 -0.1202  0.1889
  746TMC3    C311075   4.725   4.209  10.521  0.1571  0.0058  0.5202
  746TMC3    C411076   4.654   4.140  10.780  0.3399  0.5353  0.6023
  746TMC3    C511077   4.591   4.086  10.663  0.3664  0.0472 -0.1532
  746TMC3    C611078   4.628   4.113  10.534 -0.8501  0.2925  0.0067
  746TMC3     C11079   0.075   4.299  10.866  0.1003  0.5385 -0.3875
  746TMC3     O11080   0.022   4.285  10.973 -0.2102  0.0800 -0.2082
  746TMC3     H11081   0.126   4.338  10.602 -0.2880 -0.5123 -2.4208
  746TMC3    H111082   4.619   4.115  10.880  0.6984 -1.6381  0.1755
  746TMC3    H211083   4.567   4.087  10.449 -1.5383 -1.5555  1.0675
  746TMC3    C711084   4.461   4.037  10.680  0.8129 -0.6374  0.1714
  746TMC3    C811085   4.723   4.296  10.401 -0.3155  0.4043 -0.2546
  746TMC3    O111086   4.421   3.943  10.613 -0.7480 -0.4615  0.8332
  746TMC3    O211087   4.699   4.248  10.290  0.1284 -0.2400 -0.6171
  747TMC3    C111088   2.234   3.982  11.597 -0.2352 -0.1097 -0.0193
  747TMC3    C211089   2.143   3.882  11.603 -0.1938 -0.3550 -0.8182
  747TMC3    C311090   2.061   3.871  11.711  0.8727 -0.1429 -0.1085
  747TMC3    C411091   2.257   4.062  11.703 -0.1096 -0.0171 -0.0110
  747TMC3    C511092   2.171   4.048  11.813  0.6033 -0.2940  0.5299
  747TMC3    C611093   2.063   3.966  11.815 -0.0780  0.4771 -0.2758
  747TMC3     C11094   2.288   4.023  11.469 -0.0631 -0.2647 -0.8039
  747TMC3     O11095   2.384   4.098  11.477 -0.2536  0.2496  0.3058
  747TMC3     H11096   2.129   3.811  11.522  0.1557 -0.1541 -1.0559
  747TMC3    H111097   2.343   4.128  11.699  2.4596 -3.4808 -2.6589
  747TMC3    H211098   1.994   3.964  11.899  1.4853  2.0738  1.0417
  747TMC3    C711099   2.209   4.129  11.928  0.4943 -0.1035 -0.0749
  747TMC3    C811100   1.995   3.747  11.739 -0.0728  0.2242  0.1129
  747TMC3    O111101   2.297   4.210  11.900  0.4747 -0.2729 -0.4050
  747TMC3    O211102   2.034   3.648  11.677  0.5573 -0.3147  0.0305
  748MPD2     C11103   3.892   4.074   1.418  0.2323 -0.0767 -0.0006
  748MPD2    C111104   3.936   4.058   1.290 -0.3100  0.1065  0.2820
  748MPD2    C211105   4.066   4.087   1.252  0.3439 -0.1940  0.4033
  748MPD2    C311106   4.154   4.126   1.349 -0.4521  0.3588 -0.3700
  748MPD2    C411107   4.111   4.142   1.476  0.1852 -0.2211 -0.2442
  748MPD2    C511108   3.982   4.122   1.513 -0.4558 -0.4343 -0.1741
  748MPD2     H11109   4.102   4.085   1.150 -1.9755  1.1861 -0.4274
  748MPD2    H111110   4.177   4.173   1.556 -1.1181  0.7754  0.4406
  748MPD2    H211111   3.788   4.060   1.442  0.5247 -1.3457  0.5429
  748MPD2    H311112   3.958   4.138   1.618 -0.9160 -0.6130 -0.2508
  748MPD2     N11113   4.287   4.144   1.308  0.4748  0.1768 -0.1033
  748MPD2    H511114   4.311   4.149   1.209 -0.9385 -3.6888 -0.6191
  748MPD2    N111115   3.844   4.004   1.201 -0.5459  0.4550 -0.0164
  748MPD2    H711116   3.758   3.974   1.247 -0.6494  1.7713  0.6455
  749TMC3    C111117   4.517   4.200   1.346  0.2468  0.5725  0.8776
  749TMC3    C211118   4.639   4.151   1.388  0.1036 -0.0349  0.5227
  749TMC3    C311119   0.009   4.214   1.334  0.3994 -0.6534 -0.4712
  749TMC3    C411120   4.507   4.295   1.252  0.6730  0.0773  0.1664
  749TMC3    C511121   4.624   4.356   1.203  0.4580  0.2569 -0.6005
  749TMC3    C611122   0.003   4.316   1.242 -1.0532 -0.0119  0.5126
  749TMC3     C11123   4.396   4.146   1.397 -0.0656  0.0186 -0.3520
  749TMC3     O11124   4.404   4.121   1.518  0.0903  0.6957 -0.3620
  749TMC3     H11125   4.641   4.085   1.474  0.1664 -0.2417  0.3632
  749TMC3    H111126   4.412   4.348   1.247 -0.9336 -2.9846 -1.5836
  749TMC3    H211127   0.095   4.368   1.218 -0.6205 -0.1131  1.8952
  749TMC3    C711128   4.621   4.438   1.084 -0.0169  0.2599 -0.7013
  749TMC3    C811129   0.139   4.172   1.370 -0.4301 -0.4962 -0.0348
  749TMC3    O111130   4.712   4.518   1.062  0.6355  0.2753 -0.1544
  749TMC3    O211131   0.232   4.248   1.346  0.2361  0.0236  0.1320
  750MPD2     C11132   4.611   1.376  12.135  0.3003 -0.1977  0.4595
  750MPD2    C111133   4.534   1.267  12.172  0.3701 -0.2105  0.4256
  750MPD2    C211134   4.588   1.142  12.169 -0.3418  0.2337  0.4613
  750MPD2    C311135   4.713   1.120  12.112  0.0727  0.7347  0.1123
  750MPD2    C411136   0.050   1.229  12.078  0.0383  1.1091  0.3584
  750MPD2    C511137   4.736   1.357  12.088  0.6668  0.1597  0.3802
  750MPD2     H11138   4.521   1.058  12.186 -0.3061  0.1156  0.0263
  750MPD2    H111139   0.154   1.208  12.058 -0.4454 -2.2087  1.3131
  750MPD2    H211140   4.569   1.475  12.126 -1.0214 -0.5980  2.2090
  750MPD2    H311141   0.052   1.444  12.056 -1.5270  1.1442 -0.9329
  750MPD2     N11142   0.019   0.991  12.084 -0.3575 -0.8779 -0.6109
  750MPD2    H511143   0.099   0.988  12.022 -0.3396 -0.2026 -0.6234
  750MPD2    N111144   4.397   1.292  12.203 -0.1943  0.5012 -0.0413
  750MPD2    H711145   4.356   1.380  12.174 -0.7267 -0.1997 -1.4198
  751TMC3    C111146   0.022   0.755  12.060  1.0495  0.1566  0.5027
  751TMC3    C211147   0.012   0.629  12.125  0.7025  1.4664 -0.0594
  751TMC3    C311148   0.021   0.518  12.050  0.1391  0.1963 -0.6362
  751TMC3    C411149   0.040   0.762  11.926 -0.1668 -0.1731 -0.1286
  751TMC3    C511150   0.030   0.645  11.852 -0.3371  0.1320  0.3874
  751TMC3    C611151   0.032   0.519  11.910 -0.0884  0.9595 -0.1846
  751TMC3     C11152   4.708   0.869  12.126 -0.1833  0.2522 -0.0285
  751TMC3     O11153   4.636   0.852  12.224 -0.1010 -0.1890 -0.2061
  751TMC3     H11154   4.740   0.625  12.233  1.9967  0.8078  0.0838
  751TMC3    H111155   0.033   0.858  11.876 -1.2057 -0.8279 -1.2640
  751TMC3    H211156   0.042   0.427  11.853 -0.6378  0.8641 -0.1320
  751TMC3    C711157   0.050   0.655  11.707 -0.4153  0.0393 -0.6794
  751TMC3    C811158   4.689   0.412  12.118 -0.0018  0.5672 -0.1479
  751TMC3    O111159   0.120   0.746  11.660  0.2614 -0.3786 -0.1980
  751TMC3    O211160   4.683   0.416  12.240  0.0012 -0.2771  0.1570
  752TMC3    C111161   3.759   0.055   0.342 -0.1595 -0.2317  0.3828
  752TMC3    C211162   3.679   4.699   0.285 -0.2187  0.5293 -0.3691
  752TMC3    C311163   3.595   4.633   0.367  0.1955 -0.1540 -0.2483
  752TMC3    C411164   3.752   0.090   0.477  0.7471 -0.7437 -0.7340
  752TMC3    C511165   3.668   0.016   0.556 -0.3092 -0.7174  0.2271
  752TMC3    C611166   3.579   4.667   0.500 -0.1856 -0.1425 -0.6821
  752TMC3     C11167   3.825   0.156   0.258 -0.3455  0.1157  0.2355
  752TMC3     O11168   3.910   0.226   0.314 -0.1271 -0.0822  0.2630
  752TMC3     H11169   3.688   4.665   0.182  1.2966  0.0527 -0.0690
  752TMC3    H111170   3.803   0.169   0.530 -0.9330 -2.1495  3.0067
  752TMC3    H211171   3.518   4.598   0.558  0.4210 -0.3101 -0.2390
  752TMC3    C711172   3.632   0.055   0.695 -0.1762  0.4227  0.2331
  752TMC3    C811173   3.526   4.518   0.316 -0.0200 -0.5656  0.1217
  752TMC3    O111174   3.572   4.712   0.761 -0.0548  0.0243  0.2248
  752TMC3    O211175   3.501   4.435   0.400 -0.8807 -0.7288  0.5401
  753TMC3    C111176   0.466   1.538  13.657  0.0452  0.0510 -0.3114
  753TMC3    C211177   0.539   1.542  13.772 -0.6961 -0.0162 -0.1288
  753TMC3    C311178   0.492   1.480  13.887 -0.6131  0.7503  0.0167
  753TMC3    C411179   0.350   1.460  13.656 -0.2556  0.2895  1.0477
  753TMC3    C511180   0.315   1.392  13.763 -0.0282  0.7609 -0.1879
  753TMC3    C611181   0.376   1.399  13.884 -0.1283 -0.2488  0.6171
  753TMC3     C11182   0.509   1.607  13.535 -0.0920 -0.5796  0.5143
  753TMC3     O11183   0.416   1.622  13.457  0.1528 -0.3012 -0.4642
  753TMC3     H11184   0.623   1.611  13.773 -0.7044 -0.0605  3.7432
  753TMC3    H111185   0.294   1.457  13.563  1.2292  0.7998  0.1393
  753TMC3    H211186   0.336   1.353  13.973  1.9729  0.6873  2.0401
  753TMC3    C711187   0.211   1.288  13.756 -1.0216  0.8749  0.4172
  753TMC3    C811188   0.568   1.485  14.010  0.1321 -0.8925 -0.6164
  753TMC3    O111189   0.161   1.264  13.867 -0.4949 -0.3109  0.3428
  753TMC3    O211190   0.510   1.454  14.111  0.1222  0.4247 -0.5699
  754MPD2     C11191   4.393   0.430  13.241 -0.5907  0.0845 -0.1464
  754MPD2    C111192   4.372   0.302  13.299  0.3335 -0.0907 -0.1351
  754MPD2    C211193   4.249   0.241  13.280 -0.8687 -0.0439 -0.4142
  754MPD2    C311194   4.153   0.310  13.203  0.5960  0.2361 -0.3564
  754MPD2    C411195   4.170   0.439  13.152 -0.7676  0.1219  0.1729
  754MPD2    C511196   4.290   0.492  13.172  0.5986  0.4947  0.0069
  754MPD2     H11197   4.229   0.139  13.311  1.7654 -0.1783  0.7718
  754MPD2    H111198   4.084   0.488  13.108 -0.1234 -0.3233 -1.5459
  754MPD2    H211199   4.485   0.484  13.260  0.1404 -0.6613 -1.5949
  754MPD2    H311200   4.304   0.596  13.145 -1.6028  1.0697  1.1029
  754MPD2     N11201   4.023   0.258  13.188  0.1819 -0.3025  0.2910
  754MPD2    H511202   3.952   0.323  13.156  0.8960 -0.5116 -1.7581
  754MPD2    N111203   4.458   0.253  13.400 -0.5756 -0.1860 -0.3918
  754MPD2    H711204   4.532   0.316  13.427 -2.6741  1.0976  2.3243
  755MPD2     C11205   3.219   0.557  13.385  0.2186 -0.6051 -0.4672
  755MPD2    C111206   3.323   0.532  13.473 -1.4359  0.3085 -0.1327
  755MPD2    C211207   3.437   0.478  13.415  0.4642  0.4321 -0.0418
  755MPD2    C311208   3.451   0.442  13.282 -0.3853  0.6827 -0.1668
  755MPD2    C411209   3.348   0.476  13.203 -0.4757 -0.5252 -0.1940
  755MPD2    C511210   3.235   0.530  13.255 -0.9223  0.5070  0.0954
  755MPD2     H11211   3.525   0.467  13.477 -0.1615  0.9573  0.9321
  755MPD2    H111212   3.347   0.478  13.094 -2.5768 -4.4172 -0.2481
  755MPD2    H211213   3.123   0.597  13.417  0.5418 -0.1071 -0.1195
  755MPD2    H311214   3.160   0.549  13.179 -0.7080 -2.1788 -0.8089
  755MPD2     N11215   3.561   0.363  13.239  0.2890  0.5082  0.1056
  755MPD2    H511216   3.633   0.332  13.304  2.2086  2.2269 -1.2325
  755MPD2    N111217   3.322   0.570  13.610  0.2686  0.7489  0.0835
  755MPD2    H711218   3.411   0.585  13.657  1.3150 -0.7270 -1.4332
  756MPD2     C11219   0.189   1.658  10.092  0.5072 -0.3217  0.1387
  756MPD2    C111220   0.079   1.608  10.156  0.8730  0.3703  0.2797
  756MPD2    C211221   4.717   1.557  10.084 -0.1675  0.0105  0.5135
  756MPD2    C311222   4.721   1.549   9.949 -0.5022 -0.1387  0.0144
  756MPD2    C411223   0.097   1.588   9.881 -1.2520  0.1760  0.1751
  756MPD2    C511224   0.196   1.650   9.958  0.8819 -0.0822  0.4027
  756MPD2     H11225   4.622   1.524  10.125 -0.0514 -0.4355  0.4312
  756MPD2    H111226   0.101   1.582   9.773 -0.8300 -0.0397  0.2015
  756MPD2    H211227   0.267   1.710  10.147 -0.1128  0.7443  0.0159
  756MPD2    H311228   0.287   1.684   9.911  0.9551 -0.7074  0.0924
  756MPD2     N11229   4.609   1.482   9.891 -0.2211 -0.3176 -0.1990
  756MPD2    H511230   4.547   1.436   9.958  1.3811 -0.4393  1.1898
  756MPD2    N111231   0.069   1.611  10.297  0.3122  0.3079 -0.5804
  756MPD2    H711232   4.731   1.560  10.335 -0.2335  0.9599 -0.8523
  757MPD2     C11233   3.656   1.649   9.559 -0.6850 -0.0463  0.2958
  757MPD2    C111234   3.666   1.528   9.622 -0.2142  0.4608 -0.6612
  757MPD2    C211235   3.784   1.457   9.626  0.1719 -0.0343  1.3743
  757MPD2    C311236   3.900   1.509   9.563 -0.3420  0.2180 -0.9136
  757MPD2    C411237   3.895   1.629   9.497  0.1606 -0.3085  0.3208
  757MPD2    C511238   3.770   1.699   9.508 -0.5786 -0.2200 -0.5955
  757MPD2     H11239   3.786   1.362   9.678 -0.8588 -0.5211  0.5364
  757MPD2    H111240   3.978   1.671   9.440 -1.2204 -0.8226 -2.0647
  757MPD2    H211241   3.568   1.712   9.569 -0.0551  1.0948 -1.2920
  757MPD2    H311242   3.763   1.794   9.457 -0.0455  0.8912  1.4341
  757MPD2     N11243   4.020   1.436   9.582  0.6330 -0.2073 -0.2189
  757MPD2    H511244   4.014   1.357   9.645  1.1430 -2.2733 -2.7548
  757MPD2    N111245   3.551   1.488   9.690 -0.1702 -0.0447 -0.2059
  757MPD2    H711246   3.468   1.546   9.679 -1.3333 -1.9337 -1.4794
  758MPD2     C11247   4.083   4.083  16.135  0.0523  0.4998  0.2053
  758MPD2    C111248   4.189   4.163  16.149  0.1073 -0.1927 -0.4677
  758MPD2    C211249   4.165   4.277  16.221  0.5490 -0.7416  0.2648
  758MPD2    C311250   4.048   4.304  16.294 -0.7127  0.1911 -0.0527
  758MPD2    C411251   3.944   4.217  16.282 -0.0805  0.6794  0.6531
  758MPD2    C511252   3.961   4.110  16.195 -0.1581 -0.3679 -0.2255
  758MPD2     H11253   4.241   4.355  16.220  0.6593 -0.8415  1.3017
  758MPD2    H111254   3.849   4.242  16.328  0.2425  1.7515  0.7337
  758MPD2    H211255   4.097   3.985  16.090 -0.7436  0.6172 -0.3094
  758MPD2    H311256   3.882   4.040  16.170 -0.3851 -0.7402  1.5184
  758MPD2     N11257   4.026   4.431  16.362 -0.5575 -0.1149 -0.3541
  758MPD2    H511258   3.933   4.458  16.394  0.1568 -1.1662  2.5435
  758MPD2    N111259   4.319   4.136  16.104 -0.0975 -0.0851 -0.0438
  758MPD2    H711260   4.389   4.209  16.109 -3.0392  2.7948 -1.1265
  759MPD2     C11261   3.601   1.885  10.246  0.6593  0.3112 -1.0527
  759MPD2    C111262   3.461   1.873  10.249 -0.1421 -0.2353 -0.5444
  759MPD2    C211263   3.375   1.961  10.182  0.4123 -0.2132  0.5722
  759MPD2    C311264   3.431   2.075  10.115  0.4556 -0.2483  0.2227
  759MPD2    C411265   3.566   2.085  10.118 -0.6521  0.6848 -0.4278
  759MPD2    C511266   3.649   1.999  10.187 -0.1866 -0.5505 -0.2511
  759MPD2     H11267   3.274   1.932  10.156  1.0900 -2.7902  0.8045
  759MPD2    H111268   3.614   2.164  10.061  0.2922  1.3663  1.3037
  759MPD2    H211269   3.679   1.834  10.302  0.1952 -1.1078 -1.7049
  759MPD2    H311270   3.757   2.011  10.191 -0.2831  0.4682 -0.6181
  759MPD2     N11271   3.353   2.158  10.041  0.8247  0.6435 -0.5053
  759MPD2    H511272   3.259   2.121  10.050  1.4018 -0.7770 -0.3980
  759MPD2    N111273   3.406   1.758  10.314 -0.1315 -0.4045 -0.0852
  759MPD2    H711274   3.305   1.758  10.304  0.0569 -0.5256 -2.0825
  760MPD2     C11275   2.226   0.759  11.545  0.4427  0.7883 -0.1609
  760MPD2    C111276   2.278   0.759  11.675 -0.7071 -0.1219  0.3545
  760MPD2    C211277   2.319   0.635  11.733  0.0245 -0.1294  0.8594
  760MPD2    C311278   2.315   0.519  11.658 -0.1766 -0.0494 -0.1787
  760MPD2    C411279   2.253   0.522  11.535  0.0681  0.4850 -0.6182
  760MPD2    C511280   2.221   0.641  11.474 -0.0962 -0.1609 -0.7928
  760MPD2     H11281   2.366   0.634  11.831  2.3099  0.5605 -0.2505
  760MPD2    H111282   2.236   0.430  11.479  0.2583  0.2302 -0.2578
  760MPD2    H211283   2.195   0.848  11.490 -0.5244 -1.0339 -2.5789
  760MPD2    H311284   2.178   0.631  11.375 -1.0332  3.1155 -0.7329
  760MPD2     N11285   2.379   0.403  11.705  0.0712  0.6726 -1.0454
  760MPD2    H511286   2.377   0.324  11.641  0.8818 -1.8978  2.0637
  760MPD2    N111287   2.310   0.878  11.738  0.5314 -0.5373  0.0506
  760MPD2    H711288   2.361   0.862  11.824  0.5279 -0.1573  0.1257
  761MPD2     C11289   4.328   0.042  12.093  0.3217 -0.1215  0.5381
  761MPD2    C111290   4.368   0.083  11.968  0.2563  0.5587  0.0569
  761MPD2    C211291   4.476   0.164  11.960 -0.1440 -0.0580  0.7046
  761MPD2    C311292   4.523   0.238  12.063  0.4279 -0.2148  0.4769
  761MPD2    C411293   4.477   0.201  12.193  0.4987  0.7537 -0.2845
  761MPD2    C511294   4.382   0.103  12.201 -0.1062 -0.0610  0.8095
  761MPD2     H11295   4.524   0.189  11.866 -3.1181  0.3133 -0.7079
  761MPD2    H111296   4.512   0.249  12.283  1.4607 -0.5784  0.0335
  761MPD2    H211297   4.257   4.703  12.109  1.0688 -0.6081  1.3772
  761MPD2    H311298   4.353   0.064  12.298 -0.1176 -1.7571  0.1091
  761MPD2     N11299   4.617   0.337  12.035 -0.0655  0.0619 -0.1256
  761MPD2    H511300   4.638   0.351  11.936  0.9166  0.7805  0.1826
  761MPD2    N111301   4.301   0.039  11.850  0.0306 -0.2852 -0.5820
  761MPD2    H711302   4.226   4.712  11.855 -1.0011  0.8944  0.3222
  762MPD2     C11303   4.264   4.623  10.956  0.4872 -0.0651  0.1787
  762MPD2    C111304   4.289   4.720  11.045  0.5591  0.0854  0.1305
  762MPD2    C211305   4.363   0.092  11.003  0.0839  0.2591 -0.4469
  762MPD2    C311306   4.407   0.108  10.867  0.1912  0.7215 -1.0430
  762MPD2    C411307   4.382   0.004  10.781 -0.8548 -0.4578 -0.1120
  762MPD2    C511308   4.306   4.638  10.824 -0.2661  0.4791  0.6801
  762MPD2     H11309   4.390   0.174  11.068  0.4096  1.0420 -1.5874
  762MPD2    H111310   4.407   0.007  10.676  0.3502  0.9728  0.2243
  762MPD2    H211311   4.198   4.539  10.976  3.0088 -1.6107  1.9437
  762MPD2    H311312   4.288   4.551  10.762  1.4669  0.2764  0.4554
  762MPD2     N11313   4.491   0.213  10.841  0.2977  0.4543  0.0693
  762MPD2    H511314   4.524   0.268  10.920  0.6566  0.4274 -0.0648
  762MPD2    N111315   4.241   4.706  11.181 -0.4404  0.1111  0.7543
  762MPD2    H711316   4.190   4.620  11.201 -0.4575  0.4066  1.9447
  763MPD2     C11317   1.448   4.663  16.092 -0.5702  0.7005 -0.4399
  763MPD2    C111318   1.343   0.004  16.040 -0.2934  0.1153 -0.0408
  763MPD2    C211319   1.336   0.137  16.086  0.6111  0.5845 -0.0099
  763MPD2    C311320   1.436   0.182  16.166 -0.1654  0.0874 -0.2564
  763MPD2    C411321   1.549   0.111  16.194 -0.2783 -0.7816  0.5710
  763MPD2    C511322   1.555   4.718  16.156  0.1782  0.6301 -0.4656
  763MPD2     H11323   1.256   0.206  16.062 -0.8058 -1.4816 -1.2079
  763MPD2    H111324   1.627   0.157  16.253  0.4492 -0.4649 -0.6260
  763MPD2    H211325   1.459   4.557  16.075  1.3002  0.8327 -0.0593
  763MPD2    H311326   1.624   4.643  16.193 -0.6002  0.0378 -0.2174
  763MPD2     N11327   1.450   0.315  16.217 -0.5207 -0.3857  0.4786
  763MPD2    H511328   1.540   0.333  16.260  0.0422  0.9583 -1.2326
  763MPD2    N111329   1.241   4.703  15.948  0.1003 -0.5967  0.4435
  763MPD2    H711330   1.181   0.030  15.903  0.0259 -1.0971 -0.2119
  764MPD2     C11331   4.242   0.765  17.646 -0.7178 -0.5225 -0.3940
  764MPD2    C111332   4.223   0.902  17.661  0.1337 -0.4058  0.2569
  764MPD2    C211333   4.218   0.955   0.030  0.4282 -0.6725 -0.4081
  764MPD2    C311334   4.243   0.872   0.137  0.2439  0.5359 -0.0043
  764MPD2    C411335   4.249   0.734   0.116  1.2891 -0.1223 -0.1818
  764MPD2    C511336   4.251   0.685  17.755 -0.8182  0.5298  0.2417
  764MPD2     H11337   4.208   1.062   0.045  0.8151 -0.9544  1.7471
  764MPD2    H111338   4.266   0.662   0.195 -2.9177 -1.3371 -0.4290
  764MPD2    H211339   4.258   0.712  17.553  1.6668 -0.3326 -0.1039
  764MPD2    H311340   4.253   0.580  17.729  0.4313  0.7854 -0.7398
  764MPD2     N11341   4.259   0.922   0.273  0.3863 -0.4570  0.3228
  764MPD2    H511342   4.286   1.019   0.284 -1.3315  0.1137 -0.4147
  764MPD2    N111343   4.198   0.994  17.550  0.4504 -0.0754  0.2168
  764MPD2    H711344   4.184   1.090  17.577 -1.4342  0.6391 -3.3308
  765MPD2     C11345   3.974   4.091  15.611 -0.2956  0.1225  0.1152
  765MPD2    C111346   4.081   4.130  15.691 -0.2512 -0.7450 -0.1038
  765MPD2    C211347   4.197   4.058  15.695 -0.1161 -0.2196  0.8386
  765MPD2    C311348   4.207   3.936  15.631 -0.5364  0.0517 -0.0478
  765MPD2    C411349   4.099   3.898  15.552  0.4781  0.0582  0.5706
  765MPD2    C511350   3.986   3.970  15.555 -0.0714  0.4147 -0.4773
  765MPD2     H11351   4.277   4.094  15.759  1.1771  0.5928 -1.2068
  765MPD2    H111352   4.101   3.801  15.504  1.1779 -0.8099  2.3291
  765MPD2    H211353   3.878   4.140  15.601 -0.9215 -1.1107  0.1466
  765MPD2    H311354   3.898   3.926  15.508 -1.0569  1.9234 -0.0385
  765MPD2     N11355   4.322   3.858  15.651  0.2292 -0.9363  0.0818
  765MPD2    H511356   4.404   3.911  15.677 -1.2344  1.2871  0.1877
  765MPD2    N111357   4.072   4.247  15.772 -0.2529 -0.7169 -0.6355
  765MPD2    H711358   3.986   4.298  15.761 -0.7806 -1.2801  0.9386
  766MPD2     C11359   3.582   4.332  15.702  0.6321 -0.0778  0.4261
  766MPD2    C111360   3.708   4.388  15.672  0.3528 -0.1675  0.1752
  766MPD2    C211361   3.752   4.367  15.543  0.1628  0.3720 -0.0469
  766MPD2    C311362   3.678   4.307  15.447 -0.6890 -0.1997  0.0800
  766MPD2    C411363   3.548   4.262  15.480 -0.3306  0.3895 -0.5242
  766MPD2    C511364   3.505   4.276  15.608  0.3166 -0.4756  0.5044
  766MPD2     H11365   3.852   4.402  15.521  0.5609  0.8751  2.5034
  766MPD2    H111366   3.494   4.229  15.392  0.2261  1.3030 -1.2087
  766MPD2    H211367   3.538   4.351  15.799  2.8008  0.4967  1.3054
  766MPD2    H311368   3.403   4.246  15.631 -0.5797  0.6539 -2.0061
  766MPD2     N11369   3.720   4.299  15.311  0.6693  0.1670  0.5187
  766MPD2    H511370   3.653   4.271  15.239  0.8791 -0.9097  0.7340
  766MPD2    N111371   3.794   4.460  15.753  0.1409  0.2588  0.1845
  766MPD2    H711372   3.877   4.500  15.710 -0.3508  0.8115 -0.2473
  767MPD2     C11373   3.330   4.492  15.440 -0.4473 -0.8305 -0.6910
  767MPD2    C111374   3.419   4.559  15.353  0.4859 -0.5657 -0.4054
  767MPD2    C211375   3.408   4.522  15.215 -0.1761  0.2099 -0.0662
  767MPD2    C311376   3.299   4.453  15.164  0.4960 -0.3582 -0.5609
  767MPD2    C411377   3.205   4.404  15.253  0.5273  0.7454 -0.1381
  767MPD2    C511378   3.225   4.416  15.391 -0.0105 -0.1435 -0.1824
  767MPD2     H11379   3.473   4.561  15.137 -0.8333  1.6170  0.0864
  767MPD2    H111380   3.125   4.341  15.217  0.3322  1.3739 -0.8240
  767MPD2    H211381   3.340   4.508  15.546 -2.1836 -0.1452 -0.6261
  767MPD2    H311382   3.155   4.366  15.457  0.8284 -0.8007  0.2137
  767MPD2     N11383   3.290   4.429  15.023  0.8829 -0.1925 -0.0331
  767MPD2    H511384   3.372   4.467  14.978 -0.6133  1.2898 -1.5036
  767MPD2    N111385   3.519   4.650  15.400  0.6795  0.0287 -0.0532
  767MPD2    H711386   3.541   4.653  15.499  0.1747 -2.2863  0.1207
  768MPD2     C11387   4.242   3.300  10.629  0.4193 -0.5390  0.7929
  768MPD2    C111388   4.176   3.311  10.749 -0.8241  0.0640 -0.8520
  768MPD2    C211389   4.249   3.292  10.863  0.2265 -0.0728 -0.3974
  768MPD2    C311390   4.375   3.239  10.866  0.3785 -0.2149 -0.3301
  768MPD2    C411391   4.435   3.206  10.747 -0.7595 -0.0523  0.2422
  768MPD2    C511392   4.375   3.249  10.630  0.4857  0.3018 -0.2634
  768MPD2     H11393   4.189   3.296  10.953 -0.6403 -0.1154 -0.9751
  768MPD2    H111394   4.531   3.159  10.728 -0.2988  2.3984 -3.3708
  768MPD2    H211395   4.192   3.315  10.534  0.2218 -2.2650  0.6273
  768MPD2    H311396   4.427   3.231  10.536  1.8601  1.5944  0.2519
  768MPD2     N11397   4.439   3.221  10.991  0.3208 -0.1080 -0.2253
  768MPD2    H511398   4.527   3.170  10.982  0.6581  0.8292 -2.2775
  768MPD2    N111399   4.042   3.357  10.760 -0.1856  0.4033  0.9661
  768MPD2    H711400   3.996   3.381  10.848 -1.1737 -1.4080  0.9386
  769MPD2     C11401   0.478   0.634  14.757  0.1038  0.3304 -0.2904
  769MPD2    C111402   0.385   0.730  14.794  0.2406  0.6538  0.2699
  769MPD2    C211403   0.416   0.812  14.897 -0.3521 -0.0477 -0.0316
  769MPD2    C311404   0.544   0.813  14.950 -0.2105 -0.5203  0.3701
  769MPD2    C411405   0.645   0.727  14.907  0.3438  0.7073  0.6352
  769MPD2    C511406   0.607   0.629  14.813 -1.0194  0.5904 -0.3461
  769MPD2     H11407   0.348   0.890  14.926  0.0237  0.6824 -1.1051
  769MPD2    H111408   0.738   0.716  14.961  0.4427 -2.5793 -0.1796
  769MPD2    H211409   0.459   0.556  14.684 -0.5068  0.0819  0.1306
  769MPD2    H311410   0.674   0.548  14.790 -2.0010 -0.5268  0.7331
  769MPD2     N11411   0.567   0.889  15.069 -0.2657 -0.1049 -0.2597
  769MPD2    H511412   0.492   0.925  15.127 -0.8052  0.5711 -1.3697
  769MPD2    N111413   0.264   0.728  14.723  0.2232 -0.4158  0.7695
  769MPD2    H711414   0.257   0.656  14.652 -0.7074 -1.3260  1.7919
  770MPD2     C11415   4.718   0.003  14.550 -0.0314  0.2539  0.2636
  770MPD2    C111416   4.722   0.066  14.676  0.2943 -0.3764 -0.2743
  770MPD2    C211417   4.706   0.205  14.672  0.3797 -0.3914 -0.5588
  770MPD2    C311418   4.690   0.282  14.552  0.4429  0.2517 -0.2230
  770MPD2    C411419   4.683   0.212  14.439  0.3642 -0.2490  0.0994
  770MPD2    C511420   4.694   0.075  14.435 -0.2615  0.1824  0.4815
  770MPD2     H11421   4.694   0.265  14.762 -0.6453 -1.2440 -0.1263
  770MPD2    H111422   4.683   0.262  14.343 -1.3933 -2.0400 -0.8395
  770MPD2    H211423   4.710   4.637  14.540  0.4668  0.2595 -0.2212
  770MPD2    H311424   4.662   0.038  14.338  0.4912  2.6382 -0.6849
  770MPD2     N11425   4.674   0.423  14.566 -0.4580  0.1987  0.3356
  770MPD2    H511426   4.679   0.454  14.663  2.5299 -0.8391  0.5189
  770MPD2    N111427   4.728   4.726  14.797 -0.2950  0.4637  0.1612
  770MPD2    H711428   4.711   4.626  14.792  0.4424  0.4122 -1.2901
  771MPD2     C11429   1.446   3.501  14.159  1.2125 -0.1883 -0.7314
  771MPD2    C111430   1.357   3.612  14.159  0.3123  0.2975  0.0961
  771MPD2    C211431   1.244   3.606  14.083  0.4970 -0.2899 -0.3389
  771MPD2    C311432   1.216   3.501  14.003  0.3139 -0.5659  0.3994
  771MPD2    C411433   1.302   3.396  14.001 -0.0761 -0.0081  0.3996
  771MPD2    C511434   1.408   3.391  14.082  0.0208 -0.2728  1.0243
  771MPD2     H11435   1.184   3.696  14.078 -0.3052 -0.8700 -1.0922
  771MPD2    H111436   1.286   3.307  13.940  0.2297 -0.3077  0.7563
  771MPD2    H211437   1.541   3.494  14.211  0.0613 -3.0581  0.9634
  771MPD2    H311438   1.474   3.304  14.085  0.0035 -0.3201 -0.0021
  771MPD2     N11439   1.110   3.516  13.911 -0.0905 -0.4000  0.9321
  771MPD2    H511440   1.051   3.596  13.929  0.4119 -0.2997  2.1102
  771MPD2    N111441   1.394   3.736  14.205  0.1895 -0.9612  0.1032
  771MPD2    H711442   1.345   3.820  14.176 -0.2086  0.0381  3.6539
  772MPD2     C11443   1.172   4.379  14.057  0.6291 -0.5814 -0.2121
  772MPD2    C111444   1.152   4.249  14.086 -0.6493 -0.8420 -0.0401
  772MPD2    C211445   1.029   4.191  14.079  0.2847 -0.0690  0.4884
  772MPD2    C311446   0.920   4.265  14.038 -0.1129 -0.2083 -0.5156
  772MPD2    C411447   0.943   4.394  13.998  0.3094  0.4305  0.0882
  772MPD2    C511448   1.065   4.450  14.006 -0.6353 -0.2243 -0.4631
  772MPD2     H11449   1.013   4.093  14.123  0.2899 -0.6000 -0.6980
  772MPD2    H111450   0.865   4.450  13.948 -0.3968  0.2929  1.0350
  772MPD2    H211451   1.267   4.429  14.069  0.5640 -0.7023  0.7591
  772MPD2    H311452   1.074   4.553  13.976 -1.3418 -0.3989 -1.2531
  772MPD2     N11453   0.793   4.216  14.009 -0.4539  0.4277 -0.8434
  772MPD2    H511454   0.729   4.286  13.971 -1.2031  0.4973  0.5592
  772MPD2    N111455   1.260   4.166  14.128  0.2366  0.1394 -0.1448
  772MPD2    H711456   1.256   4.065  14.129 -1.3283  0.2027  1.1098
  773MPD2     C11457   0.007   0.306  17.746 -0.0800  0.2721  0.5021
  773MPD2    C111458   4.736   0.185  17.698 -0.0358  0.4074  0.5160
  773MPD2    C211459   0.031   0.083   0.014  0.5245 -0.2400 -0.3335
  773MPD2    C311460   0.095   0.094   0.133 -0.1978 -0.5769  0.1750
  773MPD2    C411461   0.100   0.217   0.189 -0.1077  0.0395  0.1946
  773MPD2    C511462   0.052   0.325   0.117 -0.2009 -0.3612  0.0152
  773MPD2     H11463   0.020   4.725  17.734  2.0463 -1.2455  1.5675
  773MPD2    H111464   0.131   0.250   0.287  2.4543 -1.0268 -0.2646
  773MPD2    H211465   4.714   0.389  17.687  0.5091 -0.0766 -0.3299
  773MPD2    H311466   0.059   0.429   0.145 -0.0380 -0.5180  0.5559
  773MPD2     N11467   0.137   4.712   0.196  0.0511  0.0744 -0.0624
  773MPD2    H511468   0.124   4.629   0.139  0.9026  0.2536 -0.5193
  773MPD2    N111469   4.676   0.155  17.576 -0.1032 -0.0579 -0.0683
  773MPD2    H711470   4.643   0.059  17.574  1.3215 -0.5500  0.0395
  774MPD2     C11471   3.999   4.417  14.100  0.0880  0.9969 -0.5158
  774MPD2    C111472   4.082   4.378  13.998  0.6828  0.5247  0.2978
  774MPD2    C211473   4.148   4.472  13.916  0.1362  0.8265  0.6490
  774MPD2    C311474   4.125   4.609  13.936  0.4948 -0.0940  0.3370
  774MPD2    C411475   4.043   4.648  14.042  0.8642  0.5780  0.7104
  774MPD2    C511476   3.980   4.552  14.122  0.0390  1.1525  0.3327
  774MPD2     H11477   4.212   4.450  13.832  0.7272 -0.6287  1.4863
  774MPD2    H111478   4.021   0.010  14.066 -1.1510  0.0271  1.2596
  774MPD2    H211479   3.939   4.351  14.162  2.4550 -1.2789 -0.6319
  774MPD2    H311480   3.917   4.587  14.203 -2.2181  0.9157 -1.3061
  774MPD2     N11481   4.175   4.708  13.845  0.2687 -0.4456  0.5080
  774MPD2    H511482   4.234   4.663  13.775 -1.8253 -1.1137 -0.8185
  774MPD2    N111483   4.083   4.240  13.973  0.3702 -0.6719  0.1345
  774MPD2    H711484   4.038   4.170  14.031 -1.4889 -0.2652 -0.8296
  775MPD2     C11485   0.891   0.521  15.634  0.0940  0.2590 -0.1260
  775MPD2    C111486   0.876   0.646  15.696  0.2216 -0.3067 -0.0253
  775MPD2    C211487   0.961   0.749  15.649 -0.1027 -0.2637  0.0736
  775MPD2    C311488   1.060   0.720  15.556 -0.1340 -0.3518  0.0874
  775MPD2    C411489   1.069   0.592  15.501 -0.1960 -0.3384 -0.0557
  775MPD2    C511490   0.988   0.496  15.543  0.5934 -0.0395  0.5439
  775MPD2     H11491   0.952   0.848  15.691  2.1740  0.2062 -0.5294
  775MPD2    H111492   1.139   0.574  15.421  0.0685  0.7497 -0.0674
  775MPD2    H211493   0.823   0.438  15.648 -2.1474  2.1027 -0.0903
  775MPD2    H311494   0.997   0.390  15.518 -2.3599 -0.0347 -0.6249
  775MPD2     N11495   1.150   0.817  15.513 -1.0442  0.6296  0.0909
  775MPD2    H511496   1.214   0.787  15.439 -0.5495  0.4280  0.6025
  775MPD2    N111497   0.805   0.657  15.817  0.6684 -0.2484  0.0173
  775MPD2    H711498   0.750   0.574  15.836 -0.3921  0.0898 -1.5871
  776MPD2     C11499   3.805   1.318  11.666 -1.2370  0.2199  0.6780
  776MPD2    C111500   3.887   1.386  11.750  0.0311 -0.3437  0.2008
  776MPD2    C211501   3.917   1.517  11.728 -0.5713 -0.1438 -0.0806
  776MPD2    C311502   3.872   1.581  11.610 -0.0435 -1.1102  0.2511
  776MPD2    C411503   3.774   1.519  11.535 -0.4003 -0.7235  0.0487
  776MPD2    C511504   3.748   1.385  11.561 -0.3680  0.0370 -0.4470
  776MPD2     H11505   3.976   1.577  11.797 -0.4534 -0.7733  0.3686
  776MPD2    H111506   3.727   1.568  11.451  0.5602 -0.1705 -0.1684
  776MPD2    H211507   3.783   1.213  11.677  1.8501 -0.4852  0.1709
  776MPD2    H311508   3.673   1.337  11.499 -2.1357  2.9504 -0.5792
  776MPD2     N11509   3.912   1.718  11.568 -0.1790  0.3217 -0.3453
  776MPD2    H511510   3.876   1.757  11.482  0.7515 -0.8481 -1.2647
  776MPD2    N111511   3.936   1.318  11.864  0.1556  0.4889 -0.2334
  776MPD2    H711512   3.939   1.217  11.863 -0.0473  0.4993 -1.6342
  777MPD2     C11513   0.450   3.122   0.717 -0.2794  0.7934 -0.5146
  777MPD2    C111514   0.359   3.109   0.813  0.6186 -0.5646 -0.0991
  777MPD2    C211515   0.271   2.999   0.804  0.6149 -0.2140  0.5619
  777MPD2    C311516   0.271   2.921   0.691  0.1135 -0.9705  0.4076
  777MPD2    C411517   0.364   2.942   0.597 -0.1169  0.0285  0.2140
  777MPD2    C511518   0.456   3.041   0.606 -0.1533 -0.4371  0.1455
  777MPD2     H11519   0.202   2.964   0.880 -3.0110 -0.7453 -2.9992
  777MPD2    H111520   0.379   2.879   0.510  0.2069  0.0795  0.2315
  777MPD2    H211521   0.516   3.208   0.721 -0.9835  1.3611 -1.1759
  777MPD2    H311522   0.522   3.051   0.520  0.7803  0.6720  0.9889
  777MPD2     N11523   0.177   2.819   0.680  0.0359 -0.1147 -0.0529
  777MPD2    H511524   0.106   2.812   0.752  1.4745  0.6491  1.4494
  777MPD2    N111525   0.370   3.186   0.924  0.2399 -0.0850  0.0804
  777MPD2    H711526   0.452   3.245   0.932  1.5058 -2.0801  1.8661
  778MPD2     C11527   1.571   3.098  14.907  0.8150  0.0858  0.0017
  778MPD2    C111528   1.529   3.156  14.789 -0.3394  0.4419 -0.1487
  778MPD2    C211529   1.605   3.248  14.725 -0.0048  0.2603  0.5305
  778MPD2    C311530   1.730   3.287  14.768 -0.6030  0.2118 -0.4018
  778MPD2    C411531   1.781   3.223  14.881  0.5325 -0.5676  0.2923
  778MPD2    C511532   1.703   3.127  14.943  0.1729  0.3156  0.4123
  778MPD2     H11533   1.570   3.275  14.625  1.6649 -0.2977 -0.2023
  778MPD2    H111534   1.872   3.254  14.932 -0.5783 -0.0671  1.9514
  778MPD2    H211535   1.524   3.027  14.973  1.1502  1.2420  1.4796
  778MPD2    H311536   1.741   3.074  15.029 -0.4699  1.3641  1.3440
  778MPD2     N11537   1.798   3.396  14.706 -0.3867 -0.0931 -0.2611
  778MPD2    H511538   1.738   3.445  14.640 -1.1966  0.1975  0.6896
  778MPD2    N111539   1.411   3.106  14.724  0.1683  0.1418  0.4974
  778MPD2    H711540   1.405   3.134  14.626 -1.9743  0.5966  0.7410
  779MPD2     C11541   1.478   2.181  13.599  0.2393  0.6345 -0.0062
  779MPD2    C111542   1.504   2.169  13.735 -0.1166  0.8818  0.0195
  779MPD2    C211543   1.514   2.287  13.811  0.4204 -0.3261 -0.2512
  779MPD2    C311544   1.484   2.410  13.764 -0.7653 -0.5287 -0.3790
  779MPD2    C411545   1.443   2.412  13.630  0.4100 -0.0067 -0.4879
  779MPD2    C511546   1.445   2.304  13.547  0.1738 -0.0762 -0.0807
  779MPD2     H11547   1.540   2.272  13.915 -0.0255  2.7004  0.3091
  779MPD2    H111548   1.421   2.507  13.582 -0.6206 -0.6440 -1.2569
  779MPD2    H211549   1.479   2.095  13.533 -2.6107 -0.2757  1.1458
  779MPD2    H311550   1.420   2.327  13.444 -0.3205 -0.9421 -0.1526
  779MPD2     N11551   1.487   2.531  13.839  0.5063  0.4811 -0.4540
  779MPD2    H511552   1.540   2.515  13.925 -0.9154 -0.0987  0.3116
  779MPD2    N111553   1.533   2.041  13.801  0.7276  0.2107 -0.0833
  779MPD2    H711554   1.564   2.045  13.898 -0.1250  0.1410  0.1965
  780MPD2     C11555   0.721   2.449   1.020  0.4688 -0.3448  0.0568
  780MPD2    C111556   0.634   2.379   0.941 -0.5468 -1.0524  0.0094
  780MPD2    C211557   0.656   2.357   0.806 -0.1460 -0.5435 -0.1628
  780MPD2    C311558   0.771   2.409   0.747  0.0987 -0.6365  0.4145
  780MPD2    C411559   0.847   2.495   0.820 -0.0113 -0.0147 -0.6960
  780MPD2    C511560   0.823   2.513   0.954  0.4502  0.2700  0.4216
  780MPD2     H11561   0.584   2.305   0.744  0.2280 -1.4813  0.1957
  780MPD2    H111562   0.930   2.555   0.786  1.2996 -1.1543  0.5274
  780MPD2    H211563   0.714   2.462   1.127  1.1707 -0.6961  0.1407
  780MPD2    H311564   0.885   2.579   1.013  0.2780  1.0941 -0.3366
  780MPD2     N11565   0.788   2.388   0.606  0.3203 -0.2706 -0.2871
  780MPD2    H511566   0.723   2.338   0.545 -0.3620  1.9152 -1.3639
  780MPD2    N111567   0.523   2.311   1.006 -0.2067  0.3548 -0.0939
  780MPD2    H711568   0.521   2.307   1.108  2.1624 -0.7842 -0.0737
  781MPD2     C11569   2.016   4.520  12.387 -0.4247  0.0525 -0.5431
  781MPD2    C111570   2.131   4.542  12.463  0.0878  0.7634 -0.5055
  781MPD2    C211571   2.221   4.644  12.427  0.4221 -0.2726  0.5125
  781MPD2    C311572   2.200   4.714  12.313  0.4748  0.2059  0.6144
  781MPD2    C411573   2.090   4.692  12.235  0.1689  0.1309  0.3577
  781MPD2    C511574   2.002   4.591  12.274 -0.2916  0.2504 -0.1901
  781MPD2     H11575   2.308   4.658  12.490  0.7231 -1.2526  0.3141
  781MPD2    H111576   2.069   0.002  12.142  1.9435  0.2026 -0.0040
  781MPD2    H211577   1.954   4.433  12.400 -0.7464  0.7845  2.7802
  781MPD2    H311578   1.920   4.565  12.208 -1.0256  1.4365  0.2539
  781MPD2     N11579   2.292   0.064  12.254 -0.0834 -0.5687  0.1552
  781MPD2    H511580   2.255   0.120  12.177  1.0327 -0.9042 -0.6280
  781MPD2    N111581   2.164   4.462  12.572  0.6960 -0.2766 -0.2692
  781MPD2    H711582   2.256   4.471  12.614  0.4646 -2.1810  0.6410
  782MPD2     C11583   0.534   1.087  10.646  0.3193 -0.4110 -0.3881
  782MPD2    C111584   0.569   1.043  10.773  0.1723  0.8808 -0.5328
  782MPD2    C211585   0.647   1.123  10.844 -0.4107  0.0164 -0.5317
  782MPD2    C311586   0.684   1.249  10.800  0.0445  0.6866 -0.8236
  782MPD2    C411587   0.629   1.302  10.685 -0.6346 -0.6518  0.0544
  782MPD2    C511588   0.571   1.212  10.603 -0.4119 -0.2699 -0.1545
  782MPD2     H11589   0.687   1.081  10.936 -0.1814  1.7018  0.1450
  782MPD2    H111590   0.653   1.397  10.639  0.1776  1.5778  5.1398
  782MPD2    H211591   0.475   1.026  10.578 -1.6279 -0.2741  1.1980
  782MPD2    H311592   0.559   1.243  10.500 -1.2404 -1.5549 -0.4418
  782MPD2     N11593   0.770   1.328  10.879 -0.1891  0.4797  0.0232
  782MPD2    H511594   0.813   1.284  10.959 -1.4393  0.0610  0.4650
  782MPD2    N111595   0.543   0.920  10.834  0.0377 -0.5809  0.5310
  782MPD2    H711596   0.573   0.908  10.930  0.4246  0.0719  0.4900
  783MPD2     C11597   4.689   0.394  11.469  0.2900  1.0884 -0.3273
  783MPD2    C111598   0.024   0.499  11.517  0.5312 -0.2626  1.0039
  783MPD2    C211599   0.123   0.553  11.432 -0.0719  0.4534 -0.4494
  783MPD2    C311600   0.140   0.494  11.307 -0.5940 -0.2952 -0.3679
  783MPD2    C411601   0.059   0.394  11.266 -0.1367 -0.3081 -0.2013
  783MPD2    C511602   4.708   0.342  11.347 -0.8150 -0.1725  0.6707
  783MPD2     H11603   0.188   0.633  11.464  2.5531 -2.1995  0.8755
  783MPD2    H111604   0.062   0.346  11.169  0.9523 -1.2009  0.2761
  783MPD2    H211605   4.609   0.356  11.529  1.5836 -1.4852 -0.2539
  783MPD2    H311606   4.643   0.260  11.317  0.6716 -0.7353 -0.9795
  783MPD2     N11607   0.242   0.546  11.225  0.4450 -0.3756  0.1108
  783MPD2    H511608   0.307   0.607  11.274  1.3022  0.1267 -1.6476
  783MPD2    N111609   4.741   0.546  11.648  0.0543  0.5402 -0.4011
  783MPD2    H711610   4.669   0.492  11.695  0.6109  1.4117  1.4439
  784MPD2     C11611   2.979   0.672   0.969 -0.0178  0.0457 -0.1939
  784MPD2    C111612   2.945   0.801   0.994 -0.5215 -0.0515 -0.0050
  784MPD2    C211613   2.845   0.866   0.919  0.3074  0.3413 -0.1566
  784MPD2    C311614   2.782   0.799   0.811 -0.4957  0.4998 -0.7240
  784MPD2    C411615   2.829   0.675   0.779  0.2351 -0.2184 -0.5871
  784MPD2    C511616   2.930   0.609   0.853 -0.0438 -0.1332  0.5851
  784MPD2     H11617   2.807   0.963   0.948 -2.7196 -0.6951 -0.6346
  784MPD2    H111618   2.776   0.608   0.712  0.0868  0.4328 -1.1192
  784MPD2    H211619   3.049   0.611   1.026 -1.2812 -0.4856  0.8069
  784MPD2    H311620   2.941   0.503   0.833  0.1778  0.3720 -1.9086
  784MPD2     N11621   2.669   0.859   0.748 -0.1517 -0.2432  0.2084
  784MPD2    H511622   2.637   0.945   0.792  2.5278  0.6744  0.3176
  784MPD2    N111623   3.003   0.882   1.091 -0.1341  0.2623  0.1692
  784MPD2    H711624   2.973   0.977   1.111 -0.9427  0.2185 -0.8353
  785MPD2     C11625   2.699   4.682  10.699 -0.3518 -0.1482 -0.4884
  785MPD2    C111626   2.626   4.736  10.807  0.5060 -0.9601  0.8080
  785MPD2    C211627   2.493   4.705  10.810 -0.5826 -0.7513  0.2926
  785MPD2    C311628   2.431   4.638  10.710  0.3377 -0.9780 -0.1489
  785MPD2    C411629   2.504   4.593  10.598  0.0858 -0.2919 -0.0507
  785MPD2    C511630   2.638   4.625  10.594  0.1265 -0.5759  0.5276
  785MPD2     H11631   2.431   0.005  10.889  0.8874  0.6374  0.7010
  785MPD2    H111632   2.455   4.541  10.516 -1.0502 -0.3312  0.6561
  785MPD2    H211633   2.806   4.693  10.689 -0.2472 -0.1970  0.6662
  785MPD2    H311634   2.711   4.600  10.518  1.2440  3.7165  0.1830
  785MPD2     N11635   2.291   4.612  10.730 -0.4862 -0.1944 -0.1527
  785MPD2    H511636   2.258   4.665  10.810  0.8576  0.9094 -0.3284
  785MPD2    N111637   2.672   0.076  10.915 -0.0925 -0.1660  0.5213
  785MPD2    H711638   2.595   0.107  10.974  0.6009  1.7055  0.4335
  786MPD2     C11639   1.775   1.752  15.239  0.5875 -0.0244 -1.5194
  786MPD2    C111640   1.831   1.645  15.171 -0.0510 -0.3095  0.0916
  786MPD2    C211641   1.969   1.629  15.172 -0.5732 -0.0725 -0.0806
  786MPD2    C311642   2.045   1.720  15.243  0.0901  0.3038 -0.5678
  786MPD2    C411643   1.992   1.836  15.303  0.2123 -0.0392  0.2446
  786MPD2    C511644   1.852   1.846  15.306 -0.4187 -0.4741  0.1192
  786MPD2     H11645   2.006   1.540  15.124 -0.5884  1.0758 -2.2431
  786MPD2    H111646   2.044   1.920  15.348 -0.0189  1.2981 -1.9724
  786MPD2    H211647   1.667   1.754  15.246  0.5055 -0.1465 -2.6970
  786MPD2    H311648   1.801   1.924  15.361  1.2958  1.2673 -0.7532
  786MPD2     N11649   2.185   1.699  15.256  0.4916 -0.1380  0.3880
  786MPD2    H511650   2.240   1.758  15.318  0.5612  0.1139  0.0883
  786MPD2    N111651   1.763   1.549  15.100  0.3442  0.8834 -0.0428
  786MPD2    H711652   1.811   1.464  15.072 -0.2896  0.0281  1.4314
  787MPD2     C11653   1.765   0.866  15.098  0.3444  0.4574 -0.0517
  787MPD2    C111654   1.774   0.936  14.982  0.6114  0.1965  0.4561
  787MPD2    C211655   1.848   0.871  14.882 -0.4754 -0.2877 -0.6313
  787MPD2    C311656   1.907   0.745  14.891  0.1969  0.0728 -0.1497
  787MPD2    C411657   1.904   0.679  15.013  0.1894 -0.4693  0.2022
  787MPD2    C511658   1.832   0.741  15.112 -0.1072  1.2239  0.4453
  787MPD2     H11659   1.869   0.926  14.791  0.4702 -0.3359 -0.4453
  787MPD2    H111660   1.953   0.584  15.033  2.4098  0.1764 -2.0696
  787MPD2    H211661   1.718   0.906  15.187 -1.9367 -0.2534 -0.9249
  787MPD2    H311662   1.829   0.695  15.211 -0.2400  3.7947  1.6339
  787MPD2     N11663   1.981   0.699  14.776 -0.1863 -0.3262  0.4295
  787MPD2    H511664   1.958   0.749  14.690 -2.3905  1.4586  2.0328
  787MPD2    N111665   1.716   1.063  14.971  0.2982 -0.0549 -0.3750
  787MPD2    H711666   1.661   1.095  15.049 -0.4658  0.7806 -1.2635
  788MPD2     C11667   3.585   4.664   1.602  0.2689  0.3948  0.2925
  788MPD2    C111668   3.584   4.641   1.465 -0.5154 -0.0936 -0.4734
  788MPD2    C211669   3.496   4.703   1.386  0.0350 -0.5108  0.1291
  788MPD2    C311670   3.407   0.051   1.437 -0.4269 -0.5914  0.1632
  788MPD2    C411671   3.404   0.072   1.574  0.6849 -0.9828  0.0674
  788MPD2    C511672   3.491   0.008   1.655 -0.4200  0.1175  0.0949
  788MPD2     H11673   3.511   4.685   1.281  0.3844 -1.4565  0.3435
  788MPD2    H111674   3.329   0.132   1.625  2.4981  0.1512  1.4225
  788MPD2    H211675   3.648   4.613   1.674 -0.0020 -0.1561  0.1406
  788MPD2    H311676   3.476   0.020   1.762  1.7181  0.6827  0.3230
  788MPD2     N11677   3.321   0.136   1.358 -0.5139  0.5604  0.3207
  788MPD2    H511678   3.274   0.210   1.409 -3.2861 -0.1842 -1.1744
  788MPD2    N111679   3.673   4.557   1.400  0.1846  0.4581  0.5706
  788MPD2    H711680   3.650   4.537   1.304 -2.8787 -2.5404  1.9265
  789MPD2     C11681   3.927   4.300  17.082 -0.0282 -0.1249 -0.2262
  789MPD2    C111682   3.854   4.311  16.965  0.4339 -0.5571  0.4823
  789MPD2    C211683   3.722   4.347  16.969 -0.9047  0.4529  0.2799
  789MPD2    C311684   3.660   4.374  17.088 -0.2054 -0.1105  0.0607
  789MPD2    C411685   3.737   4.357  17.205  0.2955 -0.4311  0.1468
  789MPD2    C511686   3.866   4.312  17.196  0.1478 -0.4208  0.1021
  789MPD2     H11687   3.674   4.360  16.873 -2.9666  0.6193  1.3302
  789MPD2    H111688   3.686   4.365  17.300  1.8921  1.7505  0.8241
  789MPD2    H211689   4.024   4.252  17.078  0.1971  0.2918  0.2971
  789MPD2    H311690   3.928   4.303  17.284 -1.1574  0.7334  1.1281
  789MPD2     N11691   3.524   4.400  17.102  0.7084  0.2997  0.0143
  789MPD2    H511692   3.490   4.408  17.198 -2.6417 -2.8796 -0.9175
  789MPD2    N111693   3.922   4.286  16.843 -0.1999 -0.6278  0.3616
  789MPD2    H711694   3.861   4.275  16.763  0.2672  0.7771 -0.1909
  790MPD2     C11695   4.715   1.521  13.689  0.3255 -0.2307 -0.6027
  790MPD2    C111696   4.618   1.432  13.671 -0.4405 -0.1762 -0.3067
  790MPD2    C211697   4.585   1.398  13.538  0.1360  0.0896  0.4380
  790MPD2    C311698   4.652   1.458  13.433  0.3412  0.0060  0.0502
  790MPD2    C411699   4.740   1.556  13.454  0.5484 -0.5007 -0.5459
  790MPD2    C511700   0.026   1.584  13.585  0.7232 -0.1376  0.2136
  790MPD2     H11701   4.518   1.314  13.523 -0.1319  0.5122 -0.7767
  790MPD2    H111702   0.055   1.594  13.371 -2.1588  2.6850 -0.9144
  790MPD2    H211703   4.735   1.553  13.791 -1.8538 -1.0767  0.0824
  790MPD2    H311704   0.091   1.667  13.609 -0.3670  1.1923 -1.4260
  790MPD2     N11705   4.636   1.420  13.296 -0.3144  0.6943 -0.5147
  790MPD2    H511706   4.700   1.449  13.223 -0.8178  1.5193 -0.6326
  790MPD2    N111707   4.562   1.372  13.785  0.3629 -0.0118  0.0602
  790MPD2    H711708   4.609   1.400  13.871  2.6610 -0.9319 -0.9223
  791MPD2     C11709   3.957   1.374  12.956  0.0234  0.2284  0.1539
  791MPD2    C111710   4.029   1.258  12.946  0.0073 -0.2840 -0.9199
  791MPD2    C211711   3.960   1.135  12.926 -0.2447 -0.0942  0.4286
  791MPD2    C311712   3.823   1.140  12.898 -0.7365  1.2604  0.0075
  791MPD2    C411713   3.753   1.260  12.896  0.2338  0.1612 -0.7604
  791MPD2    C511714   3.822   1.373  12.927 -0.0749 -0.3702  0.0173
  791MPD2     H11715   4.014   1.041  12.924  1.5566  0.9535  0.5544
  791MPD2    H111716   3.648   1.277  12.872  0.5553  0.2264 -2.0844
  791MPD2    H211717   4.010   1.467  12.975 -2.6143  1.8759 -0.6011
  791MPD2    H311718   3.772   1.468  12.919 -0.5088 -0.5328  0.7719
  791MPD2     N11719   3.752   1.020  12.880  0.3354  0.0114  0.0897
  791MPD2    H511720   3.800   0.933  12.903 -0.8744 -0.5306  0.5634
  791MPD2    N111721   4.165   1.262  12.965 -0.1557 -0.1219 -0.0725
  791MPD2    H711722   4.193   1.357  12.988  0.5841 -0.5720  0.8435
  792MPD2     C11723   0.197   1.842  11.882  0.0393 -0.5007  0.4090
  792MPD2    C111724   0.125   1.922  11.799  0.1540  0.2874  0.0271
  792MPD2    C211725   4.741   1.875  11.761  0.8080 -0.5482  0.0516
  792MPD2    C311726   4.704   1.741  11.779 -0.0616 -0.1989  0.8920
  792MPD2    C411727   0.054   1.655  11.835 -0.1530  0.2278 -1.0844
  792MPD2    C511728   0.162   1.709  11.900 -0.8624 -0.2540 -0.5606
  792MPD2     H11729   4.676   1.939  11.703 -0.9383 -2.2692  0.1010
  792MPD2    H111730   0.025   1.553  11.858  2.7939 -0.4698 -0.4782
  792MPD2    H211731   0.296   1.857  11.925 -0.9195 -2.1238  3.2012
  792MPD2    H311732   0.226   1.649  11.963 -1.1600 -0.0908 -0.0993
  792MPD2     N11733   4.590   1.678  11.719  0.3795 -0.3504 -0.0279
  792MPD2    H511734   4.582   1.577  11.731 -1.0300  0.0184  2.2016
  792MPD2    N111735   0.191   2.042  11.742  0.5620  0.2956  0.4951
  792MPD2    H711736   0.284   2.059  11.777  0.2634  1.8150  0.5570
  793MPD2     C11737   4.282   1.576  10.838  0.1937 -0.4179  0.2091
  793MPD2    C111738   4.403   1.595  10.911  0.0873  0.2040 -0.3544
  793MPD2    C211739   4.390   1.599  11.047 -0.0123 -0.4853  0.0338
  793MPD2    C311740   4.278   1.574  11.119 -0.0147  0.7261 -0.0097
  793MPD2    C411741   4.160   1.551  11.045 -0.0737  0.3552  0.5744
  793MPD2    C511742   4.163   1.561  10.910  0.1094 -0.0951 -0.8232
  793MPD2     H11743   4.478   1.615  11.108 -0.7185 -0.7605  1.1288
  793MPD2    H111744   4.064   1.536  11.093 -0.7580  1.3967 -0.4933
  793MPD2    H211745   4.279   1.578  10.730  0.0770 -1.9456  0.1905
  793MPD2    H311746   4.076   1.551  10.847  0.7213 -1.2279 -1.4869
  793MPD2     N11747   4.296   1.560  11.260 -0.0515  0.0686  0.2296
  793MPD2    H511748   4.374   1.609  11.304 -0.9856 -0.0036  1.9506
  793MPD2    N111749   4.528   1.613  10.852 -0.0775 -0.0100  0.5011
  793MPD2    H711750   4.614   1.618  10.906 -0.2679 -1.5805  0.9322
  794MPD2     C11751   4.591   0.269  16.708 -0.1960 -0.5228  0.0624
  794MPD2    C111752   4.468   0.263  16.776  0.3225  0.0325 -0.0271
  794MPD2    C211753   4.352   0.285  16.711 -0.0168 -0.1273 -0.6526
  794MPD2    C311754   4.359   0.329  16.578  0.9405  0.4686 -0.3854
  794MPD2    C411755   4.479   0.335  16.513  1.1361  0.1333 -0.2012
  794MPD2    C511756   4.596   0.306  16.573  0.4575  0.2062  0.1838
  794MPD2     H11757   4.252   0.280  16.753 -0.8963 -1.5513 -2.8719
  794MPD2    H111758   4.486   0.370  16.411  2.1102 -0.0512 -0.2048
  794MPD2    H211759   4.685   0.244  16.756  0.3146  0.9206 -0.1823
  794MPD2    H311760   4.691   0.323  16.524  1.6740  1.0208  2.7970
  794MPD2     N11761   4.247   0.360  16.491 -0.2949  0.5913  0.3868
  794MPD2    H511762   4.259   0.393  16.395  0.3076  0.7527  0.5174
  794MPD2    N111763   4.455   0.210  16.906 -0.0083  0.2112  0.2491
  794MPD2    H711764   4.366   0.197  16.951 -1.0988  0.9228 -1.7028
  795MPD2     C11765   2.201   3.207  13.571  0.4393 -0.0998  0.3345
  795MPD2    C111766   2.169   3.076  13.537  0.0789 -0.0381 -0.3030
  795MPD2    C211767   2.260   2.972  13.548 -0.2547  0.2942 -0.1447
  795MPD2    C311768   2.385   3.001  13.604  0.0663 -0.7749  0.1382
  795MPD2    C411769   2.405   3.125  13.651 -0.3188 -0.5141 -0.0733
  795MPD2    C511770   2.318   3.227  13.634 -0.0238  0.2840 -0.3095
  795MPD2     H11771   2.247   2.873  13.505 -1.2382  1.0978 -1.6764
  795MPD2    H111772   2.503   3.151  13.689 -0.4796 -0.8245  0.5555
  795MPD2    H211773   2.140   3.293  13.549 -1.4686 -2.1419 -2.4649
  795MPD2    H311774   2.327   3.327  13.675  2.0654 -1.1242  2.6747
  795MPD2     N11775   2.492   2.909  13.602 -0.0864 -0.4387  0.0373
  795MPD2    H511776   2.462   2.825  13.552  1.6106 -1.7275  1.1577
  795MPD2    N111777   2.052   3.052  13.459 -0.6841 -0.0655 -0.2579
  795MPD2    H711778   2.040   2.960  13.420 -0.0603 -0.6488  0.9038
  796MPD2     C11779   1.456   3.851  15.984 -0.0821  0.5535 -0.2121
  796MPD2    C111780   1.592   3.875  16.022  0.1294  0.1944 -0.1501
  796MPD2    C211781   1.644   3.995  15.983 -0.0282 -0.0990  0.0839
  796MPD2    C311782   1.565   4.090  15.915 -0.1922 -0.1012  0.0298
  796MPD2    C411783   1.433   4.066  15.886 -0.2026 -0.3469 -0.1786
  796MPD2    C511784   1.385   3.942  15.916 -0.0170 -0.2159  0.2181
  796MPD2     H11785   1.749   4.018  15.998 -0.2061 -0.4556  1.8453
  796MPD2    H111786   1.365   4.128  15.829 -0.4483 -0.9007 -0.4898
  796MPD2    H211787   1.407   3.757  16.008 -0.0004  0.4261 -0.5561
  796MPD2    H311788   1.288   3.907  15.885 -0.6896  1.5766  0.3329
  796MPD2     N11789   1.631   4.213  15.879 -0.7339 -0.3394  0.7383
  796MPD2    H511790   1.727   4.220  15.912 -0.3421 -0.7723 -0.3092
  796MPD2    N111791   1.661   3.793  16.103  0.9399  0.4620  0.5535
  796MPD2    H711792   1.756   3.821  16.124  1.5389 -1.8847  0.9405
  797MPD2     C11793   2.584   3.336  17.355 -0.5028 -0.6487 -0.1891
  797MPD2    C111794   2.682   3.431  17.332 -0.4731 -0.2097 -0.2063
  797MPD2    C211795   2.647   3.542  17.267  0.2507  0.0095 -0.0202
  797MPD2    C311796   2.518   3.567  17.223 -0.4398 -0.1350  1.4861
  797MPD2    C411797   2.431   3.460  17.223 -0.3526  0.1149 -0.3468
  797MPD2    C511798   2.468   3.344  17.286  0.1876  1.0039 -0.5196
  797MPD2     H11799   2.727   3.615  17.257 -1.1327  1.6116  0.5093
  797MPD2    H111800   2.328   3.464  17.187 -0.2685 -1.2191 -0.7006
  797MPD2    H211801   2.597   3.248  17.418 -2.4580  0.1628  1.3483
  797MPD2    H311802   2.392   3.267  17.294 -1.0596  2.1450 -1.3803
  797MPD2     N11803   2.493   3.686  17.149  0.0731  0.2992  0.2203
  797MPD2    H511804   2.416   3.679  17.083  0.2249  0.8888 -0.0225
  797MPD2    N111805   2.807   3.427  17.376  0.2508  0.0650  0.1178
  797MPD2    H711806   2.866   3.504  17.344 -0.2295  0.7578  0.8949
  798MPD2     C11807   3.008   4.140  17.293 -0.0310  0.3840 -0.7029
  798MPD2    C111808   2.935   4.033  17.255 -0.6905 -0.1574 -0.5079
  798MPD2    C211809   2.954   3.911  17.302 -0.0058 -0.2831  0.4546
  798MPD2    C311810   3.062   3.889  17.380 -0.3394  0.4473  0.3264
  798MPD2    C411811   3.136   3.992  17.430  0.1223 -0.2514 -0.1670
  798MPD2    C511812   3.109   4.119  17.384 -0.2858  0.0010  0.1530
  798MPD2     H11813   2.891   3.828  17.272  0.7290  0.0849 -2.1047
  798MPD2    H111814   3.224   3.968  17.488  1.9851 -0.8043 -3.2552
  798MPD2    H211815   2.995   4.238  17.247 -1.8668  0.6947  0.5136
  798MPD2    H311816   3.168   4.205  17.413  1.4798  0.1455 -3.8245
  798MPD2     N11817   3.082   3.749  17.413 -0.0189  0.7175  0.6575
  798MPD2    H511818   3.014   3.683  17.376  0.6683 -0.1114  0.8877
  798MPD2    N111819   2.832   4.043  17.159  0.2069  0.1241  0.7442
  798MPD2    H711820   2.786   3.954  17.144  0.4419  0.4934 -2.1536
  799MPD2     C11821   1.522   0.661  14.890  0.5831 -0.5763 -0.7606
  799MPD2    C111822   1.497   0.569  14.792 -0.7234  0.4278 -0.1015
  799MPD2    C211823   1.451   0.615  14.667  0.9862  0.7673  0.1927
  799MPD2    C311824   1.433   0.750  14.629 -0.0859  0.8096  0.3057
  799MPD2    C411825   1.470   0.837  14.726  0.6190  0.4655 -0.0311
  799MPD2    C511826   1.516   0.794  14.851  0.0542 -0.0405 -0.1857
  799MPD2     H11827   1.437   0.535  14.596  0.7358  0.6738  0.3457
  799MPD2    H111828   1.467   0.943  14.703 -0.2644  0.2507 -0.9339
  799MPD2    H211829   1.546   0.638  14.993  3.0852 -0.5690 -1.3315
  799MPD2    H311830   1.537   0.875  14.919 -1.2769  0.6059 -0.5452
  799MPD2     N11831   1.387   0.803  14.503  0.1200  0.5740  0.0053
  799MPD2    H511832   1.403   0.901  14.483 -0.7506  0.7273  0.0586
  799MPD2    N111833   1.507   0.432  14.821  0.1215  0.2795 -0.1534
  799MPD2    H711834   1.560   0.416  14.907 -0.5145 -1.5691 -0.0983
  800MPD2     C11835   2.445   1.499  14.343 -0.7535 -0.0742 -0.4593
  800MPD2    C111836   2.443   1.631  14.304 -0.0178  0.1917  0.0423
  800MPD2    C211837   2.348   1.682  14.211  0.3345 -0.0697 -0.7465
  800MPD2    C311838   2.266   1.595  14.142 -0.3082 -0.3155 -0.3663
  800MPD2    C411839   2.280   1.462  14.161 -0.1956 -0.5526  0.3190
  800MPD2    C511840   2.359   1.420  14.269  0.9728 -0.0808 -0.9002
  800MPD2     H11841   2.339   1.786  14.180 -1.8195  0.3648  1.3023
  800MPD2    H111842   2.227   1.389  14.101  1.4077 -0.6182 -1.0166
  800MPD2    H211843   2.497   1.453  14.426  2.4951  1.8013 -1.4285
  800MPD2    H311844   2.370   1.313  14.276  1.9304 -0.0168 -1.3914
  800MPD2     N11845   2.188   1.656  14.044 -0.0274 -0.0738  0.3104
  800MPD2    H511846   2.191   1.758  14.043  0.1952 -0.1060 -2.4115
  800MPD2    N111847   2.521   1.722  14.377 -0.7956  0.0790  0.0349
  800MPD2    H711848   2.588   1.684  14.442  0.9135 -1.3389 -2.5627
  801MPD2     C11849   2.632   2.536  14.237  0.2707  1.0731  0.2711
  801MPD2    C111850   2.583   2.473  14.353  0.1279  0.6474 -0.5930
  801MPD2    C211851   2.478   2.526  14.418 -0.2448 -0.4246  0.1852
  801MPD2    C311852   2.406   2.634  14.369 -0.8045  0.8674 -1.0210
  801MPD2    C411853   2.449   2.688  14.245  0.1990 -0.6549  0.9307
  801MPD2    C511854   2.563   2.641  14.179 -0.3432 -1.0952  0.0142
  801MPD2     H11855   2.429   2.468  14.495 -0.4430 -2.7334 -1.6678
  801MPD2    H111856   2.402   2.771  14.192 -0.8743 -0.4424  2.1925
  801MPD2    H211857   2.720   2.513  14.179  0.1901  0.6073  0.3283
  801MPD2    H311858   2.587   2.691  14.086  0.1133 -1.2242  0.0620
  801MPD2     N11859   2.280   2.672  14.416 -0.0182  0.2396  0.6622
  801MPD2    H511860   2.234   2.745  14.362 -1.7513  0.6328  2.6777
  801MPD2    N111861   2.625   2.347  14.396 -0.1848  0.4316 -0.0536
  801MPD2    H711862   2.609   2.323  14.494  0.0108 -1.7548 -0.5552
  802MPD2     C11863   1.639   3.446   0.292  0.6675  0.4462  0.0603
  802MPD2    C111864   1.537   3.351   0.291  0.2139  0.6091  0.2570
  802MPD2    C211865   1.559   3.229   0.220 -1.2176  0.2630  0.2963
  802MPD2    C311866   1.677   3.203   0.151  0.5148  0.3521 -0.5114
  802MPD2    C411867   1.767   3.310   0.151  0.3797  1.0861 -0.8537
  802MPD2    C511868   1.750   3.424   0.217 -0.4225  0.0764  0.4030
  802MPD2     H11869   1.485   3.150   0.227  1.4529 -2.1842  0.9435
  802MPD2    H111870   1.846   3.311   0.076 -0.9729  3.7894 -2.2498
  802MPD2    H211871   1.631   3.543   0.341  2.3743  0.5965  0.0429
  802MPD2    H311872   1.828   3.499   0.211 -1.9429  1.7426  1.1602
  802MPD2     N11873   1.691   3.071   0.095  0.6515 -0.1197 -0.1299
  802MPD2    H511874   1.604   3.019   0.095 -0.9019  2.5052  2.0156
  802MPD2    N111875   1.417   3.358   0.365  0.1080 -0.5227 -0.0538
  802MPD2    H711876   1.360   3.275   0.372  1.4152 -1.6034 -2.2976
  803MPD2     C11877   2.412   1.175  12.205  0.4698  0.4771  0.3483
  803MPD2    C111878   2.519   1.146  12.289  0.4754  0.2393 -0.2134
  803MPD2    C211879   2.515   1.033  12.365 -0.4958 -0.3703 -0.0850
  803MPD2    C311880   2.411   0.941  12.362  0.0446  0.1916  1.1953
  803MPD2    C411881   2.302   0.977  12.293  0.1486  0.6028 -0.3013
  803MPD2    C511882   2.302   1.092  12.210 -0.6261  0.1259 -0.4539
  803MPD2     H11883   2.606   1.004  12.416 -1.6641 -0.4344  1.9651
  803MPD2    H111884   2.216   0.913  12.309  1.1682 -0.6122  0.3438
  803MPD2    H211885   2.396   1.271  12.157  0.4128  1.1426  1.6705
  803MPD2    H311886   2.213   1.122  12.155 -0.6348 -1.4216 -1.2791
  803MPD2     N11887   2.410   0.824  12.441  0.0538  0.3351 -0.6289
  803MPD2    H511888   2.322   0.773  12.437 -0.6830  1.4843  0.6460
  803MPD2    N111889   2.638   1.210  12.290 -0.4132 -0.4209  0.7450
  803MPD2    H711890   2.707   1.186  12.362 -0.5052  0.3613  1.0919
  804MPD2     C11891   2.221   2.246  16.680 -0.3700 -0.3074 -0.2292
  804MPD2    C111892   2.246   2.187  16.801  0.3826 -0.2788  0.7133
  804MPD2    C211893   2.345   2.243  16.886 -0.4640 -0.3319  0.0234
  804MPD2    C311894   2.409   2.360  16.846 -0.3487  0.0407 -0.4840
  804MPD2    C411895   2.385   2.405  16.719 -0.7019  0.0714  0.3540
  804MPD2    C511896   2.294   2.349  16.636  0.1201 -0.3571  0.1411
  804MPD2     H11897   2.365   2.193  16.980 -2.2911 -1.0860  0.0116
  804MPD2    H111898   2.439   2.491  16.679  2.0816 -2.2814 -0.9198
  804MPD2    H211899   2.149   2.207  16.609 -0.7565  0.7341 -0.4089
  804MPD2    H311900   2.266   2.383  16.537 -0.9937 -2.6060 -0.3092
  804MPD2     N11901   2.490   2.419  16.944  0.2515  0.1333  0.4214
  804MPD2    H511902   2.485   2.380  17.037  1.4369 -2.4474 -0.6137
  804MPD2    N111903   2.201   2.056  16.843  0.5684  0.3932  0.1047
  804MPD2    H711904   2.238   2.012  16.927  1.4306 -1.2117 -1.0978
  805MPD2     C11905   1.533   0.820  15.577 -0.0432 -0.3703 -0.1812
  805MPD2    C111906   1.597   0.699  15.554 -0.1910  0.0311 -0.4503
  805MPD2    C211907   1.716   0.669  15.611  1.2542 -0.0140 -0.1832
  805MPD2    C311908   1.774   0.761  15.698  0.1684  0.1289  0.6593
  805MPD2    C411909   1.703   0.865  15.736  0.6154  0.4558 -0.0730
  805MPD2    C511910   1.590   0.899  15.668  0.2303 -0.0408 -1.1652
  805MPD2     H11911   1.763   0.575  15.585  2.2748  0.7298 -1.0211
  805MPD2    H111912   1.738   0.942  15.804 -1.3191  0.5309  0.8446
  805MPD2    H211913   1.448   0.861  15.523 -0.7004 -1.0052  0.3721
  805MPD2    H311914   1.533   0.991  15.678  0.2742 -0.1044 -0.3683
  805MPD2     N11915   1.902   0.741  15.751  0.2829 -0.1894  0.0901
  805MPD2    H511916   1.936   0.819  15.806 -3.9191  0.5303  1.6524
  805MPD2    N111917   1.545   0.607  15.461  0.2777 -0.8479  0.2613
  805MPD2    H711918   1.598   0.523  15.445  2.2061  0.3747  0.2478
  806MPD2     C11919   1.980   0.551   0.767  1.0640  0.2024 -0.0159
  806MPD2    C111920   2.111   0.595   0.754 -0.6396 -0.5789  0.3603
  806MPD2    C211921   2.183   0.578   0.633  0.3441  0.5455 -0.9411
  806MPD2    C311922   2.120   0.524   0.520 -0.2371 -0.0430  0.5646
  806MPD2    C411923   1.987   0.495   0.532  0.6743  0.5034 -0.0467
  806MPD2    C511924   1.920   0.508   0.649  0.8148  0.2558 -0.1900
  806MPD2     H11925   2.289   0.600   0.625  0.5593 -0.3276 -0.4431
  806MPD2    H111926   1.923   0.461   0.451  1.5053 -1.1058 -0.0382
  806MPD2    H211927   1.924   0.554   0.860 -0.4940 -1.1549 -0.9129
  806MPD2    H311928   1.815   0.483   0.649  1.3040 -1.7867 -1.1982
  806MPD2     N11929   2.191   0.519   0.400  0.2504 -0.5290  0.2147
  806MPD2    H511930   2.291   0.538   0.404  0.1194 -0.0165  1.2576
  806MPD2    N111931   2.173   0.639   0.876  0.7596 -0.5425  0.5744
  806MPD2    H711932   2.112   0.630   0.957 -0.1626  1.9059  0.1558
  807MPD2     C11933   1.942   0.819   1.500 -0.1472  0.4171  1.0680
  807MPD2    C111934   1.983   0.726   1.408  0.0761  0.0671  0.3130
  807MPD2    C211935   1.911   0.608   1.406 -0.0739  0.2348 -0.3022
  807MPD2    C311936   1.798   0.585   1.486  0.4397 -0.4811 -0.1282
  807MPD2    C411937   1.753   0.678   1.573  0.1208 -0.4867 -0.3175
  807MPD2    C511938   1.826   0.794   1.575 -0.0571  0.3146  0.3604
  807MPD2     H11939   1.937   0.529   1.337 -2.9161 -1.1999  0.2604
  807MPD2    H111940   1.672   0.664   1.644 -0.9078 -0.0058 -1.3864
  807MPD2    H211941   1.983   0.918   1.517  0.1592  0.9411 -2.6991
  807MPD2    H311942   1.806   0.868   1.652 -1.1125  0.8548 -0.4261
  807MPD2     N11943   1.747   0.454   1.480  0.1425  0.0204  0.2874
  807MPD2    H511944   1.784   0.389   1.411 -0.8883  0.0012 -0.2518
  807MPD2    N111945   2.095   0.735   1.322 -0.1547 -0.6766  0.0270
  807MPD2    H711946   2.105   0.660   1.255  1.8317  0.6384 -1.1523
  808MPD2     C11947   1.950   2.470   9.984 -0.2003 -0.5522  0.4557
  808MPD2    C111948   1.966   2.382  10.082  1.2513  0.4187 -0.1133
  808MPD2    C211949   2.085   2.310  10.088  0.1074 -0.0241 -0.2325
  808MPD2    C311950   2.183   2.335   9.991 -0.7506  0.4297 -0.1185
  808MPD2    C411951   2.157   2.424   9.894  0.5227  0.0295  0.7754
  808MPD2    C511952   2.041   2.484   9.887  0.1008  0.2084 -0.2682
  808MPD2     H11953   2.102   2.230  10.159 -1.8998 -0.2633 -0.0224
  808MPD2    H111954   2.229   2.442   9.815  0.6418  1.1730  1.1458
  808MPD2    H211955   1.865   2.538   9.981 -1.2156 -1.7741  1.1851
  808MPD2    H311956   2.031   2.555   9.806 -2.5286  0.3437  0.1712
  808MPD2     N11957   2.310   2.270   9.994 -0.2139 -0.7944  0.3732
  808MPD2    H511958   2.380   2.305   9.929 -0.7953  0.7338  0.5803
  808MPD2    N111959   1.862   2.347  10.177 -0.1654  0.2566  0.2663
  808MPD2    H711960   1.879   2.264  10.232 -3.1078 -2.3107 -2.7609
  809MPD2     C11961   2.795   2.255   9.304  0.3941  0.2021  0.4018
  809MPD2    C111962   2.871   2.302   9.407 -0.7546 -0.1925 -0.6410
  809MPD2    C211963   2.837   2.280   9.541  0.7051  0.3512  0.0298
  809MPD2    C311964   2.717   2.210   9.567  0.4490  0.6044  0.9656
  809MPD2    C411965   2.646   2.166   9.462  0.1224 -0.0752  0.4369
  809MPD2    C511966   2.682   2.183   9.331 -0.0589  0.2078 -0.7167
  809MPD2     H11967   2.897   2.327   9.618  0.6611  1.3504 -0.5391
  809MPD2    H111968   2.569   2.090   9.470 -2.1027  2.1260  0.0516
  809MPD2    H211969   2.825   2.265   9.200  0.4760 -0.9957  0.3052
  809MPD2    H311970   2.628   2.136   9.250 -2.0738 -0.2976  0.9086
  809MPD2     N11971   2.667   2.173   9.689 -0.0253  0.3227  0.0448
  809MPD2    H511972   2.573   2.135   9.693 -0.1716  0.7352  0.5782
  809MPD2    N111973   2.986   2.381   9.380  0.1193  0.7972  0.7764
  809MPD2    H711974   3.048   2.400   9.459  0.1422  0.8807  0.7382
  810MPD2     C11975   2.230   1.802  10.783 -0.5030  0.6699  0.4712
  810MPD2    C111976   2.138   1.872  10.724  0.3405  0.3937  0.0815
  810MPD2    C211977   2.180   1.982  10.642  0.2619  0.1274 -0.7819
  810MPD2    C311978   2.311   1.994  10.606  0.3972 -0.2514 -0.3844
  810MPD2    C411979   2.401   1.906  10.656  0.5187  0.1460  0.4924
  810MPD2    C511980   2.361   1.819  10.750 -0.2987  0.2743 -0.2209
  810MPD2     H11981   2.108   2.055  10.605  0.4501 -0.5004 -2.4003
  810MPD2    H111982   2.507   1.908  10.633  0.6467  1.4236  1.1610
  810MPD2    H211983   2.202   1.721  10.850 -0.3218 -0.5728 -0.9619
  810MPD2    H311984   2.426   1.751  10.803 -0.2257 -0.5067 -1.3329
  810MPD2     N11985   2.359   2.091  10.517  0.7549  0.0681  0.0589
  810MPD2    H511986   2.459   2.084  10.505  0.6301  0.3645 -1.2147
  810MPD2    N111987   2.004   1.846  10.759 -0.6154  0.1343  0.5925
  810MPD2    H711988   1.988   1.772  10.827 -3.1402  0.0465 -0.1119
  811MPD2     C11989   1.065   1.950  10.772  0.0942  0.3818 -0.4069
  811MPD2    C111990   1.184   2.014  10.744 -0.1201 -0.1146  0.0902
  811MPD2    C211991   1.170   2.147  10.719  0.3542 -0.2356  0.2092
  811MPD2    C311992   1.050   2.220  10.719  0.5061 -0.6690  0.3497
  811MPD2    C411993   0.932   2.150  10.745 -0.1067 -0.1115  0.7538
  811MPD2    C511994   0.944   2.016  10.770  0.3760  0.8173  0.2096
  811MPD2     H11995   1.253   2.213  10.697  0.4495 -0.5522 -0.3737
  811MPD2    H111996   0.835   2.196  10.758  0.8408  1.5005  2.1491
  811MPD2    H211997   1.053   1.845  10.798  0.4477 -0.0949 -2.1440
  811MPD2    H311998   0.850   1.964  10.787  0.6119  0.8759  1.6864
  811MPD2     N11999   1.038   2.359  10.678  0.1844  0.8784 -0.0077
  811MPD2    H512000   1.116   2.400  10.627  0.6183 -0.4407 -0.4013
  811MPD2    N112001   1.309   1.948  10.745  0.4957  0.2198 -0.4807
  811MPD2    H712002   1.298   1.853  10.777 -0.9333  0.8055  0.7959
  812MPD2     C12003   4.697   1.362  12.561 -0.5232 -1.1115 -0.2036
  812MPD2    C112004   0.066   1.445  12.552  0.2291 -0.1706  0.1072
  812MPD2    C212005   0.152   1.439  12.656  0.1151  0.0404  0.1532
  812MPD2    C312006   0.136   1.363  12.764  0.0657  0.1664 -0.3492
  812MPD2    C412007   0.026   1.281  12.772 -0.2089 -0.1349  0.0038
  812MPD2    C512008   4.674   1.284  12.677 -0.3641 -0.1250 -0.4914
  812MPD2     H12009   0.239   1.503  12.652  1.2723 -1.3755  2.3801
  812MPD2    H112010   0.007   1.213  12.855 -0.0909  0.8752  0.8555
  812MPD2    H212011   4.622   1.369  12.483 -0.3536 -1.0442 -0.3618
  812MPD2    H312012   4.588   1.221  12.698 -0.1168 -0.4981 -0.5862
  812MPD2     N12013   0.246   1.355  12.853  0.4538 -0.2053 -0.4964
  812MPD2    H512014   0.333   1.400  12.825 -0.5961  1.5370 -0.9539
  812MPD2    N112015   0.077   1.533  12.440 -0.7100  0.1467 -0.2280
  812MPD2    H712016   4.732   1.550  12.390 -0.6798  1.7192  0.2582
  813MPD2     C12017   0.534   2.850  12.800  0.1062 -0.7056 -0.2930
  813MPD2    C112018   0.485   2.973  12.815 -0.1361 -0.0482  0.1272
  813MPD2    C212019   0.349   2.991  12.814  0.2121 -0.0526  0.0555
  813MPD2    C312020   0.273   2.872  12.809 -1.0551  0.1022 -0.1859
  813MPD2    C412021   0.326   2.754  12.778 -0.1493 -0.1168 -0.3448
  813MPD2    C512022   0.461   2.739  12.778  0.9332 -0.2301  0.2186
  813MPD2     H12023   0.302   3.084  12.845  2.1234  1.1265 -0.6297
  813MPD2    H112024   0.272   2.663  12.753  3.7170 -2.6615  0.4858
  813MPD2    H212025   0.641   2.835  12.801  0.6116  2.9810  0.2078
  813MPD2    H312026   0.506   2.642  12.761  2.4898  0.3722  0.8079
  813MPD2     N12027   0.139   2.879  12.840 -0.5665 -0.2467 -0.3513
  813MPD2    H512028   0.113   2.974  12.863 -1.9627 -0.6557 -0.2826
  813MPD2    N112029   0.575   3.074  12.849  0.8898 -0.3238 -0.2472
  813MPD2    H712030   0.674   3.055  12.865  0.6551 -0.0183  1.6350
  814MPD2     C12031   0.402   0.001  12.536  0.0155 -0.6851 -0.0919
  814MPD2    C112032   0.434   0.092  12.435  0.0448 -0.6679 -0.9149
  814MPD2    C212033   0.452   0.217  12.470 -0.0301 -0.2460 -0.2410
  814MPD2    C312034   0.459   0.254  12.603  0.0359 -0.1186 -0.2904
  814MPD2    C412035   0.434   0.166  12.700 -0.9118 -0.7906 -0.3087
  814MPD2    C512036   0.399   0.033  12.665 -0.6135 -0.6242  0.0996
  814MPD2     H12037   0.474   0.291  12.393  2.4395  0.2091  0.8724
  814MPD2    H112038   0.439   0.187  12.807 -4.7386 -0.0278 -0.2941
  814MPD2    H212039   0.382   4.637  12.523 -2.0183 -0.3304  0.0373
  814MPD2    H312040   0.395   4.704  12.747 -3.1393  0.1267  0.6313
  814MPD2     N12041   0.490   0.383  12.638 -0.4485 -0.3374 -0.2698
  814MPD2    H512042   0.482   0.407  12.736 -1.0876 -1.7384  0.0222
  814MPD2    N112043   0.441   0.072  12.296  0.2795  0.6130  0.2033
  814MPD2    H712044   0.453   0.154  12.237 -1.2591  0.2077 -0.6647
  815MPD2     C12045   0.332   3.458  12.181 -0.0233 -0.6229 -0.0288
  815MPD2    C112046   0.352   3.320  12.174 -0.5264 -0.0279 -0.5020
  815MPD2    C212047   0.252   3.229  12.194 -0.1787  0.0072  0.5114
  815MPD2    C312048   0.128   3.270  12.246  0.1948 -0.5311 -0.9892
  815MPD2    C412049   0.110   3.400  12.266  0.6676 -0.0915 -0.1395
  815MPD2    C512050   0.214   3.495  12.242 -0.8093  0.0398 -0.6613
  815MPD2     H12051   0.278   3.124  12.186 -0.2956 -0.0721  1.1647
  815MPD2    H112052   0.023   3.427  12.324  0.8367 -3.7843  1.7895
  815MPD2    H212053   0.410   3.532  12.167  0.6880 -1.2044  0.8646
  815MPD2    H312054   0.209   3.599  12.274 -0.9048  0.7514 -2.9904
  815MPD2     N12055   0.031   3.170  12.237  0.3551 -0.2375  0.0970
  815MPD2    H512056   0.072   3.081  12.211  1.4048  0.8659 -2.0247
  815MPD2    N112057   0.477   3.278  12.129  0.4239 -0.7502  0.0368
  815MPD2    H712058   0.542   3.353  12.108  0.8090 -0.7912  1.1227
  816MPD2     C12059   1.159   2.015  17.347 -0.0613  0.0633 -0.1757
  816MPD2    C112060   1.059   1.964  17.267 -0.0243  0.4333 -0.2093
  816MPD2    C212061   1.093   1.881  17.155 -0.6231  0.7747 -0.0552
  816MPD2    C312062   1.231   1.849  17.133 -0.2188 -0.6805 -0.3651
  816MPD2    C412063   1.324   1.900  17.218  0.2496  0.5807 -0.4348
  816MPD2    C512064   1.286   1.977  17.329  0.8378  0.2192 -0.1549
  816MPD2     H12065   1.016   1.852  17.084  1.9455 -0.9844 -2.1297
  816MPD2    H112066   1.427   1.866  17.211 -0.2934 -1.4635  1.3075
  816MPD2    H212067   1.134   2.072  17.436 -0.3964  0.5455 -0.5730
  816MPD2    H312068   1.366   2.001  17.398  1.6260  1.3532 -1.4637
  816MPD2     N12069   1.266   1.778  17.014 -0.7067 -1.1064  0.7775
  816MPD2    H512070   1.196   1.735  16.955 -1.6696 -0.1709  1.2434
  816MPD2    N112071   0.917   1.986  17.301 -0.1003 -0.1286 -0.3056
  816MPD2    H712072   0.893   2.047  17.379 -0.4691  0.3681 -0.8040
  817MPD2     C12073   4.212   4.038  10.128 -0.1361 -0.4092 -0.3756
  817MPD2    C112074   4.234   3.901  10.109  0.5602  0.1101 -0.0388
  817MPD2    C212075   4.126   3.826  10.061 -0.3308  0.2424 -0.5857
  817MPD2    C312076   4.003   3.877  10.043 -0.2107 -0.1521  0.1471
  817MPD2    C412077   3.993   4.014  10.059  0.3669  0.6807 -0.2109
  817MPD2    C512078   4.100   4.097  10.080 -0.3690 -0.5756 -0.1279
  817MPD2     H12079   4.147   3.721  10.041  0.5458  0.3466 -0.2560
  817MPD2    H112080   3.902   4.073  10.054  0.4217  0.6953 -0.9422
  817MPD2    H212081   4.293   4.109  10.142  0.5189 -0.8373 -1.8653
  817MPD2    H312082   4.096   4.204  10.092 -2.9308 -0.6862  0.0068
  817MPD2     N12083   3.888   3.804  10.011 -0.8499 -0.1287 -0.3827
  817MPD2    H512084   3.808   3.861   9.986  0.7177  1.8352 -0.9755
  817MPD2    N112085   4.365   3.838  10.112  0.9753  0.0264  0.1866
  817MPD2    H712086   4.371   3.744  10.075 -0.7687 -0.1993  0.4455
  818MPD2     C12087   3.047   3.884   9.931  0.7057  0.7987  0.4795
  818MPD2    C112088   2.996   3.785  10.017  0.3294  0.3104  0.0518
  818MPD2    C212089   2.993   3.653   9.968  0.7072  0.3973  0.2894
  818MPD2    C312090   3.055   3.611   9.850 -0.5516 -0.5499  0.4058
  818MPD2    C412091   3.113   3.711   9.776 -0.2416  0.7996 -0.4691
  818MPD2    C512092   3.106   3.842   9.813  0.2518  0.5187 -0.3752
  818MPD2     H12093   2.961   3.574  10.035  1.1868 -0.0425 -0.0031
  818MPD2    H112094   3.177   3.692   9.691 -0.5445  0.3329 -0.5967
  818MPD2    H212095   3.051   3.987   9.963  1.2400  1.6811 -2.3902
  818MPD2    H312096   3.160   3.913   9.750  3.0245  0.4914  1.9672
  818MPD2     N12097   3.075   3.476   9.818  0.1219 -0.5852 -0.0401
  818MPD2    H512098   3.137   3.459   9.739  0.9825  0.3481  0.4350
  818MPD2    N112099   2.945   3.815  10.141  0.3145  0.5053 -0.0483
  818MPD2    H712100   2.896   3.738  10.185  0.1866  0.4047 -0.3661
  819MPD2     C12101   2.208   0.175  15.629 -0.0959 -0.4299 -0.1341
  819MPD2    C112102   2.224   0.055  15.705  0.0612 -0.2190 -0.8668
  819MPD2    C212103   2.295   0.056  15.825  0.3902 -1.2766  0.0439
  819MPD2    C312104   2.357   0.178  15.862 -0.0875 -0.3935  0.1367
  819MPD2    C412105   2.343   0.287  15.785  0.5104 -0.0874  0.2659
  819MPD2    C512106   2.267   0.286  15.675 -0.6311 -0.0079 -0.1791
  819MPD2     H12107   2.314   4.705  15.878  1.4826 -0.6024  0.8427
  819MPD2    H112108   2.387   0.383  15.808 -1.3400  0.8614 -0.1125
  819MPD2    H212109   2.156   0.182  15.534  0.8080  0.6758 -0.5352
  819MPD2    H312110   2.263   0.373  15.611 -1.8395 -0.9800 -1.4289
  819MPD2     N12111   2.430   0.175  15.979  0.7969 -0.4687 -0.5812
  819MPD2    H512112   2.420   0.094  16.040  3.7157 -1.0624 -0.9037
  819MPD2    N112113   2.165   4.678  15.656  0.1077 -0.2631  0.0393
  819MPD2    H712114   2.128   4.682  15.561 -1.7000 -0.8355  0.7281
  820MPD2     C12115   1.306   4.558  15.254 -0.5428  0.1645 -0.9815
  820MPD2    C112116   1.394   4.647  15.300  0.0221 -0.3436 -0.2317
  820MPD2    C212117   1.519   4.607  15.351 -0.4843 -0.9969 -0.2226
  820MPD2    C312118   1.549   4.470  15.359 -0.2132 -0.4390  0.0194
  820MPD2    C412119   1.451   4.381  15.319  0.0250 -0.8845 -0.2780
  820MPD2    C512120   1.330   4.423  15.264 -0.1400 -0.1328  0.2236
  820MPD2     H12121   1.586   4.680  15.396 -1.6788 -0.0656  0.0439
  820MPD2    H112122   1.462   4.274  15.315  0.3155 -0.7686 -2.8128
  820MPD2    H212123   1.209   4.591  15.220  0.7195  2.4076 -2.4049
  820MPD2    H312124   1.258   4.350  15.227  0.0306  0.4714 -1.2794
  820MPD2     N12125   1.673   4.417  15.404  1.2575  0.1088  0.4566
  820MPD2    H512126   1.685   4.317  15.417 -2.0837 -0.5534 -1.5754
  820MPD2    N112127   1.366   0.042  15.276 -0.4433 -0.0952 -0.2791
  820MPD2    H712128   1.278   0.069  15.233  0.4898  1.2868 -1.3440
  821MPD2     C12129   2.065   1.875  13.226  0.2625 -0.6736  0.0476
  821MPD2    C112130   2.179   1.894  13.304  0.5250 -0.7489  0.0524
  821MPD2    C212131   2.287   1.955  13.245  0.3327 -0.6208 -0.8929
  821MPD2    C312132   2.290   1.983  13.109 -0.4155  0.2019 -0.7615
  821MPD2    C412133   2.168   1.973  13.037 -0.2909 -0.2629  0.4088
  821MPD2    C512134   2.055   1.916  13.102 -0.3120 -0.1180 -0.1665
  821MPD2     H12135   2.377   1.977  13.301  1.3150  1.2375 -3.1991
  821MPD2    H112136   2.167   2.020  12.940  0.0460  1.6247  1.3247
  821MPD2    H212137   1.974   1.827  13.258  0.5135 -0.5715  0.9223
  821MPD2    H312138   1.965   1.899  13.043  0.3307 -0.8916 -0.9320
  821MPD2     N12139   2.411   2.021  13.040  0.7247  0.4717 -0.1554
  821MPD2    H512140   2.404   2.025  12.938  2.6361 -2.8491 -0.3805
  821MPD2    N112141   2.188   1.861  13.440 -0.5634 -0.3141  0.2086
  821MPD2    H712142   2.268   1.892  13.495 -0.4870 -1.8230  0.9709
  822MPD2     C12143   3.320   1.625  15.996  0.9899  0.0613  0.7304
  822MPD2    C112144   3.290   1.610  16.127  0.3608  0.3445 -0.9355
  822MPD2    C212145   3.202   1.697  16.185  0.3942 -0.7398  0.3192
  822MPD2    C312146   3.135   1.785  16.109  0.1141 -0.1155  0.3361
  822MPD2    C412147   3.158   1.801  15.975 -0.0469  0.1722 -0.3071
  822MPD2    C512148   3.257   1.718  15.920  0.3109  0.4959  0.2104
  822MPD2     H12149   3.169   1.683  16.288  0.5950  1.4386  0.6778
  822MPD2    H112150   3.119   1.872  15.903  3.7543  0.9642 -1.5891
  822MPD2    H212151   3.394   1.567  15.942  0.8065  0.7249 -0.2347
  822MPD2    H312152   3.283   1.714  15.815  4.0591  0.4078  1.1446
  822MPD2     N12153   3.044   1.862  16.174 -0.7089  0.0252 -0.0804
  822MPD2    H512154   3.018   1.837  16.269 -0.5506  0.9839  0.2102
  822MPD2    N112155   3.341   1.503  16.200 -0.2360  0.1973 -0.0971
  822MPD2    H712156   3.317   1.495  16.299  1.1303  0.8029  0.2837
  823MPD2     C12157   2.573   1.981  16.849  0.0051  0.0421  0.3467
  823MPD2    C112158   2.685   1.925  16.784 -0.5195 -1.1632  0.2295
  823MPD2    C212159   2.773   1.843  16.853  0.4753 -0.1800  0.2278
  823MPD2    C312160   2.752   1.825  16.985  0.6579  0.4542  0.4874
  823MPD2    C412161   2.646   1.879  17.051 -0.2396  0.1833  0.3865
  823MPD2    C512162   2.553   1.954  16.984  0.3466 -0.1674 -0.4724
  823MPD2     H12163   2.864   1.808  16.804 -0.8429 -1.2113 -1.4596
  823MPD2    H112164   2.639   1.870  17.159 -2.2082 -2.9150  0.0074
  823MPD2    H212165   2.504   2.050  16.800 -1.2350 -1.0784  0.5435
  823MPD2    H312166   2.475   2.000  17.043  1.2129 -0.3831  0.8478
  823MPD2     N12167   2.848   1.748  17.063  0.4586 -0.2820 -0.0469
  823MPD2    H512168   2.819   1.719  17.156  1.0035  1.4830  0.6529
  823MPD2    N112169   2.688   1.960  16.649 -0.6609 -0.0351  0.3741
  823MPD2    H712170   2.638   2.042  16.617 -0.9895  0.4062  2.0326
  824MPD2     C12171   3.642   0.735  16.138  0.4569 -0.2201 -0.4838
  824MPD2    C112172   3.701   0.856  16.106 -0.5902 -0.1587 -0.6732
  824MPD2    C212173   3.795   0.863  16.007  0.0215  0.3019 -0.5549
  824MPD2    C312174   3.827   0.747  15.941  0.1598  0.5728 -0.4727
  824MPD2    C412175   3.789   0.626  15.989 -0.0716  0.2668  0.2368
  824MPD2    C512176   3.694   0.617  16.086 -0.6129  1.0900 -0.0005
  824MPD2     H12177   3.826   0.961  15.973 -1.9980  0.6724 -1.3244
  824MPD2    H112178   3.824   0.528  15.960 -0.3475  0.2374 -0.0003
  824MPD2    H212179   3.559   0.730  16.207 -1.5829  0.9247 -2.8552
  824MPD2    H312180   3.655   0.522  16.122 -0.6181  0.7695 -0.8488
  824MPD2     N12181   3.910   0.761  15.826  0.4708 -0.3636  0.0305
  824MPD2    H512182   3.930   0.856  15.798 -1.4390  0.1808  0.5358
  824MPD2    N112183   3.650   0.971  16.163  0.0796  0.0677  0.0074
  824MPD2    H712184   3.670   1.059  16.116 -1.0482  1.8981  2.9814
  825MPD2     C12185   4.413   1.198  15.312  0.6301  0.1859  0.0468
  825MPD2    C112186   4.369   1.174  15.438  0.0184 -0.2856 -0.4518
  825MPD2    C212187   4.360   1.283  15.525 -0.7666  0.8926  0.0405
  825MPD2    C312188   4.404   1.412  15.484 -0.0842 -0.3953 -0.4085
  825MPD2    C412189   4.460   1.425  15.359 -0.1008 -0.1288 -0.2018
  825MPD2    C512190   4.464   1.320  15.276  0.1156 -0.1236  0.1697
  825MPD2     H12191   4.306   1.270  15.618 -1.6787  0.2029 -0.5884
  825MPD2    H112192   4.481   1.522  15.316  1.4715  0.0576  0.9976
  825MPD2    H212193   4.420   1.117  15.240  0.1682  1.5835 -1.5664
  825MPD2    H312194   4.506   1.335  15.177 -0.9378 -0.3984 -0.3145
  825MPD2     N12195   4.379   1.519  15.567 -0.0211  0.6312 -0.0971
  825MPD2    H512196   4.383   1.605  15.513 -2.3644  0.5019 -0.4680
  825MPD2    N112197   4.318   1.046  15.476 -0.4669  0.4451 -0.6823
  825MPD2    H712198   4.313   0.975  15.404 -0.9816 -1.0607  0.8267
  826MPD2     C12199   3.658   1.341  13.831  0.2218  0.1858  0.4601
  826MPD2    C112200   3.545   1.306  13.761  0.4448 -0.2317 -0.2634
  826MPD2    C212201   3.424   1.360  13.798 -0.6003  0.5704  0.1660
  826MPD2    C312202   3.413   1.436  13.912 -0.4598  0.5496  0.0178
  826MPD2    C412203   3.529   1.482  13.969  0.2231  0.0887  0.1861
  826MPD2    C512204   3.646   1.428  13.933 -0.0415 -0.5271 -0.7118
  826MPD2     H12205   3.335   1.322  13.750  0.6297 -2.2697  0.1238
  826MPD2    H112206   3.522   1.543  14.058 -2.6566 -0.2949  0.2431
  826MPD2    H212207   3.753   1.298  13.804 -1.7003 -3.1886 -1.0176
  826MPD2    H312208   3.726   1.473  13.991  2.2387 -3.3032 -1.6708
  826MPD2     N12209   3.283   1.486  13.957  0.1719 -0.5450  0.3876
  826MPD2    H512210   3.289   1.542  14.041  2.8773  0.2242 -0.3076
  826MPD2    N112211   3.569   1.208  13.658  0.0794 -0.6612 -0.9489
  826MPD2    H712212   3.666   1.182  13.641 -0.2702 -0.5051 -3.1333
  827MPD2     C12213   4.623   2.353  10.348  0.2962 -0.3877 -0.0157
  827MPD2    C112214   4.516   2.366  10.433 -0.4267 -0.3471  0.2429
  827MPD2    C212215   4.400   2.301  10.397 -0.1426  0.9253 -0.5270
  827MPD2    C312216   4.381   2.234  10.279  0.6677  0.4183  1.1002
  827MPD2    C412217   4.489   2.224  10.197  0.1564 -0.1787 -0.7265
  827MPD2    C512218   4.608   2.287  10.231  0.2308  0.0389 -1.1596
  827MPD2     H12219   4.323   2.301  10.473  1.2319  1.4856  0.8700
  827MPD2    H112220   4.480   2.171  10.103  0.6420 -1.5411 -0.0082
  827MPD2    H212221   4.721   2.386  10.379 -0.0729 -0.5613  1.3694
  827MPD2    H312222   4.688   2.297  10.158 -0.1183  4.4053 -0.9012
  827MPD2     N12223   4.260   2.166  10.262 -0.3341 -0.4608  0.1118
  827MPD2    H512224   4.185   2.163  10.331 -0.5276  0.9330 -0.0439
  827MPD2    N112225   4.531   2.454  10.539  0.3877  0.5052  0.1102
  827MPD2    H712226   4.624   2.491  10.554  0.1874  0.6632  0.9680
  828MPD2     C12227   2.624   1.919  12.674 -0.1410 -0.1977 -0.2550
  828MPD2    C112228   2.585   1.977  12.555 -0.1252  0.3294 -0.0433
  828MPD2    C212229   2.668   1.973  12.445  0.0550  0.6898  0.2098
  828MPD2    C312230   2.781   1.903  12.451 -0.2520 -0.4243 -0.2449
  828MPD2    C412231   2.813   1.832  12.561 -0.1280  0.0688 -0.2301
  828MPD2    C512232   2.739   1.846  12.677 -0.3755  0.4532  0.4564
  828MPD2     H12233   2.635   2.009  12.348  1.1054 -1.7330 -1.0407
  828MPD2    H112234   2.903   1.771  12.560 -0.8657 -1.0114  1.0189
  828MPD2    H212235   2.568   1.933  12.766 -1.2206  0.6261 -1.0470
  828MPD2    H312236   2.768   1.787  12.764 -0.7766  1.0117  0.9696
  828MPD2     N12237   2.871   1.889  12.339  0.3449  0.0263 -0.0266
  828MPD2    H512238   2.947   1.824  12.355  0.6896  0.6682  0.9656
  828MPD2    N112239   2.470   2.060  12.545 -0.6414 -0.3376  0.0506
  828MPD2    H712240   2.458   2.110  12.457  2.0892  2.1728  1.1007
  829MPD2     C12241   2.452   2.599  11.903 -0.1620  0.7197  0.5270
  829MPD2    C112242   2.324   2.611  11.941 -0.1385  0.2495 -0.4590
  829MPD2    C212243   2.278   2.557  12.061 -0.7219  0.5490  0.0987
  829MPD2    C312244   2.370   2.494  12.143 -0.0015  0.2811 -0.1037
  829MPD2    C412245   2.504   2.492  12.109 -0.3801 -0.3604 -0.6450
  829MPD2    C512246   2.541   2.544  11.990  0.0051 -0.0945  0.6177
  829MPD2     H12247   2.175   2.572  12.091 -0.8819  0.0978 -0.2311
  829MPD2    H112248   2.585   2.445  12.163 -1.5028 -1.3696  0.1873
  829MPD2    H212249   2.487   2.647  11.812 -3.7656  0.4097 -1.0439
  829MPD2    H312250   2.639   2.536  11.945 -0.3892  1.7732 -0.5743
  829MPD2     N12251   2.327   2.417  12.258  0.4184 -0.5413  0.5366
  829MPD2    H512252   2.392   2.358  12.308  1.8773 -0.2521 -0.9937
  829MPD2    N112253   2.239   2.673  11.855  0.1806 -0.4244  0.0350
  829MPD2    H712254   2.277   2.701  11.765 -2.2579 -0.5848 -1.0466
  830MPD2     C12255   3.256   0.042  16.164  0.5916 -0.1337  0.3787
  830MPD2    C112256   3.154   0.101  16.096 -0.2698 -0.0897  0.2319
  830MPD2    C212257   3.138   0.090  15.961  0.1686  0.3084  0.5966
  830MPD2    C312258   3.231   0.029  15.886  0.3714  0.2584 -0.0049
  830MPD2    C412259   3.344   4.726  15.949 -0.5403 -0.6590  0.7091
  830MPD2    C512260   3.355   4.729  16.086  0.0171 -0.0341  0.5546
  830MPD2     H12261   3.057   0.144  15.913  0.4795 -1.1628 -1.5849
  830MPD2    H112262   3.416   4.666  15.893 -0.4157 -0.1469  0.3119
  830MPD2    H212263   3.266   0.057  16.271 -0.2717  1.5437  0.2122
  830MPD2    H312264   3.442   4.688  16.136  0.2592  2.3547  2.0892
  830MPD2     N12265   3.224   0.029  15.745  0.3002  0.3685 -0.3015
  830MPD2    H512266   3.310   0.032  15.693  1.1299  1.8258  1.1541
  830MPD2    N112267   3.060   0.171  16.178  0.6669 -0.1676  0.1981
  830MPD2    H712268   3.056   0.159  16.279  1.1627 -0.5298  0.1746
  831MPD2     C12269   3.247   2.055  16.469  0.2717  0.2071  0.6721
  831MPD2    C112270   3.311   1.944  16.420 -0.1566  0.0975 -0.5294
  831MPD2    C212271   3.282   1.821  16.473 -0.7429  0.6937 -0.3934
  831MPD2    C312272   3.186   1.805  16.568  0.4448  0.2695  0.1958
  831MPD2    C412273   3.127   1.919  16.618  0.4353  0.0390  0.3771
  831MPD2    C512274   3.153   2.048  16.574  0.2874  0.0155 -0.6110
  831MPD2     H12275   3.331   1.733  16.431 -0.6044  0.6458 -0.1318
  831MPD2    H112276   3.047   1.915  16.691 -0.4455 -1.5208 -0.6737
  831MPD2    H212277   3.269   2.149  16.420  0.7204 -0.0344  0.4085
  831MPD2    H312278   3.108   2.134  16.621 -0.0547 -0.1212 -0.6920
  831MPD2     N12279   3.136   1.678  16.602  0.3239 -0.3207 -0.1604
  831MPD2    H512280   3.056   1.677  16.664 -0.1808  2.4376 -0.7493
  831MPD2    N112281   3.401   1.960  16.314 -0.4668 -0.1304 -0.4969
  831MPD2    H712282   3.395   2.044  16.256  2.8382  0.3377 -0.1724
  832MPD2     C12283   1.511   2.983  17.218  0.4647  0.4938  0.6219
  832MPD2    C112284   1.467   3.104  17.172  0.2663 -0.2695  0.0029
  832MPD2    C212285   1.347   3.120  17.092 -0.3765 -0.2621 -0.3126
  832MPD2    C312286   1.276   3.006  17.054 -0.1792  0.2755  0.1606
  832MPD2    C412287   1.331   2.883  17.098  0.5973  0.1394 -0.0754
  832MPD2    C512288   1.452   2.871  17.171  0.3196 -0.2094  0.7800
  832MPD2     H12289   1.314   3.217  17.057  1.4128  0.1429 -0.8752
  832MPD2    H112290   1.277   2.797  17.060  0.8154  0.9867 -2.2919
  832MPD2    H212291   1.606   2.968  17.267 -0.8526  2.2962  3.7090
  832MPD2    H312292   1.474   2.771  17.208 -1.0199 -0.7179  0.2190
  832MPD2     N12293   1.148   3.009  17.001 -0.0799  0.4805 -0.4495
  832MPD2    H512294   1.103   2.921  16.977  0.2832 -0.6841  3.1029
  832MPD2    N112295   1.535   3.219  17.211  0.2701 -0.4668 -0.6631
  832MPD2    H712296   1.505   3.309  17.176 -3.3129 -1.1656  0.6974
  833MPD2     C12297   3.887   4.445  12.584  0.3104 -0.6208 -0.7083
  833MPD2    C112298   3.835   4.548  12.500 -0.1089 -0.0628 -0.5770
  833MPD2    C212299   3.875   4.547  12.367  0.3103 -0.7268 -0.9113
  833MPD2    C312300   3.959   4.447  12.321  0.5091 -0.5490  0.0368
  833MPD2    C412301   4.015   4.357  12.412 -0.1671  1.2014 -0.6420
  833MPD2    C512302   3.973   4.346  12.540 -0.0568 -0.0284  0.3278
  833MPD2     H12303   3.842   4.627  12.302 -3.1355 -1.0350  0.4812
  833MPD2    H112304   4.089   4.285  12.379 -0.6209  0.9264 -1.0624
  833MPD2    H212305   3.875   4.450  12.692  2.2739  3.5912 -0.6826
  833MPD2    H312306   4.029   4.284  12.609  2.0026  1.9676  0.4379
  833MPD2     N12307   4.011   4.448  12.186 -0.0568 -0.0631 -0.0765
  833MPD2    H512308   4.105   4.415  12.171  0.0336 -0.5227  1.4569
  833MPD2    N112309   3.740   4.636  12.557  0.1983 -0.1355 -0.0193
  833MPD2    H712310   3.689   4.611  12.641  2.4131  1.2771  1.7304
  834MPD2     C12311   3.132   4.012  11.958  0.5031  0.5651 -0.6354
  834MPD2    C112312   3.149   4.106  11.855  0.5286 -0.0712  0.3458
  834MPD2    C212313   3.247   4.203  11.864 -0.3609 -0.4833  0.9333
  834MPD2    C312314   3.320   4.210  11.984  0.4591 -0.2248  0.2467
  834MPD2    C412315   3.296   4.121  12.087  0.3241 -0.0161  1.0282
  834MPD2    C512316   3.206   4.018  12.068  0.2310 -0.1104  0.7937
  834MPD2     H12317   3.262   4.276  11.785 -0.5790 -2.1033 -0.5894
  834MPD2    H112318   3.352   4.118  12.180 -0.6612 -0.4277  1.6027
  834MPD2    H212319   3.060   3.931  11.951  1.3271 -0.3706  1.5855
  834MPD2    H312320   3.186   3.955  12.154 -0.1145 -0.4761  0.4457
  834MPD2     N12321   3.424   4.312  11.997  0.7759  0.4309 -0.1564
  834MPD2    H512322   3.429   4.385  11.927 -1.1091 -0.9979 -1.7692
  834MPD2    N112323   3.070   4.083  11.740  0.4245 -0.0780  0.2349
  834MPD2    H712324   3.013   4.000  11.737 -0.4662  0.5419  0.0483
  835MPD2     C12325   4.040   2.649  11.042  0.3332 -0.0862 -0.3525
  835MPD2    C112326   3.918   2.699  11.067 -0.7331 -0.0274  0.3365
  835MPD2    C212327   3.873   2.703  11.201 -0.1296  0.9264 -0.0306
  835MPD2    C312328   3.937   2.633  11.308  0.0129  0.3057 -0.1025
  835MPD2    C412329   4.050   2.563  11.268 -0.0836 -0.4052 -0.6133
  835MPD2    C512330   4.101   2.577  11.139  0.4734 -0.1830  0.0324
  835MPD2     H12331   3.784   2.762  11.215  0.3840  1.3305  1.5752
  835MPD2    H112332   4.105   2.499  11.337 -1.0342 -1.8637 -1.2111
  835MPD2    H212333   4.085   2.642  10.944  0.2904 -1.2172 -0.2935
  835MPD2    H312334   4.190   2.524  11.108  0.9344 -0.0128  1.0664
  835MPD2     N12335   3.889   2.628  11.438  0.2761  0.0576  0.5691
  835MPD2    H512336   3.922   2.546  11.487 -0.8261 -0.1645  0.9338
  835MPD2    N112337   3.836   2.758  10.971  0.8362 -0.0988  0.2992
  835MPD2    H712338   3.743   2.783  11.004  0.3553 -1.1809 -0.2405
  836MPD2     C12339   3.278   3.044  11.677 -0.6247  0.5620  0.3987
  836MPD2    C112340   3.288   2.938  11.756 -0.3065 -0.2852 -0.5539
  836MPD2    C212341   3.200   2.931  11.863  0.2070 -0.0322 -0.3578
  836MPD2    C312342   3.104   3.029  11.877 -0.1094 -0.2984  0.1312
  836MPD2    C412343   3.087   3.139  11.789  0.1403  0.2488  0.6435
  836MPD2    C512344   3.190   3.148  11.695 -0.5065 -0.0595  0.0168
  836MPD2     H12345   3.214   2.849  11.932  0.3372  1.3276  1.2377
  836MPD2    H112346   3.023   3.225  11.804 -1.0476 -0.8196  1.6889
  836MPD2    H212347   3.358   3.061  11.605  0.0477  0.6128  1.1519
  836MPD2    H312348   3.192   3.239  11.636 -0.1154 -0.6284 -0.8480
  836MPD2     N12349   2.990   3.005  11.957 -0.1699  0.2501 -0.0339
  836MPD2    H512350   2.906   3.055  11.929 -1.2550 -1.2590  0.5117
  836MPD2    N112351   3.387   2.840  11.731 -0.1558  0.5951  0.4622
  836MPD2    H712352   3.453   2.852  11.655 -1.2951  1.8356 -0.3333
  837MPD2     C12353   1.521   2.833  10.623 -0.3221  0.6661  0.2795
  837MPD2    C112354   1.400   2.868  10.570 -0.5763 -0.8004  0.4920
  837MPD2    C212355   1.379   3.006  10.567 -0.1816 -0.3318 -0.5902
  837MPD2    C312356   1.465   3.102  10.617  0.2499 -0.8196 -0.0466
  837MPD2    C412357   1.586   3.061  10.668 -0.8567  0.1668  0.2030
  837MPD2    C512358   1.612   2.932  10.668  0.0040  0.6266 -0.2520
  837MPD2     H12359   1.291   3.049  10.521 -0.5380  0.7475  1.1003
  837MPD2    H112360   1.652   3.130  10.720  0.6831 -1.1876  0.0308
  837MPD2    H212361   1.550   2.729  10.617 -1.5303  0.4114 -1.1905
  837MPD2    H312362   1.699   2.900  10.724 -0.5616  1.1644  0.9403
  837MPD2     N12363   1.413   3.230  10.616  0.3070  0.5078  0.1479
  837MPD2    H512364   1.318   3.235  10.581 -0.6498 -2.5896  2.2089
  837MPD2    N112365   1.305   2.766  10.538 -0.2224 -0.6501 -0.7662
  837MPD2    H712366   1.314   2.671  10.572 -1.1674 -0.4737 -0.0292
  838MPD2     C12367   0.299   1.119  12.342 -0.2264  1.4077 -0.3327
  838MPD2    C112368   0.350   0.991  12.329 -0.1745 -0.0788 -0.0598
  838MPD2    C212369   0.297   0.883  12.395 -0.4891 -0.1758 -0.1037
  838MPD2    C312370   0.183   0.900  12.463  0.1250 -0.3688 -0.2942
  838MPD2    C412371   0.138   1.027  12.489  0.3518  0.2805 -0.1041
  838MPD2    C512372   0.198   1.134  12.426  0.4340  0.2440  0.6565
  838MPD2     H12373   0.345   0.788  12.377 -0.4790 -0.1622 -0.1483
  838MPD2    H112374   0.046   1.046  12.543  0.8639  0.3322  0.7520
  838MPD2    H212375   0.321   1.206  12.282 -0.6987  1.6370 -0.1746
  838MPD2    H312376   0.160   1.235  12.438 -0.9839 -0.1484 -0.4915
  838MPD2     N12377   0.104   0.789  12.504  0.4962 -0.0157 -0.0852
  838MPD2    H512378   0.011   0.817  12.532  0.9797  1.0296  0.4952
  838MPD2    N112379   0.441   0.956  12.231  0.2297 -0.7841  0.5575
  838MPD2    H712380   0.485   0.864  12.239  1.3194 -0.4350 -1.6416
  839MPD2     C12381   0.249   0.249  12.027  0.7255 -0.4433  0.5780
  839MPD2    C112382   0.270   0.284  11.896 -0.0239 -0.3913  0.6487
  839MPD2    C212383   0.345   0.399  11.872 -0.3643 -0.4387 -0.7757
  839MPD2    C312384   0.405   0.463  11.975  0.1353  0.4427 -0.2810
  839MPD2    C412385   0.386   0.424  12.105  0.8435  0.3144  0.1334
  839MPD2    C512386   0.310   0.315  12.129  0.1789  0.1332 -0.1285
  839MPD2     H12387   0.346   0.436  11.770 -0.1517  1.9208  0.0852
  839MPD2    H112388   0.417   0.474  12.196  0.7577  0.1278  0.2634
  839MPD2    H212389   0.192   0.159  12.050 -1.2156  0.6607  0.0573
  839MPD2    H312390   0.284   0.294  12.232 -0.7567 -0.4569 -0.4869
  839MPD2     N12391   0.473   0.585  11.961 -0.2215  0.1228 -0.1744
  839MPD2    H512392   0.504   0.628  12.048 -0.0514 -1.1850  0.3986
  839MPD2    N112393   0.205   0.215  11.788  0.4440 -0.4747  0.5640
  839MPD2    H712394   0.236   0.244  11.696  1.1893 -1.0120  0.6464
  840MPD2     C12395   0.191   2.948  10.583  0.4056  0.2168 -0.5589
  840MPD2    C112396   0.091   2.964  10.670 -0.7924  0.5040 -0.0317
  840MPD2    C212397   0.075   3.092  10.725  0.0513  0.5258 -0.3355
  840MPD2    C312398   0.163   3.197  10.704  1.1267 -0.2205  0.1181
  840MPD2    C412399   0.272   3.175  10.619 -0.4304 -0.9640  0.2129
  840MPD2    C512400   0.281   3.051  10.558 -0.5031  0.6800  0.5388
  840MPD2     H12401   4.730   3.109  10.788 -0.8840  0.5371 -1.6181
  840MPD2    H112402   0.338   3.256  10.589 -1.4829  0.7475  2.4949
  840MPD2    H212403   0.218   2.853  10.538 -1.8437 -0.5699 -0.2585
  840MPD2    H312404   0.356   3.036  10.482 -1.4985  2.3183 -0.7661
  840MPD2     N12405   0.160   3.315  10.777 -0.9576  0.1782 -0.3810
  840MPD2    H512406   0.236   3.380  10.757 -1.2154  0.8924  0.9617
  840MPD2    N112407   0.023   2.848  10.709 -0.7796  0.3508 -0.1503
  840MPD2    H712408   0.028   2.762  10.655  0.5331 -0.0324  0.5773
  841MPD2     C12409   4.698   2.722  13.927  0.2609  0.1339 -0.9378
  841MPD2    C112410   0.011   2.656  14.038  0.7201 -0.9693  0.7146
  841MPD2    C212411   0.134   2.592  14.020 -0.3662 -0.3697  0.6535
  841MPD2    C312412   0.203   2.598  13.903 -0.8382 -0.1304  0.0393
  841MPD2    C412413   0.137   2.665  13.802  0.1204  0.2670 -0.9296
  841MPD2    C512414   0.017   2.719  13.808  0.8452 -0.1870 -0.1010
  841MPD2     H12415   0.187   2.557  14.108 -0.8869  0.8331  1.4552
  841MPD2    H112416   0.180   2.658  13.703 -2.7367  1.5451 -2.2400
  841MPD2    H212417   4.605   2.776  13.938  0.4667  0.2622  0.1120
  841MPD2    H312418   4.714   2.763  13.719 -0.8560  0.4225  1.0496
  841MPD2     N12419   0.332   2.541  13.894  0.1220  0.5894 -0.0133
  841MPD2    H512420   0.367   2.510  13.984 -0.7225 -0.6177 -0.0937
  841MPD2    N112421   4.676   2.634  14.159  0.4269  0.0702  0.4018
  841MPD2    H712422   4.720   2.564  14.218 -1.1684 -1.7601 -0.5490
  842MPD2     C12423   0.730   3.303  16.943 -0.6092  0.5435 -0.3882
  842MPD2    C112424   0.603   3.258  16.899 -0.4313 -0.5093  0.2275
  842MPD2    C212425   0.527   3.191  16.990  0.1594 -0.1543  0.0275
  842MPD2    C312426   0.561   3.183  17.121  0.0422 -0.5506  0.1079
  842MPD2    C412427   0.688   3.222  17.159  0.3859 -0.9874  0.3934
  842MPD2    C512428   0.769   3.283  17.071 -0.1763  0.2623 -1.0354
  842MPD2     H12429   0.428   3.161  16.958 -0.9671  3.3289  0.2718
  842MPD2    H112430   0.723   3.217  17.261  0.2334  0.3542  0.5111
  842MPD2    H212431   0.787   3.369  16.879  1.4719 -1.0045 -0.1135
  842MPD2    H312432   0.862   3.330  17.101 -1.8499  2.2939  0.9960
  842MPD2     N12433   0.481   3.128  17.221  0.2025 -0.0896 -0.1779
  842MPD2    H512434   0.514   3.121  17.317 -1.5333 -0.9557  0.3578
  842MPD2    N112435   0.561   3.302  16.770  0.4405  0.3646  0.3319
  842MPD2    H712436   0.614   3.378  16.727  1.3642 -1.0331 -0.9967
  843MPD2     C12437   2.730   4.358  17.378 -0.3564  0.0290 -0.5737
  843MPD2    C112438   2.679   4.278  17.478  1.4239  0.2751  0.3790
  843MPD2    C212439   2.744   4.278  17.601 -0.6668 -0.4287 -0.0579
  843MPD2    C312440   2.863   4.341  17.619 -0.5319 -0.5960 -0.7935
  843MPD2    C412441   2.910   4.425  17.517 -0.3005  0.2293 -0.9565
  843MPD2    C512442   2.848   4.419  17.398  0.5763 -0.1303 -0.2004
  843MPD2     H12443   2.703   4.215  17.679 -0.2950  1.8636  1.9886
  843MPD2    H112444   3.000   4.486  17.526 -1.0504  1.3385 -0.9909
  843MPD2    H212445   2.695   4.369  17.276  0.5146  1.3838 -0.7226
  843MPD2    H312446   2.886   4.479  17.316 -3.2934  2.1337 -0.3176
  843MPD2     N12447   2.928   4.330  17.742  0.5951 -0.3863  0.4658
  843MPD2    H512448   3.015   4.382  17.745  1.5654 -1.8302 -2.3749
  843MPD2    N112449   2.564   4.205  17.445  0.6271 -0.2945 -0.1890
  843MPD2    H712450   2.525   4.204  17.351  1.1753 -1.1188 -0.4118
  844MPD2     C12451   0.995   2.597  16.497 -1.0470  0.2146 -0.4427
  844MPD2    C112452   1.117   2.557  16.467  0.6100  0.4348 -0.4190
  844MPD2    C212453   1.229   2.625  16.520  0.2835 -0.0324  0.0566
  844MPD2    C312454   1.206   2.750  16.578 -0.2021  0.3876 -0.1639
  844MPD2    C412455   1.072   2.782  16.619  0.5206  0.4828  0.7313
  844MPD2    C512456   0.971   2.708  16.587  0.7084 -0.4790  0.2733
  844MPD2     H12457   1.331   2.598  16.497  0.3190  0.9809 -0.9607
  844MPD2    H112458   1.053   2.879  16.665  0.5761 -0.0095  1.8002
  844MPD2    H212459   0.908   2.547  16.456 -0.1859  1.5189 -3.8537
  844MPD2    H312460   0.865   2.729  16.598  0.4337 -0.2547 -2.8648
  844MPD2     N12461   1.325   2.827  16.614  0.0760 -1.3167 -0.5004
  844MPD2    H512462   1.414   2.782  16.597  0.2984 -0.4479 -1.6640
  844MPD2    N112463   1.142   2.465  16.359  0.0256 -0.0248  0.3901
  844MPD2    H712464   1.238   2.463  16.325 -0.1050  0.3943  0.0032
  845MPD2     C12465   1.509   3.838  16.813 -0.2438  0.3219  0.2617
  845MPD2    C112466   1.497   3.764  16.928 -0.4516  0.1232  0.4133
  845MPD2    C212467   1.481   3.629  16.923  0.0458  0.2521  0.8571
  845MPD2    C312468   1.460   3.571  16.798 -0.4399  0.3810 -0.5067
  845MPD2    C412469   1.464   3.650  16.685 -0.2509  0.1798  0.0032
  845MPD2    C512470   1.486   3.784  16.696  0.4479 -0.6459  0.0855
  845MPD2     H12471   1.469   3.579  17.019  3.2841 -2.2032 -0.0274
  845MPD2    H112472   1.444   3.618  16.583  0.2262 -0.7042  0.1899
  845MPD2    H212473   1.527   3.945  16.815 -0.5458  0.3981 -1.1579
  845MPD2    H312474   1.485   3.853  16.612 -0.6450 -2.5667 -1.4979
  845MPD2     N12475   1.441   3.432  16.781 -0.2157  0.2485  0.4792
  845MPD2    H512476   1.408   3.407  16.689 -2.7278  1.6636  0.9804
  845MPD2    N112477   1.506   3.831  17.052  0.3602  0.2663  0.3349
  845MPD2    H712478   1.514   3.931  17.037  2.0148  0.2152  0.9213
  846MPD2     C12479   3.126   4.130  13.960  0.0387 -0.1305  0.3690
  846MPD2    C112480   3.012   4.210  13.958 -0.0250  0.4783  0.3493
  846MPD2    C212481   2.940   4.219  14.070  0.7342  0.0707 -0.1893
  846MPD2    C312482   2.987   4.175  14.195  0.5490 -0.0644 -1.0414
  846MPD2    C412483   3.115   4.130  14.197 -0.2941  0.0032  0.0892
  846MPD2    C512484   3.182   4.095  14.080  0.2372 -0.0874  0.0843
  846MPD2     H12485   2.846   4.273  14.066  0.3654 -0.6030 -0.5278
  846MPD2    H112486   3.185   4.122  14.280  0.8615 -1.5312 -1.0347
  846MPD2    H212487   3.180   4.116  13.866  0.5385 -1.5671  0.8715
  846MPD2    H312488   3.283   4.056  14.077  0.2080 -0.1039 -0.8515
  846MPD2     N12489   2.916   4.200  14.321 -0.0133  0.8501 -0.0730
  846MPD2    H512490   2.826   4.246  14.312 -1.1123 -1.4025 -0.7865
  846MPD2    N112491   2.966   4.268  13.841 -0.3160 -0.3097  0.1034
  846MPD2    H712492   2.888   4.332  13.852  1.3179  1.9877 -1.6272
  847MPD2     C12493   2.025   0.607  15.407  0.1396  0.0990  0.0422
  847MPD2    C112494   2.099   0.673  15.311 -0.6985 -0.7241  0.0183
  847MPD2    C212495   2.170   0.593  15.225  0.3022 -0.3517  0.0954
  847MPD2    C312496   2.163   0.456  15.228 -0.5009  0.3310 -0.0633
  847MPD2    C412497   2.090   0.387  15.324 -0.0926  0.3118  0.5318
  847MPD2    C512498   2.026   0.470  15.411  0.1735  0.0953  0.6531
  847MPD2     H12499   2.231   0.645  15.151 -0.3300 -0.2421 -0.3506
  847MPD2    H112500   2.100   0.280  15.335 -2.0214 -0.0562 -1.3735
  847MPD2    H212501   1.964   0.657  15.481  2.7454 -0.2807  2.4523
  847MPD2    H312502   1.962   0.418  15.482 -0.4873  0.7952  0.5664
  847MPD2     N12503   2.254   0.392  15.140  0.5594 -0.3477  0.5630
  847MPD2    H512504   2.294   0.462  15.077  0.7427 -0.8754  0.0894
  847MPD2    N112505   2.110   0.808  15.291 -0.1614 -0.2675 -0.5518
  847MPD2    H712506   2.173   0.842  15.219  0.7131 -2.0455 -0.6244
  848MPD2     C12507   0.798   3.277  16.295  0.6519  0.5033  0.4414
  848MPD2    C112508   0.894   3.293  16.392 -0.2635 -0.1924 -0.1561
  848MPD2    C212509   0.986   3.399  16.388  0.0867  0.0272  0.1321
  848MPD2    C312510   0.990   3.477  16.276  0.6255 -0.4254 -1.1888
  848MPD2    C412511   0.900   3.460  16.182 -0.4054 -0.0224 -0.2950
  848MPD2    C512512   0.802   3.361  16.190  0.0859 -1.3981 -0.0387
  848MPD2     H12513   1.044   3.427  16.476 -0.0187 -0.9532  0.5182
  848MPD2    H112514   0.889   3.524  16.096 -2.4703 -0.2847 -0.2286
  848MPD2    H212515   0.717   3.206  16.304  0.6363  0.6918  1.8165
  848MPD2    H312516   0.735   3.346  16.106 -0.0943 -3.0142  0.3879
  848MPD2     N12517   1.076   3.592  16.255 -0.2448  0.4767  0.0307
  848MPD2    H512518   1.055   3.641  16.169 -1.0495 -0.3290 -0.2297
  848MPD2    N112519   0.893   3.220  16.512  0.2504 -0.7655  0.2180
  848MPD2    H712520   0.967   3.253  16.574 -1.1478  0.7243  1.0912
  849MPD2     C12521   4.579   3.308  14.311 -0.2378 -0.1813  0.5092
  849MPD2    C112522   4.687   3.228  14.260 -0.3918 -0.3390 -0.4295
  849MPD2    C212523   0.048   3.187  14.333 -0.1494  0.2386 -0.2603
  849MPD2    C312524   0.055   3.222  14.466  1.4359  0.6723  0.3611
  849MPD2    C412525   4.699   3.303  14.516  0.0745 -0.0039 -0.3188
  849MPD2    C512526   4.589   3.342  14.440 -0.5520  0.3468 -0.9321
  849MPD2     H12527   0.127   3.123  14.295  0.3804  0.0348  1.1661
  849MPD2    H112528   4.713   3.334  14.619 -2.3323 -1.2808  0.3773
  849MPD2    H212529   4.492   3.348  14.258  0.6843 -0.2694 -1.0753
  849MPD2    H312530   4.512   3.401  14.488  1.1621  0.7713  1.2793
  849MPD2     N12531   0.165   3.176  14.541 -0.5708  0.2927 -0.2379
  849MPD2    H512532   0.219   3.102  14.497 -0.5723  0.5003 -0.5904
  849MPD2    N112533   4.683   3.185  14.127 -0.2479  0.5968 -0.2572
  849MPD2    H712534   0.025   3.132  14.100 -0.6240 -0.8136  1.3721
  850MPD2     C12535   3.833   1.353  14.581  0.2790  0.4172  0.1675
  850MPD2    C112536   3.825   1.302  14.708 -0.1247  0.0284 -0.0260
  850MPD2    C212537   3.938   1.319  14.789 -0.6031  0.0557 -0.1994
  850MPD2    C312538   4.042   1.399  14.750 -0.1095  0.9385  0.3011
  850MPD2    C412539   4.042   1.458  14.624  0.2895 -0.1308 -0.0979
  850MPD2    C512540   3.937   1.437  14.541 -0.2808  0.5563  0.3743
  850MPD2     H12541   3.938   1.287  14.893 -0.3098  0.5317 -0.0559
  850MPD2    H112542   4.120   1.528  14.594  1.1879 -0.9756  0.2629
  850MPD2    H212543   3.755   1.335  14.508  1.4511  0.5026 -1.1116
  850MPD2    H312544   3.936   1.473  14.439  2.5010  1.2708  0.6029
  850MPD2     N12545   4.149   1.431  14.835 -0.3906  0.4352 -0.5926
  850MPD2    H512546   4.210   1.508  14.807 -1.0389  0.6627 -1.3741
  850MPD2    N112547   3.704   1.238  14.752  0.0808 -0.0414 -0.5734
  850MPD2    H712548   3.625   1.237  14.688 -1.3758  0.1689  1.2125
  851MPD2     C12549   3.665   0.752  15.394 -0.0457  0.6146  0.4679
  851MPD2    C112550   3.581   0.744  15.286  0.1505 -0.5483  0.2165
  851MPD2    C212551   3.506   0.627  15.273  0.7152 -0.6581  0.0691
  851MPD2    C312552   3.523   0.526  15.368  0.7206  0.2897  0.1344
  851MPD2    C412553   3.613   0.541  15.465 -0.3745 -0.2890  0.4556
  851MPD2    C512554   3.686   0.656  15.479  0.2673  0.7715  0.0808
  851MPD2     H12555   3.424   0.610  15.204  0.1070 -2.9077  1.3438
  851MPD2    H112556   3.630   0.462  15.538 -1.8301 -1.0165  0.0054
  851MPD2    H212557   3.725   0.841  15.412 -3.2747  2.7807  0.4045
  851MPD2    H312558   3.748   0.657  15.568  1.9663 -2.4921 -1.1005
  851MPD2     N12559   3.428   0.423  15.355  0.1548  0.0618  0.1859
  851MPD2    H512560   3.378   0.430  15.267  0.8835  0.1852 -0.2242
  851MPD2    N112561   3.549   0.860  15.216 -0.1275  0.7533  0.0892
  851MPD2    H712562   3.615   0.936  15.231  0.7929 -0.3631  1.6996
  852MPD2     C12563   1.810   0.291  10.302  0.1532  0.3546  0.0743
  852MPD2    C112564   1.935   0.264  10.353  0.7704 -0.4518 -0.0707
  852MPD2    C212565   2.046   0.336  10.315 -0.1706 -0.2415 -0.4526
  852MPD2    C312566   2.026   0.440  10.225 -0.2817  0.1424 -0.1702
  852MPD2    C412567   1.899   0.478  10.185  0.2404  0.1836 -0.5846
  852MPD2    C512568   1.793   0.399  10.223 -0.0293  0.2387  0.7846
  852MPD2     H12569   2.146   0.317  10.351  0.3078  1.5027 -0.8667
  852MPD2    H112570   1.877   0.567  10.127  0.5842 -0.1358 -1.2070
  852MPD2    H212571   1.722   0.239  10.338  0.2411 -0.4816 -0.9221
  852MPD2    H312572   1.703   0.425  10.169 -0.3132  1.5788  1.9335
  852MPD2     N12573   2.143   0.497  10.181  0.3300 -0.9622 -0.2847
  852MPD2    H512574   2.228   0.449  10.208  0.1938 -0.5619  0.8578
  852MPD2    N112575   1.955   0.165  10.450  0.0718 -0.0478 -0.0141
  852MPD2    H712576   2.049   0.131  10.470  0.6225  1.5509  0.0994
  853MPD2     C12577   4.029   3.474  12.573 -0.4941  0.0084 -0.1191
  853MPD2    C112578   4.016   3.610  12.544  0.5601  0.3791 -0.5040
  853MPD2    C212579   3.977   3.658  12.428 -0.3016  0.6003  0.5125
  853MPD2    C312580   3.936   3.570  12.333 -0.4098  0.3238 -0.9907
  853MPD2    C412581   3.934   3.434  12.357 -0.3988 -0.6443 -0.8536
  853MPD2    C512582   3.987   3.391  12.474  0.1266 -0.7237  0.0376
  853MPD2     H12583   3.979   3.763  12.401  0.6344  1.0874  2.4745
  853MPD2    H112584   3.897   3.366  12.281  1.7082 -0.3517 -2.1337
  853MPD2    H212585   4.079   3.443  12.664 -0.0585  1.3640  0.1120
  853MPD2    H312586   4.001   3.284  12.488 -1.0803 -0.7672  0.9006
  853MPD2     N12587   3.911   3.613  12.198 -0.4124  0.0380  0.3338
  853MPD2    H512588   3.911   3.540  12.127 -0.3606  0.2988  0.0631
  853MPD2    N112589   4.077   3.688  12.646  0.2545 -0.8905 -0.4867
  853MPD2    H712590   4.131   3.635  12.714  2.2206 -0.5597 -1.7837
  854MPD2     C12591   1.313   3.735  13.138 -0.5730 -0.0902  1.2792
  854MPD2    C112592   1.380   3.855  13.149  0.4076 -0.1337 -0.2325
  854MPD2    C212593   1.508   3.852  13.206  0.5199  0.0002  0.4184
  854MPD2    C312594   1.564   3.724  13.250  1.0086 -0.2070 -0.2890
  854MPD2    C412595   1.493   3.609  13.228 -0.1113 -0.4060 -0.3156
  854MPD2    C512596   1.369   3.617  13.174  0.3369 -0.4315 -0.4401
  854MPD2     H12597   1.568   3.941  13.223  0.7353  0.1054 -0.8731
  854MPD2    H112598   1.526   3.515  13.269  2.5897 -0.4354 -2.6064
  854MPD2    H212599   1.220   3.735  13.081  0.3501 -2.7186 -0.2155
  854MPD2    H312600   1.312   3.525  13.171 -0.3438 -0.0575  1.0765
  854MPD2     N12601   1.693   3.711  13.297 -0.4499 -0.3250 -0.0354
  854MPD2    H512602   1.720   3.616  13.322  2.1225  0.1606 -0.9404
  854MPD2    N112603   1.329   3.976  13.095 -0.6310 -0.2075 -0.3326
  854MPD2    H712604   1.230   3.992  13.079  0.0170  1.1582 -3.0212
  855MPD2     C12605   2.494   3.559  13.919  0.3320  0.2587 -0.2849
  855MPD2    C112606   2.359   3.522  13.896 -0.2179  0.5633 -0.0305
  855MPD2    C212607   2.285   3.598  13.811  0.5165 -0.3174 -0.3472
  855MPD2    C312608   2.340   3.701  13.747 -0.0784  0.4800 -0.8814
  855MPD2    C412609   2.467   3.740  13.781  0.1413  0.0679 -0.3390
  855MPD2    C512610   2.545   3.670  13.864 -0.1108  0.3694  0.2361
  855MPD2     H12611   2.183   3.579  13.779 -0.1364  1.4658  0.6982
  855MPD2    H112612   2.508   3.833  13.745  2.1147 -0.9903 -0.8193
  855MPD2    H212613   2.559   3.504  13.986 -1.3196 -0.5499  0.6518
  855MPD2    H312614   2.643   3.701  13.897  0.0865 -1.2976  1.2432
  855MPD2     N12615   2.279   3.770  13.636 -0.0869 -0.0482 -0.2185
  855MPD2    H512616   2.337   3.823  13.572  0.5308 -0.2013  0.2172
  855MPD2    N112617   2.306   3.400  13.952  0.0155  0.3864  0.0242
  855MPD2    H712618   2.371   3.333  13.992  0.1803  0.8078  0.4509
  856MPD2     C12619   3.690   4.640  14.384  0.5174  0.5479 -0.1707
  856MPD2    C112620   3.787   4.738  14.387 -0.1187  0.1210 -1.0419
  856MPD2    C212621   3.785   0.096  14.293 -0.0367 -0.2305  0.4049
  856MPD2    C312622   3.689   0.105  14.190 -0.2889  0.1312 -0.5724
  856MPD2    C412623   3.585   0.021  14.199  0.2139 -0.3356  0.0904
  856MPD2    C512624   3.584   4.663  14.298  0.1196 -0.4327 -0.1680
  856MPD2     H12625   3.865   0.168  14.298  0.2055 -0.5517  1.1030
  856MPD2    H112626   3.511   0.036  14.122 -2.4142 -0.6135  2.5913
  856MPD2    H212627   3.690   4.557  14.454  0.5339  0.3667 -0.3837
  856MPD2    H312628   3.502   4.592  14.302  0.6401 -1.0210  0.0687
  856MPD2     N12629   3.699   0.191  14.078 -0.1852 -0.5957 -0.1792
  856MPD2    H512630   3.635   0.173  14.001 -1.0475  1.0593  0.1608
  856MPD2    N112631   3.908   4.723  14.457 -0.3959 -0.2343  0.1753
  856MPD2    H712632   3.962   0.067  14.461  0.5108 -0.8693  1.8385
  857MPD2     C12633   0.468   2.521  12.343 -0.1346 -1.2350 -0.0060
  857MPD2    C112634   0.556   2.475  12.434  0.3188  0.3342 -1.0165
  857MPD2    C212635   0.652   2.555  12.501  0.1462 -0.3560  0.0014
  857MPD2    C312636   0.644   2.692  12.478 -0.6320 -0.3722 -0.4537
  857MPD2    C412637   0.548   2.741  12.392 -0.5533 -0.2739 -0.6694
  857MPD2    C512638   0.460   2.660  12.331 -1.0551  0.1410 -0.2548
  857MPD2     H12639   0.728   2.518  12.568  2.2870  0.8140 -1.7995
  857MPD2    H112640   0.540   2.848  12.376 -0.3032 -0.1518  0.0041
  857MPD2    H212641   0.389   2.463  12.295  0.0709 -1.5415  0.0242
  857MPD2    H312642   0.389   2.702  12.260 -0.9425 -0.6644 -0.8479
  857MPD2     N12643   0.750   2.768  12.536 -0.0994 -0.0745 -0.0412
  857MPD2    H512644   0.797   2.726  12.615 -0.2241 -0.0168  0.0650
  857MPD2    N112645   0.545   2.337  12.458 -0.1549 -0.2499 -0.0975
  857MPD2    H712646   0.459   2.291  12.431 -0.4343 -0.0064  0.3677
  858MPD2     C12647   1.819   0.994  16.582  0.2514 -0.1802 -0.7644
  858MPD2    C112648   1.699   0.925  16.589 -0.1782  0.3792  0.1182
  858MPD2    C212649   1.647   0.904  16.716 -0.1339 -0.1933  0.1496
  858MPD2    C312650   1.710   0.951  16.830 -0.3290  0.0408  0.4859
  858MPD2    C412651   1.822   1.035  16.821 -0.8289 -0.5260  0.2518
  858MPD2    C512652   1.876   1.051  16.696  0.1258  0.0128 -0.4033
  858MPD2     H12653   1.547   0.865  16.727 -0.2121 -0.1098 -0.2670
  858MPD2    H112654   1.877   1.061  16.911  0.0840 -0.7874 -0.2303
  858MPD2    H212655   1.867   1.007  16.486  0.4326 -0.5417 -0.7232
  858MPD2    H312656   1.970   1.103  16.684  0.8981 -0.6492  2.6370
  858MPD2     N12657   1.658   0.929  16.956  0.3034  0.3442  0.1137
  858MPD2    H512658   1.687   0.989  17.034 -1.6542 -0.8074  1.7110
  858MPD2    N112659   1.654   0.858  16.474 -0.0761 -0.1752 -0.1514
  858MPD2    H712660   1.700   0.892  16.390  0.7819 -1.0024 -0.0107
  859MPD2     C12661   4.682   3.057  14.875 -0.4496 -0.5704  0.0513
  859MPD2    C112662   0.061   3.034  14.937 -0.5551  0.1023 -0.1566
  859MPD2    C212663   0.120   2.905  14.939 -0.2345  0.3193  0.2015
  859MPD2    C312664   0.044   2.794  14.897 -0.0799  0.4699 -0.3318
  859MPD2    C412665   4.662   2.818  14.841 -0.7997  0.3404 -0.3114
  859MPD2    C512666   4.616   2.947  14.829  0.8328 -0.4976  0.0680
  859MPD2     H12667   0.219   2.893  14.983 -0.9507 -1.9429  1.1777
  859MPD2    H112668   4.604   2.737  14.799  0.4524  0.0095 -1.3929
  859MPD2    H212669   4.630   3.151  14.865 -0.4183 -0.6109 -0.4906
  859MPD2    H312670   4.521   2.957  14.778  1.1027 -0.4322 -0.4251
  859MPD2     N12671   0.090   2.660  14.908 -0.2433 -0.2413  0.0699
  859MPD2    H512672   0.034   2.583  14.873 -0.3926 -0.1318  0.0674
  859MPD2    N112673   0.131   3.153  14.992  0.1603 -0.5764  0.2805
  859MPD2    H712674   0.082   3.241  14.979  0.0014 -0.5840  0.8211
  860MPD2     C12675   2.340   3.496  11.863  0.0420 -0.0999  0.3094
  860MPD2    C112676   2.328   3.585  11.972  0.1248  0.4872 -0.0558
  860MPD2    C212677   2.276   3.533  12.091 -0.3269  0.5710  0.1557
  860MPD2    C312678   2.237   3.404  12.106 -0.3306 -0.7295 -0.2306
  860MPD2    C412679   2.252   3.319  11.995 -0.2478  0.6763 -0.6177
  860MPD2    C512680   2.296   3.364  11.872 -0.0266 -0.4074 -0.1903
  860MPD2     H12681   2.259   3.592  12.180  0.2032 -0.3963  0.8886
  860MPD2    H112682   2.234   3.213  11.998  0.6939  0.4885 -1.6282
  860MPD2    H212683   2.370   3.531  11.765 -0.1434  0.0934  0.3230
  860MPD2    H312684   2.314   3.300  11.786  1.8312  0.1992 -0.2484
  860MPD2     N12685   2.181   3.373  12.228 -0.2423  0.6662 -0.0014
  860MPD2    H512686   2.176   3.449  12.295 -2.2701 -0.5848  1.2598
  860MPD2    N112687   2.373   3.719  11.962 -0.3068 -0.5562  0.5622
  860MPD2    H712688   2.369   3.762  12.054 -0.4223 -0.1330  0.3600
  861MPD2     C12689   1.400   2.086  11.557  0.0327  0.4743 -0.2332
  861MPD2    C112690   1.385   2.220  11.572  0.3032  0.6577 -0.5039
  861MPD2    C212691   1.320   2.294  11.488  0.4249  0.1027 -0.4240
  861MPD2    C312692   1.262   2.235  11.375 -0.4037 -0.1578  0.3990
  861MPD2    C412693   1.260   2.098  11.361 -0.1888 -0.3202 -0.0448
  861MPD2    C512694   1.329   2.030  11.453  0.6265  0.1861  0.1231
  861MPD2     H12695   1.316   2.401  11.504 -1.8816  0.0591 -0.7857
  861MPD2    H112696   1.233   2.050  11.267  2.4640 -2.6485  0.3967
  861MPD2    H212697   1.459   2.015  11.615  0.4600  0.3082 -0.8751
  861MPD2    H312698   1.341   1.923  11.447 -0.5534  0.1650 -2.0382
  861MPD2     N12699   1.201   2.315  11.281  0.4223  0.1684 -0.3103
  861MPD2    H512700   1.133   2.268  11.222  0.2463 -1.4287  1.1452
  861MPD2    N112701   1.432   2.279  11.697  0.3881 -0.5726  0.4127
  861MPD2    H712702   1.394   2.371  11.714 -1.6011 -1.8245  2.7341
  862MPD2     C12703   0.576   2.211  11.057 -0.6994  0.7372  0.5059
  862MPD2    C112704   0.677   2.224  11.149  0.0827  0.8349  0.1924
  862MPD2    C212705   0.658   2.149  11.264  0.1884  0.2349 -0.1468
  862MPD2    C312706   0.539   2.083  11.301  0.7368 -0.1794 -0.6422
  862MPD2    C412707   0.436   2.078  11.207 -0.9867 -0.9802  0.0345
  862MPD2    C512708   0.458   2.141  11.086  0.1486  0.6497  0.8527
  862MPD2     H12709   0.737   2.150  11.339 -0.1669  0.8277  0.2244
  862MPD2    H112710   0.350   2.012  11.221 -0.8735 -1.5270 -1.8517
  862MPD2    H212711   0.584   2.246  10.955 -1.2090 -0.8473 -0.0812
  862MPD2    H312712   0.380   2.137  11.011  0.8958 -0.1496  0.1206
  862MPD2     N12713   0.543   2.007  11.422  0.2932  0.2466  0.0947
  862MPD2    H512714   0.626   2.020  11.480  1.0893 -0.6263 -0.8603
  862MPD2    N112715   0.793   2.306  11.127  0.2775 -0.2292 -0.6777
  862MPD2    H712716   0.876   2.297  11.186 -0.1428  1.2064  0.1464
  863MPD2     C12717   4.648   4.680  16.519  0.1575 -0.1247 -0.4398
  863MPD2    C112718   4.558   4.647  16.627  0.4224  0.0342  0.4243
  863MPD2    C212719   4.601   4.556  16.725 -0.1708  0.4839 -0.0577
  863MPD2    C312720   4.726   4.489  16.715  0.5718 -0.2881 -0.7539
  863MPD2    C412721   0.067   4.529  16.611 -0.0239  0.0120 -0.2025
  863MPD2    C512722   0.024   4.617  16.511 -0.9096 -0.1641  0.1814
  863MPD2     H12723   4.543   4.537  16.814 -0.5853 -1.0221 -0.6400
  863MPD2    H112724   0.164   4.483  16.604 -0.6439 -1.5316  1.2887
  863MPD2    H212725   4.619   0.008  16.441  2.3563  0.5552 -0.6710
  863MPD2    H312726   0.093   4.643  16.431  0.0885 -1.7520  0.5182
  863MPD2     N12727   0.044   4.401  16.811  0.0649  0.2261  0.1818
  863MPD2    H512728   0.140   4.370  16.807 -0.0165  0.2137 -1.4925
  863MPD2    N112729   4.424   4.698  16.615  0.1278  0.1110  0.0280
  863MPD2    H712730   4.402   0.013  16.533  0.3786  2.6460  1.7351
  864MPD2     C12731   0.158   0.868  17.213 -0.8473 -0.6583  0.7739
  864MPD2    C112732   0.241   0.786  17.146 -0.1256 -0.3939  0.1358
  864MPD2    C212733   0.360   0.837  17.083 -0.0693 -0.4784 -0.4149
  864MPD2    C312734   0.387   0.974  17.085 -0.9321 -0.2726  0.1946
  864MPD2    C412735   0.299   1.056  17.154  0.3331 -0.2418 -1.2737
  864MPD2    C512736   0.184   1.007  17.217 -0.0439 -0.3289  0.2014
  864MPD2     H12737   0.430   0.768  17.039  0.0990 -0.3013 -0.4277
  864MPD2    H112738   0.311   1.163  17.145 -0.6246  0.1939  2.5024
  864MPD2    H212739   0.068   0.828  17.257 -1.5306  1.3646  1.2429
  864MPD2    H312740   0.120   1.076  17.271  0.9068  2.4774 -2.2726
  864MPD2     N12741   0.501   1.040  17.025 -0.5109  0.1650 -0.7684
  864MPD2    H512742   0.496   1.141  17.034 -0.6499 -0.0646  1.8152
  864MPD2    N112743   0.204   0.653  17.127 -0.5195  0.6556 -0.1406
  864MPD2    H712744   0.125   0.608  17.173  1.3779 -1.7744  0.7146
  865MPD2     C12745   0.536   1.275  16.158  0.7452  0.2200 -0.6741
  865MPD2    C112746   0.549   1.186  16.263  0.4992  0.8832  0.3423
  865MPD2    C212747   0.529   1.229  16.392  0.6981  0.3195  0.5003
  865MPD2    C312748   0.501   1.364  16.417  0.0269 -0.3993  0.6370
  865MPD2    C412749   0.480   1.447  16.307 -0.8288  0.3460  0.2487
  865MPD2    C512750   0.493   1.404  16.184 -0.2165 -0.2133 -0.8055
  865MPD2     H12751   0.542   1.163  16.477 -1.6289 -0.5192  0.2032
  865MPD2    H112752   0.441   1.546  16.330 -2.4491 -0.0750 -0.7189
  865MPD2    H212753   0.551   1.244  16.056 -0.5059 -2.5984 -0.0135
  865MPD2    H312754   0.477   1.466  16.097 -2.3908  0.5223  0.1191
  865MPD2     N12755   0.496   1.428  16.547  0.1888 -0.8280  0.2696
  865MPD2    H512756   0.448   1.518  16.547  0.3805 -0.7273 -0.4325
  865MPD2    N112757   0.582   1.051  16.224 -0.1115 -0.1234 -1.1684
  865MPD2    H712758   0.605   1.041  16.126 -0.6736  0.4012 -1.3542
  866MPD2     C12759   2.044   2.780  11.083  0.4240 -0.4228  0.0579
  866MPD2    C112760   2.000   2.665  11.133 -0.6468  0.8324 -0.1834
  866MPD2    C212761   1.886   2.663  11.218  0.0212 -0.8789  0.4631
  866MPD2    C312762   1.832   2.784  11.260 -0.2625  0.3755  0.3509
  866MPD2    C412763   1.881   2.903  11.217 -0.1651 -0.2468  0.3366
  866MPD2    C512764   1.992   2.899  11.131 -0.4388  0.4512  0.6409
  866MPD2     H12765   1.842   2.566  11.241 -0.9453 -0.9413 -1.6063
  866MPD2    H112766   1.843   2.999  11.250 -1.3006  0.1881 -2.2816
  866MPD2    H212767   2.142   2.790  11.038  0.4161  3.0432  0.8214
  866MPD2    H312768   2.036   2.994  11.102 -1.6628  1.0159  0.6041
  866MPD2     N12769   1.710   2.799  11.335  0.4580  0.3433  0.0304
  866MPD2    H512770   1.660   2.885  11.356  1.5449  1.1623 -0.7258
  866MPD2    N112771   2.083   2.551  11.111  0.2617 -0.6148 -0.0453
  866MPD2    H712772   2.168   2.561  11.056 -1.0780 -1.1838 -2.1851
  867MPD2     C12773   3.889   1.107  16.488 -0.1758  0.1008  0.4417
  867MPD2    C112774   3.894   0.997  16.567  0.1846  0.7388 -0.6243
  867MPD2    C212775   3.912   1.014  16.703 -0.3386  0.1762  0.4288
  867MPD2    C312776   3.925   1.137  16.764 -0.1238 -0.1912 -0.6264
  867MPD2    C412777   3.921   1.243  16.681 -1.0104 -0.7095  0.2000
  867MPD2    C512778   3.898   1.232  16.547  0.7894 -0.2740  0.3955
  867MPD2     H12779   3.933   0.927  16.764  0.5880  1.3764  1.8119
  867MPD2    H112780   3.933   1.346  16.710 -1.4232 -0.5259 -0.2840
  867MPD2    H212781   3.869   1.105  16.382  2.0767  0.3380  0.0004
  867MPD2    H312782   3.899   1.322  16.487  0.8143 -0.3595  0.2680
  867MPD2     N12783   3.967   1.153  16.896 -0.1959  0.0859 -0.0110
  867MPD2    H512784   3.985   1.247  16.930  0.1512  0.0675 -0.1440
  867MPD2    N112785   3.887   0.875  16.500  0.1945  0.5157  0.4600
  867MPD2    H712786   3.883   0.878  16.398 -0.1893 -0.6869  0.4335
  868MPD2     C12787   1.254   4.200  13.614 -0.5015 -0.9507 -0.2500
  868MPD2    C112788   1.263   4.305  13.522  0.5687  0.4220  0.4185
  868MPD2    C212789   1.157   4.397  13.523  0.5610 -0.0807  0.2170
  868MPD2    C312790   1.052   4.384  13.614  0.1832  0.3671  0.2142
  868MPD2    C412791   1.043   4.271  13.696  0.6404 -0.4409 -0.1296
  868MPD2    C512792   1.145   4.184  13.697 -0.4537 -0.1460 -0.1947
  868MPD2     H12793   1.144   4.477  13.451  2.0951 -0.2081 -0.2010
  868MPD2    H112794   0.957   4.254  13.760  0.9451 -1.2131  0.0728
  868MPD2    H212795   1.335   4.129  13.615  0.3947  0.0903  1.5978
  868MPD2    H312796   1.143   4.092  13.756  0.1409 -0.1415 -0.1716
  868MPD2     N12797   0.963   4.486  13.614 -0.3521  0.0866  0.8215
  868MPD2    H512798   0.986   4.573  13.567  0.3508  0.1407  1.2640
  868MPD2    N112799   1.378   4.311  13.432 -0.2609  0.2710 -0.0500
  868MPD2    H712800   1.452   4.247  13.460 -1.1621 -0.0434  1.6471
  869MPD2     C12801   1.537   2.735   0.535  0.2871 -0.1860  0.1347
  869MPD2    C112802   1.649   2.688   0.469 -0.3790 -0.2222  0.6114
  869MPD2    C212803   1.741   2.788   0.423 -0.3965  0.4525 -0.4249
  869MPD2    C312804   1.736   2.919   0.474  0.3071  0.4093  0.7292
  869MPD2    C412805   1.632   2.954   0.558  0.0333 -0.3086 -0.4190
  869MPD2    C512806   1.538   2.863   0.586 -0.2518  0.2933  0.3939
  869MPD2     H12807   1.830   2.750   0.373  0.7141  2.1506  0.2719
  869MPD2    H112808   1.617   3.055   0.595  0.8285  1.2361 -4.2162
  869MPD2    H212809   1.459   2.665   0.563 -0.7086  0.5304 -0.8381
  869MPD2    H312810   1.443   2.902   0.622 -1.0108 -0.2875 -0.9794
  869MPD2     N12811   1.839   3.018   0.452 -0.4369 -0.4006  0.1331
  869MPD2    H512812   1.825   3.108   0.495 -1.2713 -0.9836  1.0879
  869MPD2    N112813   1.650   2.549   0.432  0.9059  0.1699 -0.3171
  869MPD2    H712814   1.567   2.497   0.461 -1.7476  3.0549 -2.6516
  870MPD2     C12815   1.088   2.323   1.383 -0.1152 -0.0486  0.1135
  870MPD2    C112816   1.188   2.247   1.329 -0.0389 -0.9983  0.6898
  870MPD2    C212817   1.149   2.146   1.233 -0.2100 -0.2616  0.8356
  870MPD2    C312818   1.016   2.150   1.182  0.3137 -0.3050 -0.4042
  870MPD2    C412819   0.919   2.221   1.246 -0.7261 -0.9309  0.5793
  870MPD2    C512820   0.956   2.300   1.355 -0.4428 -0.4027 -0.5929
  870MPD2     H12821   1.228   2.117   1.166 -0.6285 -0.3240  0.3668
  870MPD2    H112822   0.813   2.221   1.222 -0.2923  0.7279 -1.3585
  870MPD2    H212823   1.111   2.387   1.467  1.0720 -2.1686  1.4040
  870MPD2    H312824   0.878   2.332   1.423 -1.0556  0.4976 -1.7328
  870MPD2     N12825   0.983   2.062   1.075  0.1126 -0.0639  0.2320
  870MPD2    H512826   1.065   2.005   1.056  0.1433  0.1667 -0.3112
  870MPD2    N112827   1.319   2.268   1.380  0.4029  0.2429 -0.1228
  870MPD2    H712828   1.340   2.344   1.444  2.3749 -0.2958 -0.1350
  871MPD2     C12829   3.307   1.135  16.826 -0.2815  0.4707  0.2675
  871MPD2    C112830   3.279   1.142  16.957  0.2204 -0.5676  0.2950
  871MPD2    C212831   3.302   1.028  17.030 -0.7242  0.1444  0.1250
  871MPD2    C312832   3.360   0.913  16.986  0.3290 -0.5958  0.1425
  871MPD2    C412833   3.394   0.922  16.850  0.2708  0.0829  0.2601
  871MPD2    C512834   3.360   1.028  16.765  0.2967  0.1436  0.3705
  871MPD2     H12835   3.268   1.014  17.132 -1.8779  3.4185  0.1869
  871MPD2    H112836   3.440   0.836  16.802  1.5427 -0.0301  1.6996
  871MPD2    H212837   3.287   1.222  16.764  1.4768  0.2254 -0.6459
  871MPD2    H312838   3.387   1.020  16.661  0.5949 -1.1239  0.5330
  871MPD2     N12839   3.380   0.795  17.067 -0.4488 -0.8752 -0.1120
  871MPD2    H512840   3.349   0.798  17.164  0.0506 -0.6234  0.0396
  871MPD2    N112841   3.232   1.268  17.003  0.3817  0.7033 -0.5296
  871MPD2    H712842   3.232   1.347  16.938  0.5585 -0.5728 -2.0919
  872MPD2     C12843   4.012   3.720  14.420 -0.3950 -0.4983 -0.5148
  872MPD2    C112844   3.941   3.817  14.350  0.1976  0.2361  0.4247
  872MPD2    C212845   3.845   3.892  14.420 -0.0537 -0.1592 -0.4241
  872MPD2    C312846   3.797   3.852  14.539 -0.9117  0.4323  0.5551
  872MPD2    C412847   3.867   3.756  14.612 -0.2315  0.0342  0.1363
  872MPD2    C512848   3.971   3.683  14.547  0.7817 -0.1298 -0.6022
  872MPD2     H12849   3.796   3.974  14.369 -0.0333 -1.3694 -2.4320
  872MPD2    H112850   3.835   3.725  14.710  2.5056 -3.3085 -0.0109
  872MPD2    H212851   4.087   3.660  14.371 -0.3888 -1.6963  0.9927
  872MPD2    H312852   4.021   3.608  14.607  1.6451  1.1831  0.2933
  872MPD2     N12853   3.672   3.884  14.594 -0.0014 -0.1281  0.2525
  872MPD2    H512854   3.651   3.837  14.681 -1.0267  1.0249  0.6282
  872MPD2    N112855   3.979   3.853  14.217 -0.5198 -0.5959 -0.5249
  872MPD2    H712856   3.945   3.941  14.180  0.9424  0.2182  0.0544
  873MPD2     C12857   0.973   3.343   0.805  0.5223 -0.0529  0.1682
  873MPD2    C112858   0.846   3.331   0.857  0.6207  0.0097 -0.4817
  873MPD2    C212859   0.777   3.207   0.860 -0.0584 -0.7591 -0.2716
  873MPD2    C312860   0.833   3.096   0.802  0.2484  0.0072  0.7797
  873MPD2    C412861   0.958   3.106   0.742 -0.1334 -0.3125 -0.4058
  873MPD2    C512862   1.029   3.225   0.753 -0.1975 -0.5052  0.8108
  873MPD2     H12863   0.681   3.209   0.911  0.5027 -1.2946  0.8083
  873MPD2    H112864   1.011   3.019   0.703 -0.6226 -1.0179  0.5127
  873MPD2    H212865   1.019   3.440   0.819 -1.8586  0.8349  1.7806
  873MPD2    H312866   1.126   3.241   0.707 -0.2470 -0.0815  0.8494
  873MPD2     N12867   0.776   2.965   0.810  0.0294 -0.5754 -0.0899
  873MPD2    H512868   0.810   2.887   0.754  3.1594 -0.6069  1.9066
  873MPD2    N112869   0.798   3.460   0.909  0.5191  0.1732  0.2872
  873MPD2    H712870   0.863   3.536   0.926  1.8064 -0.3126 -2.3739
  874MPD2     C12871   0.562   3.708  16.000 -0.2012 -0.8798  0.4524
  874MPD2    C112872   0.611   3.697  16.123 -0.4966  0.2471  0.0814
  874MPD2    C212873   0.724   3.765  16.158  0.0648  0.2352  0.0064
  874MPD2    C312874   0.800   3.834  16.068  0.1397 -0.0216 -0.5527
  874MPD2    C412875   0.753   3.845  15.942 -0.6925 -0.3448 -0.4689
  874MPD2    C512876   0.641   3.772  15.909 -0.2603 -1.1132 -0.0109
  874MPD2     H12877   0.755   3.765  16.262  0.6503 -0.5032 -0.1710
  874MPD2    H112878   0.805   3.908  15.871  0.8238 -2.0951 -0.9008
  874MPD2    H212879   0.470   3.662  15.966 -0.5390  0.5199 -0.5231
  874MPD2    H312880   0.589   3.778  15.814  0.2893  1.9203 -0.1028
  874MPD2     N12881   0.920   3.893  16.120 -0.2161  0.2147 -0.0488
  874MPD2    H512882   0.934   3.887  16.221  0.6118 -0.3577 -0.2008
  874MPD2    N112883   0.531   3.615  16.208 -0.5312  0.9012 -0.0484
  874MPD2    H712884   0.447   3.583  16.161  0.4934 -1.9213  0.0645
  875MPD2     C12885   1.742   1.691  14.450 -0.2018  0.3157 -0.3731
  875MPD2    C112886   1.620   1.753  14.434 -0.6163 -0.3994  0.0792
  875MPD2    C212887   1.545   1.806  14.541 -0.8556  0.0797 -0.0348
  875MPD2    C312888   1.606   1.808  14.662  0.0080  0.7543 -0.6350
  875MPD2    C412889   1.727   1.744  14.674 -0.0430 -0.0481 -0.3208
  875MPD2    C512890   1.799   1.695  14.574  0.2232  0.1530  0.0870
  875MPD2     H12891   1.445   1.844  14.522 -0.6935  0.6831  0.3402
  875MPD2    H112892   1.767   1.745  14.774 -0.3805  0.3082 -0.1884
  875MPD2    H212893   1.797   1.643  14.370  1.1924 -1.1577  1.4537
  875MPD2    H312894   1.898   1.653  14.589  0.3178  0.7321  1.1222
  875MPD2     N12895   1.560   1.883  14.777  0.1221  0.7417 -0.3154
  875MPD2    H512896   1.613   1.879  14.863 -0.9448 -0.5932  0.2774
  875MPD2    N112897   1.569   1.765  14.304 -0.3613  0.0027  0.1087
  875MPD2    H712898   1.471   1.791  14.292 -0.4849  0.1783  1.4574
  876MPD2     C12899   0.476   3.194  16.098  0.2454 -0.0979  0.5144
  876MPD2    C112900   0.570   3.154  16.010  0.2223 -0.2303 -0.6088
  876MPD2    C212901   0.616   3.019  16.024 -0.7792  0.5426  0.2792
  876MPD2    C312902   0.574   2.939  16.128  0.6652  0.4734 -0.4397
  876MPD2    C412903   0.480   2.990  16.220  0.2168 -0.1158  0.4092
  876MPD2    C512904   0.434   3.117  16.204 -0.2302  0.3149  0.6393
  876MPD2     H12905   0.703   2.982  15.970 -0.9653  1.3266 -0.5532
  876MPD2    H112906   0.453   2.930  16.306 -0.5596 -0.0402  0.2252
  876MPD2    H212907   0.436   3.294  16.090  1.4579  0.2586 -1.1529
  876MPD2    H312908   0.354   3.156  16.266 -0.2493  1.7125 -0.2724
  876MPD2     N12909   0.623   2.809  16.129 -0.0122 -0.4947  0.2565
  876MPD2    H512910   0.662   2.787  16.038  0.8217 -0.5171  0.6195
  876MPD2    N112911   0.607   3.246  15.907 -0.3514  0.1068  0.1861
  876MPD2    H712912   0.561   3.336  15.897  0.4607  0.4303 -0.6374
  877MPD2     C12913   0.473   3.765  15.367 -0.0871 -0.7383 -0.0416
  877MPD2    C112914   0.611   3.760  15.369  0.4200  1.1858 -0.1929
  877MPD2    C212915   0.681   3.828  15.276  0.1123 -0.7205 -0.0833
  877MPD2    C312916   0.617   3.890  15.170  0.3199 -0.0801 -0.5512
  877MPD2    C412917   0.478   3.894  15.167  0.1829 -0.0194  0.5539
  877MPD2    C512918   0.404   3.826  15.258  1.0093  0.9542 -0.0842
  877MPD2     H12919   0.788   3.825  15.290 -0.0712 -0.6356  1.3832
  877MPD2    H112920   0.426   3.954  15.093 -1.0941 -0.3748  1.1680
  877MPD2    H212921   0.421   3.706  15.442 -2.6969  2.0337  0.3072
  877MPD2    H312922   0.297   3.814  15.246  1.0935  0.0892  0.0223
  877MPD2     N12923   0.688   3.954  15.070  0.1364 -0.1401 -0.3454
  877MPD2    H512924   0.633   3.991  14.993  1.7999  0.3574 -1.2968
  877MPD2    N112925   0.682   3.675  15.454  0.0236 -0.0891  0.5921
  877MPD2    H712926   0.781   3.662  15.436 -0.6283 -3.1630 -0.7475
  878MPD2     C12927   0.207   3.389  13.139 -0.7219 -0.0324 -0.1750
  878MPD2    C112928   0.313   3.351  13.214 -0.5718 -0.0477 -0.5450
  878MPD2    C212929   0.289   3.305  13.345 -0.9193  0.6178  0.3690
  878MPD2    C312930   0.166   3.296  13.401  0.1075  0.1675 -0.4319
  878MPD2    C412931   0.061   3.334  13.314  0.3736  0.0443  0.4315
  878MPD2    C512932   0.077   3.381  13.189 -0.0433 -0.3006  0.1266
  878MPD2     H12933   0.376   3.274  13.403 -3.5881 -1.7666  3.0653
  878MPD2    H112934   4.699   3.329  13.348  0.3166 -1.9313 -0.0759
  878MPD2    H212935   0.217   3.424  13.037  0.1910 -0.1129 -0.1115
  878MPD2    H312936   4.731   3.402  13.130 -0.8996 -1.1740  1.0918
  878MPD2     N12937   0.140   3.251  13.534  0.4075 -0.9396 -0.0464
  878MPD2    H512938   0.219   3.238  13.597  0.1153  0.3455  0.5747
  878MPD2    N112939   0.439   3.361  13.158  0.1910  0.2478 -0.5001
  878MPD2    H712940   0.436   3.395  13.063  0.1688  0.3876 -0.4495
  879MPD2     C12941   0.799   3.686  17.444 -0.1001 -0.1392  0.0400
  879MPD2    C112942   0.791   3.762  17.331  0.6403 -0.2749 -0.4764
  879MPD2    C212943   0.705   3.726  17.233 -0.8176  0.0411 -0.0862
  879MPD2    C312944   0.636   3.605  17.238  0.6457 -0.0507 -0.2606
  879MPD2    C412945   0.661   3.521  17.348  0.3722 -0.5438 -0.7269
  879MPD2    C512946   0.749   3.561  17.446  0.2257 -0.3053  0.8223
  879MPD2     H12947   0.688   3.795  17.151  1.6582 -1.7964 -2.1406
  879MPD2    H112948   0.620   3.421  17.350  0.8780 -0.6768  2.1169
  879MPD2    H212949   0.867   3.721  17.521  1.5640  0.4343 -1.6523
  879MPD2    H312950   0.772   3.505  17.536  0.6780 -0.6784  0.4739
  879MPD2     N12951   0.539   3.573  17.142 -0.2938 -0.3444  0.2662
  879MPD2    H512952   0.493   3.487  17.169 -0.3429 -0.5748 -0.5498
  879MPD2    N112953   0.866   3.885  17.338  0.3116 -0.0401 -0.7901
  879MPD2    H712954   0.895   3.905  17.433 -1.1901 -0.4366 -0.2455
  880MPD2     C12955   2.123   1.212  17.728  0.2362  0.8311  0.0746
  880MPD2    C112956   2.031   1.216   0.066  0.5755  0.6478 -0.0702
  880MPD2    C212957   2.032   1.128   0.173  0.7978  0.2002  0.5136
  880MPD2    C312958   2.130   1.033   0.185  0.2441  0.5350  0.5044
  880MPD2    C412959   2.212   1.015   0.072 -0.7412  0.3249 -0.2729
  880MPD2    C512960   2.217   1.115  17.734  0.0251  0.0836  0.9747
  880MPD2     H12961   1.969   1.138   0.261  1.0764 -1.2334  0.8807
  880MPD2    H112962   2.295   0.945   0.072  0.9676  2.3666  4.4433
  880MPD2    H212963   2.128   1.271  17.637 -0.9008  0.5446 -0.1671
  880MPD2    H312964   2.292   1.117  17.657 -0.7042 -0.2244  0.2515
  880MPD2     N12965   2.155   0.963   0.306 -0.1087  0.1518 -1.4829
  880MPD2    H512966   2.089   0.974   0.383  1.4035  0.3572 -0.2058
  880MPD2    N112967   1.954   1.338   0.066  0.4543 -0.1202  0.1215
  880MPD2    H712968   1.971   1.399  17.750 -2.6995 -0.7811 -1.0602
  881MPD2     C12969   1.719   2.063  17.272 -0.2701  0.1625  0.0689
  881MPD2    C112970   1.734   1.927  17.247 -1.0959  0.0509 -0.2768
  881MPD2    C212971   1.704   1.840  17.350 -0.1600  0.3326 -0.3642
  881MPD2    C312972   1.642   1.885  17.465 -0.2714 -0.1317  0.0673
  881MPD2    C412973   1.604   2.017  17.477 -0.4490  0.1728  0.2639
  881MPD2    C512974   1.648   2.111  17.379 -0.6110  0.1301  0.1555
  881MPD2     H12975   1.722   1.734  17.343  1.6978  0.7226 -1.6644
  881MPD2    H112976   1.563   2.058  17.569 -1.5034  2.2909 -1.1269
  881MPD2    H212977   1.734   2.138  17.195 -0.1155  1.1227  1.0339
  881MPD2    H312978   1.613   2.214  17.378 -2.7848 -0.6131 -1.2302
  881MPD2     N12979   1.633   1.806  17.584  0.2716  0.4863 -0.6633
  881MPD2    H512980   1.580   1.842  17.664  0.2695 -0.7702 -0.1052
  881MPD2    N112981   1.805   1.880  17.128  0.4278 -0.4620 -0.4956
  881MPD2    H712982   1.843   1.944  17.059  3.9687 -0.2538  1.6732
  882MPD2     C12983   0.628   3.608  14.486 -0.2947  0.2812 -0.5255
  882MPD2    C112984   0.579   3.723  14.547  0.7388  0.6838 -0.0147
  882MPD2    C212985   0.446   3.725  14.580  0.1748  0.3089  0.2474
  882MPD2    C312986   0.364   3.622  14.548 -0.0713 -0.3234 -0.1530
  882MPD2    C412987   0.414   3.510  14.490  0.2444 -0.1060 -0.4973
  882MPD2    C512988   0.545   3.503  14.456 -0.3146  0.9341  0.1405
  882MPD2     H12989   0.410   3.807  14.642 -0.1521  0.1007  0.3342
  882MPD2    H112990   0.346   3.436  14.448  0.2070 -0.6642  0.5263
  882MPD2    H212991   0.731   3.609  14.452 -0.2930  1.0483 -0.4865
  882MPD2    H312992   0.586   3.418  14.403 -1.1715 -0.5799  1.9218
  882MPD2     N12993   0.226   3.619  14.583 -0.1641  0.2096  0.5494
  882MPD2    H512994   0.181   3.532  14.608 -1.7898  0.8664 -0.0504
  882MPD2    N112995   0.674   3.821  14.592  0.2339  0.0171 -0.1827
  882MPD2    H712996   0.771   3.800  14.571  0.9579  2.0218  1.1332
  883MPD2     C12997   2.761   3.315  16.899 -0.5545  0.4314 -0.4837
  883MPD2    C112998   2.832   3.400  16.813  0.3186  0.1026  0.4655
  883MPD2    C212999   2.965   3.428  16.848  0.3195  0.8089 -1.2536
  883MPD2    C313000   3.022   3.369  16.961 -0.0162  0.4724 -0.1555
  883MPD2    C413001   2.944   3.288  17.049 -0.3315  0.2309 -0.4527
  883MPD2    C513002   2.811   3.264  17.015 -0.3143 -0.0622 -0.1710
  883MPD2     H13003   3.025   3.494  16.786  0.0780  2.3723  0.2026
  883MPD2    H113004   2.992   3.245  17.137 -1.0602  2.0861  0.8514
  883MPD2    H213005   2.658   3.288  16.880 -0.8262  1.2898 -0.2339
  883MPD2    H313006   2.750   3.203  17.082  2.6009 -0.6293  1.9630
  883MPD2     N13007   3.161   3.386  16.969  0.1247 -0.3450 -0.2911
  883MPD2    H513008   3.211   3.441  16.900  1.0378 -1.2078 -0.3253
  883MPD2    N113009   2.778   3.450  16.693 -0.4558 -0.1573 -0.1098
  883MPD2    H713010   2.836   3.512  16.637 -1.2959 -0.6466 -1.5145
  884MPD2     C13011   4.391   4.383  15.366 -0.4507 -0.5853 -0.7794
  884MPD2    C113012   4.368   4.478  15.274  1.4297  1.0446 -0.0623
  884MPD2    C213013   4.258   4.559  15.282  0.7038 -0.1452  0.1406
  884MPD2    C313014   4.170   4.554  15.382  0.4297 -0.4224 -0.5783
  884MPD2    C413015   4.195   4.457  15.479 -1.0100  0.1577 -0.2158
  884MPD2    C513016   4.303   4.371  15.467 -0.4559 -0.4630 -0.6348
  884MPD2     H13017   4.242   4.632  15.204 -2.4652 -0.9233  0.0667
  884MPD2    H113018   4.133   4.446  15.567  0.0952 -1.1835  0.3970
  884MPD2    H213019   4.465   4.304  15.366 -0.5349 -0.6634 -1.1026
  884MPD2    H313020   4.299   4.291  15.540  1.4528 -0.1291 -0.1673
  884MPD2     N13021   4.074   4.659  15.375 -0.0991 -0.0105  0.1841
  884MPD2    H513022   4.068   4.712  15.288  0.8917  1.4340  1.0084
  884MPD2    N113023   4.450   4.497  15.164  0.3396 -0.1409  0.4795
  884MPD2    H713024   4.452   4.587  15.117  0.6928  0.5330  1.7897
  885MPD2     C13025   2.399   0.159   0.626 -0.0741 -0.5956 -0.0050
  885MPD2    C113026   2.508   0.110   0.560  0.1406 -0.0811 -0.2038
  885MPD2    C213027   2.497   0.092   0.425 -0.2609  0.6250 -0.9536
  885MPD2    C313028   2.384   0.131   0.354  0.5115 -0.2912  0.3814
  885MPD2    C413029   2.279   0.182   0.422 -0.2044  0.3308 -0.4944
  885MPD2    C513030   2.286   0.192   0.557  0.8514  0.0753  0.1480
  885MPD2     H13031   2.585   0.054   0.374  0.5496  0.1686  0.8215
  885MPD2    H113032   2.187   0.218   0.376 -0.8002  1.5524  1.6912
  885MPD2    H213033   2.406   0.172   0.733 -0.2813 -2.7913  0.2818
  885MPD2    H313034   2.203   0.244   0.603  0.1352  0.3354 -1.4624
  885MPD2     N13035   2.380   0.122   0.213 -0.1777  0.0294 -0.5331
  885MPD2    H513036   2.466   0.106   0.162  0.6863 -0.9126  1.2360
  885MPD2    N113037   2.620   0.072   0.642  0.3770  0.1749  0.0421
  885MPD2    H713038   2.626   0.105   0.738  0.1624 -2.1061  0.8251
  886MPD2     C13039   3.600   3.147  15.310  0.5540 -0.1611  0.3375
  886MPD2    C113040   3.716   3.151  15.379  0.5624  0.1412  0.6129
  886MPD2    C213041   3.793   3.270  15.374  0.2969 -0.6428 -0.0450
  886MPD2    C313042   3.757   3.382  15.296 -0.7428  0.0240 -0.1531
  886MPD2    C413043   3.631   3.375  15.232 -0.6568 -0.3902  0.8347
  886MPD2    C513044   3.560   3.256  15.226 -0.0224  0.3253  0.1397
  886MPD2     H13045   3.894   3.263  15.412  1.0299 -0.1522 -1.8810
  886MPD2    H113046   3.586   3.454  15.173  3.0013  1.1098  0.0652
  886MPD2    H213047   3.558   3.048  15.297 -3.2207  1.5648 -0.5632
  886MPD2    H313048   3.470   3.252  15.167 -0.5681 -0.5137  1.0275
  886MPD2     N13049   3.831   3.498  15.283  1.2383 -0.2373 -0.4955
  886MPD2    H513050   3.794   3.576  15.231  2.3825  0.7563  0.1668
  886MPD2    N113051   3.774   3.044  15.457 -0.2951  0.6780 -0.4123
  886MPD2    H713052   3.867   3.060  15.493 -0.5564  0.1935  0.4821
  887MPD2     C13053   4.318   2.888  15.813  0.3411 -0.2130 -0.2714
  887MPD2    C113054   4.232   2.996  15.818  0.3122 -0.6058  0.0554
  887MPD2    C213055   4.280   3.126  15.820  0.5835  1.0864 -0.1192
  887MPD2    C313056   4.417   3.156  15.819 -0.2431 -0.1911 -0.6140
  887MPD2    C413057   4.502   3.048  15.817 -0.1448 -0.0142  0.0149
  887MPD2    C513058   4.453   2.918  15.813 -0.5487 -1.0972  0.3174
  887MPD2     H13059   4.214   3.210  15.799 -0.1371  1.2026  2.5979
  887MPD2    H113060   4.608   3.058  15.797 -0.2735  0.5121 -0.4100
  887MPD2    H213061   4.284   2.785  15.814 -0.6151  0.1238  1.0359
  887MPD2    H313062   4.526   2.837  15.813  1.2699  0.5538  1.5001
  887MPD2     N13063   4.450   3.289  15.802  0.0518  0.1812  0.0014
  887MPD2    H513064   4.372   3.354  15.805 -0.2298 -0.1158 -0.6383
  887MPD2    N113065   4.097   2.978  15.808 -0.5320 -0.2534 -0.4785
  887MPD2    H713066   4.048   3.064  15.786  0.7796  0.8131  0.7504
  888MPD2     C13067   1.910   3.204  15.318 -1.5568  0.2119 -0.4421
  888MPD2    C113068   1.779   3.239  15.316  0.2111  0.0821 -0.0515
  888MPD2    C213069   1.746   3.356  15.250 -0.2253 -0.7843 -0.2425
  888MPD2    C313070   1.834   3.435  15.183  0.0012 -0.2747 -0.0735
  888MPD2    C413071   1.964   3.398  15.181 -0.2953 -0.3019 -0.8994
  888MPD2    C513072   1.996   3.280  15.241  0.1452  0.3244 -0.2228
  888MPD2     H13073   1.641   3.380  15.247  0.1814  0.9201 -0.8391
  888MPD2    H113074   2.048   3.445  15.131  0.4765 -1.0179 -0.2808
  888MPD2    H213075   1.944   3.112  15.364 -1.9144  0.0999 -0.4091
  888MPD2    H313076   2.099   3.244  15.246 -0.1386 -0.3091  1.1365
  888MPD2     N13077   1.787   3.560  15.131  0.6690 -0.2577  0.3770
  888MPD2    H513078   1.692   3.578  15.160 -0.4097 -2.3587 -1.7991
  888MPD2    N113079   1.682   3.159  15.381  0.2944 -0.0843  0.0063
  888MPD2    H713080   1.585   3.163  15.352  0.2036 -3.3703 -0.1661
  889MPD2     C13081   1.000   3.485  12.910  0.4928 -0.0983  0.0611
  889MPD2    C113082   1.026   3.361  12.967  0.2750 -0.1786  0.2589
  889MPD2    C213083   1.022   3.360  13.103  0.5486 -0.8078 -0.5337
  889MPD2    C313084   0.971   3.466  13.179 -0.3879  0.6852  0.3251
  889MPD2    C413085   0.962   3.594  13.117 -0.2361 -0.4348 -0.4637
  889MPD2    C513086   0.975   3.596  12.981 -0.1723 -0.3071 -0.4727
  889MPD2     H13087   1.027   3.260  13.143 -0.8014 -1.5812 -2.3084
  889MPD2    H113088   0.948   3.687  13.171  2.1662 -0.9193  0.9782
  889MPD2    H213089   1.011   3.491  12.803 -0.3314  3.5265  0.1723
  889MPD2    H313090   0.971   3.694  12.933  0.2260  1.1077  2.4271
  889MPD2     N13091   0.934   3.442  13.315  0.3001  0.4013 -0.1281
  889MPD2    H513092   0.957   3.355  13.364  0.2498  0.4608  0.0016
  889MPD2    N113093   1.013   3.238  12.896 -0.3368 -0.1988  0.2065
  889MPD2    H713094   1.038   3.158  12.952 -1.8088 -1.1650 -0.5215
  890MPD2     C13095   0.282   4.558  14.644 -0.1160 -0.7340  0.6559
  890MPD2    C113096   0.416   4.590  14.677  0.0895  0.7371  0.5630
  890MPD2    C213097   0.474   4.531  14.787  0.2299 -0.0328 -0.3069
  890MPD2    C313098   0.392   4.449  14.868  0.5598  0.1368  0.8578
  890MPD2    C413099   0.265   4.422  14.846 -0.0743  0.3735  0.6975
  890MPD2    C513100   0.211   4.474  14.733  0.3861  0.6583  0.8383
  890MPD2     H13101   0.575   4.552  14.821 -1.1950  2.4207  2.4563
  890MPD2    H113102   0.198   4.359  14.904  0.9158 -0.8157  0.5516
  890MPD2    H213103   0.221   4.587  14.560  0.5347 -0.3479  0.3124
  890MPD2    H313104   0.110   4.448  14.705  1.0234  1.5835 -2.3931
  890MPD2     N13105   0.466   4.400  14.984  0.0890  0.0350  0.4510
  890MPD2    H513106   0.566   4.418  14.984  0.4911 -2.1493  1.8281
  890MPD2    N113107   0.476   4.678  14.591  0.6337  0.1947 -0.6078
  890MPD2    H713108   0.415   4.718  14.520 -2.3515 -1.1250  1.2364
  891MPD2     C13109   3.528   3.014  16.546  0.6625 -0.0619  0.6143
  891MPD2    C113110   3.439   2.998  16.648  0.3252  0.8556 -1.1383
  891MPD2    C213111   3.495   2.939  16.768  0.2141 -0.1690  0.2057
  891MPD2    C313112   3.620   2.886  16.776 -0.2921 -0.3219  0.6068
  891MPD2    C413113   3.705   2.896  16.667  0.0203  0.6816 -0.8194
  891MPD2    C513114   3.659   2.959  16.556 -0.2676  0.0571 -0.5535
  891MPD2     H13115   3.440   2.929  16.860 -0.1310  1.5598  0.1949
  891MPD2    H113116   3.799   2.842  16.665 -0.2589  0.1336  0.6736
  891MPD2    H213117   3.485   3.052  16.454 -0.4711  1.1268  1.6394
  891MPD2    H313118   3.720   2.969  16.467  1.3465 -1.7609  0.3508
  891MPD2     N13119   3.653   2.831  16.904 -0.1185 -0.1841 -0.2047
  891MPD2    H513120   3.574   2.808  16.963 -1.8316  1.9783 -1.6105
  891MPD2    N113121   3.307   3.039  16.627 -0.7253 -0.5837 -0.2863
  891MPD2    H713122   3.271   3.070  16.537 -0.1703 -0.5725 -0.5074
  892MPD2     C13123   4.386   4.451  14.749  0.1267 -0.2225 -0.0920
  892MPD2    C113124   4.317   4.347  14.815  0.1020  0.0903  0.1945
  892MPD2    C213125   4.361   4.216  14.798  0.2763  0.3755  0.5812
  892MPD2    C313126   4.487   4.193  14.740 -0.4265 -0.2976 -0.3415
  892MPD2    C413127   4.560   4.300  14.702  0.3858 -0.2190 -0.3935
  892MPD2    C513128   4.514   4.429  14.702  0.0305 -0.2340  0.0629
  892MPD2     H13129   4.307   4.137  14.848 -0.2497 -0.4182 -1.2302
  892MPD2    H113130   4.661   4.284  14.666  0.6143 -1.9028  0.9962
  892MPD2    H213131   4.343   4.549  14.734 -0.4303  0.0557  3.5711
  892MPD2    H313132   4.572   4.515  14.670 -0.3676 -0.1710 -0.5036
  892MPD2     N13133   4.551   4.071  14.723  0.2640  0.2042 -0.3302
  892MPD2    H513134   4.650   4.076  14.702  1.0351  1.8753  3.6429
  892MPD2    N113135   4.190   4.355  14.871 -0.3430  0.9074  0.8103
  892MPD2    H713136   4.146   4.267  14.899 -0.8689  2.0806  3.6726
  893MPD2     C13137   0.815   2.987   1.417 -0.6164 -0.6435 -0.2042
  893MPD2    C113138   0.811   2.861   1.352 -0.0619 -0.6090 -0.9500
  893MPD2    C213139   0.693   2.799   1.337  0.4866 -0.2094  0.3716
  893MPD2    C313140   0.588   2.840   1.415  0.5139 -0.1323 -0.6523
  893MPD2    C413141   0.595   2.956   1.484 -0.0769  0.2869 -0.1326
  893MPD2    C513142   0.710   3.031   1.483  0.0944  0.5288 -0.4084
  893MPD2     H13143   0.694   2.711   1.274  2.9195  0.3894 -0.4382
  893MPD2    H113144   0.519   2.990   1.553  0.4955  4.0164 -1.3022
  893MPD2    H213145   0.902   3.051   1.427  1.4823 -3.4195 -0.6125
  893MPD2    H313146   0.717   3.132   1.523  0.5562 -0.3484  1.7000
  893MPD2     N13147   0.463   2.780   1.428  0.1468  0.3313 -0.0458
  893MPD2    H513148   0.408   2.814   1.506 -1.2303 -1.9491 -0.0151
  893MPD2    N113149   0.931   2.819   1.293 -0.2329 -0.2567 -0.2346
  893MPD2    H713150   1.016   2.874   1.303 -0.7796  0.5552 -0.0487
  894MPD2     C13151   4.374   0.078   1.575  0.2292 -0.1555  0.4010
  894MPD2    C113152   4.364   0.216   1.601 -0.0088  0.1436  0.4615
  894MPD2    C213153   4.470   0.298   1.566 -0.0682 -0.7182 -0.6444
  894MPD2    C313154   4.582   0.245   1.500 -0.2355  0.1075 -0.1303
  894MPD2    C413155   4.580   0.112   1.461 -0.0016 -0.1475  1.0649
  894MPD2    C513156   4.484   0.029   1.513  0.5619 -0.1912  0.1446
  894MPD2     H13157   4.467   0.406   1.580  0.3994 -0.7477 -0.3259
  894MPD2    H113158   4.642   0.065   1.385  0.4608  0.5184  1.0333
  894MPD2    H213159   4.295   0.008   1.600 -0.0200 -1.6705 -4.6174
  894MPD2    H313160   4.477   4.668   1.477  1.8851 -0.2407  0.0499
  894MPD2     N13161   4.681   0.328   1.455  0.2557  0.2213 -0.3973
  894MPD2    H513162   4.678   0.427   1.476  0.0462 -0.1932  1.5655
  894MPD2    N113163   4.261   0.276   1.683 -0.0743  0.4884 -0.3823
  894MPD2    H713164   4.269   0.373   1.711  0.0722 -0.3646  2.4919
  895MPD2     C13165   3.696   3.543  13.350  0.0561  0.7055 -0.4534
  895MPD2    C113166   3.644   3.443  13.429 -0.0391  0.2091  0.0809
  895MPD2    C213167   3.730   3.348  13.476 -0.0903  0.5304 -0.1528
  895MPD2    C313168   3.863   3.334  13.429 -0.6219 -0.4232  0.1996
  895MPD2    C413169   3.917   3.439  13.360  0.2459  0.0361 -0.2806
  895MPD2    C513170   3.834   3.542  13.313 -0.0438 -0.6685  0.0158
  895MPD2     H13171   3.680   3.260  13.514 -0.5090 -0.1481 -2.2440
  895MPD2    H113172   4.018   3.428  13.323  0.6999 -2.7616  1.7378
  895MPD2    H213173   3.642   3.631  13.316 -1.8256 -0.5362 -0.6774
  895MPD2    H313174   3.885   3.616  13.252 -0.5383 -1.0532 -0.8675
  895MPD2     N13175   3.940   3.221  13.448 -0.0504 -0.2733 -0.0413
  895MPD2    H513176   4.013   3.204  13.381  0.6973  1.7266  0.2435
  895MPD2    N113177   3.505   3.419  13.448 -0.1410 -0.2578  0.3586
  895MPD2    H713178   3.489   3.338  13.507 -4.3398 -1.4234 -2.3086
  896MPD2     C13179   1.439   0.935   1.273 -0.2756 -0.4026 -0.2259
  896MPD2    C113180   1.339   1.004   1.219 -1.1614  1.1209  0.4445
  896MPD2    C213181   1.217   0.940   1.209  0.3686  0.0988  0.5123
  896MPD2    C313182   1.198   0.816   1.264 -0.1793  0.1500  0.3119
  896MPD2    C413183   1.308   0.748   1.318  0.1513  0.1279  0.0740
  896MPD2    C513184   1.427   0.810   1.310 -1.0350  0.0050 -0.1938
  896MPD2     H13185   1.124   0.977   1.166 -0.3123 -1.0769  0.9555
  896MPD2    H113186   1.304   0.656   1.375  0.0818  0.4892  0.6574
  896MPD2    H213187   1.541   0.971   1.280  0.2011 -1.9978  0.9386
  896MPD2    H313188   1.509   0.760   1.360 -1.4249 -0.7583 -0.3047
  896MPD2     N13189   1.072   0.755   1.239  0.0121 -0.1998  0.2341
  896MPD2    H513190   1.003   0.821   1.207  0.8368 -0.5313 -2.2506
  896MPD2    N113191   1.368   1.127   1.169 -0.4151  0.8518  0.8524
  896MPD2    H713192   1.464   1.159   1.182 -0.5757  2.1386 -1.0682
  897MPD2     C13193   1.831   3.633  11.283  0.4809 -0.3825  0.0933
  897MPD2    C113194   1.733   3.650  11.188  0.6303 -0.3892  0.0215
  897MPD2    C213195   1.601   3.664  11.225 -0.9406  0.0573 -0.0857
  897MPD2    C313196   1.568   3.628  11.356 -0.1772  0.5729  0.4171
  897MPD2    C413197   1.669   3.624  11.451  0.1491  0.4125 -0.1909
  897MPD2    C513198   1.799   3.636  11.413 -0.0218 -0.1623 -0.1962
  897MPD2     H13199   1.528   3.680  11.146 -2.5004  1.2114  1.5996
  897MPD2    H113200   1.650   3.604  11.556 -0.3375 -3.1013 -0.9655
  897MPD2    H213201   1.935   3.614  11.259  0.8016  1.0350  0.3113
  897MPD2    H313202   1.879   3.620  11.484 -1.1008  2.9798  1.7172
  897MPD2     N13203   1.428   3.614  11.386 -0.8782 -0.3937  0.5089
  897MPD2    H513204   1.373   3.602  11.302 -1.4197 -0.2106  0.8362
  897MPD2    N113205   1.782   3.647  11.050  0.0993  0.1221  0.5047
  897MPD2    H713206   1.880   3.624  11.040 -0.0224  0.5959 -1.6504
  898MPD2     C13207   4.261   3.463  16.960  0.6965 -0.2961 -0.9572
  898MPD2    C113208   4.248   3.492  17.096 -0.7236 -0.1198  0.1720
  898MPD2    C213209   4.123   3.507  17.154 -0.6580  0.0176 -1.2086
  898MPD2    C313210   4.011   3.506  17.075  0.4143  0.1419  0.3367
  898MPD2    C413211   4.031   3.474  16.940 -0.0599  0.1025 -0.1929
  898MPD2    C513212   4.151   3.453  16.887 -0.0041  0.2129  0.2666
  898MPD2     H13213   4.116   3.523  17.261  1.5921 -1.2184 -0.8701
  898MPD2    H113214   3.951   3.449  16.871  0.1906  0.2972 -0.5543
  898MPD2    H213215   4.360   3.452  16.918  1.2364 -0.4939  0.3580
  898MPD2    H313216   4.159   3.450  16.779  1.5823  2.2781  0.3386
  898MPD2     N13217   3.891   3.541  17.134  0.2404 -0.5989 -0.0418
  898MPD2    H513218   3.883   3.566  17.232  0.9498 -1.6845  0.2928
  898MPD2    N113219   4.362   3.500  17.178  0.1753  0.4380 -0.0090
  898MPD2    H713220   4.344   3.513  17.277  2.9683  0.2937  0.5287
  899MPD2     C13221   4.503   3.870  17.313  0.5931 -0.4486  0.2146
  899MPD2    C113222   4.602   3.942  17.366 -0.1922  0.1665  0.5356
  899MPD2    C213223   4.616   3.932  17.506 -0.2050 -0.3861 -0.6002
  899MPD2    C313224   4.516   3.860  17.576  0.8731  0.5650  0.2648
  899MPD2    C413225   4.413   3.791  17.519 -0.1648  0.9707 -0.1475
  899MPD2    C513226   4.406   3.800  17.384  0.3689 -0.4100 -0.2830
  899MPD2     H13227   4.682   3.998  17.561 -0.6841  0.2866 -0.8329
  899MPD2    H113228   4.335   3.735  17.571  0.0526 -1.3659 -2.3090
  899MPD2    H213229   4.497   3.881  17.205  2.8249 -0.2006  0.1122
  899MPD2    H313230   4.332   3.745  17.327  1.5641 -0.3902 -1.8336
  899MPD2     N13231   4.511   3.867  17.715 -0.2307  0.3624  0.0187
  899MPD2    H513232   4.434   3.823  17.763  0.3939  0.5723  1.2165
  899MPD2    N113233   4.672   4.027  17.281 -0.1506 -0.4143 -0.6140
  899MPD2    H713234   4.649   4.023  17.182 -0.7635 -1.4261 -0.4229
  900MPD2     C13235   4.080   0.879  12.664  0.0939 -0.4313  0.3060
  900MPD2    C113236   4.074   0.745  12.622  0.1981  0.6775 -0.1772
  900MPD2    C213237   3.983   0.714  12.523 -0.5428 -0.0232 -0.0614
  900MPD2    C313238   3.881   0.800  12.485  0.6793  0.3658 -0.6127
  900MPD2    C413239   3.885   0.931  12.529 -0.0956  0.3463  0.5447
  900MPD2    C513240   3.992   0.967  12.612  0.0052  0.8894  0.4367
  900MPD2     H13241   3.998   0.616  12.479 -2.5941  0.4094 -1.7401
  900MPD2    H113242   3.821   1.008  12.487 -0.0097 -0.0640 -0.3172
  900MPD2    H213243   4.156   0.915  12.731  0.8610 -0.4205 -0.5665
  900MPD2    H313244   3.998   1.069  12.648 -1.8184  1.4088 -0.6991
  900MPD2     N13245   3.780   0.749  12.400  0.2813  0.2875  0.7935
  900MPD2    H513246   3.784   0.650  12.380  2.4668  0.5547 -0.0851
  900MPD2    N113247   4.146   0.650  12.692 -0.3038  0.5909  0.1243
  900MPD2    H713248   4.188   0.677  12.780  0.6894 -1.0693  0.1601
  901MPD2     C13249   4.399   4.349  12.946  0.0629  0.5818 -0.4246
  901MPD2    C113250   4.510   4.433  12.925 -0.3854 -0.2224  0.1567
  901MPD2    C213251   4.495   4.570  12.916  0.4200  0.2026 -0.5548
  901MPD2    C313252   4.365   4.622  12.923 -0.2072  0.3280 -0.4469
  901MPD2    C413253   4.254   4.539  12.936 -0.2218 -0.6328 -0.0821
  901MPD2    C513254   4.278   4.404  12.949  0.2946  0.1705 -0.4221
  901MPD2     H13255   4.576   4.638  12.893  0.7897 -0.5923 -1.6285
  901MPD2    H113256   4.155   4.582  12.923 -1.1853 -2.7125  0.5040
  901MPD2    H213257   4.403   4.241  12.956 -0.0527  0.4447 -1.7724
  901MPD2    H313258   4.184   4.350  12.950 -0.3404  1.2937  1.3395
  901MPD2     N13259   4.358   0.016  12.892 -0.0804  0.1336  0.2204
  901MPD2    H513260   4.448   0.063  12.884  1.5766 -3.1519 -0.1305
  901MPD2    N113261   4.636   4.371  12.909 -0.0934 -0.3313 -0.0928
  901MPD2    H713262   4.640   4.271  12.894 -1.0012  0.3586 -4.9891
  902MPD2     C13263   3.591   3.682  12.645 -0.0397 -0.1894 -0.1638
  902MPD2    C113264   3.455   3.692  12.612  0.3679 -0.4813 -0.3082
  902MPD2    C213265   3.386   3.570  12.591 -0.5311  0.9769  0.2001
  902MPD2    C313266   3.450   3.452  12.591  0.5563  0.7279 -0.0352
  902MPD2    C413267   3.584   3.441  12.620  0.2553 -0.1367 -0.5392
  902MPD2    C513268   3.650   3.559  12.645 -1.0796  0.1970  0.2490
  902MPD2     H13269   3.287   3.584  12.551 -1.2327  0.3268  1.7049
  902MPD2    H113270   3.646   3.352  12.616 -1.3276 -1.3125  1.1490
  902MPD2    H213271   3.666   3.759  12.655 -0.5913  0.3070  0.2020
  902MPD2    H313272   3.757   3.550  12.663 -0.9458 -0.7285 -0.9950
  902MPD2     N13273   3.375   3.343  12.547 -0.2967  0.0838 -0.1771
  902MPD2    H513274   3.275   3.359  12.534 -0.2842  0.1044 -0.2502
  902MPD2    N113275   3.393   3.821  12.595 -0.0729 -0.0391  0.5493
  902MPD2    H713276   3.437   3.902  12.638  3.0731 -1.8129  0.6711
  903MPD2     C13277   3.196   3.474  11.875 -0.8472 -0.3578  0.1097
  903MPD2    C113278   3.129   3.456  11.986  0.0143  0.1534 -0.4477
  903MPD2    C213279   3.025   3.546  12.016  0.2304  0.7374  0.0996
  903MPD2    C313280   2.982   3.646  11.930 -0.2191 -0.1079 -0.8739
  903MPD2    C413281   3.050   3.655  11.808  0.3121  0.4924 -0.9909
  903MPD2    C513282   3.155   3.576  11.783 -0.3218 -0.2090  1.0249
  903MPD2     H13283   2.974   3.533  12.110  2.0392  0.2688  1.0144
  903MPD2    H113284   3.029   3.717  11.722 -1.3616  0.5330 -0.5586
  903MPD2    H213285   3.283   3.416  11.849  0.1554  0.6941  1.1560
  903MPD2    H313286   3.217   3.588  11.695  1.2961  1.1181  2.3428
  903MPD2     N13287   2.881   3.735  11.969  0.5330 -0.4051 -0.3079
  903MPD2    H513288   2.840   3.711  12.059  0.4722 -0.6968 -0.4153
  903MPD2    N113289   3.168   3.348  12.068  0.0189  0.2342  0.2476
  903MPD2    H713290   3.250   3.293  12.044 -0.6708 -0.6929 -0.0119
  904MPD2     C13291   3.537   2.660  14.199 -0.0314 -0.2302 -0.3218
  904MPD2    C113292   3.574   2.744  14.093  0.1241  0.3363  0.1423
  904MPD2    C213293   3.709   2.767  14.071 -0.0866 -0.7661 -0.0552
  904MPD2    C313294   3.810   2.713  14.156 -0.2248  0.3603 -0.2839
  904MPD2    C413295   3.771   2.629  14.253 -1.0371 -0.3364  0.0643
  904MPD2    C513296   3.637   2.599  14.268 -0.1911  0.3389  0.2030
  904MPD2     H13297   3.741   2.835  13.993 -0.8406 -1.3646 -0.8779
  904MPD2    H113298   3.835   2.582  14.328  1.4664  0.2139 -1.7142
  904MPD2    H213299   3.435   2.634  14.226  0.3134  1.0766  2.1931
  904MPD2    H313300   3.611   2.525  14.342 -1.8539 -1.6172 -2.3412
  904MPD2     N13301   3.947   2.738  14.123  0.1762  0.3582 -0.2201
  904MPD2    H513302   3.966   2.802  14.046  2.4066  0.9792  0.8287
  904MPD2    N113303   3.486   2.817  14.013 -0.5081  0.3161  0.2291
  904MPD2    H713304   3.530   2.880  13.948 -0.2194  2.0835  2.1274
  905MPD2     C13305   3.220   2.839  13.362  1.1475 -0.2894  0.0675
  905MPD2    C113306   3.313   2.917  13.420 -0.0986  0.0409  0.2551
  905MPD2    C213307   3.420   2.956  13.346  0.0066 -0.6898  0.3752
  905MPD2    C313308   3.440   2.911  13.215  0.1704  0.3870  0.1456
  905MPD2    C413309   3.335   2.844  13.155  0.1927 -0.1669  0.0040
  905MPD2    C513310   3.223   2.816  13.231 -0.0829 -0.4254 -0.0509
  905MPD2     H13311   3.500   3.018  13.386 -0.1604 -0.3434  0.1754
  905MPD2    H113312   3.339   2.811  13.052  2.3183 -1.5209  0.5390
  905MPD2    H213313   3.128   2.813  13.414  0.4259  0.6847 -0.7265
  905MPD2    H313314   3.134   2.770  13.188 -0.8042 -0.4293  1.4533
  905MPD2     N13315   3.557   2.927  13.137 -0.1286  0.2272  0.6094
  905MPD2    H513316   3.528   2.916  13.040  1.5794  0.4782  0.0580
  905MPD2    N113317   3.304   2.940  13.555  0.0573 -0.3883  0.2343
  905MPD2    H713318   3.220   2.903  13.599 -1.3900  0.0246 -2.1962
  906MPD2     C13319   0.239   3.544  11.624  0.3854  0.1445 -0.1775
  906MPD2    C113320   0.211   3.461  11.518 -0.3029 -0.2081 -0.0546
  906MPD2    C213321   0.229   3.327  11.537 -0.1701 -0.6524  0.4376
  906MPD2    C313322   0.283   3.274  11.652  0.6597  0.1742 -0.0058
  906MPD2    C413323   0.308   3.359  11.761  0.1203 -0.2285 -0.4845
  906MPD2    C513324   0.287   3.494  11.743  0.0851  0.7402  1.0281
  906MPD2     H13325   0.207   3.260  11.454 -1.2660  1.2077 -0.7746
  906MPD2    H113326   0.353   3.329  11.856 -1.1737  1.9122  0.8037
  906MPD2    H213327   0.217   3.650  11.626  0.8935  0.2484 -0.1068
  906MPD2    H313328   0.297   3.560  11.828  2.2799  1.7757 -0.0487
  906MPD2     N13329   0.317   3.140  11.643  0.6477 -0.0268  0.4689
  906MPD2    H513330   0.290   3.087  11.560 -0.8881  1.4308  0.0263
  906MPD2    N113331   0.176   3.527  11.398  0.1446  0.5445  0.2094
  906MPD2    H713332   0.175   3.628  11.396 -2.5452  0.5360  0.7686
  907MPD2     C13333   4.371   1.895  16.345  0.9231 -0.1475  0.3811
  907MPD2    C113334   4.433   1.786  16.287  0.4521 -0.3095  0.4875
  907MPD2    C213335   4.505   1.698  16.369  0.8131  0.3030 -0.0105
  907MPD2    C313336   4.504   1.716  16.501 -0.1721 -0.1235  0.3456
  907MPD2    C413337   4.445   1.822  16.563 -0.1928 -0.0612 -0.4158
  907MPD2    C513338   4.389   1.915  16.480 -0.4905 -0.2886  0.1703
  907MPD2     H13339   4.558   1.611  16.331 -1.9879 -0.8983 -1.1695
  907MPD2    H113340   4.445   1.846  16.669 -0.1996  0.7315 -0.5954
  907MPD2    H213341   4.306   1.964  16.292  1.7704  0.4676  0.1328
  907MPD2    H313342   4.357   2.004  16.532 -1.7428  0.1485 -1.3242
  907MPD2     N13343   4.526   1.600  16.579 -0.6551  0.0470 -0.2027
  907MPD2    H513344   4.565   1.525  16.524 -2.6288 -1.0524 -0.0994
  907MPD2    N113345   4.433   1.772  16.142 -0.2613  0.0393 -0.4427
  907MPD2    H713346   4.491   1.697  16.108 -0.2325  0.9609 -2.4552
  908MPD2     C13347   1.903   3.033  10.333  0.1829 -0.0110 -0.5339
  908MPD2    C113348   1.777   3.081  10.361 -0.5439 -0.1616 -0.5607
  908MPD2    C213349   1.772   3.201  10.434 -0.3578 -0.4938 -0.4520
  908MPD2    C313350   1.884   3.266  10.484 -0.1873 -0.6836 -0.4738
  908MPD2    C413351   2.003   3.208  10.457 -0.1677  0.0942 -0.5994
  908MPD2    C513352   2.009   3.098  10.378  0.0099 -0.0403  0.3197
  908MPD2     H13353   1.680   3.253  10.456  1.1155  1.0349  1.9958
  908MPD2    H113354   2.097   3.258  10.478 -0.2080 -0.1796  0.2441
  908MPD2    H213355   1.918   2.941  10.278  1.5064  0.0082 -0.2000
  908MPD2    H313356   2.103   3.056  10.344 -0.6509 -1.4021  0.2079
  908MPD2     N13357   1.873   3.393  10.555 -0.0357 -0.4964  0.4506
  908MPD2    H513358   1.781   3.408  10.594 -0.0648  3.8828 -1.3442
  908MPD2    N113359   1.662   3.021  10.313  0.1469  0.0492  0.2634
  908MPD2    H713360   1.668   2.931  10.266 -0.4429  1.0162 -1.6708
  909MPD2     C13361   2.285   1.605  12.138  0.4439 -0.1990 -0.1095
  909MPD2    C113362   2.160   1.637  12.096 -0.4917 -0.2440  0.6112
  909MPD2    C213363   2.054   1.610  12.181 -0.0879  0.3551 -0.3644
  909MPD2    C313364   2.081   1.536  12.302  0.5778  0.0964 -0.1680
  909MPD2    C413365   2.203   1.484  12.327  0.3402  0.3147  0.2076
  909MPD2    C513366   2.307   1.531  12.248  0.1170 -0.4507  0.9505
  909MPD2     H13367   1.953   1.627  12.146 -0.8660 -1.0767  1.1781
  909MPD2    H113368   2.229   1.410  12.402  2.0823  0.4601 -0.2416
  909MPD2    H213369   2.364   1.634  12.069 -0.7762  0.5756 -1.1896
  909MPD2    H313370   2.410   1.501  12.266  0.2644 -0.5102  0.0247
  909MPD2     N13371   1.970   1.517  12.387  0.2249 -0.3555 -0.7309
  909MPD2    H513372   1.883   1.564  12.362  0.7298  1.8691  1.6596
  909MPD2    N113373   2.140   1.697  11.971 -0.4842 -0.0623  0.2111
  909MPD2    H713374   2.055   1.677  11.920  0.2185 -0.0646 -0.9422
  910MPD2     C13375   3.496   2.344  16.242  0.9971  0.1499 -0.6828
  910MPD2    C113376   3.585   2.309  16.150  0.4231  0.7759  0.0935
  910MPD2    C213377   3.558   2.350  16.022 -0.1165  0.1135 -0.1568
  910MPD2    C313378   3.444   2.422  15.991  0.5756  0.9202 -0.8719
  910MPD2    C413379   3.355   2.456  16.088 -0.0235  0.2572  0.0961
  910MPD2    C513380   3.382   2.414  16.216  0.3118  0.3426  0.2888
  910MPD2     H13381   3.615   2.337  15.931  2.2504  3.5239  0.8180
  910MPD2    H113382   3.269   2.521  16.079 -1.4709 -1.8233 -1.0350
  910MPD2    H213383   3.525   2.338  16.346 -4.6073 -1.2110  0.8335
  910MPD2    H313384   3.319   2.448  16.298  1.2600  0.6369  0.8888
  910MPD2     N13385   3.408   2.454  15.856  0.1747 -0.6390  0.5274
  910MPD2    H513386   3.482   2.461  15.787 -1.5353  0.1191 -1.2163
  910MPD2    N113387   3.700   2.235  16.176 -0.6890  0.0320  0.3270
  910MPD2    H713388   3.770   2.239  16.103  1.0015 -0.8912  1.9052
  911MPD2     C13389   1.538   2.686  16.305  0.0392  0.3340  0.2841
  911MPD2    C113390   1.584   2.803  16.370  0.1127 -0.0194  0.8482
  911MPD2    C213391   1.511   2.922  16.369 -0.2910 -0.4750  0.3245
  911MPD2    C313392   1.408   2.934  16.277  0.2920  0.1345  0.3115
  911MPD2    C413393   1.368   2.816  16.213 -0.1204  0.0216  0.3447
  911MPD2    C513394   1.428   2.700  16.230 -0.0962 -0.1312 -0.3439
  911MPD2     H13395   1.538   3.002  16.437 -0.1318 -1.4169  1.3692
  911MPD2    H113396   1.285   2.837  16.147  0.3258  0.0265 -0.2102
  911MPD2    H213397   1.590   2.593  16.323 -0.1939  0.5978  2.2872
  911MPD2    H313398   1.394   2.625  16.160  0.4810  0.3979 -1.1938
  911MPD2     N13399   1.345   3.056  16.235 -0.4942 -0.1600  0.4677
  911MPD2    H513400   1.263   3.041  16.177 -0.5545  0.7315  0.3238
  911MPD2    N113401   1.704   2.788  16.442 -0.1416  0.3391 -0.0804
  911MPD2    H713402   1.720   2.690  16.463  0.3467  0.9863  2.5637
  912MPD2     C13403   1.065   2.940  15.672 -0.2872  0.8622 -0.6360
  912MPD2    C113404   1.079   2.948  15.812 -0.2902  0.1592  0.8804
  912MPD2    C213405   1.106   2.826  15.877  0.3799 -0.1284 -0.1404
  912MPD2    C313406   1.094   2.705  15.804 -0.3218  0.6901  0.4125
  912MPD2    C413407   1.057   2.704  15.672 -0.2364 -0.0554  0.0187
  912MPD2    C513408   1.036   2.819  15.609  0.5999 -0.2697  0.6567
  912MPD2     H13409   1.138   2.826  15.981  2.1250  0.9020 -0.6670
  912MPD2    H113410   1.037   2.613  15.616 -0.1097 -1.0194  1.5344
  912MPD2    H213411   1.059   3.029  15.611 -1.6392 -1.0009 -3.2077
  912MPD2    H313412   0.998   2.826  15.508 -0.5434  0.8409  1.1667
  912MPD2     N13413   1.108   2.594  15.884  0.4833  0.3299  0.6081
  912MPD2    H513414   1.130   2.609  15.982 -3.4761 -1.3650  1.7884
  912MPD2    N113415   1.093   3.078  15.872 -0.7419 -0.3897 -0.8597
  912MPD2    H713416   1.086   3.151  15.802 -1.4608  1.4228  1.1130
  913MPD2     C13417   1.129   4.693  11.035 -0.4934 -0.0667 -0.0228
  913MPD2    C113418   1.254   0.001  11.066  0.1033  0.1908  0.7024
  913MPD2    C213419   1.326   0.078  10.976 -0.7169 -0.2304  0.1805
  913MPD2    C313420   1.274   0.106  10.850  0.0828 -0.2555 -0.0533
  913MPD2    C413421   1.151   0.059  10.818  0.0335  0.6286  0.8639
  913MPD2    C513422   1.077   4.730  10.913  0.8085  1.1297 -0.4601
  913MPD2     H13423   1.416   0.129  11.008  0.0134 -3.3491  3.0343
  913MPD2    H113424   1.102   0.091  10.727 -2.8724  0.0874  2.2352
  913MPD2    H213425   1.073   4.631  11.104  1.5938 -1.8038  0.0984
  913MPD2    H313426   0.974   4.705  10.891  0.8570  1.7854 -1.4178
  913MPD2     N13427   1.337   0.195  10.757 -0.4834  1.1157  0.6210
  913MPD2    H513428   1.292   0.179  10.667 -0.3306 -0.0532  0.7599
  913MPD2    N113429   1.302   4.715  11.201  0.5124  0.9857  0.1458
  913MPD2    H713430   1.237   4.661  11.258  0.8739 -2.0474 -2.2481
  914MPD2     C13431   0.013   0.035  12.267  0.2123  0.0200 -0.8633
  914MPD2    C113432   0.002   0.057  12.401  0.6051  0.4456 -0.4994
  914MPD2    C213433   0.023   4.689  12.490 -0.1426 -0.0097  0.5039
  914MPD2    C313434   0.086   4.579  12.438  0.2304  0.3175 -0.8755
  914MPD2    C413435   0.113   4.562  12.302 -0.6078  0.0637  0.4326
  914MPD2    C513436   0.057   4.656  12.220 -0.0868  0.1629  0.0419
  914MPD2     H13437   0.007   4.702  12.596  1.9227  0.5875  0.7457
  914MPD2    H113438   0.151   4.474  12.253  0.2415  1.6158 -1.7071
  914MPD2    H213439   4.725   0.113  12.198  1.1811  2.1585  1.1531
  914MPD2    H313440   0.067   4.643  12.112  2.3561  0.1109  0.2893
  914MPD2     N13441   0.117   4.485  12.539 -0.4820  0.2352 -0.7711
  914MPD2    H513442   0.075   4.495  12.632  1.3663  1.2721 -0.0604
  914MPD2    N113443   4.714   0.189  12.446  0.7057  0.3272  0.6576
  914MPD2    H713444   4.709   0.261  12.375  0.3493 -0.7660 -0.4310
  915MPD2     C13445   2.759   4.517  15.585  0.1122  0.0211  0.1891
  915MPD2    C113446   2.643   4.449  15.563  0.2578 -0.2646  0.0879
  915MPD2    C213447   2.563   4.413  15.666  0.9717  0.1699  0.0714
  915MPD2    C313448   2.603   4.448  15.803 -0.9662  0.7863  0.2667
  915MPD2    C413449   2.734   4.501  15.819  0.7793 -0.1967  0.2368
  915MPD2    C513450   2.811   4.532  15.710  0.0615  0.6462 -0.3108
  915MPD2     H13451   2.466   4.368  15.654  0.4835  1.3870 -0.5985
  915MPD2    H113452   2.759   4.544  15.915 -2.0378 -0.3311  1.0020
  915MPD2    H213453   2.813   4.554  15.498  0.9140 -1.8461 -0.1060
  915MPD2    H313454   2.905   4.583  15.727 -0.0121  0.7299 -0.1573
  915MPD2     N13455   2.520   4.432  15.918 -0.1798 -0.1878 -0.4893
  915MPD2    H513456   2.555   4.477  16.001  1.4277  1.0062 -1.8129
  915MPD2    N113457   2.611   4.412  15.429  0.0522  0.4395  0.5365
  915MPD2    H713458   2.677   4.447  15.359  0.5707 -0.1720  0.7139
  916MPD2     C13459   0.703   2.602  15.599 -0.9724 -0.5373 -0.1463
  916MPD2    C113460   0.756   2.495  15.672 -0.6036 -0.4896  0.2061
  916MPD2    C213461   0.825   2.392  15.604  0.5186 -0.2995 -0.3971
  916MPD2    C313462   0.826   2.380  15.463  0.4154  0.6038 -0.2456
  916MPD2    C413463   0.768   2.483  15.390 -0.7825  0.5370 -0.1984
  916MPD2    C513464   0.717   2.594  15.460  0.9326 -0.2823 -0.3883
  916MPD2     H13465   0.880   2.318  15.661  1.4916  0.6082 -0.1479
  916MPD2    H113466   0.779   2.492  15.283  0.6931 -1.9191 -0.2329
  916MPD2    H213467   0.637   2.673  15.648  3.2923  1.8324  2.1442
  916MPD2    H313468   0.664   2.671  15.404  1.0106 -0.2033 -0.3536
  916MPD2     N13469   0.900   2.270  15.406 -0.8136  0.3102  0.2067
  916MPD2    H513470   0.938   2.207  15.476  0.8919  1.2107  0.1045
  916MPD2    N113471   0.739   2.497  15.812  0.5531  0.2598 -0.0356
  916MPD2    H713472   0.700   2.583  15.847 -0.1194  0.1599 -0.5531
  917MPD2     C13473   1.103   1.029  11.534 -0.0499 -0.0673 -0.5899
  917MPD2    C113474   1.185   1.044  11.645 -0.8496  0.1753  0.3169
  917MPD2    C213475   1.293   1.128  11.642  0.4691  1.1544 -0.3131
  917MPD2    C313476   1.310   1.213  11.532  1.2114 -0.0742  0.3072
  917MPD2    C413477   1.226   1.201  11.421 -0.4153  0.4734  0.4654
  917MPD2    C513478   1.132   1.101  11.426 -0.4683  0.3839 -0.0288
  917MPD2     H13479   1.357   1.138  11.729 -0.2465  1.8582  0.1320
  917MPD2    H113480   1.238   1.262  11.333  1.1247 -0.0176  0.3211
  917MPD2    H213481   1.013   0.970  11.525 -2.4409  3.4407  0.4054
  917MPD2    H313482   1.071   1.090  11.337  0.3905 -1.2255 -0.4194
  917MPD2     N13483   1.410   1.315  11.523  0.3599 -0.0901  0.4870
  917MPD2    H513484   1.404   1.386  11.450 -0.6899 -1.1325 -0.4254
  917MPD2    N113485   1.162   0.968  11.762  0.0875  0.3368 -0.0475
  917MPD2    H713486   1.100   0.889  11.753  2.7457 -1.8833  1.0364
  918MPD2     C13487   1.249   0.790  12.847 -0.2265  0.3088  0.1694
  918MPD2    C113488   1.343   0.781  12.742  0.2185 -0.1769  0.1089
  918MPD2    C213489   1.304   0.789  12.610  0.4094 -0.5684  0.0796
  918MPD2    C313490   1.167   0.803  12.585 -0.1824 -0.2911 -0.2126
  918MPD2    C413491   1.076   0.792  12.691 -0.2112 -0.1970 -0.3368
  918MPD2    C513492   1.112   0.789  12.820  0.3777  0.2720 -0.4395
  918MPD2     H13493   1.380   0.771  12.534 -1.1887 -0.3383 -1.5739
  918MPD2    H113494   0.970   0.796  12.669  0.2799  0.6036 -2.5719
  918MPD2    H213495   1.276   0.789  12.952 -1.0315  0.6049  0.3764
  918MPD2    H313496   1.032   0.801  12.892  0.0865  1.4497 -0.9448
  918MPD2     N13497   1.119   0.826  12.456 -0.0142  0.1881 -0.5515
  918MPD2    H513498   1.018   0.815  12.452 -0.1446  0.6198  2.0625
  918MPD2    N113499   1.472   0.738  12.768 -0.4906  0.9387 -0.6156
  918MPD2    H713500   1.529   0.719  12.686 -0.7752  0.3123 -0.6668
  919MPD2     C13501   1.644   4.333  12.396  0.6611 -0.2312 -0.1109
  919MPD2    C113502   1.532   4.243  12.391 -0.4125  0.2046 -0.1944
  919MPD2    C213503   1.422   4.273  12.322  0.4716  0.9909  0.2588
  919MPD2    C313504   1.419   4.399  12.249  1.1064  0.0980 -0.5941
  919MPD2    C413505   1.524   4.482  12.265 -0.0912 -0.5111  0.7272
  919MPD2    C513506   1.626   4.455  12.349  0.9946  0.5460 -0.4665
  919MPD2     H13507   1.343   4.201  12.300  0.8009  0.2986  1.3498
  919MPD2    H113508   1.539   4.577  12.214 -2.4522 -1.1462 -1.1772
  919MPD2    H213509   1.743   4.311  12.435  1.4481  3.6377  0.1044
  919MPD2    H313510   1.707   4.527  12.355 -0.3020  1.9728  0.1765
  919MPD2     N13511   1.323   4.425  12.143  0.2186 -0.2945  0.9643
  919MPD2    H513512   1.342   4.507  12.087 -2.0273 -0.7226 -0.4474
  919MPD2    N113513   1.541   4.111  12.449  0.4787 -0.3118  0.2845
  919MPD2    H713514   1.456   4.058  12.436 -0.5597  1.3755  0.1182
  920MPD2     C13515   1.316   0.353  11.459 -0.0599 -0.2192  0.2162
  920MPD2    C113516   1.230   0.264  11.401 -0.0403 -0.0613 -0.4582
  920MPD2    C213517   1.175   0.158  11.479 -0.1407  0.2818 -0.2401
  920MPD2    C313518   1.229   0.132  11.603  0.7113  0.1675 -0.4679
  920MPD2    C413519   1.326   0.214  11.658  0.0545  0.3608  0.4550
  920MPD2    C513520   1.359   0.328  11.587 -0.2142  0.2559  0.2261
  920MPD2     H13521   1.092   0.098  11.443  0.1120  0.3045 -0.8621
  920MPD2    H113522   1.373   0.197  11.755  2.3712 -0.9610 -0.8963
  920MPD2    H213523   1.347   0.451  11.426  1.8237 -0.9155 -0.0893
  920MPD2    H313524   1.419   0.403  11.638  2.1902 -0.8298 -1.0024
  920MPD2     N13525   1.182   0.012  11.670 -0.1373  0.6131 -0.5256
  920MPD2    H513526   1.111   4.698  11.624 -0.3860  1.2649 -0.9424
  920MPD2    N113527   1.175   0.273  11.271 -0.2093  0.4482  0.0306
  920MPD2    H713528   1.099   0.208  11.253 -0.1871  0.2644  0.5725
  921MPD2     C13529   2.611   2.897  17.034 -0.7356 -0.2399 -0.4841
  921MPD2    C113530   2.597   2.933  16.906  0.3324 -0.2818  0.2292
  921MPD2    C213531   2.464   2.922  16.844  1.0569  0.2528  0.0046
  921MPD2    C313532   2.361   2.881  16.927  0.1771 -0.4410 -0.7020
  921MPD2    C413533   2.380   2.849  17.058  0.1638  0.1281 -0.2342
  921MPD2    C513534   2.504   2.862  17.114  0.4101  0.4337  0.0530
  921MPD2     H13535   2.438   2.958  16.745 -1.6580  3.1007  1.7531
  921MPD2    H113536   2.303   2.807  17.122  3.5465 -2.6499  1.9876
  921MPD2    H213537   2.710   2.914  17.075 -1.2912 -1.7539  1.5033
  921MPD2    H313538   2.519   2.847  17.220 -2.4507  1.4846  0.6212
  921MPD2     N13539   2.227   2.862  16.877  0.3690 -0.5063 -0.3285
  921MPD2    H513540   2.162   2.816  16.940  0.9213  0.9689  1.2966
  921MPD2    N113541   2.713   2.972  16.838 -0.7102  0.3696  0.4939
  921MPD2    H713542   2.801   2.979  16.887 -0.2389  0.9873 -0.4414
  922MPD2     C13543   3.314   0.951   0.822 -0.2024  0.0919  0.7498
  922MPD2    C113544   3.249   1.051   0.761  0.1029 -0.0036  0.0377
  922MPD2    C213545   3.147   1.027   0.672 -0.7866 -0.4640 -0.1192
  922MPD2    C313546   3.128   0.892   0.631  0.5661 -0.2800  0.6401
  922MPD2    C413547   3.193   0.790   0.691  0.1373 -0.6410 -0.4571
  922MPD2    C513548   3.282   0.820   0.795  0.5866  0.0537 -0.2852
  922MPD2     H13549   3.097   1.107   0.621 -1.0360 -0.8419 -0.4662
  922MPD2    H113550   3.170   0.685   0.676  0.5705 -1.0048  1.3916
  922MPD2    H213551   3.387   0.962   0.902  1.3451  5.1290 -1.3335
  922MPD2    H313552   3.334   0.734   0.836  1.5986  1.3605  1.1793
  922MPD2     N13553   3.036   0.879   0.530 -0.3064  0.4635 -0.1757
  922MPD2    H513554   3.002   0.969   0.500 -1.6293  0.1967  0.5033
  922MPD2    N113555   3.280   1.186   0.781  0.3006  0.5766  0.3177
  922MPD2    H713556   3.231   1.251   0.720 -0.4544 -0.2480  0.0425
  923MPD2     C13557   4.039   2.761   9.711  0.1852  0.2744 -0.1174
  923MPD2    C113558   4.098   2.877   9.687 -0.2768 -0.1017  1.0347
  923MPD2    C213559   4.209   2.909   9.760  0.0523 -0.1180  0.4683
  923MPD2    C313560   4.260   2.821   9.854 -0.1559  0.6641  0.2032
  923MPD2    C413561   4.199   2.695   9.872  0.2140 -0.3376 -0.2157
  923MPD2    C513562   4.089   2.670   9.800 -0.6327  0.5785  0.2076
  923MPD2     H13563   4.252   3.008   9.750  2.5966 -1.2940 -0.2971
  923MPD2    H113564   4.234   2.623   9.945  0.4590 -1.1661 -1.1582
  923MPD2    H213565   3.949   2.731   9.658  0.9545  0.0629 -1.2986
  923MPD2    H313566   4.039   2.573   9.801  0.8018 -0.1527  1.4662
  923MPD2     N13567   4.371   2.848   9.936 -0.0662  0.2864 -0.3407
  923MPD2    H513568   4.390   2.786  10.015 -0.1710  0.6711 -0.0165
  923MPD2    N113569   4.034   2.957   9.593  0.0123 -0.4896 -0.0646
  923MPD2    H713570   3.962   2.906   9.543  1.0467 -1.8980 -0.1257
  924MPD2     C13571   4.582   0.630  16.787  0.7820 -0.0615 -0.2919
  924MPD2    C113572   4.533   0.704  16.677  0.3767  0.3329 -0.3011
  924MPD2    C213573   4.582   0.836  16.656  0.2348 -0.3504 -0.0320
  924MPD2    C313574   4.674   0.887  16.746  0.1101  0.3186  0.5108
  924MPD2    C413575   4.730   0.810  16.846  0.3935  0.6591  0.8863
  924MPD2    C513576   4.685   0.679  16.863  0.2235  0.0692 -0.3831
  924MPD2     H13577   4.542   0.894  16.574  0.0415 -1.4023 -0.6839
  924MPD2    H113578   0.069   0.850  16.907  0.8950  1.6575 -0.4253
  924MPD2    H213579   4.545   0.531  16.811  2.6461 -0.1739  2.2425
  924MPD2    H313580   4.714   0.614  16.944 -0.6176  1.5226  1.0768
  924MPD2     N13581   4.702   1.023  16.756  0.1021 -0.0905  0.2013
  924MPD2    H513582   0.010   1.047  16.841  1.8512  0.2331 -0.9154
  924MPD2    N113583   4.436   0.635  16.597 -0.4619  0.2034 -0.4567
  924MPD2    H713584   4.428   0.535  16.606  0.6939  0.0472 -1.2312
  925MPD2     C13585   3.328   3.971  15.249 -0.5670  0.3223 -0.5462
  925MPD2    C113586   3.227   4.003  15.160 -0.0339  0.0493  0.4593
  925MPD2    C213587   3.110   4.043  15.208 -0.1809 -0.0137 -0.4982
  925MPD2    C313588   3.089   4.081  15.347 -0.0312  0.1973 -1.0122
  925MPD2    C413589   3.202   4.058  15.432 -0.3586 -0.1760  0.0553
  925MPD2    C513590   3.313   4.003  15.381  0.8581 -0.5633  0.7285
  925MPD2     H13591   3.038   4.055  15.128 -1.0449 -0.5194  0.2058
  925MPD2    H113592   3.205   4.088  15.535  0.5011 -3.3805  0.9837
  925MPD2    H213593   3.420   3.923  15.220 -1.3052 -1.1488 -0.4819
  925MPD2    H313594   3.404   4.009  15.439  2.2322 -3.0594 -1.1630
  925MPD2     N13595   2.974   4.140  15.398  0.0680  0.0968 -0.1486
  925MPD2    H513596   2.971   4.178  15.492 -2.9105  0.5133 -0.4213
  925MPD2    N113597   3.230   3.962  15.022 -0.4103  0.0638  0.2516
  925MPD2    H713598   3.140   3.965  14.975  0.0139  2.0393 -0.4625
  926MPD2     C13599   2.289   2.359  13.110 -0.6059 -0.6242 -0.4459
  926MPD2    C113600   2.163   2.387  13.067  0.1057  0.0227 -0.0025
  926MPD2    C213601   2.133   2.466  12.954 -0.4865  0.4599 -0.2660
  926MPD2    C313602   2.244   2.512  12.886  0.0354 -0.6505 -0.4866
  926MPD2    C413603   2.373   2.488  12.937  1.3219 -0.1835 -0.2184
  926MPD2    C513604   2.395   2.409  13.041  0.2180  1.2083 -0.2338
  926MPD2     H13605   2.029   2.485  12.930  0.1567  2.3072 -1.5896
  926MPD2    H113606   2.453   2.537  12.882  0.4100 -0.3054 -1.6582
  926MPD2    H213607   2.314   2.305  13.200 -1.2390 -1.6117 -0.8683
  926MPD2    H313608   2.491   2.401  13.089  0.0894  1.2941  0.0421
  926MPD2     N13609   2.240   2.575  12.760 -0.2357  0.4569 -0.3793
  926MPD2    H513610   2.332   2.589  12.719  0.8044 -2.0399  1.0939
  926MPD2    N113611   2.045   2.349  13.143 -0.1378  0.1255  0.1356
  926MPD2    H713612   1.958   2.386  13.106  0.5141 -0.9578 -2.5436
  927MPD2     C13613   2.301   4.558  17.598 -0.0551  0.5617 -0.0853
  927MPD2    C113614   2.177   4.572  17.541  0.0839 -0.7106  0.4337
  927MPD2    C213615   2.154   4.532  17.411  0.2412 -0.0315 -0.0592
  927MPD2    C313616   2.255   4.491  17.330  1.3682  0.2561  0.3297
  927MPD2    C413617   2.384   4.500  17.379  0.4164 -0.4725 -0.2600
  927MPD2    C513618   2.402   4.529  17.512 -0.0012  0.0021  0.4315
  927MPD2     H13619   2.059   4.528  17.360  0.4928  0.6366 -0.5804
  927MPD2    H113620   2.470   4.483  17.316  0.3839 -0.3177 -0.3469
  927MPD2    H213621   2.331   4.593  17.696  0.5871 -0.7597  0.2019
  927MPD2    H313622   2.500   4.514  17.557 -0.2018 -2.3567  0.0658
  927MPD2     N13623   2.243   4.439  17.199 -0.0712 -0.2241 -0.1815
  927MPD2    H513624   2.151   4.441  17.156  0.6927 -1.2611 -1.8893
  927MPD2    N113625   2.074   4.614  17.627 -0.0381  0.4514  0.4659
  927MPD2    H713626   2.110   4.614  17.722  2.1571  0.6772 -0.3581
  928MPD2     C13627   3.995   2.572   0.830 -0.4049 -0.2064 -0.2976
  928MPD2    C113628   4.083   2.671   0.868 -0.1930 -0.4244  0.0638
  928MPD2    C213629   4.219   2.642   0.840 -0.0455  0.0895 -0.8163
  928MPD2    C313630   4.257   2.529   0.771  0.4298  0.1739 -0.0509
  928MPD2    C413631   4.164   2.433   0.735  0.6370 -0.0025 -0.3042
  928MPD2    C513632   4.033   2.457   0.768 -1.1243  0.0065 -0.4540
  928MPD2     H13633   4.289   2.718   0.870  0.2496 -0.0117 -1.2587
  928MPD2    H113634   4.205   2.351   0.677 -2.0098 -1.0492 -0.6618
  928MPD2    H213635   3.890   2.575   0.855 -0.7290  2.2376 -1.9549
  928MPD2    H313636   3.961   2.380   0.744 -1.3050 -0.4815  1.6782
  928MPD2     N13637   4.384   2.503   0.718  0.5333  0.0898  0.5217
  928MPD2    H513638   4.403   2.411   0.677  0.3373  0.1078  0.3899
  928MPD2    N113639   4.052   2.795   0.924 -0.3063  0.8386 -0.7435
  928MPD2    H713640   4.129   2.853   0.956 -0.5242  1.5087 -1.4740
  929MPD2     C13641   3.875   3.359   9.769  0.0410 -0.3141 -0.0079
  929MPD2    C113642   3.822   3.245   9.834 -0.0930 -0.5397 -0.1483
  929MPD2    C213643   3.692   3.208   9.815 -0.0111  0.8220 -0.0405
  929MPD2    C313644   3.610   3.282   9.728 -0.4900 -0.7211 -0.3423
  929MPD2    C413645   3.659   3.396   9.672  0.1055  0.5139 -0.0408
  929MPD2    C513646   3.791   3.430   9.688 -0.0509  0.0622 -0.6997
  929MPD2     H13647   3.651   3.134   9.883 -0.6444  2.2555  1.1113
  929MPD2    H113648   3.602   3.462   9.607 -0.3310  1.4551  1.2924
  929MPD2    H213649   3.976   3.393   9.785 -0.3026  0.7695 -0.1241
  929MPD2    H313650   3.821   3.528   9.654  0.0381  0.2129 -0.1789
  929MPD2     N13651   3.477   3.247   9.716 -0.3572 -0.3883  0.5921
  929MPD2    H513652   3.415   3.314   9.673  1.2517  0.2939 -0.6790
  929MPD2    N113653   3.911   3.179   9.921  0.4292 -0.4055  0.1392
  929MPD2    H713654   4.002   3.224   9.922  0.8239 -1.1943 -0.6865
  930MPD2     C13655   1.548   0.347  14.363 -0.7006  0.3357 -0.4089
  930MPD2    C113656   1.519   0.370  14.236 -0.1173 -0.2088  0.1022
  930MPD2    C213657   1.475   0.265  14.159 -0.3377  0.0496  0.2145
  930MPD2    C313658   1.453   0.137  14.205  0.5994 -0.1483  0.4974
  930MPD2    C413659   1.496   0.109  14.335  0.3572  0.3316 -0.0854
  930MPD2    C513660   1.538   0.216  14.413  0.2288  0.6444  0.6285
  930MPD2     H13661   1.463   0.287  14.053 -0.7879 -1.7100 -0.0847
  930MPD2    H113662   1.500   0.015  14.390  3.3986 -0.0958 -1.0123
  930MPD2    H213663   1.603   0.411  14.431  2.0828  0.8793 -3.1656
  930MPD2    H313664   1.568   0.194  14.515 -0.4239  2.8489  1.3045
  930MPD2     N13665   1.423   0.030  14.119 -0.2485  0.3598  0.2102
  930MPD2    H513666   1.455   4.681  14.151 -0.5274  0.3580  0.4799
  930MPD2    N113667   1.560   0.482  14.164 -0.6239  0.8819 -0.0325
  930MPD2    H713668   1.567   0.467  14.064  0.2643 -2.4097  0.5306
  931MPD2     C13669   2.095   4.588   0.480  0.0740  0.6868  0.4392
  931MPD2    C113670   1.965   4.561   0.439  0.3264 -0.2228  0.7603
  931MPD2    C213671   1.890   4.476   0.519 -0.0333 -0.5384  0.3868
  931MPD2    C313672   1.950   4.407   0.625  0.5238 -0.2692  0.1399
  931MPD2    C413673   2.085   4.427   0.646  0.5241  0.2393 -0.5830
  931MPD2    C513674   2.157   4.513   0.573  0.1664  0.6303  0.5592
  931MPD2     H13675   1.795   4.439   0.481  0.3385 -0.2800 -0.7921
  931MPD2    H113676   2.134   4.371   0.726 -0.0961 -1.7729 -1.6033
  931MPD2    H213677   2.156   4.649   0.415 -0.3948 -0.3089 -0.9480
  931MPD2    H313678   2.262   4.519   0.600  0.2448 -1.5153  0.6904
  931MPD2     N13679   1.880   4.312   0.703  0.3556 -0.0180  0.2755
  931MPD2    H513680   1.936   4.251   0.761  0.3478 -0.1504  0.1440
  931MPD2    N113681   1.919   4.628   0.319 -0.7348 -0.9916  0.0546
  931MPD2    H713682   1.982   4.687   0.266 -1.0236 -0.3549  0.4109
  932MPD2     C13683   2.914   3.519  11.292 -0.2526 -0.4968  0.2606
  932MPD2    C113684   3.000   3.605  11.359 -0.2122 -1.0521  0.2119
  932MPD2    C213685   3.132   3.573  11.372 -0.2971  0.2282  0.1656
  932MPD2    C313686   3.178   3.447  11.327  0.1279 -0.2886 -0.2003
  932MPD2    C413687   3.087   3.358  11.276  0.3290  0.2772  0.0461
  932MPD2    C513688   2.957   3.393  11.252 -0.0867 -0.0625 -0.1835
  932MPD2     H13689   3.198   3.648  11.414 -0.4809  1.1736 -1.2467
  932MPD2    H113690   3.113   3.255  11.254 -0.9221 -0.5585  2.4078
  932MPD2    H213691   2.809   3.548  11.290 -0.2554 -0.8943 -4.3353
  932MPD2    H313692   2.891   3.319  11.208 -1.3917  0.3277  1.0795
  932MPD2     N13693   3.313   3.407  11.335  0.5094 -0.4344 -0.4787
  932MPD2    H513694   3.333   3.313  11.301 -0.5540 -0.8619  0.0853
  932MPD2    N113695   2.960   3.726  11.412  0.6334  0.4790  0.2426
  932MPD2    H713696   3.034   3.782  11.454  0.6955  1.1319 -0.7678
  933MPD2     C13697   3.358   3.085   0.788 -0.3898  0.6386 -0.1613
  933MPD2    C113698   3.451   3.187   0.795  0.3862 -0.3779 -0.0053
  933MPD2    C213699   3.423   3.304   0.728 -0.6190 -0.2056  0.3067
  933MPD2    C313700   3.316   3.314   0.641  0.2855  0.3269 -0.3587
  933MPD2    C413701   3.225   3.208   0.628  0.2023  0.1564 -0.3000
  933MPD2    C513702   3.247   3.097   0.706 -0.2700  0.1310 -0.4703
  933MPD2     H13703   3.479   3.396   0.737  1.4342 -1.3157 -1.4381
  933MPD2    H113704   3.130   3.212   0.576 -0.6698  2.1657  1.4522
  933MPD2    H213705   3.369   2.991   0.841  0.6262  1.4558  1.0711
  933MPD2    H313706   3.177   3.014   0.705  1.7211 -1.5428  0.6644
  933MPD2     N13707   3.305   3.441   0.578 -0.2346 -0.0015 -0.0424
  933MPD2    H513708   3.382   3.506   0.592 -1.0490  0.9747 -0.0790
  933MPD2    N113709   3.564   3.163   0.874  0.1476  0.0944  0.1422
  933MPD2    H713710   3.583   3.068   0.906 -0.4809  0.0929  0.5168
  934MPD2     C13711   1.735   0.228   1.124  0.3381  0.5972 -0.2880
  934MPD2    C113712   1.607   0.284   1.143  0.4086 -0.0317  0.2739
  934MPD2    C213713   1.501   0.197   1.160  0.0878 -0.1989 -0.1569
  934MPD2    C313714   1.516   0.057   1.181 -0.3240 -0.0605  0.0657
  934MPD2    C413715   1.646   0.007   1.168 -0.2054 -0.0888 -0.1086
  934MPD2    C513716   1.747   0.091   1.134  0.6135  0.1453  0.4286
  934MPD2     H13717   1.403   0.244   1.156  1.5871  2.9254 -0.9192
  934MPD2    H113718   1.668   4.643   1.182  0.0584  0.3434  2.6125
  934MPD2    H213719   1.821   0.294   1.113  0.2281  1.3225  3.1321
  934MPD2    H313720   1.844   0.045   1.115 -0.3272 -1.9282  0.5682
  934MPD2     N13721   1.414   4.714   1.219 -0.8171  0.5279 -0.6873
  934MPD2    H513722   1.429   4.614   1.222 -0.4698  0.5812 -0.6262
  934MPD2    N113723   1.572   0.416   1.121 -0.5954 -0.0741  0.2299
  934MPD2    H713724   1.473   0.437   1.121 -0.9473 -1.7789  1.6908
  935MPD2     C13725   1.089   4.053   0.749 -0.1927  0.2004  0.0805
  935MPD2    C113726   0.963   4.089   0.800  0.0737  0.4807  0.1909
  935MPD2    C213727   0.956   4.196   0.887  0.0210 -0.2784 -0.3006
  935MPD2    C313728   1.072   4.274   0.911 -0.2738  0.3452 -0.6122
  935MPD2    C413729   1.185   4.247   0.846  0.0345  0.3886  0.2175
  935MPD2    C513730   1.197   4.134   0.771 -0.3361  0.1981 -0.4152
  935MPD2     H13731   0.859   4.209   0.934 -1.1861  0.3308 -2.9551
  935MPD2    H113732   1.262   4.323   0.854  2.2954 -1.6294 -2.1739
  935MPD2    H213733   1.102   3.975   0.675 -0.4297  1.3068 -1.1410
  935MPD2    H313734   1.291   4.112   0.721 -0.1590 -0.6507  0.2793
  935MPD2     N13735   1.082   4.393   0.997 -0.1156 -0.0200 -0.3201
  935MPD2    H513736   1.169   4.444   1.009  2.2916 -4.0040 -0.7758
  935MPD2    N113737   0.845   4.018   0.776 -0.3105  0.1118  0.3126
  935MPD2    H713738   0.753   4.059   0.787 -0.6835 -0.1082 -1.9363
  936MPD2     C13739   3.420   1.670  12.283 -0.2115  0.9236  0.5597
  936MPD2    C113740   3.522   1.745  12.339 -0.1826  0.3944 -0.2826
  936MPD2    C213741   3.558   1.859  12.279  0.3516 -0.4626 -0.2180
  936MPD2    C313742   3.501   1.908  12.167 -0.2944  0.7907 -0.0239
  936MPD2    C413743   3.391   1.837  12.111  0.4001  0.3420 -0.5594
  936MPD2    C513744   3.358   1.712  12.169  0.3055 -0.2992 -1.1009
  936MPD2     H13745   3.634   1.919  12.329 -0.6819  0.0501  0.7493
  936MPD2    H113746   3.323   1.870  12.033  1.8792  1.1240 -1.5245
  936MPD2    H213747   3.404   1.571  12.323  0.9708  0.2151 -0.7272
  936MPD2    H313748   3.285   1.646  12.123  0.1933 -1.8680  1.3489
  936MPD2     N13749   3.514   2.037  12.108 -0.8436 -0.0479 -0.1252
  936MPD2    H513750   3.440   2.067  12.045 -0.0450  1.8309 -0.1574
  936MPD2    N113751   3.590   1.702  12.458  0.2866 -0.1996 -0.1767
  936MPD2    H713752   3.657   1.756  12.513 -2.6873  1.9835  1.2832
  937MPD2     C13753   1.770   3.490  12.105 -0.6273 -0.0355 -0.2611
  937MPD2    C113754   1.707   3.611  12.093  0.4273  0.2714 -0.1069
  937MPD2    C213755   1.743   3.694  11.996  0.1505  0.2989  0.3294
  937MPD2    C313756   1.846   3.664  11.916 -0.4102  0.3070  0.5539
  937MPD2    C413757   1.911   3.542  11.926  1.1748  0.1824  0.3405
  937MPD2    C513758   1.872   3.460  12.027 -0.6210 -0.0330 -0.1660
  937MPD2     H13759   1.706   3.794  11.979 -3.0301 -1.0706 -0.8526
  937MPD2    H113760   1.991   3.516  11.856  1.2513  2.2640 -0.3348
  937MPD2    H213761   1.748   3.414  12.179 -0.3193 -0.5135 -0.6605
  937MPD2    H313762   1.937   3.373  12.037 -2.2327 -1.0798  1.1368
  937MPD2     N13763   1.891   3.762  11.828  0.4552  0.3471 -0.1479
  937MPD2    H513764   1.856   3.857  11.832  1.1480  0.6708 -2.0877
  937MPD2    N113765   1.658   3.668  12.217 -0.3704 -0.1731 -0.4191
  937MPD2    H713766   1.647   3.769  12.223  2.4328  0.0717  0.5312
  938MPD2     C13767   4.471   4.564   0.602 -0.5702  0.0760  0.0646
  938MPD2    C113768   4.550   4.630   0.691 -0.1176  0.8419 -0.3367
  938MPD2    C213769   4.587   4.569   0.808 -0.4476  0.0193 -0.0436
  938MPD2    C313770   4.528   4.445   0.849 -0.3970 -0.1571 -0.0054
  938MPD2    C413771   4.447   4.380   0.759 -0.0950 -0.2902  0.1443
  938MPD2    C513772   4.432   4.432   0.633 -0.4541  0.0840 -0.8148
  938MPD2     H13773   4.659   4.615   0.875  0.2526 -2.1972  0.7275
  938MPD2    H113774   4.408   4.279   0.772  1.4052 -0.9232 -0.2335
  938MPD2    H213775   4.449   4.590   0.499 -0.9590 -0.5921 -0.0196
  938MPD2    H313776   4.392   4.367   0.555 -1.3821 -0.0123 -0.2559
  938MPD2     N13777   4.540   4.387   0.980  0.0426 -0.1814  0.4051
  938MPD2    H513778   4.486   4.305   1.007 -0.5874  0.1691  0.1958
  938MPD2    N113779   4.599   0.010   0.667  0.2212 -0.4423  0.0082
  938MPD2    H713780   4.675   0.036   0.728  1.4190 -1.4598 -1.0689
  939MPD2     C13781   0.500   1.086   1.019  0.0004  0.4220  0.2031
  939MPD2    C113782   0.622   1.041   1.053 -0.3549 -0.3040  0.3311
  939MPD2    C213783   0.713   0.994   0.955 -0.1269 -0.3893  0.0375
  939MPD2    C313784   0.669   0.984   0.824  0.9243  0.4178  0.4961
  939MPD2    C413785   0.532   1.014   0.793 -1.1347 -0.9326  0.4520
  939MPD2    C513786   0.457   1.071   0.890  0.7484  0.5950 -0.5833
  939MPD2     H13787   0.817   0.980   0.981 -0.4569 -0.9381  1.0961
  939MPD2    H113788   0.495   1.015   0.692 -0.4114 -0.8675  0.1896
  939MPD2    H213789   0.424   1.120   1.088 -0.8779  1.7720 -1.4389
  939MPD2    H313790   0.353   1.094   0.869  0.7801  1.0018 -0.3084
  939MPD2     N13791   0.769   0.957   0.728  0.0601 -0.4279 -0.3547
  939MPD2    H513792   0.865   0.971   0.758 -0.2658 -1.5642  1.1691
  939MPD2    N113793   0.658   1.072   1.188 -0.1155 -0.5131 -0.2131
  939MPD2    H713794   0.584   1.102   1.250 -1.0412 -1.6196 -0.7803
  940MPD2     C13795   4.557   1.814  13.463 -0.0173  0.4601  0.2122
  940MPD2    C113796   4.421   1.789  13.451  0.3415 -0.0182  0.2647
  940MPD2    C213797   4.369   1.820  13.327 -0.2103 -0.4063 -0.1836
  940MPD2    C313798   4.449   1.864  13.216 -0.1808  0.8611  0.0204
  940MPD2    C413799   4.585   1.873  13.234 -0.4713 -0.4776  0.1521
  940MPD2    C513800   4.638   1.855  13.356 -0.9374  0.4318  0.3819
  940MPD2     H13801   4.262   1.804  13.320 -0.0264 -1.3793 -0.7418
  940MPD2    H113802   4.642   1.925  13.157 -1.5682 -1.5465 -1.3958
  940MPD2    H213803   4.612   1.809  13.556 -0.6662  0.1769  0.5800
  940MPD2    H313804   0.001   1.872  13.377 -0.9528  0.5360  0.3754
  940MPD2     N13805   4.411   1.889  13.080 -0.9579 -0.1829  1.0537
  940MPD2    H513806   4.479   1.935  13.019  0.2720 -0.2184  2.4097
  940MPD2    N113807   4.340   1.741  13.561 -0.3022  0.3738  0.0887
  940MPD2    H713808   4.244   1.712  13.544 -1.0922  2.1790  1.3616
  941MPD2     C13809   4.141   0.368   9.978 -0.2962  0.5505  0.1305
  941MPD2    C113810   4.077   0.396  10.101 -0.4852 -0.5117  0.9743
  941MPD2    C213811   4.022   0.287  10.169  0.6216 -0.3161 -0.3832
  941MPD2    C313812   4.025   0.157  10.118  0.8243  0.4776 -0.9856
  941MPD2    C413813   4.085   0.133  10.000  0.0948  0.0659  0.0706
  941MPD2    C513814   4.137   0.241   9.927  0.0429  0.1957 -0.0878
  941MPD2     H13815   3.993   0.305  10.272 -0.9800 -1.7257 -0.5838
  941MPD2    H113816   4.098   0.037   9.950 -0.6493  0.1722 -0.3345
  941MPD2    H213817   4.164   0.450   9.911  1.9076 -0.7987 -0.7615
  941MPD2    H313818   4.173   0.220   9.827  0.9347 -0.4326  0.3681
  941MPD2     N13819   3.953   0.051  10.176 -0.4210  0.7952  0.2555
  941MPD2    H513820   3.935   4.707  10.125  1.8447  0.4689 -0.0119
  941MPD2    N113821   4.068   0.536  10.153 -0.2484  0.6641  0.4742
  941MPD2    H713822   4.055   0.548  10.253  1.7379 -0.7253  0.9012
  942MPD2     C13823   3.903   1.917   9.247 -0.0892 -0.3195 -0.0238
  942MPD2    C113824   3.872   2.045   9.207 -0.1816 -0.1260 -0.3769
  942MPD2    C213825   3.967   2.140   9.200  0.0649  0.6118  0.2007
  942MPD2    C313826   4.100   2.110   9.233  0.3153  0.4169  0.1564
  942MPD2    C413827   4.130   1.981   9.274 -0.8691 -0.9738  0.0705
  942MPD2    C513828   4.037   1.884   9.279  0.7092 -0.1593  0.4310
  942MPD2     H13829   3.929   2.230   9.153  0.6739 -0.5640 -2.5517
  942MPD2    H113830   4.231   1.953   9.300  0.3730  0.6803 -3.1041
  942MPD2    H213831   3.824   1.843   9.254  1.7481 -2.3250 -0.4801
  942MPD2    H313832   4.071   1.783   9.297  0.3013 -0.4823 -0.6198
  942MPD2     N13833   4.203   2.203   9.226 -0.3174  0.4053  0.5809
  942MPD2    H513834   4.296   2.164   9.242 -0.8742 -1.1119  0.1634
  942MPD2    N113835   3.741   2.069   9.167 -0.7720  0.6817  0.0510
  942MPD2    H713836   3.691   1.981   9.174 -0.3039  0.7037  3.9555
  943MPD2     C13837   1.997   1.356  10.210  0.3245  0.1733 -0.1342
  943MPD2    C113838   2.131   1.354  10.173 -0.3825  0.0603 -0.0897
  943MPD2    C213839   2.185   1.443  10.081  0.4335 -0.4355 -0.1314
  943MPD2    C313840   2.113   1.563  10.065 -0.0927 -0.4186 -0.3176
  943MPD2    C413841   1.985   1.571  10.109  0.6167 -0.7282  0.0258
  943MPD2    C513842   1.922   1.465  10.176  0.3136  0.0745  0.4618
  943MPD2     H13843   2.289   1.438  10.050  0.4397 -0.2961 -0.1322
  943MPD2    H113844   1.917   1.654  10.096  1.0175 -0.5428 -0.8862
  943MPD2    H213845   1.942   1.286  10.271  0.0907  1.1022  0.7173
  943MPD2    H313846   1.815   1.468  10.191  0.1204  0.4624 -0.9952
  943MPD2     N13847   2.173   1.675  10.002  0.1209  0.3373  0.0814
  943MPD2    H513848   2.139   1.768  10.024 -3.6357 -0.7860 -0.9416
  943MPD2    N113849   2.210   1.247  10.230  0.2962 -0.0977  0.3666
  943MPD2    H713850   2.164   1.196  10.304  0.8248 -0.9750  0.0899
  944MPD2     C13851   2.061   4.484  11.830  0.0669  0.3382 -0.5299
  944MPD2    C113852   1.998   4.553  11.731  0.2338  1.0043  0.2043
  944MPD2    C213853   2.011   4.688  11.720 -0.0981  0.8721  0.7941
  944MPD2    C313854   2.083   0.016  11.813 -0.2368 -0.2271 -1.4909
  944MPD2    C413855   2.150   4.692  11.913 -0.3592  0.3719  0.0214
  944MPD2    C513856   2.139   4.556  11.918 -0.3922  0.3717  0.4154
  944MPD2     H13857   1.957   0.001  11.643 -2.0047 -1.6741  0.3464
  944MPD2    H113858   2.210   0.004  11.986 -1.0398 -1.1657  1.7384
  944MPD2    H213859   2.045   4.377  11.844  0.5342  0.3690  0.2525
  944MPD2    H313860   2.194   4.503  11.995  1.5211  0.5506 -0.8270
  944MPD2     N13861   2.085   0.158  11.811  0.2433  0.1362  0.4721
  944MPD2    H513862   2.051   0.194  11.723  2.2524 -2.7264 -1.5083
  944MPD2    N113863   1.934   4.467  11.637 -0.5277 -0.5431  0.3521
  944MPD2    H713864   1.923   4.372  11.669 -0.8068 -0.9012 -0.8142
    1TMC1    C113865   0.437   1.825  14.296 -0.1268  0.5798  0.1485
    1TMC1    C213866   0.415   1.884  14.418 -0.0157  0.2189 -0.5488
    1TMC1    C313867   0.298   1.850  14.484  0.5024 -0.6920 -0.7863
    1TMC1    C413868   0.344   1.750  14.233  0.1949  0.8865 -0.2155
    1TMC1    C513869   0.225   1.735  14.299  0.4175  0.2420 -0.2526
    1TMC1    C613870   0.204   1.784  14.422 -0.1457  0.1219 -0.6692
    1TMC1     C13871   0.562   1.861  14.230  0.1767 -0.3772 -0.3330
    1TMC1     O13872   0.662   1.899  14.287 -0.3771  1.1272  0.2986
    1TMC1     H13873   0.489   1.951  14.459 -1.7684  1.4385  0.6474
    1TMC1    H113874   0.361   1.704  14.137 -2.5937 -1.9313  0.6572
    1TMC1    H213875   0.110   1.754  14.467  0.3735  0.4298  0.6328
    1TMC1    C713876   0.141   1.635  14.236  0.4643  0.3523  0.7374
    1TMC1    C813877   0.267   1.916  14.606  0.3197  0.0695 -0.1719
    1TMC1    O113878   0.149   1.616  14.116  0.3560 -0.2917 -0.5433
    1TMC1    O213879   0.158   1.924  14.657  0.0220 -0.5660 -0.1426
    1TMC1    O313880   0.137   1.529  14.331  0.2681 -0.2084 -0.0333
    1TMC1    H313881   0.166   1.555  14.420  0.2665  2.0908 -0.7081
    1TMC1    O513882   0.383   1.939  14.666  0.2646 -0.1439  0.3932
    1TMC1    H513883   0.458   1.892  14.623 -0.3166 -2.6787  2.1066
    2MPD2     C13884   0.782   1.960  13.778 -0.6453  0.1974 -0.5034
    2MPD2    C113885   0.650   1.956  13.757 -0.2578  0.7590 -0.2668
    2MPD2    C213886   0.577   1.922  13.864 -0.5155 -0.1255 -0.3196
    2MPD2    C313887   0.628   1.904  13.996  0.4031  0.5719 -0.1314
    2MPD2    C413888   0.763   1.913  14.012 -0.2857  0.5590 -0.2527
    2MPD2    C513889   0.840   1.937  13.901 -0.4218  0.5400 -0.3282
    2MPD2     H13890   0.468   1.918  13.861 -0.5872 -1.0506  3.0054
    2MPD2    H113891   0.811   1.879  14.103 -0.8705  1.4172  0.3697
    2MPD2    H213892   0.846   1.983  13.694  0.2240  0.8879  0.3539
    2MPD2    H313893   0.949   1.937  13.905 -0.7022  0.6895  6.2361
    2MPD2     N13894   0.536   1.868  14.095 -0.9539  0.4434  0.0401
    2MPD2    H513895   0.443   1.856  14.058 -0.5139 -1.8260 -0.3476
    2MPD2    N113896   0.593   1.989  13.629 -0.1138 -0.5142 -0.5327
    2MPD2    H713897   0.664   2.001  13.558  0.3616 -2.2094 -0.3553
    3TMC2    C113898   0.438   2.017  13.452 -0.3761 -0.1062  0.4882
    3TMC2    C213899   0.533   2.103  13.392 -0.3008  0.3462 -0.7840
    3TMC2    C313900   0.483   2.183  13.293 -0.2164 -0.2615  0.5917
    3TMC2    C413901   0.310   2.007  13.417  0.3171  0.4446 -0.1834
    3TMC2    C513902   0.270   2.095  13.322 -0.0998  0.0494  0.0387
    3TMC2    C613903   0.350   2.184  13.253  0.7683 -0.3870 -0.5097
    3TMC2     C13904   0.462   1.969  13.589  0.6360  0.6481 -0.1785
    3TMC2     O13905   0.374   1.911  13.652  0.3033 -0.5662  0.1028
    3TMC2     H13906   0.633   2.116  13.430 -0.7289  3.8446 -0.8854
    3TMC2    H113907   0.247   1.929  13.459  0.6566 -0.2644 -0.9853
    3TMC2    H213908   0.322   2.248  13.170  0.3339  2.5341  1.8495
    3TMC2    C713909   0.130   2.122  13.324  0.2989  0.0734  0.7339
    3TMC2    C813910   0.589   2.276  13.239  0.2157  0.0302 -0.5246
    3TMC2    O113911   0.073   2.081  13.421 -0.5260 -0.0009 -0.3353
    3TMC2    O213912   0.556   2.379  13.180  0.2205  0.1612  0.5966
    3TMC2    O513913   0.699   2.197  13.217 -0.0050  0.6382  0.2637
    3TMC2    H513914   0.708   2.138  13.295  0.6922  2.7800  1.7979
    4TMC2    C113915   3.990   2.045  13.493 -0.7027 -0.5625  0.5271
    4TMC2    C213916   3.981   2.024  13.631  0.1660  1.3509 -1.0119
    4TMC2    C313917   4.100   2.013  13.698 -0.4327 -0.1198 -0.7476
    4TMC2    C413918   4.105   2.071  13.423 -0.5565  0.0378 -0.3043
    4TMC2    C513919   4.218   2.069  13.498  0.1418  0.8400  0.1503
    4TMC2    C613920   4.217   2.042  13.636 -0.2848  0.1406  0.2037
    4TMC2     C13921   3.860   2.054  13.424  0.3781 -0.2879 -0.2078
    4TMC2     O13922   3.763   2.011  13.485 -0.5089  0.4703  0.0017
    4TMC2     H13923   3.883   2.007  13.675  1.0245  1.5469  0.9645
    4TMC2    H113924   4.113   2.093  13.317  2.5308 -1.8377 -0.4536
    4TMC2    H213925   4.312   2.044  13.687  0.6536 -2.6001 -1.4335
    4TMC2    C713926   4.340   2.127  13.449 -0.2259 -0.2934  1.3180
    4TMC2    C813927   4.103   2.014  13.845 -0.1593  0.5896  0.3321
    4TMC2    O113928   4.439   2.115  13.523  0.4636 -0.6502 -0.2732
    4TMC2    O213929   4.207   2.032  13.900  0.0555  0.1476 -0.1722
    4TMC2    O513930   4.014   1.925  13.902  0.5087  0.5212 -0.3855
    4TMC2    H513931   3.934   1.900  13.850  0.4402  0.2399 -0.1414
    5MPD2     C13932   3.577   2.154  13.012  0.2188 -0.1727  0.5073
    5MPD2    C113933   3.699   2.226  13.004 -0.8121  0.8206 -0.2274
    5MPD2    C213934   3.792   2.211  13.112  0.0560  0.3539 -0.0586
    5MPD2    C313935   3.771   2.129  13.214  0.3290 -0.1357  0.0723
    5MPD2    C413936   3.648   2.058  13.222  0.2061  0.4921  0.9732
    5MPD2    C513937   3.555   2.081  13.126 -0.3619  0.0463 -0.3430
    5MPD2     H13938   3.884   2.269  13.109  1.1545 -1.5989 -2.9824
    5MPD2    H113939   3.625   1.995  13.307 -0.3848  1.5678  1.6219
    5MPD2    H213940   3.500   2.166  12.937  1.0117  0.6599 -0.1782
    5MPD2    H313941   3.462   2.025  13.126  1.9797 -3.8569  0.2099
    5MPD2     N13942   3.867   2.137  13.312 -0.5765 -0.3482 -0.1530
    5MPD2    H513943   3.954   2.184  13.288 -0.9888 -0.0155 -0.9753
    5MPD2    N113944   3.721   2.317  12.896  0.0478  0.2787 -0.4477
    5MPD2    H713945   3.641   2.323  12.834  0.2045 -1.2143 -0.8065
    6MPD1     C13946   3.929   4.198  12.939  0.2335 -0.4209 -1.0006
    6MPD1    C113947   3.814   4.150  12.879  0.3133  0.8119 -0.5986
    6MPD1    C213948   3.784   4.014  12.896  0.3658 -0.0488  0.0407
    6MPD1    C313949   3.866   3.933  12.974  0.3432  0.3859 -0.1106
    6MPD1    C413950   3.985   3.989  13.024  0.6144 -0.0161  0.1003
    6MPD1    C513951   4.015   4.119  13.007 -1.1338 -0.2869  0.2836
    6MPD1     H13952   3.692   3.974  12.857 -0.4780 -0.2630  2.2671
    6MPD1    H113953   4.061   3.923  13.063  0.9316 -0.3472 -1.0665
    6MPD1    H213954   3.952   4.304  12.939  1.8259 -0.7747 -1.2807
    6MPD1    H313955   4.106   4.157  13.052 -1.6118  0.8451  0.2766
    6MPD1     N13956   3.841   3.798  12.993  1.0598 -0.1387 -0.8896
    6MPD1    H513957   3.913   3.742  13.038  1.2193  0.0436 -0.9151
    6MPD1    N113958   3.753   4.242  12.791 -0.2039 -0.7350  0.0431
    6MPD1    H613959   3.742   4.330  12.842 -0.7245 -1.5190  1.2880
    6MPD1    H713960   3.656   4.212  12.782 -0.6553  1.3157 -2.0417
    7MPD2     C13961   3.348   3.077  12.853  0.5831  0.4186 -0.0028
    7MPD2    C113962   3.485   3.075  12.855 -0.4456  0.9584  0.6598
    7MPD2    C213963   3.553   2.967  12.814 -0.2192  0.2605  0.2590
    7MPD2    C313964   3.493   2.853  12.772  0.5813 -0.3179 -0.8326
    7MPD2    C413965   3.358   2.847  12.784 -0.0543  0.4333 -0.8856
    7MPD2    C513966   3.282   2.960  12.824  0.4250 -0.1963  0.8389
    7MPD2     H13967   3.660   2.981  12.805 -0.1915 -0.5289 -0.5968
    7MPD2    H113968   3.303   2.756  12.764  0.2138  0.1838 -0.4822
    7MPD2    H213969   3.291   3.168  12.866 -0.8383 -0.7111  1.6663
    7MPD2    H313970   3.174   2.951  12.817  0.4593 -0.3294  0.4210
    7MPD2     N13971   3.557   2.745  12.720 -0.1653  0.1854  1.0662
    7MPD2    H513972   3.497   2.667  12.694  1.8886 -1.5791  1.5907
    7MPD2    N113973   3.565   3.188  12.898  0.6971 -0.1426 -0.0200
    7MPD2    H713974   3.666   3.188  12.888  0.5579 -0.5765 -1.5245
    8TMC3    C113975   3.753   2.629  12.634  0.0837 -0.1033 -0.0329
    8TMC3    C213976   3.737   2.532  12.733 -0.1519 -0.3177 -0.8717
    8TMC3    C313977   3.850   2.461  12.760 -0.7842  0.0221  0.4213
    8TMC3    C413978   3.879   2.650  12.578 -0.4879  0.2308 -0.3699
    8TMC3    C513979   3.992   2.584  12.620 -0.5860  0.5326 -0.2772
    8TMC3    C613980   3.973   2.486  12.707 -0.7345  0.5741  0.4181
    8TMC3     C13981   3.688   2.753  12.673 -0.1223  0.3011  0.9855
    8TMC3     O13982   3.764   2.847  12.662  0.0476 -0.2634  0.1048
    8TMC3     H13983   3.661   2.522  12.810 -2.0058  1.6966 -2.4534
    8TMC3    H113984   3.887   2.744  12.524 -1.3292  1.6856  2.0350
    8TMC3    H213985   4.064   2.438  12.741  0.0949  0.9832 -1.2177
    8TMC3    C713986   4.082   2.687  12.666  0.5643  0.0045 -0.3088
    8TMC3    C813987   3.847   2.365  12.871 -0.4087 -0.5075 -0.6842
    8TMC3    O113988   4.195   2.655  12.687  0.1305 -0.4431  0.3400
    8TMC3    O213989   3.957   2.345  12.924 -0.1076  0.2244 -0.3686
    9TMC3    C113990   3.742   3.592  12.981 -0.9628 -0.2034 -0.3788
    9TMC3    C213991   3.869   3.543  12.968  0.0631  0.0498 -0.4620
    9TMC3    C313992   3.872   3.401  12.975 -0.4134  0.1405  0.0135
    9TMC3    C413993   3.626   3.521  12.997  0.8076  0.1842 -0.0562
    9TMC3    C513994   3.633   3.385  12.990 -0.2917  0.2873 -0.6706
    9TMC3    C613995   3.755   3.330  12.991  0.0176 -0.8231  0.0658
    9TMC3     C13996   3.724   3.735  12.962  0.7163  0.5962  0.1132
    9TMC3     O13997   3.612   3.781  12.943 -0.2759  0.2233 -0.2869
    9TMC3     H13998   3.960   3.600  12.955  0.6878 -0.3904  2.0070
    9TMC3    H113999   3.523   3.553  12.988  0.7397 -0.1995 -0.6614
    9TMC3    H214000   3.772   3.233  13.037 -1.2412 -1.2133 -0.2968
    9TMC3    C714001   3.518   3.306  12.950 -0.6507  0.3894  0.2215
    9TMC3    C814002   3.997   3.339  12.959 -0.4858 -0.4058  0.5166
    9TMC3    O114003   3.405   3.351  12.964  0.3181  0.1816  0.2236
    9TMC3    O214004   4.103   3.402  12.959  0.0682  0.7564 -0.1049
   10MPD2     C14005   4.228   2.940  12.739  0.1376  0.3741 -0.2302
   10MPD2    C114006   4.094   2.913  12.751 -0.0283 -0.8078 -0.1475
   10MPD2    C214007   4.021   3.009  12.816  0.2174  0.2177 -0.8108
   10MPD2    C314008   4.071   3.120  12.875  0.3270  0.1803 -0.1590
   10MPD2    C414009   4.204   3.153  12.865  0.5653 -0.4306 -0.1958
   10MPD2    C514010   4.280   3.060  12.792 -0.5849  0.1967  0.2615
   10MPD2     H14011   3.914   2.995  12.825  0.6523 -1.2262  2.0250
   10MPD2    H114012   4.248   3.246  12.901 -0.9375 -0.3984  1.5737
   10MPD2    H214013   4.293   2.884  12.672  1.0657  2.0465 -0.7257
   10MPD2    H314014   4.386   3.077  12.776 -0.3306  0.6779  2.4392
   10MPD2     N14015   3.976   3.210  12.929 -0.1365  0.3326  0.2389
   10MPD2    H514016   3.883   3.177  12.906  0.2133 -1.1265  0.9361
   10MPD2    N114017   4.024   2.807  12.703  0.1234 -0.3398  0.1769
   10MPD2    H714018   3.923   2.809  12.702  0.1239  0.0027  0.5679
   11MPD2     C14019   4.651   2.311  13.095 -0.6008 -0.2719 -0.3172
   11MPD2    C114020   4.680   2.231  13.206  0.1330  0.0911 -0.4103
   11MPD2    C214021   4.573   2.193  13.284  0.2345  0.5619 -0.8045
   11MPD2    C314022   4.446   2.243  13.262 -0.2868 -0.3012 -0.7308
   11MPD2    C414023   4.427   2.332  13.160 -0.7986 -0.4404  0.6353
   11MPD2    C514024   4.527   2.365  13.075  0.4878  0.1640 -0.1756
   11MPD2     H14025   4.585   2.119  13.362 -2.9016 -0.3318 -1.1715
   11MPD2    H114026   4.331   2.378  13.142 -0.4824  0.0007  0.0709
   11MPD2    H214027   4.733   2.340  13.030  0.1378 -1.3537  0.1271
   11MPD2    H314028   4.520   2.427  12.986  0.2907  0.9170  0.3595
   11MPD2     N14029   4.337   2.194  13.329  0.0046  0.2087  0.0273
   11MPD2    H514030   4.253   2.240  13.295  0.0305 -0.9194 -1.5594
   11MPD2    N114031   0.070   2.195  13.222 -0.1152  0.1095  0.4703
   11MPD2    H714032   0.129   2.238  13.152 -1.2274  1.8823  0.6126
    1MPD1     C14033   4.278   3.096  16.579  0.0149  0.1315 -0.4890
    1MPD1    C114034   4.183   3.190  16.559  0.2291  0.2631  0.0404
    1MPD1    C214035   4.208   3.324  16.573  0.1054  0.4503  0.0859
    1MPD1    C314036   4.337   3.368  16.604  0.6546 -0.1266  0.7021
    1MPD1    C414037   4.435   3.268  16.626 -0.1180  0.8257 -0.1319
    1MPD1    C514038   4.408   3.135  16.603 -0.2012  0.5428 -0.0485
    1MPD1     H14039   4.124   3.392  16.562 -0.6712 -0.2926  1.4067
    1MPD1    H114040   4.528   3.294  16.676  0.7088 -0.7349 -0.8568
    1MPD1    H214041   4.252   2.990  16.580  1.4998 -0.2349 -0.7584
    1MPD1    H314042   4.480   3.061  16.637 -1.5402 -0.0034  1.6419
    1MPD1     N14043   4.368   3.506  16.630 -0.3276  0.7643  0.1332
    1MPD1    H514044   4.448   3.529  16.689  0.0834 -1.3732  0.3998
    1MPD1    N114045   4.052   3.155  16.552  0.2891  0.4118  0.9057
    1MPD1    H614046   3.993   3.216  16.497 -1.1282 -0.9625  0.8933
    1MPD1    H714047   4.022   3.059  16.536 -1.6764  0.8529  1.9710
    2MPD1     C14048   3.974   4.011  17.412  0.5180  0.8057  0.4499
    2MPD1    C114049   4.104   4.054  17.394 -0.1929  0.4901  0.2847
    2MPD1    C214050   4.148   4.047  17.268  0.2307 -0.1784  0.3897
    2MPD1    C314051   4.083   3.986  17.163 -0.0030  0.2458 -0.0063
    2MPD1    C414052   3.960   3.938  17.189  0.0145 -0.0318  0.0363
    2MPD1    C514053   3.901   3.953  17.318  0.6368 -0.0016  0.3050
    2MPD1     H14054   4.245   4.078  17.230  0.7687 -3.0277 -0.5262
    2MPD1    H114055   3.898   3.882  17.120 -2.8327 -0.0080  2.5436
    2MPD1    H214056   3.922   4.022  17.507 -2.2577  1.1911 -1.1334
    2MPD1    H314057   3.796   3.930  17.333  0.0331  2.3950 -0.1795
    2MPD1     N14058   4.150   3.961  17.042  0.5731  0.3196  0.5136
    2MPD1    H514059   4.238   4.008  17.024 -0.2209  0.7472 -2.2423
    2MPD1    N114060   4.186   4.074  17.502  0.2037  0.3216 -0.5761
    2MPD1    H614061   4.276   4.119  17.485  0.4742 -0.1568 -0.4124
    2MPD1    H714062   4.144   4.120  17.583  1.0564  0.5143 -0.2483
    3TMC3    C114063   4.229   3.843  16.857  0.4811 -0.3668  0.1007
    3TMC3    C214064   4.353   3.841  16.916  0.2090 -0.1985  0.3584
    3TMC3    C314065   4.459   3.795  16.844  0.2574 -0.1624 -0.5793
    3TMC3    C414066   4.208   3.790  16.729  0.4122 -0.1680 -0.3744
    3TMC3    C514067   4.317   3.731  16.664 -0.4108 -0.1884 -0.9221
    3TMC3    C614068   4.443   3.729  16.725  0.0081 -0.1963  0.5532
    3TMC3     C14069   4.115   3.882  16.941 -0.0115 -0.4525  0.0329
    3TMC3     O14070   4.004   3.847  16.911 -0.5174  0.1974 -0.0015
    3TMC3     H14071   4.378   3.886  17.012 -0.3114 -0.6341  0.7010
    3TMC3    H114072   4.110   3.784  16.683 -0.0413 -2.5688  0.9008
    3TMC3    H214073   4.530   3.690  16.673 -1.1139 -0.3258 -1.2189
    3TMC3    C714074   4.288   3.610  16.592  0.0314  0.6341  0.1585
    3TMC3    C814075   4.583   3.856  16.868  0.4309  0.4645  0.1136
    3TMC3    O114076   4.193   3.612  16.518 -0.1487 -0.6486  0.3530
    3TMC3    O214077   4.601   3.899  16.982 -0.0473 -0.3614  0.0025
    4MPD1     C14078   0.270   4.088  16.706  0.5010 -0.0995  0.3266
    4MPD1    C114079   0.246   4.021  16.824 -0.4581  0.0959 -0.5659
    4MPD1    C214080   0.124   3.959  16.845 -0.0744  0.0347 -0.0696
    4MPD1    C314081   0.029   3.960  16.744  0.2679 -0.5816  0.1245
    4MPD1    C414082   0.061   4.017  16.625 -0.4203  0.2552  0.0278
    4MPD1    C514083   0.179   4.085  16.605  0.2178  0.1425 -0.4818
    4MPD1     H14084   0.103   3.905  16.936  1.7375  0.9150  0.8754
    4MPD1    H114085   4.737   4.006  16.539 -1.0941 -0.0932  0.5872
    4MPD1    H214086   0.369   4.129  16.688  0.9490 -0.9314  0.8738
    4MPD1    H314087   0.195   4.128  16.507 -1.5742  0.8115 -0.4689
    4MPD1     N14088   4.641   3.895  16.749  0.3472 -0.3204 -0.1858
    4MPD1    H514089   4.585   3.878  16.666  0.6679 -2.3617  0.0096
    4MPD1    N114090   0.352   4.010  16.915 -0.3630 -0.0842  0.0811
    4MPD1    H614091   0.390   4.102  16.939 -0.6423  0.3530 -1.1379
    4MPD1    H714092   0.325   3.976  17.007  2.5093 -1.0197  0.5739
    1TCq1    O114093   4.124   3.007  11.685 -0.1427  0.0962 -0.4180
    1TCq1    C114094   4.229   3.091  11.726  0.2756  0.6200 -0.4684
    1TCq1    O214095   4.266   3.104  11.845 -0.5928  0.1984 -0.4191
    1TCq1    C214096   4.247   3.188  11.623  0.0650 -0.5864 -0.4738
    1TCq1    C314097   4.211   3.145  11.497 -0.5492 -0.0971 -0.7201
    1TCq1    C414098   4.165   3.238  11.410  0.5578 -0.1562 -0.0678
    1TCq1    C514099   4.108   3.353  11.458  0.6164 -0.6454 -0.1990
    1TCq1    C614100   4.138   3.389  11.583  0.3711 -0.3965 -0.1423
    1TCq1    C714101   4.199   3.310  11.667  0.4561  0.8709  0.1932
    1TCq1    C814102   4.052   3.483  11.639  0.0021  0.2994  0.1284
    1TCq1    O414103   4.014   3.445  11.748 -0.0929 -0.0945  0.0728
    1TCq1    C914104   4.105   3.182  11.290  0.5315 -0.1229  0.4261
    1TCq1    O514105   4.006   3.237  11.242 -0.1623  0.1422  0.2207
    1TCq1    O614106   4.132   3.059  11.277  0.1698  0.4707  0.8723
    1TCq1    H114107   4.081   3.027  11.599 -2.9476 -0.3189  0.8940
    1TCq1    H214108   4.248   3.048  11.468  1.9218  0.1878  1.5003
    1TCq1    H314109   4.048   3.419  11.396 -1.6335 -0.6223  1.9825
    1TCq1    H414110   4.216   3.326  11.772 -2.0465 -0.6339  0.8262
    2MPD1     C14111   3.755   3.892  11.596 -0.4435 -0.3845 -0.7078
    2MPD1    C114112   3.818   3.886  11.482  0.4390 -0.3931 -0.2132
    2MPD1    C214113   3.914   3.783  11.471 -0.0157  0.2261 -0.6123
    2MPD1    C314114   3.930   3.691  11.573 -0.3107 -0.1990  0.0836
    2MPD1    C414115   3.846   3.689  11.679  0.3623  1.0482  0.4580
    2MPD1    C514116   3.761   3.792  11.690  0.0379 -0.1485 -0.0650
    2MPD1     H14117   3.987   3.782  11.392  0.8693  0.3440  0.2064
    2MPD1    H114118   3.867   3.626  11.765 -0.5703  2.4802  1.7392
    2MPD1    H214119   3.698   3.980  11.621  0.7218  0.5848 -1.4822
    2MPD1    H314120   3.710   3.799  11.785 -0.2545  1.9013 -0.3711
    2MPD1     N14121   4.034   3.594  11.559  0.1159 -0.3412  0.4256
    2MPD1    H514122   4.100   3.601  11.482 -1.8029 -0.4632 -1.2506
    2MPD1    N114123   3.811   3.998  11.393  0.1784 -0.4337 -0.2825
    2MPD1    H614124   3.831   3.973  11.296  0.0413 -0.7188 -0.2366
    2MPD1    H714125   3.722   4.047  11.390  0.5648  0.2229 -1.0932
    1TMC1    C114126   3.747   1.056   0.546  0.6013 -0.1526 -0.0721
    1TMC1    C214127   3.646   1.149   0.560  0.0421  0.1098  0.5682
    1TMC1    C314128   3.624   1.238   0.464  0.3880 -0.3730 -0.0098
    1TMC1    C414129   3.792   1.029   0.412  0.2664  0.5733  0.3585
    1TMC1    C514130   3.752   1.118   0.313  0.5360 -0.4716 -0.0342
    1TMC1    C614131   3.668   1.222   0.335  0.0427 -0.6526 -0.2454
    1TMC1     C14132   3.793   0.998   0.664  0.8411 -0.0265  0.3527
    1TMC1     O14133   3.777   1.073   0.758  0.0383  0.4289  0.0673
    1TMC1     H14134   3.604   1.181   0.654 -0.8864 -0.6543  0.4104
    1TMC1    H114135   3.877   0.964   0.396  0.5762  1.2018 -0.5232
    1TMC1    H214136   3.647   1.295   0.257 -1.3762 -1.0012 -0.1762
    1TMC1    C714137   3.848   1.132   0.197 -0.1628 -0.2096  0.7306
    1TMC1    C814138   3.500   1.314   0.483 -0.5620  0.6179 -0.0127
    1TMC1    O114139   3.967   1.142   0.206  0.0645 -0.5385 -0.8129
    1TMC1    O214140   3.480   1.416   0.416 -0.2869  0.6195 -0.7391
    1TMC1    O314141   3.774   1.174   0.093  0.4917  0.6245  0.1062
    1TMC1    H314142   3.679   1.155   0.101  0.9669 -2.4820 -1.4047
    1TMC1    O514143   3.407   1.212   0.476 -0.3022 -0.6208 -0.4317
    1TMC1    H514144   3.443   1.121   0.491 -3.4540 -1.1616  3.8978
    2MPD1     C14145   4.169   0.714   0.883  0.3446  0.3389 -0.2059
    2MPD1    C114146   4.150   0.669   0.748 -0.2335 -0.8080  0.3398
    2MPD1    C214147   4.048   0.731   0.676 -0.1090  0.5568  0.2204
    2MPD1    C314148   3.969   0.828   0.734  0.0370  0.1289 -0.1094
    2MPD1    C414149   3.991   0.871   0.865 -0.2520  0.1594 -0.0566
    2MPD1    C514150   4.093   0.815   0.933  0.1675 -0.5167 -0.0500
    2MPD1     H14151   4.023   0.696   0.576  3.7513 -1.5854  0.0281
    2MPD1    H114152   3.931   0.949   0.911 -1.8651 -1.5065  0.6860
    2MPD1    H214153   4.241   0.671   0.953 -1.2000  0.1498  1.2594
    2MPD1    H314154   4.119   0.857   1.029  2.8587 -2.0019 -0.1225
    2MPD1     N14155   3.873   0.887   0.648 -0.0763  0.3361 -0.3310
    2MPD1    H514156   3.859   0.837   0.561  1.6027 -1.7593  0.6179
    2MPD1    N114157   4.215   0.551   0.718 -0.6093  0.0324 -0.5780
    2MPD1    H614158   4.313   0.542   0.745 -0.1479  1.3422 -1.7945
    2MPD1    H714159   4.196   0.528   0.620 -0.5652  0.8223 -0.7708
    1MPD1     C14160   4.684   2.752  12.494 -1.2377 -0.6081  0.1525
    1MPD1    C114161   0.076   2.797  12.491 -0.1514  0.2807  0.6402
    1MPD1    C214162   0.098   2.927  12.510 -0.1003 -0.1823  0.7358
    1MPD1    C314163   4.739   3.016  12.560  0.3041  0.5379  0.2629
    1MPD1    C414164   4.613   2.965  12.580  0.1381  0.5755  0.2242
    1MPD1    C514165   4.589   2.832  12.548  0.7798 -0.7198  0.5154
    1MPD1     H14166   0.197   2.970  12.503 -1.2784  2.2471 -1.3561
    1MPD1    H114167   4.527   3.022  12.614 -0.7852  0.1376 -1.3493
    1MPD1    H214168   4.648   2.652  12.473  1.4284 -1.1918 -1.7060
    1MPD1    H314169   4.493   2.789  12.572  0.5887 -0.8721 -0.5030
    1MPD1     N14170   0.040   3.140  12.590  0.0442 -0.3100 -0.6321
    1MPD1    H514171   0.138   3.161  12.572  0.2397  0.1073  0.9282
    1MPD1    N114172   0.178   2.712  12.441 -0.1179  0.8628 -0.3683
    1MPD1    H614173   0.266   2.728  12.489  0.6571  0.2119 -1.5782
    1MPD1    H714174   0.167   2.612  12.459 -1.2177  1.0292 -0.1300
    2MPD1     C14175   4.444   4.015  12.078 -0.4486  0.2895  0.3834
    2MPD1    C114176   4.348   4.070  11.992 -0.1051 -0.2323  0.2941
    2MPD1    C214177   4.393   4.096  11.859  0.1748 -0.5155  0.1357
    2MPD1    C314178   4.520   4.066  11.813 -0.8533  0.1997 -0.1367
    2MPD1    C414179   4.606   4.002  11.897  0.0455 -0.2186  0.0804
    2MPD1    C514180   4.569   3.978  12.028  0.1927 -0.2280 -0.0941
    2MPD1     H14181   4.319   4.140  11.793 -0.5829 -0.9330  0.7129
    2MPD1    H114182   4.704   3.974  11.860 -0.6041 -1.3244 -0.7873
    2MPD1    H214183   4.428   3.997  12.184 -0.4563 -0.4205  0.2560
    2MPD1    H314184   4.636   3.943  12.106 -1.2998 -2.0998  0.3673
    2MPD1     N14185   4.566   4.104  11.684  0.0889 -0.7372  0.0081
    2MPD1    H514186   4.660   4.070  11.664 -0.0047 -1.4713  0.8242
    2MPD1    N114187   4.234   4.132  12.037  0.1897  0.2844 -0.0999
    2MPD1    H614188   4.160   4.147  11.968 -1.4278  0.5479  1.7112
    2MPD1    H714189   4.191   4.091  12.119 -0.9918  0.6100 -0.5548
    3MPD1     C14190   4.491   3.630  10.954 -0.2071 -0.1177 -0.3062
    3MPD1    C114191   4.389   3.678  11.028 -0.1764 -0.5159  0.0900
    3MPD1    C214192   4.390   3.809  11.073  0.1153 -0.3200  0.2380
    3MPD1    C314193   4.506   3.877  11.068  0.3206  0.6400  0.0712
    3MPD1    C414194   4.618   3.822  11.004  0.1251 -0.3855 -0.0273
    3MPD1    C514195   4.606   3.705  10.937  0.1582 -0.0778 -0.1891
    3MPD1     H14196   4.304   3.856  11.121 -0.4602 -2.1186  0.9690
    3MPD1    H114197   4.719   3.860  10.993  1.1088 -2.5515  1.5774
    3MPD1    H214198   4.482   3.531  10.912 -0.3312  0.5872 -1.9185
    3MPD1    H314199   4.682   3.682  10.863 -2.0002 -1.9369 -1.8264
    3MPD1     N14200   4.517   3.997  11.146 -0.3168 -0.3950  0.2213
    3MPD1    H514201   4.439   4.023  11.204  0.0583 -0.6950  0.8563
    3MPD1    N114202   4.276   3.601  11.032 -1.1458  0.3882 -0.6406
    3MPD1    H614203   4.219   3.638  11.108 -1.0496 -1.3674  0.2844
    3MPD1    H714204   4.290   3.507  11.071  1.7169  0.8563 -0.6111
    4MPD2     C14205   4.701   3.939  12.522  0.1635 -0.3695  0.0170
    4MPD2    C114206   0.068   3.861  12.536 -0.3635 -0.3213  0.3940
    4MPD2    C214207   0.182   3.888  12.464  0.4145 -0.8913 -1.6615
    4MPD2    C314208   0.185   3.998  12.379  0.4664 -0.1922 -0.1294
    4MPD2    C414209   0.071   4.069  12.360 -0.8150 -0.2686  0.1658
    4MPD2    C514210   4.700   4.036  12.432 -0.5019  0.5341  0.1656
    4MPD2     H14211   0.256   3.810  12.470  1.3727  0.2154  1.1821
    4MPD2    H114212   0.066   4.149  12.287  1.5664  1.1490  1.5563
    4MPD2    H214213   4.608   3.919  12.575 -0.2988  0.5118 -0.4649
    4MPD2    H314214   4.613   4.097  12.412 -1.8975 -1.7411 -0.6540
    4MPD2     N14215   0.296   4.035  12.295  0.4542 -0.9371 -0.6397
    4MPD2    H514216   0.284   4.118  12.239  0.0530  0.7979  2.0304
    4MPD2    N114217   0.077   3.751  12.618  0.0656 -0.0164 -0.2719
    4MPD2    H714218   0.172   3.715  12.629 -0.2213 -0.7265 -0.1308
    5TMC3    C114219   0.037   3.579  12.760 -0.7162 -0.3081  0.2067
    5TMC3    C214220   4.714   3.467  12.708  0.3285 -0.1155  0.0670
    5TMC3    C314221   0.041   3.357  12.675 -0.5123 -0.0386  0.4302
    5TMC3    C414222   0.168   3.576  12.774  0.2725  0.3036  0.0352
    5TMC3    C514223   0.240   3.471  12.726  0.7107  0.1217 -0.2628
    5TMC3    C614224   0.177   3.350  12.685 -0.0589  0.7307 -0.0553
    5TMC3     C14225   4.729   3.698  12.706 -0.4956  0.7514  0.1630
    5TMC3     O14226   4.612   3.715  12.707  0.2371  0.4954  0.1282
    5TMC3     H14227   4.606   3.472  12.700  0.4219 -1.9650 -2.4639
    5TMC3    H114228   0.230   3.658  12.809 -0.5665 -0.4066  3.2422
    5TMC3    H214229   0.244   3.268  12.661  2.2202  3.0260 -1.5016
    5TMC3    C714230   0.339   3.520  12.639  0.3325 -0.8744 -0.1052
    5TMC3    C814231   4.702   3.240  12.636 -0.0330  0.0474 -0.2592
    5TMC3    O114232   0.323   3.632  12.591 -0.8129 -0.4787 -0.6576
    5TMC3    O214233   4.580   3.250  12.645 -0.0851  0.0329  0.1483
    6TMC3    C114234   4.591   4.213  11.485  0.4079 -0.2385  0.2684
    6TMC3    C214235   4.552   4.186  11.357 -0.0723  0.1002  0.5397
    6TMC3    C314236   4.640   4.177  11.254  0.0005  0.8846 -0.2088
    6TMC3    C414237   4.715   4.256  11.510 -0.4465 -0.5953 -0.5702
    6TMC3    C514238   0.066   4.252  11.410 -0.6005 -0.5183  0.4125
    6TMC3    C614239   0.028   4.214  11.284  0.4678 -0.2617 -0.2170
    6TMC3     C14240   4.494   4.172  11.587 -0.1157 -0.0568  0.5062
    6TMC3     O14241   4.378   4.184  11.565  0.2873 -0.1177  0.8475
    6TMC3     H14242   4.446   4.171  11.337 -0.0619  0.9104 -0.1384
    6TMC3    H114243   0.013   4.257  11.611 -0.7350  0.8010 -0.4641
    6TMC3    H214244   0.103   4.205  11.207 -1.0826  0.8855 -1.8739
    6TMC3    C714245   0.198   4.218  11.454 -0.3702 -0.8656 -0.1771
    6TMC3    C814246   4.640   4.055  11.169  0.6793  0.2571  0.2111
    6TMC3    O114247   0.257   4.281  11.544  0.2836  0.1345  0.3316
    6TMC3    O214248   0.013   4.019  11.145  0.4307  0.4195  0.0047
    7MPD2     C14249   0.726   3.458  12.314 -0.2170 -0.1886 -0.1559
    7MPD2    C114250   0.637   3.564  12.333 -0.1124 -0.2011 -0.3110
    7MPD2    C214251   0.542   3.551  12.428  0.5809 -0.3887 -0.3203
    7MPD2    C314252   0.530   3.443  12.506  0.0786 -0.2504 -0.3107
    7MPD2    C414253   0.613   3.340  12.484  0.9086  0.3147  0.1275
    7MPD2    C514254   0.717   3.344  12.396 -0.6401 -0.5148  0.0986
    7MPD2     H14255   0.471   3.633  12.434 -0.1137 -1.0046 -0.1375
    7MPD2    H114256   0.608   3.252  12.548 -0.4959  0.6549  0.4944
    7MPD2    H214257   0.806   3.470  12.243  0.8489 -1.0859  0.8900
    7MPD2    H314258   0.787   3.262  12.391  1.1776  1.0032  0.6697
    7MPD2     N14259   0.425   3.421  12.600 -0.5877 -0.3821  0.6056
    7MPD2    H514260   0.422   3.333  12.651  0.6721  0.3087  1.8616
    7MPD2    N114261   0.633   3.690  12.265 -0.2326  0.2200 -0.6857
    7MPD2    H714262   0.559   3.753  12.295 -0.5983  1.1265 -3.5151
    8TMC3    C114263   0.689   3.860  12.127 -0.7599 -0.2651  0.2942
    8TMC3    C214264   0.659   3.878  11.994  0.5318 -0.5550 -0.6704
    8TMC3    C314265   0.552   3.963  11.973 -0.5047 -0.6049 -0.1554
    8TMC3    C414266   0.637   3.934  12.224  0.3281  0.3957 -0.0228
    8TMC3    C514267   0.517   4.003  12.205 -0.1220  0.9156  0.5234
    8TMC3    C614268   0.477   4.018  12.079  0.3511  0.0800 -0.2904
    8TMC3     C14269   0.718   3.728  12.171 -0.0987 -0.8631  0.3256
    8TMC3     O14270   0.820   3.675  12.128  0.1528  0.1012 -0.1592
    8TMC3     H14271   0.716   3.847  11.908  0.1520 -0.1581 -1.0676
    8TMC3    H114272   0.685   3.926  12.322 -0.9375 -2.1826  0.3905
    8TMC3    H214273   0.379   4.056  12.055  0.0962 -0.2436  0.2453
    8TMC3    C714274   0.412   3.964  12.294  0.5595  0.0277 -0.0320
    8TMC3    C814275   0.507   4.003  11.842  0.5338 -0.4793  0.4757
    8TMC3    O114276   0.441   3.864  12.357  0.6650  0.4975  0.1998
    8TMC3    O214277   0.458   4.113  11.835  0.1272  0.0702 -0.3052
    9MPD2     C14278   0.503   3.809  11.525  0.4440 -0.0955  0.3242
    9MPD2    C114279   0.481   3.920  11.610  0.1864  0.3148 -0.6317
    9MPD2    C214280   0.395   4.019  11.569  1.0240  0.2146  0.6330
    9MPD2    C314281   0.337   4.005  11.442 -0.3186 -0.5942  0.3569
    9MPD2    C414282   0.359   3.897  11.363 -0.6856 -0.7912 -0.3604
    9MPD2    C514283   0.446   3.796  11.404  0.4880  0.0700  0.4680
    9MPD2     H14284   0.368   4.098  11.638  0.0404  0.3480  0.0881
    9MPD2    H114285   0.326   3.897  11.260 -2.7464 -0.3686  0.3074
    9MPD2    H214286   0.566   3.730  11.563 -1.4938 -1.1577  1.3711
    9MPD2    H314287   0.499   3.736  11.332  1.6539  0.6034  0.8861
    9MPD2     N14288   0.241   4.103  11.386 -0.0876 -0.1641 -0.4791
    9MPD2    H514289   0.180   4.070  11.311  0.1102 -0.6186 -0.4380
    9MPD2    N114290   0.533   3.915  11.743  0.6802 -0.3127 -0.2567
    9MPD2    H714291   0.574   3.828  11.774  1.2829  0.1417  0.2526
    1MPD1     C14292   0.943   1.640  16.885  0.2303  0.5684 -0.4261
    1MPD1    C114293   0.974   1.527  16.819  0.4539 -0.0214  0.6267
    1MPD1    C214294   0.924   1.513  16.689  0.6187  0.0615 -1.3301
    1MPD1    C314295   0.866   1.625  16.627 -0.2081 -0.5138  0.1990
    1MPD1    C414296   0.822   1.736  16.705  0.2557  0.1573 -0.0138
    1MPD1    C514297   0.860   1.738  16.836 -0.4154  0.5848  0.3229
    1MPD1     H14298   0.951   1.422  16.637 -0.5631 -1.1575  0.2084
    1MPD1    H114299   0.775   1.823  16.661  3.9155  2.2931  0.3147
    1MPD1    H214300   0.974   1.651  16.988 -0.9304  1.9902 -0.2124
    1MPD1    H314301   0.830   1.810  16.910  3.1961  2.7466 -0.2847
    1MPD1     N14302   0.831   1.635  16.490 -0.0599 -0.4276  0.3432
    1MPD1    H514303   0.795   1.727  16.466  0.4808 -0.7854 -1.7851
    1MPD1    N114304   1.031   1.420  16.890 -0.1324 -0.2441 -0.2218
    1MPD1    H614305   1.071   1.355  16.823 -1.5135  0.2536 -1.5172
    1MPD1    H714306   1.101   1.456  16.954 -2.3508 -1.4632  2.8705
    2TMC2    C114307   0.690   1.740  16.123  0.7617  0.2519  0.1013
    2TMC2    C214308   0.713   1.673  16.003  0.0010  0.1718 -0.3973
    2TMC2    C314309   0.778   1.551  16.027  0.1221  0.0327 -0.2737
    2TMC2    C414310   0.726   1.700  16.251  0.7418 -0.2954 -0.0428
    2TMC2    C514311   0.782   1.580  16.260 -0.1534 -0.1204 -0.5771
    2TMC2    C614312   0.805   1.509  16.152  0.1583  0.1303 -0.2676
    2TMC2     C14313   0.608   1.855  16.109 -0.6243 -0.2515  0.7974
    2TMC2     O14314   0.537   1.889  16.205 -0.1675  0.0178 -0.2360
    2TMC2     H14315   0.649   1.689  15.917  0.3524 -0.0935 -0.7052
    2TMC2    H114316   0.704   1.762  16.337 -0.0486  0.3959 -0.7498
    2TMC2    H214317   0.843   1.408  16.166  1.1276  0.3933 -0.9574
    2TMC2    C714318   0.837   1.538  16.391 -0.2074  0.3623  0.6768
    2TMC2    C814319   0.775   1.437  15.932  0.5280  0.0068 -0.1159
    2TMC2    O114320   0.889   1.430  16.394 -0.0488 -0.5424  0.1805
    2TMC2    O214321   0.790   1.317  15.956  0.3290 -0.3874 -0.1601
    2TMC2    O514322   0.730   1.490  15.817  0.2927  0.4659  0.0259
    2TMC2    H514323   0.764   1.580  15.800  1.5506  0.4792  2.6682
    3MPD1     C14324   0.381   2.229  15.851 -0.1115 -0.1052 -0.1789
    3MPD1    C114325   0.472   2.170  15.761 -0.3899  0.0637 -0.1316
    3MPD1    C214326   0.542   2.062  15.811  0.7554 -0.4050 -0.0742
    3MPD1    C314327   0.527   2.017  15.940 -0.3986  0.4353  0.2032
    3MPD1    C414328   0.429   2.080  16.023 -0.2815  0.6054 -0.0986
    3MPD1    C514329   0.364   2.184  15.976 -0.9081 -0.4006  0.1775
    3MPD1     H14330   0.603   2.005  15.741 -0.0065  0.3865 -1.3840
    3MPD1    H114331   0.411   2.058  16.128  0.6991 -1.2519 -0.3045
    3MPD1    H214332   0.324   2.319  15.828 -0.3741 -0.4118 -0.7089
    3MPD1    H314333   0.299   2.239  16.043 -0.8242 -0.3647  0.2296
    3MPD1     N14334   0.611   1.910  15.981  0.1356  0.3235 -0.5676
    3MPD1    H514335   0.665   1.862  15.910 -0.9988 -0.7035 -0.7375
    3MPD1    N114336   0.494   2.205  15.628  0.6230  0.2604 -0.3686
    3MPD1    H614337   0.582   2.174  15.589  0.9875  1.4329 -0.4946
    3MPD1    H714338   0.496   2.306  15.614 -0.8668  0.6185  1.8608
    1TMC1    C114339   2.939   1.149  12.941 -0.2732 -0.1979  0.6676
    1TMC1    C214340   2.867   1.078  13.033  0.7577 -0.2118 -0.0793
    1TMC1    C314341   2.752   1.022  12.982  0.7274  0.2742 -0.2785
    1TMC1    C414342   2.894   1.165  12.812  0.4924  0.9713 -0.1769
    1TMC1    C514343   2.770   1.125  12.776 -0.0779 -0.0571  0.1298
    1TMC1    C614344   2.694   1.049  12.864 -0.1493  0.5320 -0.0869
    1TMC1     C14345   3.083   1.162  12.960 -0.3241  0.4191  0.1790
    1TMC1     O14346   3.151   1.155  12.856  0.2056 -0.2607 -0.1567
    1TMC1     H14347   2.898   1.064  13.136  0.3815  0.1090  0.0786
    1TMC1    H114348   2.959   1.216  12.741  0.9239 -0.1569 -0.5991
    1TMC1    H214349   2.601   1.009  12.826  0.2471 -0.3416 -0.1289
    1TMC1    C714350   2.728   1.116  12.639  0.2896 -0.1166 -0.3778
    1TMC1    C814351   2.677   0.924  13.056 -0.4933 -0.2483 -0.1179
    1TMC1    O114352   2.814   1.127  12.553 -0.4029  0.5206  0.2931
    1TMC1    O214353   2.556   0.910  13.073 -0.0621  0.7509 -0.0217
    1TMC1    O314354   2.607   1.178  12.638 -0.6144  0.1076 -0.0176
    1TMC1    H314355   2.561   1.200  12.722 -3.6537 -0.5403 -1.4945
    1TMC1    O514356   2.765   0.836  13.107  0.0663 -0.6624  0.5072
    1TMC1    H514357   2.859   0.856  13.089  0.5845 -1.0782  2.7574
    2MPD2     C14358   3.351   1.141  13.067 -0.9506  0.3533  0.0632
    2MPD2    C114359   3.249   1.219  13.122  0.2415  0.5286 -0.0511
    2MPD2    C214360   3.284   1.307  13.229 -0.4815  0.5622  0.0396
    2MPD2    C314361   3.419   1.325  13.261 -0.2898 -0.1149 -0.3042
    2MPD2    C414362   3.516   1.256  13.196 -0.1869  0.0777 -0.4205
    2MPD2    C514363   3.481   1.170  13.101  0.5510  0.7887  0.6826
    2MPD2     H14364   3.208   1.361  13.283  0.4168  0.9290  0.9435
    2MPD2    H114365   3.621   1.272  13.219 -0.5972  3.0868 -0.5775
    2MPD2    H214366   3.326   1.060  13.000 -1.7142  0.1978  0.5336
    2MPD2    H314367   3.554   1.107  13.050 -0.6165 -1.2641  1.5422
    2MPD2     N14368   3.439   1.423  13.358 -0.0467  0.1448 -0.6984
    2MPD2    H514369   3.358   1.457  13.408  0.1513 -0.1642 -0.1600
    2MPD2    N114370   3.120   1.212  13.084  0.5399  0.2130  0.2539
    2MPD2    H714371   3.044   1.251  13.138  0.3472  1.3444 -0.8414
    3TCq1    O114372   3.317   1.825  13.823 -0.4133  1.0842  0.3451
    3TCq1    C114373   3.312   1.752  13.710 -0.5662  0.4601 -0.3587
    3TCq1    O214374   3.208   1.720  13.657 -0.0652 -0.3407  0.1984
    3TCq1    C214375   3.444   1.689  13.675 -0.9883 -0.2134 -0.2204
    3TCq1    C314376   3.561   1.743  13.726  0.4985  0.2749  0.3077
    3TCq1    C414377   3.675   1.701  13.663 -0.1148  0.0699 -0.3541
    3TCq1    C514378   3.675   1.624  13.550 -0.2048  0.1026  0.2232
    3TCq1    C614379   3.561   1.577  13.499  0.1574 -0.3626 -0.5285
    3TCq1    C714380   3.447   1.611  13.567 -0.2361 -0.1068  0.6963
    3TCq1    C814381   3.566   1.474  13.396 -0.0135  0.6678  0.2580
    3TCq1    O414382   3.672   1.454  13.336  0.0718  0.0499  0.0258
    3TCq1    C914383   3.799   1.745  13.722  0.1672  0.1579 -0.0682
    3TCq1    O514384   3.795   1.831  13.817 -0.4084 -0.1572  0.0269
    3TCq1    O614385   3.904   1.697  13.669 -0.1958 -0.1575 -0.3082
    3TCq1    H114386   3.395   1.801  13.877 -0.0362  0.2675 -0.5631
    3TCq1    H214387   3.572   1.819  13.802 -1.1175 -1.3854  2.2074
    3TCq1    H314388   3.770   1.592  13.509 -0.9290 -1.1518 -0.4702
    3TCq1    H414389   3.354   1.586  13.518  1.2186 -0.2494 -1.9923
    1MPD2     C14390   3.489   2.335  15.101  0.3354  0.6831 -0.1599
    1MPD2    C114391   3.365   2.291  15.064  0.6264  0.1545  0.0532
    1MPD2    C214392   3.331   2.157  15.090 -0.4309 -0.6170 -0.6077
    1MPD2    C314393   3.424   2.073  15.162  0.0629 -0.0413  0.1372
    1MPD2    C414394   3.540   2.122  15.208 -0.5065 -0.3706  0.8724
    1MPD2    C514395   3.570   2.254  15.172 -0.2162 -0.0181  0.1368
    1MPD2     H14396   3.227   2.129  15.081 -0.8271  0.4512  0.6038
    1MPD2    H114397   3.619   2.068  15.258 -0.1941  0.3960  1.2036
    1MPD2    H214398   3.524   2.438  15.092 -0.6502  0.9344 -1.1529
    1MPD2    H314399   3.657   2.306  15.211  0.3867 -0.2308 -0.9438
    1MPD2     N14400   3.380   1.947  15.202 -0.4917 -0.4434 -0.7911
    1MPD2    H514401   3.285   1.924  15.175 -0.6035 -0.5112 -0.3334
    1MPD2    N114402   3.270   2.386  15.008  0.5693  0.0567  0.2246
    1MPD2    H714403   3.309   2.480  15.007  2.3448 -0.6620  1.3427
    2TMC3    C114404   3.070   2.470  14.914 -0.2016  0.2855 -0.4531
    2TMC3    C214405   2.944   2.413  14.909  0.1486 -0.0376  0.5824
    2TMC3    C314406   2.877   2.403  14.791  0.2627  0.3226 -0.2127
    2TMC3    C414407   3.113   2.542  14.804 -0.0661 -0.2537 -0.5454
    2TMC3    C514408   3.032   2.551  14.692 -0.4257 -0.2358 -0.1437
    2TMC3    C614409   2.916   2.475  14.677 -0.2371 -1.0436  0.2224
    2TMC3     C14410   3.151   2.351  14.942 -0.6762  0.6859  0.2674
    2TMC3     O14411   3.109   2.239  14.909  0.0123  0.1368  0.3546
    2TMC3     H14412   2.919   2.348  14.992 -1.6364 -0.1773 -0.0653
    2TMC3    H114413   3.204   2.601  14.805  1.5886 -2.8234 -0.3183
    2TMC3    H214414   2.857   2.456  14.588 -0.1638 -1.1662  0.1999
    2TMC3    C714415   3.049   2.664  14.601 -0.3540  0.9646 -0.0775
    2TMC3    C814416   2.807   2.283  14.762  0.2698 -0.3199 -0.3193
    2TMC3    O114417   3.156   2.723  14.617  0.0166  0.2891 -0.0309
    2TMC3    O214418   2.717   2.293  14.677  0.0165  0.2313 -0.4398
    3TCq1    O114419   3.294   3.603  14.041  0.7963 -0.2406  0.2700
    3TCq1    C114420   3.299   3.645  14.165 -1.1084  0.3483 -0.7785
    3TCq1    O214421   3.331   3.756  14.202 -0.3155  0.1839  0.1481
    3TCq1    C214422   3.283   3.529  14.259 -0.0791  0.4141  0.3262
    3TCq1    C314423   3.315   3.555  14.387 -1.0461 -0.1699 -0.2987
    3TCq1    C414424   3.284   3.459  14.478 -0.6971 -0.1020  0.3005
    3TCq1    C514425   3.218   3.343  14.443  0.4659  0.2577 -0.1707
    3TCq1    C614426   3.176   3.329  14.311 -0.0104 -0.3733  0.8153
    3TCq1    C714427   3.213   3.418  14.216  0.1209  0.7210 -0.4361
    3TCq1    C814428   3.100   3.217  14.265  0.6592  0.6395  0.7556
    3TCq1    O414429   3.031   3.252  14.170 -0.2356 -0.1939 -0.7274
    3TCq1    C914430   3.308   3.466  14.622  0.3394 -0.1340  0.7737
    3TCq1    O514431   3.282   3.362  14.690 -0.1670  0.3447  0.1451
    3TCq1    O614432   3.351   3.574  14.670 -0.1361  0.1497 -0.0005
    3TCq1    H114433   3.268   3.509  14.028  0.2772  0.3208 -2.7471
    3TCq1    H214434   3.371   3.643  14.417  2.0568 -1.8796 -1.1381
    3TCq1    H314435   3.191   3.273  14.521  3.8291 -2.4915 -1.4111
    3TCq1    H414436   3.181   3.397  14.115 -0.5943 -0.6428  0.0671
    4MPD2     C14437   2.909   2.999  14.248  0.5527 -0.0329 -0.9489
    4MPD2    C114438   3.018   3.000  14.332  0.2207 -0.0113 -0.0478
    4MPD2    C214439   3.039   2.891  14.416  0.3704  0.2956 -0.4525
    4MPD2    C314440   2.941   2.785  14.419 -0.7847 -0.3143  0.1560
    4MPD2    C414441   2.834   2.791  14.337  0.0527 -0.2342 -0.3133
    4MPD2    C514442   2.822   2.896  14.247  0.2552 -0.0103  0.8021
    4MPD2     H14443   3.123   2.896  14.485 -0.5469  0.0857  0.6941
    4MPD2    H114444   2.757   2.716  14.351  1.0964 -1.3070 -0.2812
    4MPD2    H214445   2.890   3.070  14.168 -0.9010  0.1452 -0.4333
    4MPD2    H314446   2.743   2.892  14.174  1.6904  2.3703 -0.8885
    4MPD2     N14447   2.946   2.679  14.514  0.1991 -0.4273  0.0074
    4MPD2    H514448   2.869   2.615  14.530 -0.7026  0.1766 -1.9233
    4MPD2    N114449   3.100   3.108  14.348  0.5499  0.3025 -0.5082
    4MPD2    H714450   3.161   3.105  14.429 -0.0949 -2.6386 -0.1297
    5TMC2    C114451   3.137   1.702  15.177  0.6366  0.5628 -0.2788
    5TMC2    C214452   3.070   1.684  15.288 -0.6676  0.3925  0.4666
    5TMC2    C314453   3.142   1.711  15.404 -0.2770  0.1202 -0.3722
    5TMC2    C414454   3.271   1.726  15.177 -0.3372  0.1383 -0.0824
    5TMC2    C514455   3.346   1.739  15.295 -0.9716  0.4329  0.0951
    5TMC2    C614456   3.278   1.725  15.412  0.1400 -0.3458 -0.4092
    5TMC2     C14457   3.075   1.793  15.082  0.2455 -0.0658 -0.4215
    5TMC2     O14458   3.136   1.896  15.060 -0.9251  0.0827 -0.4120
    5TMC2     H14459   2.963   1.671  15.302 -0.6340  0.1419  0.4998
    5TMC2    H114460   3.310   1.747  15.078  1.4247 -2.2346  0.1204
    5TMC2    H214461   3.327   1.755  15.504  1.3604  1.2374 -1.5642
    5TMC2    C714462   3.433   1.851  15.287 -0.4391  1.1418 -0.9437
    5TMC2    C814463   3.078   1.682  15.526 -0.1378 -0.1792  0.2850
    5TMC2    O114464   3.523   1.858  15.367  0.0774  0.0657 -0.0526
    5TMC2    O214465   3.150   1.647  15.616 -0.6750  0.1661 -0.4713
    5TMC2    O514466   2.966   1.757  15.534 -0.0026  0.0383 -0.2577
    5TMC2    H514467   2.942   1.805  15.452 -1.0306 -1.4177 -0.8025
    6MPD2     C14468   2.693   1.996  14.804  0.0989 -0.3292  0.4941
    6MPD2    C114469   2.815   2.047  14.843 -0.2294 -0.2087 -0.4106
    6MPD2    C214470   2.892   1.973  14.930 -0.1109 -0.3649 -0.2425
    6MPD2    C314471   2.864   1.835  14.961 -0.5558  0.5487  0.0636
    6MPD2    C414472   2.740   1.786  14.910  0.7982  0.4324  0.4433
    6MPD2    C514473   2.656   1.866  14.835 -0.2165 -0.1751  0.0759
    6MPD2     H14474   2.971   2.031  14.975 -0.2916  0.1429 -0.5849
    6MPD2    H114475   2.727   1.678  14.914 -1.4055  0.6429 -0.7378
    6MPD2    H214476   2.622   2.056  14.748 -0.4114 -1.4748 -0.0898
    6MPD2    H314477   2.560   1.832  14.798  1.9662 -3.0250 -3.0102
    6MPD2     N14478   2.946   1.762  15.049 -0.3018 -0.8713  0.4119
    6MPD2    H514479   2.908   1.669  15.065  0.7082 -1.2122  0.8122
    6MPD2    N114480   2.860   2.179  14.832 -0.3956  0.5392  0.3552
    6MPD2    H714481   2.949   2.208  14.871 -1.1306  1.0082  1.6708
  945NH3     N114482   0.773   2.217   9.801 -0.0582 -0.5853  0.3630
  945NH3     H214483   0.852   2.267   9.760 -1.0872  1.7491  1.1766
  945NH3     H314484   0.735   2.292   9.859 -0.4854  0.0391 -0.7247
  945NH3     H414485   0.814   2.155   9.870 -1.0377  0.1575  1.6238
  946SOD     NA14486   4.644   0.424   0.995  0.1050 -0.2600  0.1145
  947SOD     NA14487   3.357   1.321  12.518  0.0055  0.1107 -0.1454
  948SOD     NA14488   1.710   2.123  15.742 -0.6651 -0.3162  0.1175
  949SOD     NA14489   0.238   1.514   6.597 -0.3457  0.0990 -0.6844
  950SOD     NA14490   4.155   3.684  16.317 -0.1925  0.5820 -0.2352
  951SOD     NA14491   1.978   0.596   9.815 -0.1153 -0.2428  0.2684
  952SOD     NA14492   1.213   0.405  14.486 -0.0035 -0.0821  0.1865
  953SOD     NA14493   2.169   4.316   6.095 -0.1727 -0.4383  0.0026
  954SOL     OW14494   2.212   1.251   9.512  0.0097 -0.0306 -0.4183
  954SOL    HW114495   2.204   1.179   9.576 -3.4616  1.3612  0.7034
  954SOL    HW214496   2.271   1.315   9.552 -2.6487  0.8267  2.1478
  955SOL     OW14497   2.725   0.129  15.625  0.5549  0.2787 -0.4338
  955SOL    HW114498   2.645   0.087  15.594  0.0142  0.1235  1.1773
  955SOL    HW214499   2.771   0.052  15.659 -0.8862 -1.0262 -1.4414
  956SOL     OW14500   3.030   4.395   3.937 -0.2327 -0.0385 -0.2466
  956SOL    HW114501   3.087   4.472   3.942 -0.5099  0.2117 -0.9986
  956SOL    HW214502   2.988   4.395   4.023 -0.2898  0.9113 -0.2776
  957SOL     OW14503   2.463   3.091   0.808 -0.7906 -0.4709  0.3006
  957SOL    HW114504   2.454   3.127   0.719  0.9909  0.3461  0.4412
  957SOL    HW214505   2.492   3.003   0.784 -0.7996 -0.6765  1.0605
  958SOL     OW14506   4.325   4.419   3.883 -0.0322  0.0154  0.0987
  958SOL    HW114507   4.326   4.444   3.791  1.8212 -0.9562 -0.1433
  958SOL    HW214508   4.379   4.340   3.876 -2.1055 -1.5054  1.2073
  959SOL     OW14509   0.597   4.399   4.853  0.5210  0.0209 -0.3883
  959SOL    HW114510   0.539   4.335   4.895  0.9901 -1.2298 -1.6268
  959SOL    HW214511   0.552   4.407   4.769 -0.2415 -2.6687 -0.2477
  960SOL     OW14512   1.552   0.630   8.750  0.6515  0.8343 -0.2465
  960SOL    HW114513   1.482   0.619   8.815  1.2944  1.0896  0.4828
  960SOL    HW214514   1.501   0.673   8.681 -2.5617 -0.9811  0.9910
  961SOL     OW14515   3.742   3.750  16.052  0.1061 -0.0725 -0.4928
  961SOL    HW114516   3.749   3.654  16.048 -0.1166 -0.0854 -0.5546
  961SOL    HW214517   3.833   3.770  16.073 -0.2990  1.3053 -0.0731
  962SOL     OW14518   1.312   2.300   8.491  0.0423 -0.4671  0.4866
  962SOL    HW114519   1.279   2.297   8.581  0.2598 -1.1213  0.5403
  962SOL    HW214520   1.345   2.210   8.489 -0.8917 -0.8536  2.2579
  963SOL     OW14521   3.202   0.341   4.253  0.0728  0.0601  0.2069
  963SOL    HW114522   3.206   0.268   4.315 -0.1216 -1.0211 -1.0527
  963SOL    HW214523   3.152   0.307   4.179 -0.3280  0.6242  0.2221
  964SOL     OW14524   0.656   4.071   8.352 -0.2122  0.3801  0.1420
  964SOL    HW114525   0.697   3.996   8.309 -0.6828 -0.4138  1.0998
  964SOL    HW214526   0.563   4.049   8.359  0.1288 -0.0920  3.1156
  965SOL     OW14527   3.087   1.020  10.298  0.1278 -0.2067 -0.0662
  965SOL    HW114528   3.141   0.971  10.360 -0.1871 -1.7982 -1.0602
  965SOL    HW214529   3.141   1.099  10.287 -1.3913  0.5976 -1.6032
  966SOL     OW14530   0.412   1.530   6.459 -0.4796 -0.2190 -0.0286
  966SOL    HW114531   0.444   1.494   6.376 -1.2489  0.1458 -0.4867
  966SOL    HW214532   0.496   1.557   6.496 -1.3315  1.1960  0.9038
  967SOL     OW14533   4.553   4.052   9.508  0.0784 -0.3794 -0.4881
  967SOL    HW114534   4.551   3.981   9.572 -2.7024  0.4785  0.3878
  967SOL    HW214535   4.640   4.037   9.471 -0.4087 -0.6505 -1.5394
  968SOL     OW14536   0.519   1.901   4.014  0.5078 -0.0993  0.2254
  968SOL    HW114537   0.468   1.933   3.939  0.1713 -0.5980  0.2479
  968SOL    HW214538   0.459   1.940   4.077 -0.1687 -0.4004 -0.2328
  969SOL     OW14539   3.084   0.515  10.181 -0.6333 -0.2546 -0.1570
  969SOL    HW114540   3.023   0.500  10.253  0.0737 -1.0333  0.2779
  969SOL    HW214541   3.154   0.450  10.179  0.3112  0.6709  2.7536
  970SOL     OW14542   1.122   1.371   5.573 -0.2644 -0.1915 -0.0737
  970SOL    HW114543   1.163   1.292   5.607  0.4212 -0.1448 -0.7948
  970SOL    HW214544   1.038   1.331   5.550 -0.2099  0.9151 -2.1811
  971SOL     OW14545   0.671   2.072  15.466  0.0793  0.3233 -0.0053
  971SOL    HW114546   0.678   1.979  15.443  1.1261  0.0700  1.3564
  971SOL    HW214547   0.724   2.078  15.545 -1.3612 -1.6073  1.0983
  972SOL     OW14548   0.639   0.625   2.646 -0.2326  0.4670  0.2401
  972SOL    HW114549   0.559   0.678   2.640 -0.7813 -0.4490 -0.5547
  972SOL    HW214550   0.653   0.609   2.552  2.3717  4.4171 -0.0536
  973SOL     OW14551   0.279   1.788   8.545 -0.0398  0.1212 -0.2290
  973SOL    HW114552   0.240   1.814   8.462 -2.7169 -0.8536  0.7026
  973SOL    HW214553   0.335   1.715   8.517  0.0468  0.5314 -1.0909
  974SOL     OW14554   1.960   3.110   2.891  0.0152  0.2177 -0.2538
  974SOL    HW114555   1.870   3.096   2.918 -0.3119 -2.2048 -2.6319
  974SOL    HW214556   1.959   3.130   2.797 -0.7726  1.7619  0.0909
  975SOL     OW14557   0.660   0.773  14.112 -0.4369 -0.8319 -0.3778
  975SOL    HW114558   0.592   0.839  14.102  1.7149  1.6945  1.6820
  975SOL    HW214559   0.677   0.741  14.023 -0.3250 -0.7797 -0.3762
  976SOL     OW14560   2.717   1.301   9.411 -0.0868 -0.3575 -0.3180
  976SOL    HW114561   2.741   1.383   9.368  2.3025 -0.5025  0.7626
  976SOL    HW214562   2.800   1.271   9.448  0.2581  1.4745  0.4281
  977SOL     OW14563   4.310   4.347  10.270  0.5066 -0.6261 -0.2044
  977SOL    HW114564   4.253   4.302  10.332  1.1642 -1.6082 -0.3109
  977SOL    HW214565   4.287   4.438  10.291  1.2574 -0.9329  1.9216
  978SOL     OW14566   1.887   0.193   9.633  0.3436 -0.1676  0.1932
  978SOL    HW114567   1.920   0.267   9.684  1.6462 -2.2362  2.3635
  978SOL    HW214568   1.950   0.129   9.666  0.5472 -0.7593 -1.3355
  979SOL     OW14569   2.794   3.592   8.659  0.0854  0.2324 -0.6341
  979SOL    HW114570   2.853   3.624   8.727 -1.2492  0.0281  0.6335
  979SOL    HW214571   2.716   3.590   8.716  1.2796 -0.5391  0.9737
  980SOL     OW14572   0.368   2.487   5.433 -0.4806  0.0254 -0.4220
  980SOL    HW114573   0.317   2.440   5.367 -2.8264  0.8278  0.8057
  980SOL    HW214574   0.300   2.519   5.493  0.3000  1.6328 -0.4065
  981SOL     OW14575   0.567   3.152   1.969  0.2144  0.3280  0.3275
  981SOL    HW114576   0.582   3.086   1.902 -1.9221 -0.5125  0.6951
  981SOL    HW214577   0.654   3.160   2.009 -1.5188 -0.9963  4.3963
  982SOL     OW14578   3.693   3.361   5.101 -0.6036 -0.1281  0.3818
  982SOL    HW114579   3.728   3.341   5.187 -0.4458 -2.0139 -0.1208
  982SOL    HW214580   3.765   3.332   5.045  0.8743  0.3617  2.0324
  983SOL     OW14581   1.576   0.291  16.472 -0.3041 -0.2378 -0.7243
  983SOL    HW114582   1.576   0.366  16.532  0.0071 -0.2236 -0.7441
  983SOL    HW214583   1.495   0.252  16.505 -0.3190  0.9101  0.5931
  984SOL     OW14584   4.271   3.437   7.669  0.3367  0.5131 -0.5520
  984SOL    HW114585   4.337   3.416   7.735  0.5433 -2.0179 -1.5756
  984SOL    HW214586   4.309   3.510   7.621  0.9558  0.1981 -0.5375
  985SOL     OW14587   1.074   3.748   6.247 -0.0851 -0.6817 -0.3222
  985SOL    HW114588   1.054   3.762   6.154 -1.2595  1.9038  0.3270
  985SOL    HW214589   1.168   3.768   6.241 -0.0511 -0.9807 -0.7737
  986SOL     OW14590   2.585   4.580   9.350 -0.4050 -0.2569  0.0661
  986SOL    HW114591   2.597   4.545   9.438 -1.5745  0.4338  0.5013
  986SOL    HW214592   2.669   4.567   9.306  0.2784  1.8129  0.8023
  987SOL     OW14593   3.487   3.750  11.974 -0.1898  0.2253 -0.5559
  987SOL    HW114594   3.478   3.760  12.068  0.9253 -0.0724 -0.4236
  987SOL    HW214595   3.547   3.678  11.953 -0.2939 -0.3351  1.1218
  988SOL     OW14596   2.160   4.523   0.128 -0.1386  0.2976 -0.0407
  988SOL    HW114597   2.223   4.461   0.092 -0.9829 -0.8687  0.4990
  988SOL    HW214598   2.091   4.463   0.158 -0.1206 -0.9947 -2.6094
  989SOL     OW14599   2.520   1.902  16.307 -0.1002  0.4032 -0.6090
  989SOL    HW114600   2.491   1.913  16.217  0.8112 -2.6218 -1.2793
  989SOL    HW214601   2.470   1.971  16.349  1.4472  0.9245  0.4117
  990SOL     OW14602   1.729   0.830   8.238 -0.1540  0.1224 -0.2156
  990SOL    HW114603   1.811   0.855   8.280 -1.2060  0.7608  1.4733
  990SOL    HW214604   1.749   0.740   8.215 -0.1148  0.4057 -1.2735
  991SOL     OW14605   1.781   3.419   2.438 -0.0559  0.2599 -0.0489
  991SOL    HW114606   1.718   3.472   2.486  0.8026  0.2961  1.0387
  991SOL    HW214607   1.865   3.464   2.436  0.7182 -1.0533  2.6545
  992SOL     OW14608   0.231   4.183   1.864  0.2060  0.6251  0.0970
  992SOL    HW114609   0.151   4.130   1.863 -2.0340  3.9718  1.7129
  992SOL    HW214610   0.253   4.196   1.772 -1.6579 -0.8816 -0.5622
  993SOL     OW14611   2.595   4.062   5.268  0.1136  0.0552 -0.5226
  993SOL    HW114612   2.537   4.118   5.319 -0.0463  1.1343 -1.8881
  993SOL    HW214613   2.562   3.974   5.284  1.4094 -0.2680  0.4763
  994SOL     OW14614   0.591   1.229   1.854  0.6050  0.3716  0.3186
  994SOL    HW114615   0.596   1.317   1.817 -1.6773  0.2346 -0.2967
  994SOL    HW214616   0.546   1.182   1.784 -1.1264  2.1697  0.2323
  995SOL     OW14617   1.323   0.286   6.903 -0.0146  0.1151 -0.3792
  995SOL    HW114618   1.267   0.292   6.980 -0.3416  0.0017 -0.6092
  995SOL    HW214619   1.376   0.364   6.921  1.5063 -0.8832 -0.4822
  996SOL     OW14620   3.028   3.359   3.640  0.3148  0.0706 -0.7031
  996SOL    HW114621   2.940   3.329   3.619  0.1472  0.7077 -0.9099
  996SOL    HW214622   3.079   3.317   3.570  1.7499 -0.4579  0.6625
  997SOL     OW14623   3.798   4.457   7.549 -0.5323 -0.1279 -0.5304
  997SOL    HW114624   3.728   4.489   7.606 -1.6528 -2.0376 -0.8082
  997SOL    HW214625   3.871   4.515   7.572 -1.6423  1.5023 -1.1070
  998SOL     OW14626   3.052   1.099   9.006 -0.0444  0.5945  0.5774
  998SOL    HW114627   2.983   1.154   9.042  0.4553  1.3283  0.4135
  998SOL    HW214628   3.062   1.126   8.914  2.4330 -0.5091  0.5219
  999SOL     OW14629   1.190   1.278   5.099  0.4987  0.3884  0.4908
  999SOL    HW114630   1.265   1.326   5.132  0.9727 -0.4809  0.6831
  999SOL    HW214631   1.230   1.236   5.023  2.1120  3.1911 -0.2068
 1000SOL     OW14632   1.855   3.273   3.848  0.0502  0.1605  0.2776
 1000SOL    HW114633   1.944   3.242   3.829 -0.1569 -0.4335  0.2814
 1000SOL    HW214634   1.870   3.361   3.814  0.2704  0.9302  2.4130
 1001SOL     OW14635   1.841   2.516  12.375 -0.5897 -0.6491  0.1638
 1001SOL    HW114636   1.804   2.573  12.308  0.3204 -1.0997 -0.7331
 1001SOL    HW214637   1.921   2.493  12.327 -0.0716 -0.7376  1.0597
 1002SOL     OW14638   2.335   4.036   1.227  0.0897 -0.2110 -0.2289
 1002SOL    HW114639   2.420   3.992   1.234  0.9125  1.3127 -0.6270
 1002SOL    HW214640   2.336   4.070   1.317  2.0781  0.1618 -0.4032
 1003SOL     OW14641   3.957   4.647   0.982 -0.2382  0.1637 -0.3012
 1003SOL    HW114642   4.047   4.617   0.969 -0.5913 -1.8649  2.0285
 1003SOL    HW214643   3.953   4.709   0.909 -0.7403  0.1399 -0.2981
 1004SOL     OW14644   4.667   2.408  15.014 -0.5158  0.2998 -0.4974
 1004SOL    HW114645   4.655   2.324  15.059 -3.8183  1.0662  0.0803
 1004SOL    HW214646   4.668   2.476  15.082  1.6169 -1.0482  0.8048
 1005SOL     OW14647   2.301   2.782   5.240  0.1936  0.5982  0.0893
 1005SOL    HW114648   2.210   2.812   5.249 -0.0868  0.1125 -1.2268
 1005SOL    HW214649   2.287   2.689   5.261 -1.0939  0.5559 -0.9283
 1006SOL     OW14650   4.491   2.961   5.100 -0.2866  0.4902 -0.0885
 1006SOL    HW114651   4.460   2.920   5.180  1.9210 -0.4799  0.2686
 1006SOL    HW214652   4.541   3.031   5.142  0.4892 -0.6564  0.8738
 1007SOL     OW14653   3.947   4.555   9.959 -0.0452  0.0004  0.2096
 1007SOL    HW114654   3.893   4.582   9.884 -0.7987  0.7215  1.0155
 1007SOL    HW214655   4.018   4.519   9.905  0.9386 -3.6388  3.9182
 1008SOL     OW14656   3.772   0.434   6.733  0.1000 -0.4614  0.1359
 1008SOL    HW114657   3.861   0.464   6.717  0.5724 -1.3974  0.9322
 1008SOL    HW214658   3.751   0.376   6.660 -1.9123 -1.4378  1.4907
 1009SOL     OW14659   0.414   1.988   7.586 -0.2178  0.5054  0.6759
 1009SOL    HW114660   0.408   2.080   7.559 -1.7490  0.5912  1.2870
 1009SOL    HW214661   0.502   1.975   7.553 -0.5795  0.5970 -0.3264
 1010SOL     OW14662   3.465   0.331  16.840 -0.1990  0.8526  0.4902
 1010SOL    HW114663   3.449   0.425  16.840 -0.6212  0.7801  0.8816
 1010SOL    HW214664   3.386   0.298  16.883 -1.3575  0.6183 -1.8128
 1011SOL     OW14665   4.052   0.236   2.101 -0.1704  0.0631  0.0596
 1011SOL    HW114666   4.090   0.152   2.126 -1.5799 -0.1190  1.5757
 1011SOL    HW214667   4.006   0.263   2.180  2.0457 -0.7458  1.6010
 1012SOL     OW14668   1.614   1.856   7.552 -0.1833 -0.0026 -0.1382
 1012SOL    HW114669   1.709   1.851   7.555 -0.3058 -2.5180 -0.5491
 1012SOL    HW214670   1.591   1.795   7.622 -3.0106  1.1412 -0.0606
 1013SOL     OW14671   3.950   3.313   8.177  0.0045  0.3290  0.1588
 1013SOL    HW114672   4.044   3.294   8.182 -0.4082 -1.7539 -0.2447
 1013SOL    HW214673   3.945   3.408   8.165  0.4746  0.3852  0.3924
 1014SOL     OW14674   2.624   0.386   6.308  0.1663 -0.3373 -0.3818
 1014SOL    HW114675   2.548   0.379   6.365  1.1800  1.7390  1.2296
 1014SOL    HW214676   2.638   0.479   6.327  1.3348 -0.5886 -0.0377
 1015SOL     OW14677   1.884   2.367   3.391 -0.0091 -0.6731 -0.6714
 1015SOL    HW114678   1.832   2.447   3.399 -0.1434 -0.8147 -0.0884
 1015SOL    HW214679   1.947   2.389   3.323  0.2495  0.8182  0.0404
 1016SOL     OW14680   4.369   1.576   4.407 -0.6941  0.6531 -0.4158
 1016SOL    HW114681   4.341   1.499   4.358 -1.6167  0.8785 -0.2553
 1016SOL    HW214682   4.305   1.643   4.384 -0.7832 -0.1870 -2.5949
 1017SOL     OW14683   4.702   1.223   5.937 -0.0649 -0.3596  0.1371
 1017SOL    HW114684   4.665   1.298   5.890  0.8629  1.1700  1.8564
 1017SOL    HW214685   4.633   1.206   6.002 -0.3648  0.5619  0.0726
 1018SOL     OW14686   2.822   4.672   6.060  0.0199  0.3055 -0.0426
 1018SOL    HW114687   2.731   4.667   6.089  0.7479  0.7106  2.3088
 1018SOL    HW214688   2.855   0.002   6.115 -2.3679  1.0070  0.4484
 1019SOL     OW14689   2.507   3.006  13.941  0.6308  0.6628 -0.4024
 1019SOL    HW114690   2.430   2.954  13.918  1.1699 -0.8165  1.1429
 1019SOL    HW214691   2.545   3.024  13.855  1.7106 -2.4447 -0.5780
 1020SOL     OW14692   4.585   1.678  11.321 -0.2933 -0.3441 -0.4092
 1020SOL    HW114693   4.663   1.721  11.357 -0.3454 -1.8138  1.4421
 1020SOL    HW214694   4.624   1.609  11.267 -0.8727  0.4771 -1.8955
 1021SOL     OW14695   0.571   2.231   8.545 -0.0228  0.0290  0.4001
 1021SOL    HW114696   0.659   2.199   8.567  0.2978  0.2812 -0.5318
 1021SOL    HW214697   0.529   2.146   8.561 -1.6663  0.6610 -0.5878
 1022SOL     OW14698   1.934   2.785  15.518  0.0367  0.4768 -0.1163
 1022SOL    HW114699   2.018   2.751  15.550 -0.1807  0.3385  0.3080
 1022SOL    HW214700   1.935   2.876  15.488  3.3587  0.6304  0.4713
 1023SOL     OW14701   2.963   2.014   6.605 -0.0724  0.1534  0.4624
 1023SOL    HW114702   2.989   2.050   6.690 -2.6524  0.6714  1.0251
 1023SOL    HW214703   2.901   1.945   6.629  1.5863 -1.4498  0.1917
 1024SOL     OW14704   0.464   2.051   8.910 -0.5481 -0.6468 -0.0705
 1024SOL    HW114705   0.478   2.038   9.004  0.3474 -0.5113 -0.1855
 1024SOL    HW214706   0.502   1.976   8.864  1.1708  0.1376  0.0725
 1025SOL     OW14707   2.963   3.444   8.052 -0.0178 -0.0237 -0.4471
 1025SOL    HW114708   2.877   3.443   8.095  0.1277  1.5528 -0.1392
 1025SOL    HW214709   2.983   3.535   8.031 -0.1326 -0.0642 -0.7333
 1026SOL     OW14710   2.663   4.626   8.790  0.1036  0.5249  0.0356
 1026SOL    HW114711   2.679   4.718   8.767 -0.7145  1.1169  1.7964
 1026SOL    HW214712   2.592   4.631   8.855 -0.9038 -1.2010 -0.9554
 1027SOL     OW14713   2.809   1.543   6.232  0.0462  0.3092  0.2138
 1027SOL    HW114714   2.897   1.516   6.204 -0.5838 -1.6236  0.1137
 1027SOL    HW214715   2.828   1.636   6.246 -1.7993  1.1121 -2.7794
 1028SOL     OW14716   3.498   4.720   8.704  0.3317 -0.8650  0.1114
 1028SOL    HW114717   3.457   4.729   8.790  0.5730 -2.4422  0.3832
 1028SOL    HW214718   3.591   4.722   8.727  0.5053 -1.3908 -0.5489
 1029SOL     OW14719   2.127   2.936  17.606  0.3311  0.5320 -0.2684
 1029SOL    HW114720   2.205   2.991  17.610 -0.4405  1.5762  0.3867
 1029SOL    HW214721   2.150   2.861  17.661 -0.6827  0.1961 -0.3064
 1030SOL     OW14722   1.334   1.645  17.759  0.1224 -0.3171  0.5493
 1030SOL    HW114723   1.304   1.640   0.086 -0.8489  0.5389  0.2690
 1030SOL    HW214724   1.363   1.557  17.736  0.2335 -0.2085  0.2739
 1031SOL     OW14725   1.639   3.327   6.475 -0.1681 -0.6510 -0.4525
 1031SOL    HW114726   1.705   3.397   6.481 -1.1034  0.1700  0.1871
 1031SOL    HW214727   1.582   3.368   6.410 -0.1044  1.0421  0.5524
 1032SOL     OW14728   1.707   0.998   4.627 -0.2805 -0.1251 -0.3573
 1032SOL    HW114729   1.719   0.998   4.722 -0.1170 -3.1494 -0.3917
 1032SOL    HW214730   1.629   0.946   4.607 -0.4352  0.3530 -1.0138
 1033SOL     OW14731   2.005   4.613   1.860  0.3685 -0.2019 -0.6385
 1033SOL    HW114732   1.953   4.596   1.782  0.4106  1.7235 -1.0894
 1033SOL    HW214733   2.056   4.687   1.824  0.8453 -0.4419 -0.4576
 1034SOL     OW14734   3.488   1.514   8.760  0.2384  0.4894 -0.7172
 1034SOL    HW114735   3.421   1.582   8.767  2.4667  2.6118 -0.3547
 1034SOL    HW214736   3.497   1.495   8.853  2.4740  2.0543 -0.6241
 1035SOL     OW14737   2.223   0.882  15.040  0.2502 -0.5930 -0.1567
 1035SOL    HW114738   2.157   0.876  14.972 -2.7313 -1.3936  2.7829
 1035SOL    HW214739   2.285   0.818  15.004 -1.2060 -1.5055 -1.0253
 1036SOL     OW14740   2.438   2.677  10.069  0.0153 -0.3096 -0.0915
 1036SOL    HW114741   2.451   2.772  10.078 -0.0227 -0.2152 -1.0051
 1036SOL    HW214742   2.401   2.678   9.981 -1.5956 -1.1768  0.5732
 1037SOL     OW14743   1.259   3.518   2.338 -0.5750  0.3276  0.0574
 1037SOL    HW114744   1.213   3.585   2.388  1.5210  1.6299  0.2583
 1037SOL    HW214745   1.188   3.456   2.327 -0.7626  0.7027 -0.8324
 1038SOL     OW14746   3.486   4.607   9.068 -0.1639 -0.1082 -0.6440
 1038SOL    HW114747   3.497   4.582   9.159 -0.0439  1.6817 -0.1751
 1038SOL    HW214748   3.571   4.649   9.056 -1.4198  2.8809  1.0033
 1039SOL     OW14749   2.403   0.254   2.945 -0.2630  0.3245 -0.7359
 1039SOL    HW114750   2.309   0.234   2.942 -0.1210 -0.2390 -1.2580
 1039SOL    HW214751   2.426   0.289   2.859 -2.9433  0.4470 -1.3919
 1040SOL     OW14752   3.598   2.822   3.080 -0.1098  0.0239 -0.4003
 1040SOL    HW114753   3.574   2.811   2.988 -2.0820  3.8818 -0.3362
 1040SOL    HW214754   3.676   2.877   3.071  0.7603 -1.5415 -2.3445
 1041SOL     OW14755   2.888   0.590   9.243  0.7654 -0.0477 -0.8499
 1041SOL    HW114756   2.956   0.523   9.250  1.0212  0.3468  0.5384
 1041SOL    HW214757   2.928   0.673   9.267 -0.5347 -0.6748  3.5634
 1042SOL     OW14758   1.360   3.022   7.700  0.2351  0.4253  0.3131
 1042SOL    HW114759   1.300   2.986   7.635  0.6286 -0.3573  0.3799
 1042SOL    HW214760   1.301   3.084   7.742  2.1345  0.6736  2.6339
 1043SOL     OW14761   0.007   4.656   5.793  0.3317  0.2816  0.1487
 1043SOL    HW114762   4.684   4.632   5.859  0.1324  0.5327  0.0443
 1043SOL    HW214763   4.736   4.581   5.735 -1.9665 -1.0170  2.3432
 1044SOL     OW14764   2.084   3.878   1.093 -0.5208  0.3864 -0.4707
 1044SOL    HW114765   2.172   3.872   1.130 -0.9060  0.0801  0.4192
 1044SOL    HW214766   2.106   3.884   1.000  0.6308  1.9342 -0.0976
 1045SOL     OW14767   3.361   1.280  12.737 -0.1282 -0.5857  0.7495
 1045SOL    HW114768   3.288   1.260  12.796 -0.5568 -0.2671  0.3267
 1045SOL    HW214769   3.418   1.206  12.759  0.1725 -0.5150  0.2033
 1046SOL     OW14770   1.919   1.200   3.088  0.5247  0.4138  0.6511
 1046SOL    HW114771   1.896   1.293   3.083  0.6273  0.4214  0.3395
 1046SOL    HW214772   1.833   1.158   3.094 -0.4465  2.5877  1.9745
 1047SOL     OW14773   1.593   2.170  15.557 -0.4153 -0.4110 -0.3922
 1047SOL    HW114774   1.563   2.118  15.483 -0.6786  0.6432 -1.0363
 1047SOL    HW214775   1.574   2.258  15.523 -2.4544 -1.4157 -1.8681
 1048SOL     OW14776   4.052   2.363   0.446  0.4775 -0.3859 -0.5598
 1048SOL    HW114777   3.981   2.385   0.386  0.3462 -2.2419 -1.0935
 1048SOL    HW214778   4.064   2.442   0.499  0.1520 -0.2969 -0.6223
 1049SOL     OW14779   1.569   0.763   1.882 -0.5344  0.2376  0.1675
 1049SOL    HW114780   1.516   0.797   1.809  3.8737  0.4324 -2.9399
 1049SOL    HW214781   1.502   0.723   1.938 -0.2993 -1.8498 -1.0451
 1050SOL     OW14782   2.509   3.065  10.438 -0.4294 -0.3207 -0.4910
 1050SOL    HW114783   2.493   3.024  10.523 -2.0432  0.0968 -0.5802
 1050SOL    HW214784   2.493   2.991  10.380  0.3583  0.1211 -1.2732
 1051SOL     OW14785   3.320   2.972   5.576  0.0567  0.6207  0.5672
 1051SOL    HW114786   3.336   3.051   5.627 -0.8230  0.7134  0.6990
 1051SOL    HW214787   3.401   2.922   5.579 -0.5396 -0.2774  1.8701
 1052SOL     OW14788   1.825   0.659   4.759  0.7435 -0.2383 -0.1200
 1052SOL    HW114789   1.799   0.568   4.775 -1.2392  0.0906 -1.4788
 1052SOL    HW214790   1.835   0.655   4.664  0.8474 -1.3669 -0.0570
 1053SOL     OW14791   1.275   0.799   4.732  0.2406  0.3356 -0.5785
 1053SOL    HW114792   1.316   0.759   4.655  0.1417 -0.2101 -0.3456
 1053SOL    HW214793   1.207   0.731   4.732  1.0332 -0.4642 -1.9211
 1054SOL     OW14794   2.490   3.108   7.594 -0.8146  0.5798 -0.3065
 1054SOL    HW114795   2.406   3.140   7.627 -2.4266 -3.3050 -0.5638
 1054SOL    HW214796   2.497   3.157   7.512  0.4534 -0.1473 -0.6336
 1055SOL     OW14797   3.894   2.713   4.895 -0.3179 -1.2052  0.6114
 1055SOL    HW114798   3.812   2.696   4.849  0.2285 -0.9116 -0.4631
 1055SOL    HW214799   3.958   2.670   4.839  0.6860 -1.2437  1.7850
 1056SOL     OW14800   3.104   0.287   2.546 -0.4635  0.2734  0.1289
 1056SOL    HW114801   3.054   0.223   2.595  0.5373  0.0929  0.9175
 1056SOL    HW214802   3.177   0.306   2.605 -1.1303  1.5488  0.5570
 1057SOL     OW14803   2.718   0.069   7.961 -0.3538  0.0199 -0.4154
 1057SOL    HW114804   2.638   0.034   7.999  1.4335 -2.1339  1.3126
 1057SOL    HW214805   2.743   4.730   7.916 -1.2640 -0.5098  0.0519
 1058SOL     OW14806   1.998   2.374   2.634  0.0533  0.3581  0.1189
 1058SOL    HW114807   1.954   2.325   2.702 -0.1667  0.3316 -0.0419
 1058SOL    HW214808   1.943   2.360   2.557 -0.5238 -1.8308  0.9312
 1059SOL     OW14809   3.226   1.839   2.232 -0.6725  0.0547  0.3673
 1059SOL    HW114810   3.184   1.829   2.146 -0.7756 -2.8470  0.7789
 1059SOL    HW214811   3.158   1.888   2.279 -0.4925  1.2614 -0.6115
 1060SOL     OW14812   2.566   2.616   9.565  0.2110  0.3009  0.5429
 1060SOL    HW114813   2.569   2.709   9.543  0.2729  1.0918  3.8669
 1060SOL    HW214814   2.539   2.573   9.484 -0.5149  1.8033 -0.0150
 1061SOL     OW14815   0.266   1.641   7.924 -0.1416 -0.7727  0.7085
 1061SOL    HW114816   0.171   1.634   7.931 -0.4909  3.3282  0.2973
 1061SOL    HW214817   0.282   1.735   7.930 -1.3039 -0.6187  1.4648
 1062SOL     OW14818   2.001   0.288  16.958  0.3819 -0.5900 -0.2186
 1062SOL    HW114819   1.928   0.245  16.913 -1.9860  0.6943  2.4498
 1062SOL    HW214820   1.976   0.379  16.946  1.1442 -0.2680  0.6912
 1063SOL     OW14821   0.604   2.709  15.089  0.3483  0.5706 -0.1834
 1063SOL    HW114822   0.577   2.792  15.128  0.9594  0.8904 -0.4560
 1063SOL    HW214823   0.699   2.705  15.097  0.2627  1.3775  1.1594
 1064SOL     OW14824   4.603   2.919  16.891  0.0607 -0.8742  0.2973
 1064SOL    HW114825   4.615   2.866  16.970 -0.0661  0.8189  1.4762
 1064SOL    HW214826   4.509   2.934  16.886  0.2130  0.0005  0.0352
 1065SOL     OW14827   4.594   2.872   8.566  0.5870  0.3733 -0.4706
 1065SOL    HW114828   4.672   2.921   8.543  0.6620  0.6722  0.4118
 1065SOL    HW214829   4.632   2.796   8.609 -1.8347 -0.3964  0.2917
 1066SOL     OW14830   4.588   2.469   2.970  0.5687 -0.2121  0.1701
 1066SOL    HW114831   4.588   2.563   2.987  2.1143  0.1423 -1.7991
 1066SOL    HW214832   4.677   2.443   2.993  0.9956 -0.4309 -1.6736
 1067SOL     OW14833   2.420   1.355   8.590  0.1741 -0.8982  0.2558
 1067SOL    HW114834   2.398   1.268   8.556  1.7954 -0.2788 -2.3488
 1067SOL    HW214835   2.474   1.323   8.662  0.0865  1.5687  1.4158
 1068SOL     OW14836   4.354   2.562   5.723 -0.2060 -0.1839 -0.1845
 1068SOL    HW114837   4.277   2.516   5.754  0.5662 -0.3668  1.4415
 1068SOL    HW214838   4.407   2.563   5.803  1.1539 -0.9095 -1.0736
 1069SOL     OW14839   3.723   0.512   3.289 -0.1156  0.1093 -0.2522
 1069SOL    HW114840   3.714   0.432   3.340  2.3426 -0.8059 -1.2240
 1069SOL    HW214841   3.814   0.493   3.265 -0.6179 -1.1655 -1.1056
 1070SOL     OW14842   2.765   4.287   8.986 -0.1572 -0.1945 -0.0251
 1070SOL    HW114843   2.719   4.232   9.050 -1.2468 -0.9044 -1.3971
 1070SOL    HW214844   2.697   4.296   8.919  0.2528 -1.3969 -0.5983
 1071SOL     OW14845   1.692   2.355   9.545 -0.7756  0.2748 -0.0694
 1071SOL    HW114846   1.649   2.435   9.577  0.1862 -0.0520  2.0200
 1071SOL    HW214847   1.614   2.317   9.504 -2.4505  2.1081  1.4445
 1072SOL     OW14848   1.739   2.071  10.017 -0.3261 -0.2597 -0.4325
 1072SOL    HW114849   1.824   2.052   9.976  0.2904  0.3845  0.5448
 1072SOL    HW214850   1.714   2.151   9.972 -1.2402  0.4057  1.2372
 1073SOL     OW14851   3.508   4.515  16.635 -1.0292 -0.0485  0.1290
 1073SOL    HW114852   3.485   4.515  16.727 -0.2963  0.5637  0.3096
 1073SOL    HW214853   3.423   4.515  16.590 -1.5433 -0.8730  1.1188
 1074SOL     OW14854   2.572   3.955   1.007  0.0309  0.0209 -0.5041
 1074SOL    HW114855   2.589   4.010   0.930  1.4595 -1.3477 -1.1627
 1074SOL    HW214856   2.557   3.867   0.973  2.5926 -0.8817  0.6554
 1075SOL     OW14857   0.237   3.865  13.052 -0.1809  0.3732  0.2234
 1075SOL    HW114858   0.266   3.937  13.108  1.2716  0.3168 -0.4470
 1075SOL    HW214859   0.148   3.847  13.080 -0.8446  1.7864 -0.9819
 1076SOL     OW14860   4.122   0.074   8.869 -0.5616 -0.1582 -0.0603
 1076SOL    HW114861   4.099   0.056   8.778 -1.3485 -0.4182  0.1891
 1076SOL    HW214862   4.117   0.169   8.874  3.3174  0.1215 -1.4774
 1077SOL     OW14863   2.674   1.030   3.606  0.9036  0.4163 -0.3315
 1077SOL    HW114864   2.752   1.024   3.661  1.2432  0.5910 -0.8008
 1077SOL    HW214865   2.680   0.953   3.550  0.1017 -0.9649  1.4768
 1078SOL     OW14866   1.791   1.544   2.763  0.2143 -0.3882 -0.3603
 1078SOL    HW114867   1.706   1.569   2.727 -0.1896 -1.6134 -0.2786
 1078SOL    HW214868   1.833   1.629   2.768 -2.1724  0.6372  2.8303
 1079SOL     OW14869   4.316   2.698  10.458  0.7147 -0.2125 -0.2617
 1079SOL    HW114870   4.379   2.769  10.471 -0.3461  0.5495  0.6357
 1079SOL    HW214871   4.285   2.685  10.548  2.0973  2.4403  0.6150
 1080SOL     OW14872   3.838   1.600   7.108  0.2552  0.2565 -0.0901
 1080SOL    HW114873   3.784   1.541   7.160 -0.4069  1.6298  0.7780
 1080SOL    HW214874   3.780   1.597   7.032 -1.0921 -1.9837  1.0184
 1081SOL     OW14875   2.717   4.207   9.920  0.0687  0.0027 -0.3383
 1081SOL    HW114876   2.803   4.202   9.962  0.0218 -1.8943 -0.4329
 1081SOL    HW214877   2.716   4.113   9.900 -1.5278  0.0938 -0.6889
 1082SOL     OW14878   0.607   4.082   1.742  0.6487  0.5518 -0.0031
 1082SOL    HW114879   0.526   4.124   1.711  0.3887 -1.6291 -2.3414
 1082SOL    HW214880   0.672   4.131   1.692  0.9673  0.8533  0.7249
 1083SOL     OW14881   4.176   4.256   0.526 -0.2031 -0.0963  0.2899
 1083SOL    HW114882   4.137   4.286   0.608  0.8737  2.0437  0.0427
 1083SOL    HW214883   4.160   4.311   0.449  1.0452  3.2353  2.3917
 1084SOL     OW14884   3.374   2.904  15.249 -0.2228  0.0969 -0.7038
 1084SOL    HW114885   3.446   2.867  15.300 -0.1764  0.4033 -0.5526
 1084SOL    HW214886   3.395   2.866  15.164 -0.3650  1.2004 -1.2290
 1085SOL     OW14887   2.668   3.724   8.158  0.0638  0.3937 -0.0140
 1085SOL    HW114888   2.697   3.771   8.237  0.7007 -1.3976  0.8249
 1085SOL    HW214889   2.603   3.786   8.124 -1.2371  0.0191  1.7420
 1086SOL     OW14890   2.620   0.812   8.039 -0.0378 -0.5035 -0.4019
 1086SOL    HW114891   2.583   0.746   8.098 -3.2935 -0.1936 -2.1003
 1086SOL    HW214892   2.684   0.753   7.999 -0.9373 -0.9979 -1.1172
 1087SOL     OW14893   3.724   2.885   6.932  0.1100  0.2187  0.1497
 1087SOL    HW114894   3.794   2.827   6.962 -0.3075 -1.5808 -2.3488
 1087SOL    HW214895   3.754   2.971   6.903 -2.3969  1.8742  2.3964
 1088SOL     OW14896   1.155   4.464   2.811  0.0382  0.3547 -0.0007
 1088SOL    HW114897   1.133   4.547   2.854  0.3830  0.4585 -0.0303
 1088SOL    HW214898   1.237   4.445   2.856 -0.4873 -0.9574  0.3992
 1089SOL     OW14899   2.937   1.053   4.876 -0.4998  0.2431  0.3521
 1089SOL    HW114900   2.949   0.959   4.869  1.4192  0.5221  0.1237
 1089SOL    HW214901   3.016   1.095   4.844  0.6743 -0.5823  2.2053
 1090SOL     OW14902   2.400   3.208  16.168  0.2681  0.0181 -0.9809
 1090SOL    HW114903   2.389   3.242  16.257 -0.3224  0.7095 -1.3189
 1090SOL    HW214904   2.326   3.150  16.150  0.4136 -0.3211 -0.4775
 1091SOL     OW14905   1.807   1.635   9.351 -0.0138 -0.1098  0.0636
 1091SOL    HW114906   1.723   1.603   9.318  0.8185 -0.5754 -1.6108
 1091SOL    HW214907   1.842   1.547   9.370 -0.4680 -0.2201  0.3925
 1092SOL     OW14908   3.175   0.044   1.854  0.0691 -0.0853 -0.5692
 1092SOL    HW114909   3.247   4.741   1.898  0.7897 -0.1290 -1.7713
 1092SOL    HW214910   3.118   4.709   1.861 -0.1205  0.1041 -0.1021
 1093SOL     OW14911   3.120   0.046  16.859  0.2543  0.0831  0.0438
 1093SOL    HW114912   3.053   0.108  16.833 -0.3260 -1.3005 -1.7357
 1093SOL    HW214913   3.147   0.006  16.777  0.5428  0.7295 -0.1809
 1094SOL     OW14914   2.443   2.612   8.705  0.8832  0.4008 -0.1514
 1094SOL    HW114915   2.462   2.547   8.637  2.4129 -0.5619  1.1740
 1094SOL    HW214916   2.398   2.551   8.764  1.0838  0.7479  0.3597
 1095SOL     OW14917   4.577   1.266   6.196  0.3331  0.4300  0.1008
 1095SOL    HW114918   4.638   1.339   6.204 -1.1681  1.3096  3.1572
 1095SOL    HW214919   4.522   1.277   6.273 -2.0236 -0.7070 -1.4133
 1096SOL     OW14920   0.420   2.319   8.305 -0.3866  0.4140 -0.1078
 1096SOL    HW114921   0.384   2.246   8.255 -0.2822  0.6195 -0.4862
 1096SOL    HW214922   0.491   2.277   8.353 -1.6214 -0.1310  1.2602
 1097SOL     OW14923   4.280   2.244   0.443  0.0791  0.2125  0.1735
 1097SOL    HW114924   4.303   2.259   0.351 -0.6215 -1.1361 -0.2349
 1097SOL    HW214925   4.186   2.262   0.442 -0.4747 -2.5891 -1.1466
 1098SOL     OW14926   3.410   2.704   2.064  0.0069  0.3015 -0.0947
 1098SOL    HW114927   3.374   2.651   2.135  0.8170 -0.5991 -0.3639
 1098SOL    HW214928   3.391   2.649   1.988 -0.9981  1.9339 -1.0412
 1099SOL     OW14929   1.158   1.811   1.882  0.5320 -0.2724  0.2137
 1099SOL    HW114930   1.085   1.790   1.940 -0.4919 -1.4531 -1.5040
 1099SOL    HW214931   1.201   1.887   1.921  0.3056 -0.3149  0.5488
 1100SOL     OW14932   3.621   2.962   4.432  0.2971 -0.3832 -0.2066
 1100SOL    HW114933   3.634   2.955   4.527 -0.9314 -1.4654 -0.1233
 1100SOL    HW214934   3.527   2.952   4.415 -0.2595  2.2194  1.2585
 1101SOL     OW14935   1.101   4.236   6.633 -0.0952 -0.0422 -0.6584
 1101SOL    HW114936   1.025   4.194   6.673  1.6488 -3.7986 -1.3276
 1101SOL    HW214937   1.117   4.168   6.568 -0.8954 -0.6233 -0.2418
 1102SOL     OW14938   4.005   2.850   7.674  0.5242  0.3749 -0.0776
 1102SOL    HW114939   3.969   2.936   7.696  0.3130  0.3020 -0.1359
 1102SOL    HW214940   4.098   2.858   7.696  0.4510 -1.8436  1.0420
 1103SOL     OW14941   1.283   0.247   6.062  0.2136 -0.3023  0.4144
 1103SOL    HW114942   1.190   0.254   6.084 -0.0443 -0.5616 -0.5911
 1103SOL    HW214943   1.319   0.206   6.140 -0.1589 -0.7625  0.3477
 1104SOL     OW14944   0.014   3.416  15.342 -0.6025  0.1071  0.5719
 1104SOL    HW114945   0.044   3.327  15.324  2.3651  1.3172 -0.3639
 1104SOL    HW214946   4.681   3.397  15.398  0.4938 -0.2566  1.8903
 1105SOL     OW14947   1.147   2.714   3.287 -1.1566  0.2617 -0.0136
 1105SOL    HW114948   1.101   2.634   3.260 -0.5020 -0.0353 -0.2559
 1105SOL    HW214949   1.234   2.700   3.250 -1.3537 -1.1374  0.0494
 1106SOL     OW14950   2.891   4.232   1.497  0.4246 -0.2281  0.7412
 1106SOL    HW114951   2.913   4.225   1.590  0.8874  0.9066  0.7261
 1106SOL    HW214952   2.814   4.289   1.506 -2.0898 -3.3469 -0.7904
 1107SOL     OW14953   2.743   2.990   8.166 -0.0491 -0.1324 -0.2195
 1107SOL    HW114954   2.820   2.956   8.211  0.8442  2.7308  0.4276
 1107SOL    HW214955   2.720   3.072   8.209  1.2614 -0.0494  0.3018
 1108SOL     OW14956   4.354   3.755   9.795 -0.3441 -0.0348  0.3986
 1108SOL    HW114957   4.339   3.849   9.787  1.0251 -0.1585 -3.3213
 1108SOL    HW214958   4.436   3.744   9.747 -1.6530 -2.0877 -1.3111
 1109SOL     OW14959   1.075   3.745   2.397  0.0688 -0.0254 -0.3855
 1109SOL    HW114960   1.083   3.779   2.486 -1.7831 -1.2566  0.2527
 1109SOL    HW214961   0.982   3.725   2.394 -0.2749  1.7290 -1.7719
 1110SOL     OW14962   4.414   0.811   7.395 -0.7867  0.9116  0.3126
 1110SOL    HW114963   4.430   0.863   7.474  3.9264  2.0021 -1.3398
 1110SOL    HW214964   4.446   0.878   7.334  0.5069 -0.8793 -0.9538
 1111SOL     OW14965   0.984   3.173   3.395  0.1993 -0.1268  0.3687
 1111SOL    HW114966   0.946   3.157   3.482 -1.0994 -0.4062 -0.2368
 1111SOL    HW214967   1.024   3.091   3.366  1.4603 -0.1574  2.1763
 1112SOL     OW14968   1.155   3.964   8.261  0.4777  0.4095  0.2115
 1112SOL    HW114969   1.242   3.942   8.226  0.3724  0.8137 -0.3070
 1112SOL    HW214970   1.166   4.022   8.337  0.5246 -0.2112  0.6752
 1113SOL     OW14971   3.718   4.150   9.202  0.0339  0.1821 -0.1517
 1113SOL    HW114972   3.687   4.061   9.186  0.1973  0.4169 -1.7331
 1113SOL    HW214973   3.701   4.183   9.114  0.0096 -2.0128 -0.9589
 1114SOL     OW14974   1.753   3.041   9.991  0.3556  0.5331 -0.0322
 1114SOL    HW114975   1.747   2.958  10.038 -0.8125  0.5724 -0.1275
 1114SOL    HW214976   1.741   3.106  10.061 -0.1373 -1.3396  1.5941
 1115SOL     OW14977   2.740   1.555   5.231 -0.0988  0.1703  0.7020
 1115SOL    HW114978   2.800   1.484   5.206 -1.2092 -0.8730  1.0012
 1115SOL    HW214979   2.658   1.523   5.193  1.5217 -1.7551 -1.2112
 1116SOL     OW14980   0.139   0.750   1.763  0.3496  0.0965 -0.2351
 1116SOL    HW114981   0.076   0.740   1.692 -1.2516  1.6957  0.9905
 1116SOL    HW214982   0.177   0.834   1.736  3.2801 -1.7419 -1.9163
 1117SOL     OW14983   2.119   2.900   7.756  0.2259  0.2220 -0.2849
 1117SOL    HW114984   2.025   2.915   7.760  0.0412 -1.0598  0.2501
 1117SOL    HW214985   2.123   2.847   7.677  2.1629  0.8523 -0.5979
 1118SOL     OW14986   4.595   2.483   5.522  0.9001  0.5075  0.5712
 1118SOL    HW114987   4.565   2.393   5.531  1.3069  0.3914  0.7724
 1118SOL    HW214988   4.518   2.521   5.480  0.1162  0.8322  2.3131
 1119SOL     OW14989   0.503   2.462   5.878  0.3066  0.2482 -0.1051
 1119SOL    HW114990   0.565   2.509   5.822  1.5455 -1.2583  0.0322
 1119SOL    HW214991   0.565   2.448   5.950 -2.9907 -0.8293  2.5404
 1120SOL     OW14992   4.298   2.730   2.991  0.6145  0.0803 -0.1445
 1120SOL    HW114993   4.393   2.735   2.999  0.7858 -2.4199 -0.6239
 1120SOL    HW214994   4.289   2.669   2.917 -1.3089  0.6957 -0.4188
 1121SOL     OW14995   4.148   3.671   3.127  0.3511  0.2172  0.3508
 1121SOL    HW114996   4.122   3.709   3.210 -1.8430  2.3534 -1.3093
 1121SOL    HW214997   4.229   3.720   3.108  0.6194 -0.0649  0.7756
 1122SOL     OW14998   1.047   2.422   3.577  0.0839 -0.2452 -0.5219
 1122SOL    HW114999   1.018   2.401   3.665 -2.2785  0.5941 -1.1105
 1122SOL    HW215000   1.019   2.514   3.573  1.0366  0.0515 -0.5159
 1123SOL     OW15001   0.697   4.611   2.870  0.5471 -0.1891  0.4168
 1123SOL    HW115002   0.619   4.555   2.878  0.1898  0.1208 -0.9954
 1123SOL    HW215003   0.707   4.650   2.956 -0.4756  1.6608 -0.3048
 1124SOL     OW15004   3.754   1.813   4.829  0.3881 -0.2561 -0.7822
 1124SOL    HW115005   3.677   1.824   4.886  0.5986 -0.7109 -0.4093
 1124SOL    HW215006   3.761   1.898   4.787  1.8686  0.7943  1.6160
 1125SOL     OW15007   2.472   3.786  16.032 -0.6174 -0.2316  0.1073
 1125SOL    HW115008   2.486   3.714  15.971  1.0864 -0.3631  0.6541
 1125SOL    HW215009   2.461   3.865  15.978 -1.1373  0.2406  0.9054
 1126SOL     OW15010   1.849   3.772   8.944 -0.0488  0.0962 -0.3377
 1126SOL    HW115011   1.918   3.730   8.894 -1.2562 -2.7453  0.4009
 1126SOL    HW215012   1.800   3.821   8.877 -0.7966 -1.2587 -0.7732
 1127SOL     OW15013   3.117   0.408   9.375  0.0031 -0.3486  0.0233
 1127SOL    HW115014   3.142   0.460   9.452  1.7992 -0.8264 -0.2281
 1127SOL    HW215015   3.171   0.330   9.390  2.2600  1.3896  0.9937
 1128SOL     OW15016   4.120   2.306   7.229  0.0196  0.5790 -0.2499
 1128SOL    HW115017   4.162   2.337   7.148  0.5785 -0.5965 -0.3977
 1128SOL    HW215018   4.058   2.375   7.254 -3.1132 -1.9529 -1.0224
 1129SOL     OW15019   1.349   2.553   1.887 -0.4244 -0.0783 -0.2696
 1129SOL    HW115020   1.340   2.550   1.982 -2.1689 -2.3793 -0.4974
 1129SOL    HW215021   1.443   2.544   1.871 -0.5377 -1.4840 -0.0828
 1130SOL     OW15022   1.738   1.037   9.758 -0.3196 -0.1889  0.2540
 1130SOL    HW115023   1.804   1.076   9.815  0.3473 -0.9964  0.0355
 1130SOL    HW215024   1.747   1.086   9.676  1.1340  1.0621  1.1856
 1131SOL     OW15025   2.126   1.273   8.037  0.0302  0.4294  0.4715
 1131SOL    HW115026   2.159   1.190   8.073 -0.7684  0.0813  0.3970
 1131SOL    HW215027   2.208   1.320   8.019  0.3623 -0.6272 -0.8033
 1132SOL     OW15028   4.639   4.479   9.136  0.4995 -0.3111  0.3048
 1132SOL    HW115029   4.582   4.488   9.060  2.2028  0.1253 -0.9112
 1132SOL    HW215030   4.578   4.517   9.200 -0.1875 -1.1419  0.1398
 1133SOL     OW15031   0.008   0.702   5.585  0.0110  0.4737  0.0021
 1133SOL    HW115032   4.696   0.770   5.625 -2.6821 -1.5955 -0.1507
 1133SOL    HW215033   0.091   0.749   5.570 -1.0083  3.0704  2.6075
 1134SOL     OW15034   2.680   0.879  11.195 -0.1532  0.4282 -0.1520
 1134SOL    HW115035   2.706   0.892  11.104  2.0970 -2.1317  0.1022
 1134SOL    HW215036   2.652   0.787  11.196 -3.6864  1.5056 -1.0937
 1135SOL     OW15037   0.193   3.421   3.012 -0.0234  0.3751 -0.6625
 1135SOL    HW115038   0.275   3.451   2.973  1.9901 -0.4053  3.0000
 1135SOL    HW215039   0.239   3.378   3.085 -0.1224  1.2750 -0.0746
 1136SOL     OW15040   0.479   2.593   3.728  0.4878 -0.0921  0.4957
 1136SOL    HW115041   0.534   2.569   3.803  1.5655 -0.8825 -0.5369
 1136SOL    HW215042   0.455   2.680   3.759  0.1090 -0.3288  0.8563
 1137SOL     OW15043   1.254   4.692   3.866  0.2736  0.3365  0.5499
 1137SOL    HW115044   1.312   4.655   3.932 -2.6994 -0.2888  2.8045
 1137SOL    HW215045   1.318   4.725   3.803 -0.2675  1.2031  0.4489
 1138SOL     OW15046   2.202   0.616  16.679  0.3960 -0.5488  0.2247
 1138SOL    HW115047   2.222   0.525  16.700 -1.6237 -1.2916 -1.0344
 1138SOL    HW215048   2.241   0.664  16.752 -0.0104 -0.7059  0.5444
 1139SOL     OW15049   2.036   4.317  10.509 -0.1430 -0.3037  0.3370
 1139SOL    HW115050   2.125   4.352  10.502  0.0321 -0.7466  0.3778
 1139SOL    HW215051   2.000   4.352  10.427  1.1395 -0.0811 -0.1346
 1140SOL     OW15052   3.155   1.152  14.475 -0.8053  0.2973 -0.5336
 1140SOL    HW115053   3.177   1.137  14.567 -0.5454 -0.7795 -0.7817
 1140SOL    HW215054   3.083   1.215  14.478 -2.4281 -1.5474 -0.8179
 1141SOL     OW15055   0.677   2.690   2.035 -0.1727  0.5096 -0.2164
 1141SOL    HW115056   0.691   2.601   2.004 -0.0311 -0.1058  1.6245
 1141SOL    HW215057   0.592   2.692   2.079  0.4929  1.0179  1.0587
 1142SOL     OW15058   2.539   0.412   3.109 -0.1498  0.6537 -0.0458
 1142SOL    HW115059   2.540   0.347   3.180 -0.0824  1.4665  0.7063
 1142SOL    HW215060   2.474   0.368   3.056 -0.4955  0.6589  0.3720
 1143SOL     OW15061   1.677   2.860   5.234  0.2385 -0.2470  0.2001
 1143SOL    HW115062   1.742   2.801   5.270  1.4964  1.2840  0.4607
 1143SOL    HW215063   1.696   2.943   5.278  0.7590 -0.2984  0.0774
 1144SOL     OW15064   1.285   3.108   5.190  0.3659  0.3122 -0.6743
 1144SOL    HW115065   1.308   3.115   5.283  2.0250  0.9806 -1.1544
 1144SOL    HW215066   1.221   3.179   5.186 -0.3739 -0.3122 -0.1769
 1145SOL     OW15067   4.569   1.150   8.898 -0.3183  0.1895  0.0953
 1145SOL    HW115068   4.650   1.192   8.867  0.4270 -0.9368  0.5118
 1145SOL    HW215069   4.567   1.067   8.851  0.2497  0.0160  0.3854
 1146SOL     OW15070   4.410   0.995   4.198  0.3351  0.0128  0.2983
 1146SOL    HW115071   4.323   1.029   4.180  0.4391 -0.3933 -0.9557
 1146SOL    HW215072   4.390   0.945   4.277 -0.4391  0.0730  0.1379
 1147SOL     OW15073   4.080   4.599  17.074 -0.1444 -0.1528  0.0753
 1147SOL    HW115074   4.119   4.646  17.148  2.4439 -1.9677 -0.1340
 1147SOL    HW215075   4.132   4.520  17.060 -0.3130 -0.7856  2.8833
 1148SOL     OW15076   4.374   0.325   9.395  0.0857 -0.0780 -0.0319
 1148SOL    HW115077   4.339   0.236   9.392 -1.5882  0.5296  1.4069
 1148SOL    HW215078   4.441   0.293   9.456 -0.8970  0.8796  1.5560
 1149SOL     OW15079   0.671   0.079   5.486 -0.1181  0.4310  0.2776
 1149SOL    HW115080   0.601   0.125   5.532 -1.0444 -0.8774  0.1846
 1149SOL    HW215081   0.739   0.066   5.552  0.3353  1.0201 -0.0814
 1150SOL     OW15082   2.895   0.476  13.781 -0.6580  0.5548  0.1304
 1150SOL    HW115083   2.967   0.515  13.731  0.6308 -0.0610  1.5247
 1150SOL    HW215084   2.924   0.388  13.804 -1.8346 -0.4811 -2.3507
 1151SOL     OW15085   1.744   1.501   4.774  0.2105  0.3334  0.4057
 1151SOL    HW115086   1.822   1.461   4.812 -0.5779 -2.3750 -0.8561
 1151SOL    HW215087   1.690   1.424   4.789  1.4415 -0.0207  2.9752
 1152SOL     OW15088   0.228   0.471  14.011 -0.2201  0.0451  0.8972
 1152SOL    HW115089   0.150   0.508  13.970  0.7221  1.3216  0.2569
 1152SOL    HW215090   0.292   0.538  13.988  1.5659 -2.3074 -0.9823
 1153SOL     OW15091   1.523   2.242   6.121 -0.0409  0.1479 -0.2177
 1153SOL    HW115092   1.513   2.275   6.210  0.3022  0.0242 -0.1331
 1153SOL    HW215093   1.599   2.185   6.129  0.8845  1.5677  1.1258
 1154SOL     OW15094   4.285   0.779  12.961  0.3455 -0.1322 -1.0755
 1154SOL    HW115095   4.192   0.782  12.981  0.9036  0.2276  1.5587
 1154SOL    HW215096   4.311   0.870  12.946 -1.5015  0.8674  1.7299
 1155SOL     OW15097   0.472   0.313   7.419 -0.3190 -0.7814 -0.0089
 1155SOL    HW115098   0.559   0.343   7.444 -0.2379 -0.1695 -1.0404
 1155SOL    HW215099   0.474   0.310   7.324  0.5965 -0.8350  0.0149
 1156SOL     OW15100   3.532   3.979   3.562 -0.9282 -0.1854 -0.1072
 1156SOL    HW115101   3.463   4.040   3.590 -1.9369 -0.5599 -1.7961
 1156SOL    HW215102   3.492   3.907   3.513  0.0040  1.1217 -2.7820
 1157SOL     OW15103   0.209   4.497   3.681  0.8340 -1.2005 -0.2219
 1157SOL    HW115104   0.247   4.418   3.643 -0.5759 -2.4806  1.0363
 1157SOL    HW215105   0.117   4.477   3.664  1.0014 -0.9329 -1.4805
 1158SOL     OW15106   3.734   1.826   2.175  0.2235 -0.2426  0.5106
 1158SOL    HW115107   3.642   1.802   2.174  0.3908 -0.8452 -0.7210
 1158SOL    HW215108   3.742   1.830   2.080  0.0751 -2.2847  0.4230
 1159SOL     OW15109   1.016   3.150   7.205 -0.0988 -0.1429 -0.2176
 1159SOL    HW115110   1.068   3.218   7.162 -0.8350  0.7509  0.3068
 1159SOL    HW215111   1.072   3.075   7.225  0.4847  0.4001  0.1797
 1160SOL     OW15112   4.128   2.663   0.480 -0.1079  0.8965 -0.7315
 1160SOL    HW115113   4.178   2.711   0.415  1.7697  0.9848  0.7552
 1160SOL    HW215114   4.192   2.655   0.551  0.4365 -1.3146 -1.4491
 1161SOL     OW15115   3.350   2.437  14.498 -0.3670  0.0115  0.5864
 1161SOL    HW115116   3.283   2.369  14.506  1.7431 -2.1967 -0.5953
 1161SOL    HW215117   3.412   2.385  14.549 -0.3897  0.5345  1.1477
 1162SOL     OW15118   2.079   1.063   9.903 -0.4879  0.1452  0.4003
 1162SOL    HW115119   2.038   1.007   9.970 -1.4490 -0.7589 -0.9450
 1162SOL    HW215120   2.170   1.059   9.933 -1.0438 -1.0335  1.9609
 1163SOL     OW15121   4.390   3.581   3.686 -0.3500 -0.1670  0.1410
 1163SOL    HW115122   4.336   3.516   3.731 -1.3300  1.3595  1.1189
 1163SOL    HW215123   4.347   3.591   3.601 -4.0058  0.9732  2.1572
 1164SOL     OW15124   1.021   4.432  15.026  0.2697  0.1675  0.8234
 1164SOL    HW115125   1.022   4.376  15.104 -0.1065 -0.3712  0.4410
 1164SOL    HW215126   0.928   4.435  15.004 -0.0514  3.1803  2.5939
 1165SOL     OW15127   3.604   3.733   7.143 -0.1491  0.6391  0.0865
 1165SOL    HW115128   3.545   3.712   7.216  1.7247 -0.7278  1.2111
 1165SOL    HW215129   3.609   3.642   7.113 -1.2070  1.0515 -1.3266
 1166SOL     OW15130   3.998   2.644  17.663  0.0458  0.2106  0.3367
 1166SOL    HW115131   3.929   2.581  17.642 -0.5390  1.0240 -0.1615
 1166SOL    HW215132   4.000   2.653  17.759  0.3544  0.4093  0.3112
 1167SOL     OW15133   3.491   2.732   6.261  0.3875 -0.3646  0.4792
 1167SOL    HW115134   3.551   2.798   6.226 -0.9625  0.3276 -0.5539
 1167SOL    HW215135   3.536   2.648   6.255  0.7466  0.1118 -3.5958
 1168SOL     OW15136   2.616   3.211   2.225  0.2822 -0.0630  0.4168
 1168SOL    HW115137   2.680   3.155   2.269 -0.5544 -3.4012 -2.5456
 1168SOL    HW215138   2.660   3.292   2.202  0.0692  0.1124  0.6318
 1169SOL     OW15139   3.461   1.921  12.670  0.3531 -0.3196 -0.2257
 1169SOL    HW115140   3.407   1.958  12.739 -0.6983  0.6782 -1.5765
 1169SOL    HW215141   3.403   1.931  12.594  0.7737 -1.0255 -0.6432
 1170SOL     OW15142   3.637   1.473   5.657 -0.1414  0.4620 -0.5661
 1170SOL    HW115143   3.577   1.541   5.627 -1.6375 -0.5031  0.2340
 1170SOL    HW215144   3.579   1.400   5.636 -0.9357  0.5189  1.4823
 1171SOL     OW15145   2.378   0.831   7.868  0.6406 -0.5054  0.0361
 1171SOL    HW115146   2.309   0.865   7.924  0.2856 -0.3611 -0.4975
 1171SOL    HW215147   2.451   0.835   7.929  1.3127 -1.8903 -0.6616
 1172SOL     OW15148   4.515   3.570   9.400  0.0916 -0.1966  0.0982
 1172SOL    HW115149   4.459   3.494   9.419  1.3498 -0.8373  1.2694
 1172SOL    HW215150   4.593   3.515   9.411 -0.1246 -0.2769  1.2495
 1173SOL     OW15151   0.639   2.282   2.839  0.0281 -0.3373 -0.5004
 1173SOL    HW115152   0.733   2.300   2.839  0.0007 -0.1812 -0.0158
 1173SOL    HW215153   0.633   2.190   2.863 -0.5193 -0.5654 -1.5331
 1174SOL     OW15154   0.750   0.083   3.931 -0.8582  0.9718 -0.2419
 1174SOL    HW115155   0.775   0.164   3.886 -0.2780  1.7596  1.4783
 1174SOL    HW215156   0.838   0.046   3.927 -1.1708  0.0955  1.0492
 1175SOL     OW15157   0.541   1.734   1.696  0.0389 -0.1028 -0.0608
 1175SOL    HW115158   0.551   1.827   1.676 -1.6023 -0.1152 -0.9496
 1175SOL    HW215159   0.532   1.740   1.791  1.1559  0.1307  0.0381
 1176SOL     OW15160   3.459   1.655   3.870  0.2698  0.2571  0.2944
 1176SOL    HW115161   3.544   1.619   3.895  0.6893  0.4061 -0.9059
 1176SOL    HW215162   3.434   1.597   3.798  0.5207 -1.8092  1.8722
 1177SOL     OW15163   0.070   2.661  14.542 -0.1674  0.1836  0.2162
 1177SOL    HW115164   0.023   2.741  14.518 -3.6015 -1.0876  2.7287
 1177SOL    HW215165   4.739   2.608  14.573 -0.1485  0.4530  0.7215
 1178SOL     OW15166   0.299   1.660   3.759  0.5019  0.1169 -0.4900
 1178SOL    HW115167   0.304   1.755   3.746 -0.0529  0.3937  1.3886
 1178SOL    HW215168   0.350   1.644   3.838  0.5047  1.2432 -0.2592
 1179SOL     OW15169   3.977   2.634   2.260  0.2940  0.2712  0.3582
 1179SOL    HW115170   4.027   2.610   2.182 -1.3372  2.2850 -1.3182
 1179SOL    HW215171   4.042   2.672   2.319 -0.1006  1.2668  0.1626
 1180SOL     OW15172   0.106   1.291   2.631 -0.0423 -0.4624  0.6213
 1180SOL    HW115173   0.195   1.257   2.638  0.5176  0.9512  0.4135
 1180SOL    HW215174   0.117   1.376   2.674 -1.5079 -0.6898  1.4383
 1181SOL     OW15175   1.136   1.468   6.823  0.0886 -0.0367  0.1944
 1181SOL    HW115176   1.227   1.454   6.798 -0.6318  0.6387 -2.8519
 1181SOL    HW215177   1.155   1.520   6.901 -0.1332  2.9524 -1.7308
 1182SOL     OW15178   1.285   2.120  17.681  0.3642  1.2438  0.0463
 1182SOL    HW115179   1.278   2.032  17.643  0.5089  1.3185 -0.1498
 1182SOL    HW215180   1.333   2.089  17.759 -0.1958 -0.7994 -0.4096
 1183SOL     OW15181   0.955   0.105   7.105 -0.2310  0.2733 -0.4954
 1183SOL    HW115182   1.029   0.075   7.053 -0.7765 -0.6878 -0.7048
 1183SOL    HW215183   0.961   0.055   7.186 -0.6177  0.6554 -0.2316
 1184SOL     OW15184   2.234   3.362   6.669 -0.4035 -0.2199 -0.2730
 1184SOL    HW115185   2.216   3.268   6.672  1.6179 -0.5350  1.3339
 1184SOL    HW215186   2.157   3.397   6.714 -0.1734  0.9321 -0.7871
 1185SOL     OW15187   1.723   3.821   1.508  0.1263 -0.0637 -0.0829
 1185SOL    HW115188   1.786   3.789   1.572  0.2300 -0.8573 -0.5809
 1185SOL    HW215189   1.659   3.860   1.568 -0.1123  2.1769 -1.7924
 1186SOL     OW15190   1.838   4.437   9.016 -0.0709 -0.0539  0.3018
 1186SOL    HW115191   1.902   4.365   9.017 -0.6705 -0.6112 -0.6067
 1186SOL    HW215192   1.841   4.460   9.109  0.3167 -0.6673  0.4420
 1187SOL     OW15193   1.866   2.522   1.650  0.0759 -0.0602 -0.1892
 1187SOL    HW115194   1.913   2.469   1.585  0.5649 -0.4735  0.4951
 1187SOL    HW215195   1.916   2.602   1.635 -1.9165  1.1042 -0.5636
 1188SOL     OW15196   4.710   0.636  13.408  0.2477 -0.4185  0.0393
 1188SOL    HW115197   4.630   0.684  13.383 -0.3042 -0.5782  1.5417
 1188SOL    HW215198   4.672   0.551  13.430 -1.3535  0.2876  0.0047
 1189SOL     OW15199   1.822   1.839  11.601 -0.2517  0.8874 -0.3559
 1189SOL    HW115200   1.761   1.907  11.571 -0.5698  0.1438 -1.3904
 1189SOL    HW215201   1.903   1.870  11.563 -0.6522  1.2571 -0.9023
 1190SOL     OW15202   2.670   2.247   4.292 -0.4306  0.4945  0.6239
 1190SOL    HW115203   2.708   2.249   4.380 -0.7691 -3.9792  0.9087
 1190SOL    HW215204   2.617   2.167   4.293  1.8004 -0.9899 -0.2862
 1191SOL     OW15205   2.012   1.055   5.781  0.7731 -0.2104  0.1724
 1191SOL    HW115206   2.053   1.019   5.703  2.8632  0.1491  1.0920
 1191SOL    HW215207   1.929   1.089   5.747  1.1191 -0.6797 -1.1086
 1192SOL     OW15208   4.280   2.730   4.538 -0.1643 -0.0820  0.1239
 1192SOL    HW115209   4.299   2.823   4.524 -2.6782  0.4684  0.4247
 1192SOL    HW215210   4.303   2.700   4.450 -1.0084  1.8750 -0.7640
 1193SOL     OW15211   2.375   3.922  10.556 -0.0329 -0.9489  0.0486
 1193SOL    HW115212   2.352   3.881  10.472 -0.5137  0.4503 -0.5132
 1193SOL    HW215213   2.286   3.922  10.592 -0.8429 -1.7006 -1.9643
 1194SOL     OW15214   2.425   1.554  14.679  0.5086 -0.2439 -0.0272
 1194SOL    HW115215   2.387   1.634  14.716 -0.8295 -0.8959  0.0325
 1194SOL    HW215216   2.351   1.494  14.666 -0.9932  1.7301 -0.6035
 1195SOL     OW15217   4.415   3.498  12.355  0.0093 -0.0756 -0.4686
 1195SOL    HW115218   4.485   3.436  12.335 -0.6739 -0.7590 -0.7206
 1195SOL    HW215219   4.341   3.438  12.368  1.2065 -1.5570 -0.4619
 1196SOL     OW15220   4.137   4.038   8.493 -0.6715 -0.4650 -0.1381
 1196SOL    HW115221   4.094   4.015   8.575 -2.3215 -0.0336 -0.8824
 1196SOL    HW215222   4.201   4.099   8.530  0.7403 -1.0601 -1.5994
 1197SOL     OW15223   1.994   0.511   6.327 -0.1143 -0.2425  0.3671
 1197SOL    HW115224   1.972   0.573   6.258  0.5837 -0.3255  0.0767
 1197SOL    HW215225   2.020   0.573   6.394  3.6832 -1.8928  0.4070
 1198SOL     OW15226   2.873   2.257   6.201  0.5474  0.0002 -0.0683
 1198SOL    HW115227   2.856   2.337   6.251 -0.5562 -0.9570  1.0622
 1198SOL    HW215228   2.857   2.193   6.270  2.0384  0.6180  0.8754
 1199SOL     OW15229   1.290   3.433   9.814  0.4797  0.3285  0.2062
 1199SOL    HW115230   1.290   3.337   9.813  1.6045  0.3389 -0.5291
 1199SOL    HW215231   1.372   3.447   9.767  2.6567  1.3208  4.3407
 1200SOL     OW15232   2.912   0.947   2.554  0.2910 -0.2236 -0.3626
 1200SOL    HW115233   2.852   0.876   2.530 -0.4112  0.3660 -0.3395
 1200SOL    HW215234   2.997   0.908   2.531  0.7740  0.9017 -0.4616
 1201SOL     OW15235   3.201   1.685   4.759 -1.0052  0.7691 -0.5495
 1201SOL    HW115236   3.185   1.618   4.692  1.5649  1.0894 -1.4803
 1201SOL    HW215237   3.146   1.758   4.731 -1.9688 -0.0492 -0.8228
 1202SOL     OW15238   3.464   2.208   3.836 -0.4842 -0.4685 -0.2755
 1202SOL    HW115239   3.455   2.118   3.865  2.0428 -0.4476  0.5461
 1202SOL    HW215240   3.553   2.235   3.857 -1.0000  0.4550  0.7255
 1203SOL     OW15241   0.846   4.237   5.865  0.3091 -0.0427 -0.3346
 1203SOL    HW115242   0.825   4.216   5.956 -0.7632 -1.3866 -0.8871
 1203SOL    HW215243   0.909   4.167   5.846 -0.0814  0.0171 -1.8039
 1204SOL     OW15244   4.334   2.847  17.196  0.0351  0.3535  0.2842
 1204SOL    HW115245   4.343   2.856  17.101 -0.3559  1.2703  0.3345
 1204SOL    HW215246   4.270   2.914  17.218  1.0070  1.5417 -0.5283
 1205SOL     OW15247   3.651   2.735   4.756  0.7263  0.3594 -0.0245
 1205SOL    HW115248   3.634   2.826   4.782 -0.8052  0.7413 -2.3805
 1205SOL    HW215249   3.593   2.680   4.808  0.0015  0.5498 -0.6238
 1206SOL     OW15250   1.303   2.813   4.160  0.9895  0.5431  0.6254
 1206SOL    HW115251   1.394   2.793   4.140  0.7316 -1.0068  1.0181
 1206SOL    HW215252   1.301   2.904   4.130  1.0385  1.2831  2.8287
 1207SOL     OW15253   0.932   0.822  17.050  0.0845 -0.0596 -0.4818
 1207SOL    HW115254   0.939   0.766  17.128 -2.5673 -0.5273 -0.5791
 1207SOL    HW215255   0.870   0.771  16.997 -0.9119  0.6903 -0.0101
 1208SOL     OW15256   4.515   0.645   7.808 -0.6024  0.3900 -0.3709
 1208SOL    HW115257   4.426   0.631   7.773 -1.2569  3.1611  0.1686
 1208SOL    HW215258   4.560   0.631   7.725 -0.0406 -4.2269  0.7430
 1209SOL     OW15259   2.940   1.205   1.855  0.1822 -0.0804 -0.2221
 1209SOL    HW115260   2.867   1.266   1.849 -0.3897 -0.8396 -0.8467
 1209SOL    HW215261   2.959   1.219   1.948 -1.3520  0.8810 -0.0494
 1210SOL     OW15262   3.517   3.602   7.624  0.0476  0.1056 -0.1321
 1210SOL    HW115263   3.517   3.522   7.676 -2.6430  1.8848  2.5837
 1210SOL    HW215264   3.588   3.575   7.566  0.4056 -1.3935  1.0128
 1211SOL     OW15265   3.289   3.619  14.919  0.2635 -0.3491  0.0179
 1211SOL    HW115266   3.211   3.573  14.886  0.1141 -0.8004  0.9936
 1211SOL    HW215267   3.329   3.616  14.832 -1.6095  3.4585 -0.9635
 1212SOL     OW15268   3.172   0.307   7.592  0.1585  0.2109 -0.4548
 1212SOL    HW115269   3.112   0.315   7.666  3.4284  1.5496  2.0362
 1212SOL    HW215270   3.255   0.281   7.631 -0.2666 -1.3931 -0.6062
 1213SOL     OW15271   1.366   2.052  10.097 -0.2371  0.1568 -0.1904
 1213SOL    HW115272   1.282   2.009  10.108 -0.3258  0.3936  0.0474
 1213SOL    HW215273   1.422   1.974  10.091  1.4756  1.5551 -2.5198
 1214SOL     OW15274   2.186   0.212  13.378 -0.1739 -0.0233  0.1614
 1214SOL    HW115275   2.209   0.273  13.448  1.4001  0.0113 -0.3981
 1214SOL    HW215276   2.097   0.236  13.352 -0.0612 -1.0441 -1.1764
 1215SOL     OW15277   3.521   3.591   4.108 -0.0745 -0.0337 -0.3637
 1215SOL    HW115278   3.488   3.513   4.062  0.3568  0.1188 -0.9218
 1215SOL    HW215279   3.486   3.559   4.192  1.9451 -1.3757 -0.0255
 1216SOL     OW15280   2.286   0.467   2.377 -0.5098  0.1158 -0.5546
 1216SOL    HW115281   2.340   0.531   2.329  1.4559 -1.7944 -0.8832
 1216SOL    HW215282   2.235   0.523   2.436  1.2489 -2.0442  2.9787
 1217SOL     OW15283   2.547   4.429  14.064 -0.1050  0.1539 -0.3840
 1217SOL    HW115284   2.586   4.358  14.116 -2.6521  0.4880  1.9273
 1217SOL    HW215285   2.459   4.437  14.101 -0.2067  0.2204 -0.6432
 1218SOL     OW15286   0.960   1.798   2.389 -0.2831 -0.2773 -0.3176
 1218SOL    HW115287   0.917   1.741   2.452  0.4220  0.5192  0.8728
 1218SOL    HW215288   1.051   1.812   2.414 -0.5509  0.8673  0.0264
 1219SOL     OW15289   1.646   1.321   9.061  0.4785  0.0141 -0.2330
 1219SOL    HW115290   1.648   1.225   9.059  2.4216  0.0898 -2.4588
 1219SOL    HW215291   1.735   1.340   9.091  0.0568  2.2608 -0.4297
 1220SOL     OW15292   3.350   0.868   4.007 -0.4378  0.4188 -0.1613
 1220SOL    HW115293   3.353   0.916   3.924 -0.6461 -0.0644 -0.4473
 1220SOL    HW215294   3.440   0.888   4.033 -0.4563  1.1406 -0.6459
 1221SOL     OW15295   1.705   4.167   4.509  0.0412 -0.2669  0.4729
 1221SOL    HW115296   1.655   4.242   4.476  0.3416  0.7326  2.2541
 1221SOL    HW215297   1.659   4.158   4.592  0.0898 -1.0865  0.4044
 1222SOL     OW15298   0.723   3.665   7.812 -0.6437  0.2171  0.5869
 1222SOL    HW115299   0.646   3.608   7.805 -0.9490  0.6225  0.6564
 1222SOL    HW215300   0.758   3.631   7.894  2.9921 -1.0568 -1.5022
 1223SOL     OW15301   2.717   1.630   2.945 -0.4223 -0.5985 -0.2773
 1223SOL    HW115302   2.673   1.633   2.860 -0.2164 -2.8339 -0.4612
 1223SOL    HW215303   2.804   1.617   2.906 -0.8345 -0.2807 -1.2995
 1224SOL     OW15304   0.200   1.578   1.781  0.4975  0.1003  0.4912
 1224SOL    HW115305   0.234   1.546   1.697 -1.1468  2.3186 -1.0108
 1224SOL    HW215306   0.114   1.598   1.745  1.7803  0.9191 -2.1131
 1225SOL     OW15307   0.103   2.118   3.273 -0.5521  0.0341  0.1378
 1225SOL    HW115308   0.074   2.118   3.364 -1.3010 -0.8050 -0.1089
 1225SOL    HW215309   0.116   2.213   3.261 -2.9117  0.1458 -1.5441
 1226SOL     OW15310   1.192   1.124   3.812  0.4616 -0.3265  0.1403
 1226SOL    HW115311   1.206   1.107   3.905  0.6438  0.3224  0.2317
 1226SOL    HW215312   1.140   1.047   3.786  0.0402 -1.7040  5.0806
 1227SOL     OW15313   0.784   3.977   4.055 -0.2838  0.1647  0.1165
 1227SOL    HW115314   0.868   4.000   4.096  0.3361  0.1628 -1.1463
 1227SOL    HW215315   0.802   3.994   3.962  0.9202 -1.7268  0.0078
 1228SOL     OW15316   2.370   4.551   9.801 -0.0760  0.3256 -0.1470
 1228SOL    HW115317   2.436   4.621   9.800  0.2678 -0.0056 -0.4714
 1228SOL    HW215318   2.406   4.500   9.729 -0.5379  1.0134 -0.8671
 1229SOL     OW15319   1.840   2.327  15.764  0.1268 -0.2013  0.0053
 1229SOL    HW115320   1.876   2.415  15.765 -1.0446  0.2829  0.3078
 1229SOL    HW215321   1.880   2.282  15.839  2.4803 -1.2551 -1.8923
 1230SOL     OW15322   4.529   1.607   7.774 -0.0751 -0.0612 -0.2128
 1230SOL    HW115323   4.560   1.628   7.687 -1.7982  2.1716 -0.2728
 1230SOL    HW215324   4.436   1.632   7.776 -0.6239 -2.0512 -0.1785
 1231SOL     OW15325   4.072   0.307   1.390 -0.0957 -0.0620 -0.2635
 1231SOL    HW115326   3.996   0.351   1.428 -1.3826 -1.9003 -0.7360
 1231SOL    HW215327   4.051   0.301   1.297  0.9574 -0.3479 -0.4810
 1232SOL     OW15328   2.277   0.007   4.937 -0.3613  0.4740  0.6147
 1232SOL    HW115329   2.334   4.686   4.982  2.0265  2.4288  0.3020
 1232SOL    HW215330   2.193   4.702   4.939 -0.2445  0.2565  0.4170
 1233SOL     OW15331   1.814   2.056   8.286 -0.2160 -0.0253  0.3193
 1233SOL    HW115332   1.842   2.134   8.239 -1.6187  0.9040  1.0195
 1233SOL    HW215333   1.777   2.101   8.362  0.9431 -0.0703  0.9179
 1234SOL     OW15334   1.207   1.104   5.602  0.7486  0.2492 -0.2930
 1234SOL    HW115335   1.197   1.020   5.557 -4.9718  0.8006 -0.1669
 1234SOL    HW215336   1.153   1.080   5.678  2.0898 -0.4559  0.4209
 1235SOL     OW15337   2.286   1.523   0.186  0.6599  0.2547  0.3139
 1235SOL    HW115338   2.227   1.586   0.144 -1.6808 -0.5629  2.3606
 1235SOL    HW215339   2.367   1.564   0.156  0.2593  2.4568  2.1998
 1236SOL     OW15340   4.184   3.397   3.793  0.1901  0.2210  0.2938
 1236SOL    HW115341   4.194   3.445   3.875  0.6947  2.5154 -1.1221
 1236SOL    HW215342   4.224   3.315   3.823  1.0611  0.2374 -0.8337
 1237SOL     OW15343   4.617   2.411   3.872 -0.3493 -0.0106 -0.1367
 1237SOL    HW115344   4.637   2.448   3.958 -2.3557 -0.4314  0.5050
 1237SOL    HW215345   4.655   2.477   3.814 -1.0338 -0.1510 -0.7395
 1238SOL     OW15346   3.653   1.572   9.194  0.4962 -0.6706 -0.3885
 1238SOL    HW115347   3.736   1.561   9.240 -0.3494  1.5720  1.6719
 1238SOL    HW215348   3.596   1.521   9.251 -0.0914  0.2058 -0.1886
 1239SOL     OW15349   0.595   1.268   7.757 -0.0974  0.2007 -0.2672
 1239SOL    HW115350   0.607   1.244   7.665  1.4112 -2.4492  0.6211
 1239SOL    HW215351   0.501   1.260   7.770  0.2380 -1.3676  1.1628
 1240SOL     OW15352   0.643   2.165   5.297  0.4183  0.4840  0.4474
 1240SOL    HW115353   0.641   2.087   5.354  1.5515 -0.9132 -1.4117
 1240SOL    HW215354   0.550   2.176   5.279  0.1983 -1.4386  0.4035
 1241SOL     OW15355   0.434   1.125   1.596  0.8731 -0.4936 -0.0138
 1241SOL    HW115356   0.405   1.208   1.558 -1.2128 -1.7126 -1.0902
 1241SOL    HW215357   0.352   1.078   1.603 -0.7505  2.3585  0.1552
 1242SOL     OW15358   3.937   0.730  17.496  0.3374 -0.0216  0.4904
 1242SOL    HW115359   3.912   0.720  17.404  0.1558 -2.5491  0.8141
 1242SOL    HW215360   4.027   0.762  17.487  0.6498 -1.2535 -0.7190
 1243SOL     OW15361   3.793   2.972  14.372 -0.5958  0.2242 -0.2249
 1243SOL    HW115362   3.820   2.962  14.281  0.6005  2.6808 -0.1313
 1243SOL    HW215363   3.702   2.946  14.358 -0.5764  0.2595 -0.4118
 1244SOL     OW15364   4.282   1.483   2.579  0.5536 -0.0207 -0.1843
 1244SOL    HW115365   4.280   1.525   2.493  0.7202 -3.0537 -1.6671
 1244SOL    HW215366   4.229   1.404   2.570 -0.1154  0.2901  0.9999
 1245SOL     OW15367   2.713   4.383   0.419 -0.4021 -0.2836 -0.0711
 1245SOL    HW115368   2.713   4.472   0.454  1.0590 -0.9443  1.6246
 1245SOL    HW215369   2.633   4.392   0.368 -0.6459 -2.9762 -0.2005
 1246SOL     OW15370   0.329   2.626   2.542 -0.0959  0.0036 -0.0994
 1246SOL    HW115371   0.333   2.675   2.624 -1.3849 -0.0415 -0.0045
 1246SOL    HW215372   0.363   2.545   2.578 -2.4022  0.2231  2.5520
 1247SOL     OW15373   0.027   1.391   4.167 -0.1277  0.4577 -0.3831
 1247SOL    HW115374   0.043   1.426   4.255  2.7467 -0.1468 -0.6662
 1247SOL    HW215375   4.688   1.345   4.190  0.0832  0.2382 -0.0843
 1248SOL     OW15376   1.864   3.278   7.800 -0.3847  0.3759 -0.2748
 1248SOL    HW115377   1.852   3.183   7.792 -2.0992  0.3809  2.3292
 1248SOL    HW215378   1.840   3.289   7.892  0.7155 -1.7004  0.2766
 1249SOL     OW15379   0.880   2.930   9.698 -0.8707 -0.4212 -0.5302
 1249SOL    HW115380   0.932   2.974   9.631  0.4918  1.2516  1.6275
 1249SOL    HW215381   0.949   2.912   9.762 -0.9555  0.3418 -0.2217
 1250SOL     OW15382   4.192   4.411  11.504 -0.5442  0.2148 -0.0034
 1250SOL    HW115383   4.198   4.331  11.557  0.8367 -1.5424 -2.7767
 1250SOL    HW215384   4.275   4.456  11.522 -0.0984 -0.1370 -1.2047
 1251SOL     OW15385   3.681   4.561   6.535 -0.0610  0.7653 -0.0790
 1251SOL    HW115386   3.774   4.581   6.539  1.1405 -4.7816 -0.8402
 1251SOL    HW215387   3.682   4.493   6.468  0.0626  0.6061  0.0860
 1252SOL     OW15388   3.985   2.423   3.307 -0.0034  0.2359 -0.2925
 1252SOL    HW115389   3.922   2.354   3.289 -0.5532  0.4557  0.7875
 1252SOL    HW215390   4.019   2.438   3.219 -0.3844  1.9662 -0.1486
 1253SOL     OW15391   2.207   4.115   3.136 -0.5059  0.2586 -0.4150
 1253SOL    HW115392   2.141   4.070   3.189 -2.7121  2.6523 -1.1783
 1253SOL    HW215393   2.217   4.048   3.068  0.0489 -0.2516  0.1560
 1254SOL     OW15394   0.043   3.431   7.586 -0.1321 -0.4702  0.0653
 1254SOL    HW115395   0.104   3.462   7.520  0.8596  0.0543  1.2290
 1254SOL    HW215396   4.736   3.372   7.529 -0.0575  0.0745 -0.5504
 1255SOL     OW15397   2.088   3.719   3.168  0.0986 -0.6676 -0.2309
 1255SOL    HW115398   2.027   3.716   3.241  1.5120  0.8210  1.0157
 1255SOL    HW215399   2.070   3.637   3.121 -0.5121  0.3101 -1.6986
 1256SOL     OW15400   3.102   3.237   4.083  0.6989 -0.7353  0.1217
 1256SOL    HW115401   3.048   3.161   4.104  1.7153 -0.8772  2.1777
 1256SOL    HW215402   3.050   3.285   4.018 -0.8979 -0.0524  1.9184
 1257SOL     OW15403   0.910   1.265   7.450  0.6058  0.1163 -0.2354
 1257SOL    HW115404   0.945   1.249   7.538 -2.2454  1.9525  1.2496
 1257SOL    HW215405   0.912   1.173   7.424 -1.6616  0.6428 -2.2522
 1258SOL     OW15406   2.707   1.690   8.395 -0.1210  0.5507  0.1260
 1258SOL    HW115407   2.649   1.744   8.342 -0.0948 -0.0731 -0.5270
 1258SOL    HW215408   2.673   1.605   8.367 -0.1328  0.5253  0.2163
 1259SOL     OW15409   2.200   4.022  14.428 -0.2136 -0.1963 -0.0868
 1259SOL    HW115410   2.230   4.085  14.363 -0.7472 -1.7203 -1.8050
 1259SOL    HW215411   2.140   3.967  14.379 -1.2689  1.8910 -1.1293
 1260SOL     OW15412   4.333   1.453   3.351  0.3510 -0.2883  0.2391
 1260SOL    HW115413   4.348   1.546   3.372  0.5398 -0.0719 -0.8617
 1260SOL    HW215414   4.413   1.409   3.380  0.2896 -0.9733 -0.6606
 1261SOL     OW15415   0.514   2.568   4.259 -0.1005 -0.2610  0.8057
 1261SOL    HW115416   0.477   2.486   4.291 -1.5495 -0.5828 -1.6426
 1261SOL    HW215417   0.603   2.557   4.293 -1.1249 -0.7260  3.2814
 1262SOL     OW15418   0.579   0.691   2.194  0.0704  0.3440 -0.5045
 1262SOL    HW115419   0.555   0.684   2.102  2.8406 -1.0416 -1.1152
 1262SOL    HW215420   0.652   0.752   2.186  0.3266 -0.0788 -1.4020
 1263SOL     OW15421   2.134   3.214   5.140 -0.0832 -0.3160 -0.3279
 1263SOL    HW115422   2.201   3.215   5.071  0.1197  2.3041 -0.0798
 1263SOL    HW215423   2.078   3.139   5.118 -0.1465 -0.5762  0.7306
 1264SOL     OW15424   1.161   1.250   3.214  0.6251  0.1959 -0.0778
 1264SOL    HW115425   1.199   1.285   3.295  0.0650  0.7204 -0.0364
 1264SOL    HW215426   1.086   1.310   3.210 -1.0429 -1.9876 -1.2346
 1265SOL     OW15427   1.361   0.053   7.202 -0.6819 -1.0432 -0.3217
 1265SOL    HW115428   1.443   0.089   7.236  0.5440 -3.8829 -0.2588
 1265SOL    HW215429   1.303   0.127   7.189  2.1855  1.2205 -0.1848
 1266SOL     OW15430   2.787   3.046   9.643 -0.2778  0.0251 -0.6974
 1266SOL    HW115431   2.858   3.071   9.585 -0.2802 -0.9662 -1.1258
 1266SOL    HW215432   2.757   3.125   9.688 -1.2971 -1.0770  0.5606
 1267SOL     OW15433   3.016   4.680  12.413  0.1254  0.2848  0.7440
 1267SOL    HW115434   3.092   4.622  12.409  0.1406  0.3381  0.2829
 1267SOL    HW215435   3.022   4.726  12.497 -0.9254  0.8096  0.5296
 1268SOL     OW15436   2.420   0.621  12.135 -0.2363  0.2840 -0.4420
 1268SOL    HW115437   2.423   0.550  12.071  0.9938  0.0574 -0.1329
 1268SOL    HW215438   2.434   0.570  12.215  0.7093 -0.8360 -1.3170
 1269SOL     OW15439   1.020   0.960   3.667 -0.2109  0.6224  0.0058
 1269SOL    HW115440   0.967   1.038   3.652 -2.1346 -0.7201 -0.0715
 1269SOL    HW215441   1.029   0.924   3.578 -0.4624  0.9655 -0.1600
 1270SOL     OW15442   4.554   2.108  17.081 -0.7340  0.0192  0.0299
 1270SOL    HW115443   4.563   2.047  17.008 -0.2127  0.6772 -0.4423
 1270SOL    HW215444   4.459   2.121  17.087 -0.6149  0.7257  0.4282
 1271SOL     OW15445   1.920   0.453   2.606 -0.3113 -0.1511 -0.0027
 1271SOL    HW115446   1.925   0.359   2.622  1.3882  0.2826  1.9521
 1271SOL    HW215447   1.910   0.485   2.695  1.5658  0.5591 -0.0490
 1272SOL     OW15448   1.777   1.071   5.259 -0.2097 -0.3490  0.4256
 1272SOL    HW115449   1.815   1.096   5.175 -1.4699 -1.2872 -0.4188
 1272SOL    HW215450   1.865   1.047   5.290 -0.2423  1.1305  1.6806
 1273SOL     OW15451   0.972   3.332  10.189 -0.2197 -0.4047  0.1189
 1273SOL    HW115452   1.026   3.409  10.206  2.0337 -0.9828 -4.5660
 1273SOL    HW215453   0.887   3.373  10.204  0.4642  0.5786  1.2974
 1274SOL     OW15454   2.408   4.337   4.992  0.5939 -0.2278 -0.1730
 1274SOL    HW115455   2.364   4.353   5.075  0.9429 -1.1486  0.1968
 1274SOL    HW215456   2.471   4.409   4.984 -0.3314  0.8801  2.5899
 1275SOL     OW15457   4.680   0.815  11.477 -0.0851  0.0008  0.1533
 1275SOL    HW115458   4.730   0.855  11.405 -1.8964  0.6700 -0.7107
 1275SOL    HW215459   0.018   0.798  11.528 -0.1429  1.6825  0.7697
 1276SOL     OW15460   3.819   3.698   3.084  0.2207  0.3419 -0.3476
 1276SOL    HW115461   3.911   3.719   3.070  0.1480  1.3172  0.6007
 1276SOL    HW215462   3.799   3.719   3.176 -2.0855  1.7450 -1.1665
 1277SOL     OW15463   0.006   1.595   7.950  0.2988 -0.2435 -0.2622
 1277SOL    HW115464   4.694   1.587   7.871 -1.7710 -0.7000  1.1775
 1277SOL    HW215465   4.672   1.619   8.004  0.0878 -1.2684 -0.1048
 1278SOL     OW15466   3.661   3.785  14.895 -0.2841 -0.4133 -0.3994
 1278SOL    HW115467   3.617   3.847  14.953  2.1324  0.7838  0.1360
 1278SOL    HW215468   3.746   3.769  14.935 -0.0215 -0.9528 -1.1836
 1279SOL     OW15469   2.237   3.700   7.237 -0.1866 -0.1440 -0.6786
 1279SOL    HW115470   2.150   3.737   7.228 -0.1776  0.0031 -0.1510
 1279SOL    HW215471   2.275   3.777   7.278 -1.7402  0.3735 -0.2281
 1280SOL     OW15472   4.276   2.123   6.067 -0.0050  0.2014 -0.0234
 1280SOL    HW115473   4.269   2.029   6.055  2.0510 -0.1063  1.1764
 1280SOL    HW215474   4.330   2.130   6.146  1.8847  0.3776 -1.3304
 1281SOL     OW15475   3.617   1.771  17.587 -0.3620 -0.5885 -0.4638
 1281SOL    HW115476   3.539   1.716  17.592  0.3186 -1.5138 -0.0301
 1281SOL    HW215477   3.579   1.858  17.574  0.8506  0.3497  2.3144
 1282SOL     OW15478   4.128   4.177   3.449  0.1687  0.3761  0.2642
 1282SOL    HW115479   4.037   4.151   3.459  0.2889 -0.3238 -0.4324
 1282SOL    HW215480   4.117   4.226   3.368  0.6282  2.4697  1.4678
 1283SOL     OW15481   3.962   4.619   3.053  0.5614  0.5831  0.2174
 1283SOL    HW115482   3.925   4.707   3.049  0.8977  0.7752  1.3229
 1283SOL    HW215483   4.057   4.626   3.058  0.5647  1.6387 -1.5334
 1284SOL     OW15484   1.519   4.177   9.911 -0.1029 -0.2424 -0.4948
 1284SOL    HW115485   1.541   4.269   9.895 -2.4215  0.7436  1.8521
 1284SOL    HW215486   1.459   4.159   9.839 -2.5334  1.1415  1.1853
 1285SOL     OW15487   1.096   3.604   7.847 -0.3264  0.1528  0.1545
 1285SOL    HW115488   1.188   3.596   7.821 -0.0959 -0.7474  1.2716
 1285SOL    HW215489   1.085   3.513   7.871  0.6119 -0.5928 -2.2001
 1286SOL     OW15490   4.321   2.893   1.770  0.1713  0.0509  0.1735
 1286SOL    HW115491   4.378   2.866   1.842  0.9426  0.5258 -0.2591
 1286SOL    HW215492   4.299   2.804   1.741  0.8145 -0.2074  0.4861
 1287SOL     OW15493   4.013   0.371   5.890  0.7585  0.3846 -0.1683
 1287SOL    HW115494   4.033   0.325   5.809 -2.1634  0.9546 -1.2190
 1287SOL    HW215495   3.966   0.451   5.866 -0.3410 -0.3172 -0.3791
 1288SOL     OW15496   1.066   1.533   5.341  0.0887  0.5770  0.1386
 1288SOL    HW115497   1.094   1.470   5.274 -1.0986 -0.0108  0.2004
 1288SOL    HW215498   1.085   1.474   5.415  0.9746 -0.8091 -1.1978
 1289SOL     OW15499   1.449   2.085   7.136 -0.3069  0.5862 -0.2650
 1289SOL    HW115500   1.494   2.044   7.211 -0.6681 -0.9326 -0.8941
 1289SOL    HW215501   1.439   2.174   7.170  1.6835 -0.0907  2.2028
 1290SOL     OW15502   2.233   0.019   7.786 -0.5573  0.2459 -0.6420
 1290SOL    HW115503   2.243   4.724   7.698 -0.1945  3.3127 -1.8919
 1290SOL    HW215504   2.301   4.719   7.838 -1.5645 -0.1960  0.3226
 1291SOL     OW15505   1.082   2.072   1.715  0.2264 -0.4699  0.0235
 1291SOL    HW115506   1.124   2.075   1.801 -0.7176 -1.3102  0.5214
 1291SOL    HW215507   1.132   2.004   1.669  0.7942  0.5072 -0.7841
 1292SOL     OW15508   1.406   4.347   0.609  0.2183  0.5209 -0.5800
 1292SOL    HW115509   1.406   4.371   0.517 -1.8945  0.2327 -0.6519
 1292SOL    HW215510   1.493   4.376   0.639 -0.0077  0.9174 -0.3088
 1293SOL     OW15511   1.797   4.212   0.287  0.1789 -0.2532 -0.1852
 1293SOL    HW115512   1.772   4.254   0.369 -0.7122  0.2205 -0.7031
 1293SOL    HW215513   1.731   4.145   0.271 -0.2520  0.1856 -0.2502
 1294SOL     OW15514   4.266   1.851   6.059  0.9367  0.3293  0.3866
 1294SOL    HW115515   4.205   1.803   6.002  2.2691 -0.1695 -0.6386
 1294SOL    HW215516   4.338   1.788   6.067  0.4445 -0.1736  0.8543
 1295SOL     OW15517   1.088   3.721  12.189  0.0517 -0.3272  0.1255
 1295SOL    HW115518   1.000   3.706  12.154 -0.2190  1.3676  0.1058
 1295SOL    HW215519   1.085   3.656  12.260 -3.1949  0.0106  0.2925
 1296SOL     OW15520   3.486   0.089   2.557  0.4854 -0.4171 -0.2014
 1296SOL    HW115521   3.449   0.068   2.471  0.1733  1.4644 -0.5325
 1296SOL    HW215522   3.439   0.168   2.584 -1.0162 -2.1863  2.4379
 1297SOL     OW15523   0.378   0.964   8.542 -0.5276 -0.3270  0.2615
 1297SOL    HW115524   0.431   1.043   8.535  3.7560 -3.1779  0.8307
 1297SOL    HW215525   0.307   1.012   8.584  1.4606  0.1312  3.0780
 1298SOL     OW15526   4.120   3.034  17.179  0.0839  0.1479  0.0136
 1298SOL    HW115527   4.094   3.062  17.091  2.1725  2.1645  0.0521
 1298SOL    HW215528   4.141   3.111  17.232  0.3458 -0.5570  0.9312
 1299SOL     OW15529   1.377   1.661   9.117  0.2696  0.2457  0.0475
 1299SOL    HW115530   1.340   1.656   9.204 -0.7366  0.8530 -0.3467
 1299SOL    HW215531   1.314   1.609   9.067 -0.2744  2.5045 -1.6415
 1300SOL     OW15532   2.824   2.138   4.087 -0.3187  0.0794  0.3943
 1300SOL    HW115533   2.784   2.188   4.158 -3.2630  0.1376 -1.3408
 1300SOL    HW215534   2.910   2.174   4.109 -0.4972 -0.3933  1.9163
 1301SOL     OW15535   0.673   1.161   8.268  0.0889  0.4030 -0.7709
 1301SOL    HW115536   0.629   1.114   8.197 -0.3570 -1.2156  0.5837
 1301SOL    HW215537   0.731   1.209   8.210  0.7404  1.4567  0.7575
 1302SOL     OW15538   0.079   2.913  16.059  0.1330  0.0730 -0.1277
 1302SOL    HW115539   0.106   2.865  16.136 -2.0165 -1.7389 -0.4793
 1302SOL    HW215540   0.001   2.953  16.098  1.5923  0.2304  2.5869
 1303SOL     OW15541   0.368   2.802  11.236 -0.5675 -0.1208  0.1530
 1303SOL    HW115542   0.431   2.763  11.176  0.0605 -0.0099  0.7389
 1303SOL    HW215543   0.351   2.727  11.294  0.7994  0.7975  1.7553
 1304SOL     OW15544   2.073   2.086   3.620  0.5128  0.4841 -0.2360
 1304SOL    HW115545   2.093   2.065   3.529  0.6870  0.6830 -0.2444
 1304SOL    HW215546   1.994   2.139   3.608 -0.9776 -1.3826  1.3945
 1305SOL     OW15547   3.036   1.902   7.612 -0.5816  0.4254  0.2897
 1305SOL    HW115548   3.112   1.846   7.597 -0.7512  0.5126 -0.9310
 1305SOL    HW215549   3.047   1.961   7.537 -0.8804  1.0080  0.6982
 1306SOL     OW15550   2.571   2.985   0.135  0.0563  0.7712  0.1495
 1306SOL    HW115551   2.600   3.058   0.080  0.7181  0.9650  0.7482
 1306SOL    HW215552   2.553   3.039   0.212 -1.7630  0.6116 -0.1456
 1307SOL     OW15553   1.236   4.674   5.151 -0.2964 -0.4005  1.0198
 1307SOL    HW115554   1.284   4.739   5.202  1.6987 -0.8165 -0.3572
 1307SOL    HW215555   1.169   4.734   5.118  0.8653  0.5744  0.4711
 1308SOL     OW15556   1.431   1.122   6.708  0.3583 -0.8582 -0.0669
 1308SOL    HW115557   1.467   1.136   6.620 -1.4492  1.8940 -0.3606
 1308SOL    HW215558   1.507   1.153   6.757  1.0112  0.6870 -2.0484
 1309SOL     OW15559   3.256   1.619   5.756 -0.1049  0.4266  0.1441
 1309SOL    HW115560   3.186   1.593   5.816  0.4563  0.2298  0.7234
 1309SOL    HW215561   3.322   1.569   5.805  0.0426 -0.3116 -0.8054
 1310SOL     OW15562   2.780   4.349   8.225 -0.4792 -0.1057  0.2256
 1310SOL    HW115563   2.825   4.400   8.292  1.0337  1.9108 -2.3380
 1310SOL    HW215564   2.733   4.290   8.284  0.4912 -1.6444 -0.5299
 1311SOL     OW15565   2.989   3.453   8.523 -0.2468  0.2992 -0.7634
 1311SOL    HW115566   3.048   3.498   8.583  0.4701  0.2691 -1.4552
 1311SOL    HW215567   2.911   3.472   8.575 -1.7069 -2.3434 -1.9533
 1312SOL     OW15568   0.476   0.765   8.407  0.4685  0.3517  0.3724
 1312SOL    HW115569   0.571   0.782   8.409  0.5527 -0.2827  1.7139
 1312SOL    HW215570   0.443   0.818   8.479  1.9569  0.8688  0.6750
 1313SOL     OW15571   3.952   0.183   3.296 -0.3259 -0.3251  0.2477
 1313SOL    HW115572   4.043   0.160   3.316 -0.4665 -0.7347  0.4179
 1313SOL    HW215573   3.928   0.233   3.374  2.0437  1.3719 -0.1067
 1314SOL     OW15574   4.599   1.262  11.837 -0.0232  0.2987  0.3276
 1314SOL    HW115575   4.626   1.270  11.928  0.6550  0.7298  0.0892
 1314SOL    HW215576   4.504   1.253  11.850 -0.0550 -0.1579 -0.2321
 1315SOL     OW15577   2.764   2.528   5.806  0.4158  0.2015 -0.2226
 1315SOL    HW115578   2.765   2.607   5.753  1.4753  1.2349  1.3314
 1315SOL    HW215579   2.837   2.533   5.868 -0.1493 -1.0592  0.5593
 1316SOL     OW15580   2.090   3.740   6.449 -0.2267  0.3186 -0.0129
 1316SOL    HW115581   2.155   3.761   6.381  0.4253 -1.0704  0.1953
 1316SOL    HW215582   2.137   3.669   6.491  0.3513  1.2324  0.8864
 1317SOL     OW15583   2.447   2.081   8.343 -0.4019  0.2107  0.4204
 1317SOL    HW115584   2.423   2.038   8.425  1.6767 -1.8524 -0.0296
 1317SOL    HW215585   2.365   2.113   8.306 -0.9319  0.1518  1.5301
 1318SOL     OW15586   0.877   0.770   2.512  0.2376 -0.3287 -0.4240
 1318SOL    HW115587   0.844   0.696   2.563  0.8880  1.0332  1.9841
 1318SOL    HW215588   0.810   0.836   2.531  0.4873  0.7639 -3.3766
 1319SOL     OW15589   1.810   0.016  13.592 -0.2098 -0.4122  0.3611
 1319SOL    HW115590   1.731   0.042  13.546 -0.9785  0.6190  2.2495
 1319SOL    HW215591   1.779   4.672  13.622  2.9218 -1.9716 -0.8236
 1320SOL     OW15592   0.034   1.966   8.009 -0.5171  0.1748 -0.3643
 1320SOL    HW115593   0.073   2.016   8.080 -0.8058  0.0742 -0.1323
 1320SOL    HW215594   4.684   1.994   8.015 -1.0291 -1.4660 -0.4262
 1321SOL     OW15595   3.234   0.726   9.878  0.3388  0.0583 -0.0544
 1321SOL    HW115596   3.246   0.783   9.954 -1.8217  0.1958  0.2015
 1321SOL    HW215597   3.216   0.790   9.810  1.4090  1.0084  0.5741
 1322SOL     OW15598   2.663   3.380   3.446  0.1070 -0.3206  0.2224
 1322SOL    HW115599   2.599   3.431   3.496  1.4299  1.5672  0.0046
 1322SOL    HW215600   2.685   3.457   3.393  0.3122 -0.5398 -0.0051
 1323SOL     OW15601   2.419   3.025   2.185 -0.0712 -0.7280 -0.0579
 1323SOL    HW115602   2.424   3.031   2.090 -0.3307  0.9751  0.0266
 1323SOL    HW215603   2.478   3.097   2.208 -0.0987 -0.3954 -1.0412
 1324SOL     OW15604   3.640   1.044   4.687  0.8565 -0.5126 -1.0458
 1324SOL    HW115605   3.587   1.054   4.766  1.2875 -1.0812 -0.6847
 1324SOL    HW215606   3.727   1.072   4.713  0.9361 -1.6146 -0.1292
 1325SOL     OW15607   3.129   2.666   3.414  0.4419 -0.3652 -0.4473
 1325SOL    HW115608   3.102   2.633   3.328  0.7985  1.3123 -1.2091
 1325SOL    HW215609   3.089   2.592   3.460  1.1469  0.0695  0.8412
 1326SOL     OW15610   3.137   0.911  13.422 -0.0567 -0.3256 -0.3474
 1326SOL    HW115611   3.068   0.845  13.430 -1.2268  0.6773 -2.1136
 1326SOL    HW215612   3.082   0.985  13.444  2.4454  2.1489 -2.4513
 1327SOL     OW15613   1.181   0.461   6.320  0.2578  0.3573  0.1748
 1327SOL    HW115614   1.128   0.407   6.262  2.5162 -1.8772  0.1826
 1327SOL    HW215615   1.263   0.412   6.316 -2.2758 -3.6600 -2.0881
 1328SOL     OW15616   1.819   0.028   2.920 -0.0105 -0.4199 -0.0137
 1328SOL    HW115617   1.893   4.724   2.880  0.1186  1.2926 -1.6925
 1328SOL    HW215618   1.752   4.703   2.931 -0.5878  0.3529  1.1352
 1329SOL     OW15619   2.797   2.072   6.393  0.3245 -0.6695  0.1523
 1329SOL    HW115620   2.852   2.067   6.471  0.1954  0.1985  0.2936
 1329SOL    HW215621   2.722   2.016   6.414  0.3129 -0.6084  0.2734
 1330SOL     OW15622   1.430   0.640   4.522  0.2874  0.0752  0.1182
 1330SOL    HW115623   1.412   0.580   4.449  1.4140 -2.9407  2.3088
 1330SOL    HW215624   1.476   0.577   4.577 -0.7071 -0.1439  0.6969
 1331SOL     OW15625   2.301   1.038   1.850 -0.0912 -0.2008 -0.0545
 1331SOL    HW115626   2.291   1.104   1.918 -0.4265  0.4730 -0.7619
 1331SOL    HW215627   2.238   1.072   1.787  0.1465 -1.5438 -1.0162
 1332SOL     OW15628   3.486   1.367   9.339 -0.8010 -0.1282  0.6270
 1332SOL    HW115629   3.512   1.293   9.394  0.9571  0.7465  0.9724
 1332SOL    HW215630   3.435   1.421   9.400 -2.4889  0.6661 -1.4919
 1333SOL     OW15631   3.356   3.906   1.758 -0.1106  0.2494 -0.4131
 1333SOL    HW115632   3.389   3.868   1.677 -1.7161  0.6442 -1.2560
 1333SOL    HW215633   3.264   3.901   1.731 -0.1583  0.9228 -0.3708
 1334SOL     OW15634   2.382   1.959   1.924 -0.1367  0.2368 -0.3471
 1334SOL    HW115635   2.344   1.922   2.004 -0.0048 -0.7342 -0.7312
 1334SOL    HW215636   2.471   1.976   1.954 -0.3941  0.9170  0.0436
 1335SOL     OW15637   3.468   1.218   2.223 -0.6819 -0.5420  0.2001
 1335SOL    HW115638   3.447   1.127   2.201  1.6827 -1.1853  0.6439
 1335SOL    HW215639   3.563   1.215   2.236 -0.3951  0.0015 -1.8283
 1336SOL     OW15640   3.421   4.538   3.469  0.4032  0.1819  0.2776
 1336SOL    HW115641   3.421   4.557   3.375  2.2260 -0.4409  0.1554
 1336SOL    HW215642   3.502   4.491   3.484  0.8801  0.3485 -1.7812
 1337SOL     OW15643   1.873   4.487   4.231  0.3810  0.2608 -0.1246
 1337SOL    HW115644   1.794   4.446   4.267  0.7989  1.2677  1.9244
 1337SOL    HW215645   1.947   4.450   4.280 -0.3084 -0.1577  0.5999
 1338SOL     OW15646   3.787   0.098   8.705  0.6062 -0.1944 -0.6060
 1338SOL    HW115647   3.789   0.008   8.737  1.1344 -0.3802 -1.1684
 1338SOL    HW215648   3.872   0.098   8.662  1.3923  0.6173  0.9176
 1339SOL     OW15649   2.622   0.801   3.878  0.3463 -0.2919 -0.5739
 1339SOL    HW115650   2.547   0.818   3.821  0.2577  0.8422 -0.1252
 1339SOL    HW215651   2.634   0.884   3.924  1.5197 -1.8451  1.9281
 1340SOL     OW15652   1.375   3.067  15.802 -0.2084 -0.3398  0.8496
 1340SOL    HW115653   1.444   3.073  15.868 -1.0601  1.5259  1.5716
 1340SOL    HW215654   1.315   3.003  15.841 -0.9743 -1.6590 -2.5521
 1341SOL     OW15655   3.240   0.848  14.663 -0.0555  0.0600 -0.0578
 1341SOL    HW115656   3.221   0.796  14.741  1.5913 -3.0024 -1.7305
 1341SOL    HW215657   3.207   0.935  14.685 -1.3092 -0.5068  0.3290
 1342SOL     OW15658   1.130   4.022   7.739 -0.4066 -0.2017 -0.0006
 1342SOL    HW115659   1.104   3.971   7.816  0.8240  1.4641  1.5054
 1342SOL    HW215660   1.049   4.065   7.710  0.5836  0.2459 -2.0631
 1343SOL     OW15661   0.013   3.423   7.854  0.2961 -1.1400  0.0654
 1343SOL    HW115662   0.081   3.486   7.879  0.3415 -0.3501 -2.0626
 1343SOL    HW215663   0.021   3.414   7.759  0.2090 -2.5986  0.1911
 1344SOL     OW15664   0.608   3.657  14.889 -0.6256  0.2000  0.3163
 1344SOL    HW115665   0.524   3.695  14.862 -0.7751  0.5962  1.3251
 1344SOL    HW215666   0.607   3.576  14.840 -0.3278  0.2534  0.2245
 1345SOL     OW15667   3.745   4.587   4.634 -0.0460 -0.2196 -0.4552
 1345SOL    HW115668   3.791   4.503   4.641  1.2140  0.4205 -1.0925
 1345SOL    HW215669   3.755   4.606   4.540  0.6883 -0.2454 -0.3796
 1346SOL     OW15670   2.972   3.175   9.496 -0.6676 -0.0653  0.3042
 1346SOL    HW115671   3.051   3.207   9.452  0.3634 -1.4280  1.1638
 1346SOL    HW215672   2.907   3.175   9.426  0.6433  1.6314 -0.9282
 1347SOL     OW15673   3.062   2.276   3.721  0.9630  0.2770  0.4111
 1347SOL    HW115674   2.974   2.291   3.686  0.1128  2.0660  3.2710
 1347SOL    HW215675   3.097   2.207   3.664  1.9191  0.1122  1.1872
 1348SOL     OW15676   1.803   0.972   4.115  0.2099  0.1368 -0.4189
 1348SOL    HW115677   1.852   1.050   4.140 -0.4184  0.2371  0.4930
 1348SOL    HW215678   1.711   0.998   4.108  0.2950  1.0668  1.9458
 1349SOL     OW15679   3.569   1.626   4.153 -0.5475 -0.2151  0.0543
 1349SOL    HW115680   3.533   1.706   4.115 -0.1615 -0.3241 -0.5376
 1349SOL    HW215681   3.661   1.653   4.160 -1.0335  0.6248  3.1327
 1350SOL     OW15682   3.827   2.265   6.983 -0.6608  0.1894 -0.3567
 1350SOL    HW115683   3.905   2.260   6.928 -1.0814  2.2781 -1.1351
 1350SOL    HW215684   3.787   2.342   6.942  0.4534  0.4419 -0.9783
 1351SOL     OW15685   4.412   1.186  10.336 -0.4580 -0.0088  0.3247
 1351SOL    HW115686   4.467   1.115  10.369 -0.1010 -1.2978 -2.9943
 1351SOL    HW215687   4.413   1.246  10.410  0.1802  0.2330  0.1253
 1352SOL     OW15688   2.409   2.521   2.212 -0.4750  0.9614  0.0820
 1352SOL    HW115689   2.420   2.566   2.128  0.8455  0.2268 -0.1396
 1352SOL    HW215690   2.336   2.458   2.205 -0.1376  0.7744 -1.7953
 1353SOL     OW15691   1.832   4.122   5.845  0.3874  0.2101  0.0194
 1353SOL    HW115692   1.792   4.036   5.829 -1.4695  1.1344 -0.2793
 1353SOL    HW215693   1.807   4.173   5.768  0.5080 -0.9742 -0.8141
 1354SOL     OW15694   4.369   0.818   2.148 -0.6293  0.0391  0.2842
 1354SOL    HW115695   4.307   0.756   2.111  1.6990 -1.7957 -0.5164
 1354SOL    HW215696   4.444   0.771   2.184  0.8524 -0.2744 -3.2555
 1355SOL     OW15697   3.519   2.135  13.616 -0.2046  0.3645  0.2158
 1355SOL    HW115698   3.581   2.063  13.605  0.0799  0.4719  1.1380
 1355SOL    HW215699   3.502   2.130  13.710 -2.4381 -0.4191 -0.2231
 1356SOL     OW15700   3.927   0.071   4.727  0.5673 -0.6567  0.0335
 1356SOL    HW115701   3.879   0.153   4.717 -0.8477 -1.5098 -0.1197
 1356SOL    HW215702   3.867   0.008   4.686 -0.9986  0.7474  0.1655
 1357SOL     OW15703   1.147   4.447   9.275 -0.1058  0.4855  0.0121
 1357SOL    HW115704   1.055   4.464   9.293 -0.1016 -0.3827  0.8719
 1357SOL    HW215705   1.156   4.352   9.267 -2.1271  0.3458 -0.5596
 1358SOL     OW15706   3.147   0.410   5.266  0.3112 -0.0688  0.2559
 1358SOL    HW115707   3.215   0.364   5.216  1.5319  1.0302  0.9090
 1358SOL    HW215708   3.195   0.440   5.344 -0.8124  0.1598  0.8591
 1359SOL     OW15709   3.313   3.872   7.232  0.6476  0.2144  0.8515
 1359SOL    HW115710   3.329   3.828   7.316  0.4921 -0.8100  0.3354
 1359SOL    HW215711   3.344   3.958   7.261 -1.6807  2.3268 -2.9985
 1360SOL     OW15712   4.386   0.451   0.265  0.5883  0.0144  0.3897
 1360SOL    HW115713   4.408   0.408   0.182 -2.3539  1.3493 -1.0406
 1360SOL    HW215714   4.328   0.389   0.309 -0.0011 -0.6905 -1.4107
 1361SOL     OW15715   0.325   2.755   2.776  0.4765 -0.1642  0.7321
 1361SOL    HW115716   0.299   2.799   2.857 -2.4278  0.1549 -0.3927
 1361SOL    HW215717   0.386   2.690   2.812  2.7884  1.1314 -0.8798
 1362SOL     OW15718   1.859   4.615  11.128  0.5442 -0.0065  0.0224
 1362SOL    HW115719   1.853   4.698  11.175 -2.2541  0.6718 -1.5412
 1362SOL    HW215720   1.936   4.588  11.178  1.6904  1.2245 -1.0723
 1363SOL     OW15721   0.810   2.490   3.719  0.3376 -0.0226  0.1961
 1363SOL    HW115722   0.727   2.450   3.744  0.4734 -0.3604  0.1086
 1363SOL    HW215723   0.867   2.453   3.786 -1.1764 -2.5169  0.0865
 1364SOL     OW15724   0.108   2.127   8.506 -0.6878  0.5204  0.1703
 1364SOL    HW115725   0.036   2.186   8.528 -2.3847 -1.3767 -0.2915
 1364SOL    HW215726   0.167   2.148   8.578  1.4094  0.4405 -1.5402
 1365SOL     OW15727   0.867   1.593   5.837 -0.0643  0.3615 -0.3156
 1365SOL    HW115728   0.955   1.627   5.822  0.0319  0.4998  0.5231
 1365SOL    HW215729   0.841   1.651   5.910  1.6731  1.8728 -0.8728
 1366SOL     OW15730   0.665   4.406   0.899  0.3422  0.5423  0.0971
 1366SOL    HW115731   0.584   4.422   0.947  0.3361 -0.0956  0.3064
 1366SOL    HW215732   0.726   4.421   0.972 -0.3197  1.3333  0.4843
 1367SOL     OW15733   2.387   2.509   0.313  0.4452 -0.7925 -0.0251
 1367SOL    HW115734   2.449   2.445   0.278  2.7490  0.3317  2.0290
 1367SOL    HW215735   2.421   2.580   0.259 -1.8104  0.9131  0.7722
 1368SOL     OW15736   4.530   0.392  11.765 -0.1655 -0.0166  0.2663
 1368SOL    HW115737   4.465   0.461  11.780 -1.1791 -0.9308  0.0225
 1368SOL    HW215738   4.477   0.322  11.728 -1.9528  0.3625  2.1093
 1369SOL     OW15739   2.534   2.845   7.610  0.2332 -0.0297 -0.4553
 1369SOL    HW115740   2.497   2.932   7.623  1.4972  0.6080 -1.1223
 1369SOL    HW215741   2.547   2.827   7.703  0.5964 -0.0347 -0.5079
 1370SOL     OW15742   1.211   3.546   8.520  0.3515  0.1631  0.0558
 1370SOL    HW115743   1.167   3.531   8.604 -0.1123  1.5159  0.0499
 1370SOL    HW215744   1.153   3.613   8.484  0.3377  0.0989 -0.0390
 1371SOL     OW15745   3.934   2.610   0.214 -0.5259  0.2138 -0.3413
 1371SOL    HW115746   3.852   2.581   0.253  0.4991 -0.7566  1.1113
 1371SOL    HW215747   3.978   2.530   0.186  0.8494  0.4222  1.2153
 1372SOL     OW15748   3.099   1.351   6.930  0.0603 -0.1119 -0.0159
 1372SOL    HW115749   3.111   1.444   6.911 -1.2659 -0.1362 -0.9237
 1372SOL    HW215750   3.059   1.352   7.017 -2.0391  0.4382 -0.9937
 1373SOL     OW15751   3.972   1.607   3.925 -0.1588 -0.2108  0.1639
 1373SOL    HW115752   4.002   1.642   4.009  0.1140  0.3998 -0.1810
 1373SOL    HW215753   3.964   1.685   3.871 -0.3863 -1.1360 -1.1257
 1374SOL     OW15754   2.117   2.598  13.492 -0.3772  0.0895  0.0714
 1374SOL    HW115755   2.110   2.643  13.408  2.1028  1.7960  0.7824
 1374SOL    HW215756   2.185   2.534  13.473 -1.1824  0.0366 -2.5260
 1375SOL     OW15757   1.567   2.721  12.192 -0.7205  0.2861  0.2402
 1375SOL    HW115758   1.579   2.736  12.286  0.4104  1.0257 -0.0384
 1375SOL    HW215759   1.651   2.684  12.165  0.2825  1.8367  1.2349
 1376SOL     OW15760   1.223   0.983  13.153  0.2123  1.2008  0.4157
 1376SOL    HW115761   1.253   0.929  13.226 -1.4441  2.5680  2.0883
 1376SOL    HW215762   1.309   0.990  13.111  0.2016 -0.3480  0.1305
 1377SOL     OW15763   0.994   2.696   7.189  0.3476 -0.1185 -0.0236
 1377SOL    HW115764   0.959   2.731   7.271  1.1743  1.1586 -0.2204
 1377SOL    HW215765   0.953   2.742   7.116 -1.1473 -0.0243  0.8670
 1378SOL     OW15766   3.292   4.645   2.743  0.3200  0.0560 -0.8228
 1378SOL    HW115767   3.358   4.675   2.680  0.6103  1.6546  0.2328
 1378SOL    HW215768   3.339   4.648   2.826  0.2998  0.1031 -0.8130
 1379SOL     OW15769   1.021   0.677   4.258 -0.7776 -0.0495  0.0356
 1379SOL    HW115770   0.998   0.684   4.350  0.8141  1.6883  0.3111
 1379SOL    HW215771   0.992   0.589   4.237  1.5592 -1.0126  0.7913
 1380SOL     OW15772   2.623   1.174   8.391  0.3132 -0.7216 -0.3096
 1380SOL    HW115773   2.712   1.172   8.356  0.9892 -1.5289  1.4946
 1380SOL    HW215774   2.643   1.145   8.480  0.9274 -1.6101 -0.7340
 1381SOL     OW15775   2.944   1.332   1.377  0.0385  0.4448  0.1854
 1381SOL    HW115776   2.856   1.369   1.377 -0.8740 -1.6943 -0.3271
 1381SOL    HW215777   2.961   1.323   1.283 -0.0445 -0.2436  0.2342
 1382SOL     OW15778   0.209   1.086   3.924  0.2978 -0.1540  0.0044
 1382SOL    HW115779   0.203   1.176   3.893  0.3311  0.0709  0.6429
 1382SOL    HW215780   0.164   1.096   4.008  0.6672  0.5833  0.1177
 1383SOL     OW15781   4.617   2.511  14.639 -0.0301 -0.2345 -0.1186
 1383SOL    HW115782   4.619   2.416  14.629 -2.8743 -0.2411 -0.5900
 1383SOL    HW215783   4.542   2.535  14.693 -0.2582  2.8890 -1.8359
 1384SOL     OW15784   4.477   0.458   3.245 -0.1797 -0.2932 -0.5197
 1384SOL    HW115785   4.549   0.450   3.182  1.8034 -0.1034  1.7087
 1384SOL    HW215786   4.503   0.537   3.292 -1.8677  0.5095 -0.9149
 1385SOL     OW15787   4.275   3.152   6.462  0.4446  0.3172  0.4049
 1385SOL    HW115788   4.326   3.232   6.481 -1.6541  1.1618  2.5361
 1385SOL    HW215789   4.284   3.120   6.552  0.6577 -0.5754  0.0584
 1386SOL     OW15790   2.345   2.375   1.388  0.6876 -0.0027 -0.6513
 1386SOL    HW115791   2.339   2.464   1.351 -0.9750 -0.6323 -1.9055
 1386SOL    HW215792   2.436   2.362   1.415  0.5604 -0.8435 -0.6499
 1387SOL     OW15793   0.070   2.785   9.386 -0.1018  0.9926 -0.0870
 1387SOL    HW115794   0.027   2.866   9.360  0.4692  0.3731 -2.8769
 1387SOL    HW215795   0.097   2.755   9.299 -1.8554  2.6402 -1.1769
 1388SOL     OW15796   3.936   1.975   2.259  0.5908 -0.5639 -0.2293
 1388SOL    HW115797   3.854   1.928   2.244  0.0403  0.7045 -1.1930
 1388SOL    HW215798   3.909   2.065   2.239 -2.7276 -1.1622  1.7039
 1389SOL     OW15799   1.824   0.885   6.513 -0.0497  0.2304  0.1987
 1389SOL    HW115800   1.738   0.846   6.497 -0.7670  1.3640  1.3358
 1389SOL    HW215801   1.797   0.961   6.563 -0.5300 -0.9577  1.7363
 1390SOL     OW15802   0.585   2.426   6.180 -0.2759  0.0687  0.5834
 1390SOL    HW115803   0.528   2.351   6.196 -0.8889  0.4725  0.2773
 1390SOL    HW215804   0.664   2.383   6.214 -0.3973 -1.1655 -0.6715
 1391SOL     OW15805   3.888   1.706  14.779  0.1698 -0.0931  0.6797
 1391SOL    HW115806   3.980   1.714  14.802  0.1607 -0.1693  0.7428
 1391SOL    HW215807   3.855   1.641  14.841 -0.2756 -1.2040 -0.7309
 1392SOL     OW15808   2.612   2.836  10.932  0.0335 -0.5110  0.1873
 1392SOL    HW115809   2.678   2.905  10.931  1.2524 -1.6706 -0.6335
 1392SOL    HW215810   2.535   2.872  10.974 -0.2437  0.7536 -1.4058
 1393SOL     OW15811   2.237   0.775   9.561 -0.0969 -0.2886 -0.4884
 1393SOL    HW115812   2.248   0.757   9.467  0.6427 -2.3611  0.0049
 1393SOL    HW215813   2.166   0.720   9.594 -1.4163  2.8698  1.9046
 1394SOL     OW15814   1.792   3.603   9.165  0.3922 -0.5959  0.2856
 1394SOL    HW115815   1.835   3.522   9.140  0.8793 -0.2604  0.0410
 1394SOL    HW215816   1.793   3.651   9.082 -1.2977 -0.5348  0.2874
 1395SOL     OW15817   3.468   3.127   7.628 -0.1247  0.1690 -0.6858
 1395SOL    HW115818   3.556   3.106   7.660  0.4712  2.6015 -0.7224
 1395SOL    HW215819   3.442   3.035   7.629  0.1899  0.1149  2.1474
 1396SOL     OW15820   3.999   1.255   8.001  0.0881  0.4966 -0.3466
 1396SOL    HW115821   4.089   1.255   7.968 -1.0263  1.5309 -3.4500
 1396SOL    HW215822   4.022   1.217   8.086 -0.8824 -1.7873 -1.1003
 1397SOL     OW15823   4.052   2.096  17.409 -0.0117  0.1016 -0.4688
 1397SOL    HW115824   3.988   2.124  17.344  0.1362 -0.5598 -0.8931
 1397SOL    HW215825   4.025   2.008  17.433 -0.9690  0.2366 -1.0631
 1398SOL     OW15826   4.601   2.945   0.113 -0.5090  0.1790  0.2947
 1398SOL    HW115827   4.591   2.941   0.018 -2.2619 -1.1690  0.5516
 1398SOL    HW215828   4.622   3.034   0.143 -0.2297 -0.2848  1.4912
 1399SOL     OW15829   4.625   3.564   0.597  0.0192  0.0000  0.3387
 1399SOL    HW115830   4.694   3.621   0.631  0.5497  0.2300 -1.1191
 1399SOL    HW215831   4.644   3.490   0.654 -0.7195  1.6255  2.7011
 1400SOL     OW15832   4.439   1.590   3.912  0.4158 -0.1122  0.4008
 1400SOL    HW115833   4.426   1.497   3.894 -2.3072 -0.0352  1.8949
 1400SOL    HW215834   4.351   1.617   3.939  0.4713  1.3751 -0.9039
 1401SOL     OW15835   3.958   1.030  11.820 -0.0415 -0.0916 -0.5075
 1401SOL    HW115836   3.946   0.989  11.734  1.3234 -3.0836  0.7385
 1401SOL    HW215837   3.963   0.951  11.875 -0.2249 -0.0688 -0.4598
 1402SOL     OW15838   3.836   1.555  16.491  0.1322  0.0768 -0.4725
 1402SOL    HW115839   3.761   1.611  16.512  1.3217  0.7822  1.9102
 1402SOL    HW215840   3.879   1.567  16.575 -2.7927  2.0201  0.7364
 1403SOL     OW15841   0.306   3.037   4.112  0.0134 -0.7339 -0.9933
 1403SOL    HW115842   0.373   3.104   4.100  1.1357 -1.5286  0.8753
 1403SOL    HW215843   0.368   2.964   4.115 -0.1646 -0.8314  0.3268
 1404SOL     OW15844   4.516   0.717   8.047  0.0513 -0.2556 -0.0390
 1404SOL    HW115845   4.524   0.684   7.957  0.9918 -0.9200  0.2936
 1404SOL    HW215846   4.514   0.809   8.021 -0.0414 -0.0764  0.6241
 1405SOL     OW15847   4.263   4.740   9.084  0.0725 -0.6182  0.3876
 1405SOL    HW115848   4.221   0.040   9.009  0.9783 -0.3031  0.0549
 1405SOL    HW215849   4.197   4.672   9.095  1.3064 -1.3412  3.2891
 1406SOL     OW15850   0.510   0.632   8.020 -0.2232 -0.6610  0.0209
 1406SOL    HW115851   0.594   0.592   8.046  0.4010  1.7019  1.6552
 1406SOL    HW215852   0.534   0.674   7.938 -0.8072  1.9961  1.2143
 1407SOL     OW15853   3.549   0.474   9.050 -0.4822 -0.2363  0.3666
 1407SOL    HW115854   3.478   0.504   9.107  0.3770  0.3556  1.1364
 1407SOL    HW215855   3.613   0.538   9.083 -1.4643  0.8569  0.1506
 1408SOL     OW15856   4.068   3.802   4.873  0.0730  0.7058 -0.5183
 1408SOL    HW115857   4.133   3.825   4.939 -2.0026  1.8606  1.1216
 1408SOL    HW215858   4.050   3.710   4.891 -0.2696  0.7515 -0.6100
 1409SOL     OW15859   2.266   0.486   6.676  0.0648  0.1871 -0.2493
 1409SOL    HW115860   2.348   0.517   6.637  0.6561 -0.8969  0.1056
 1409SOL    HW215861   2.211   0.564   6.677  0.8280  0.7109  0.5327
 1410SOL     OW15862   0.613   0.709   6.762  0.1919 -0.0948  0.0967
 1410SOL    HW115863   0.605   0.677   6.672 -1.9701 -2.1345  1.0201
 1410SOL    HW215864   0.527   0.750   6.770  1.1059  1.9168 -0.4052
 1411SOL     OW15865   4.702   3.022  16.478  0.6656  0.3455  0.1085
 1411SOL    HW115866   0.027   3.062  16.423  0.6571 -0.7312 -0.6933
 1411SOL    HW215867   4.719   3.063  16.563 -2.1970  2.7062 -0.4559
 1412SOL     OW15868   3.554   4.527   9.331 -0.6778  0.2661 -0.2635
 1412SOL    HW115869   3.573   4.610   9.375 -0.1670 -0.1100  0.2205
 1412SOL    HW215870   3.623   4.474   9.369  0.4886  0.9095 -1.4926
 1413SOL     OW15871   1.992   2.807   2.454  0.2462 -0.4213  0.1137
 1413SOL    HW115872   2.020   2.875   2.392  0.1368 -0.9217 -0.4800
 1413SOL    HW215873   2.073   2.794   2.502  1.7429  0.5602 -2.1308
 1414SOL     OW15874   2.483   3.290   1.357 -0.1485 -1.0832  0.2317
 1414SOL    HW115875   2.555   3.328   1.406  1.1601  0.4585 -2.8545
 1414SOL    HW215876   2.524   3.271   1.272  0.9517  0.3996  0.4385
 1415SOL     OW15877   3.652   3.772   7.840  0.2528 -0.1906  0.2302
 1415SOL    HW115878   3.587   3.708   7.811  1.7049 -1.3191 -0.4839
 1415SOL    HW215879   3.725   3.711   7.838  0.3647 -0.1308  2.2855
 1416SOL     OW15880   0.731   2.143   6.874  0.0227 -0.3709  0.5175
 1416SOL    HW115881   0.685   2.094   6.807 -0.8567 -1.4176  1.8742
 1416SOL    HW215882   0.702   2.092   6.950 -0.3164 -1.4119 -0.3037
 1417SOL     OW15883   3.636   1.438   8.321  0.4098  0.2646  0.3532
 1417SOL    HW115884   3.673   1.396   8.399  0.0610  1.4801  1.1668
 1417SOL    HW215885   3.714   1.481   8.286 -1.6927  2.7673 -1.2427
 1418SOL     OW15886   1.146   2.997  13.093  0.2764 -0.2055  0.0960
 1418SOL    HW115887   1.159   3.055  13.168 -2.6872 -1.9276  1.9627
 1418SOL    HW215888   1.113   2.918  13.135 -0.1121 -0.3210 -0.4238
 1419SOL     OW15889   3.784   1.253   3.334 -0.4933  0.2830 -0.0809
 1419SOL    HW115890   3.832   1.191   3.389 -0.3378 -0.3487 -0.9292
 1419SOL    HW215891   3.694   1.233   3.360 -0.4184 -1.2159 -0.9783
 1420SOL     OW15892   0.598   2.057   1.745 -0.4725  0.5314 -0.3169
 1420SOL    HW115893   0.507   2.078   1.767  0.0224  4.2578 -1.8339
 1420SOL    HW215894   0.602   2.112   1.667  1.1806 -1.1903 -1.4370
 1421SOL     OW15895   2.218   4.281   4.125  0.4519 -0.0236 -0.3835
 1421SOL    HW115896   2.313   4.291   4.132  0.5126 -0.0143 -1.2426
 1421SOL    HW215897   2.209   4.195   4.166 -0.6651  0.3355  0.1199
 1422SOL     OW15898   1.545   1.564   9.682 -0.1430 -0.2008 -0.0712
 1422SOL    HW115899   1.593   1.514   9.749 -1.5939 -1.8376 -0.2578
 1422SOL    HW215900   1.614   1.623   9.652 -1.6886  1.7534  0.2937
 1423SOL     OW15901   1.791   1.250   4.549 -0.0731 -0.2450 -0.0631
 1423SOL    HW115902   1.844   1.251   4.469 -0.2503 -1.1001 -0.1877
 1423SOL    HW215903   1.783   1.157   4.568  1.9531 -0.4252 -0.0730
 1424SOL     OW15904   1.091   3.903   2.612 -0.1491 -0.0535 -0.3079
 1424SOL    HW115905   1.139   3.877   2.690  0.2781  0.9788 -0.2381
 1424SOL    HW215906   1.058   3.990   2.633  1.3875  0.5224 -0.3382
 1425SOL     OW15907   0.270   4.710  10.622  0.6990  0.5613  0.0816
 1425SOL    HW115908   0.177   4.698  10.642  0.5969 -0.2079 -0.8425
 1425SOL    HW215909   0.312   4.740  10.703  2.5767 -0.5061 -0.4926
 1426SOL     OW15910   0.567   0.599   9.044 -0.2984  0.0213 -0.1010
 1426SOL    HW115911   0.493   0.644   9.086  1.3492  1.0545  1.6646
 1426SOL    HW215912   0.601   0.545   9.115 -1.6432  0.9271  1.2194
 1427SOL     OW15913   3.412   2.649  14.966 -0.0761 -0.4011 -0.8037
 1427SOL    HW115914   3.488   2.632  15.022 -0.5811 -1.4418 -0.4445
 1427SOL    HW215915   3.437   2.733  14.928 -1.2669 -0.2483 -1.2491
 1428SOL     OW15916   2.043   2.056   2.054  0.7975  0.2734 -0.4663
 1428SOL    HW115917   2.058   2.104   2.136  3.4929 -1.7191  0.1989
 1428SOL    HW215918   2.078   2.117   1.989 -0.6730  2.4926  0.8076
 1429SOL     OW15919   1.994   3.742   9.830 -0.5571 -1.0486 -0.5581
 1429SOL    HW115920   2.047   3.695   9.766  3.2428  1.2305  0.9081
 1429SOL    HW215921   2.061   3.804   9.859  1.3662 -2.9292 -0.9572
 1430SOL     OW15922   3.830   2.813   8.510 -0.2705  0.4039  0.2066
 1430SOL    HW115923   3.797   2.727   8.535  0.1098  1.0822  2.9958
 1430SOL    HW215924   3.917   2.827   8.547 -0.8524  0.9417  1.3736
 1431SOL     OW15925   1.422   4.271   2.176 -0.6078 -0.2710 -0.1741
 1431SOL    HW115926   1.372   4.294   2.098  1.5644 -0.0535 -1.5216
 1431SOL    HW215927   1.460   4.357   2.194 -0.0678 -0.2136 -1.6044
 1432SOL     OW15928   2.488   4.086   5.902  0.7743  0.2819  0.3001
 1432SOL    HW115929   2.487   3.990   5.900 -0.1694  0.2402  2.4058
 1432SOL    HW215930   2.473   4.093   5.808 -1.3761 -0.2770  0.6142
 1433SOL     OW15931   4.291   3.787   8.285 -0.2968  0.9661  0.1700
 1433SOL    HW115932   4.239   3.812   8.361 -1.6119 -2.4852  0.4038
 1433SOL    HW215933   4.361   3.733   8.321  0.6387  1.2711 -1.1983
 1434SOL     OW15934   2.456   3.747  13.235  0.8613  0.3539  0.5181
 1434SOL    HW115935   2.533   3.720  13.285  0.8971 -0.6232 -0.0824
 1434SOL    HW215936   2.479   3.737  13.143  0.6541  0.5774  0.4406
 1435SOL     OW15937   0.783   3.408   6.344 -0.2432 -0.0749 -0.4757
 1435SOL    HW115938   0.713   3.464   6.311 -0.0541 -0.3170 -1.2879
 1435SOL    HW215939   0.814   3.436   6.430 -0.7120 -2.5355  0.4766
 1436SOL     OW15940   2.842   1.908  15.332  0.2586  0.5112  0.6334
 1436SOL    HW115941   2.752   1.915  15.300  1.4714  0.9911 -2.6752
 1436SOL    HW215942   2.876   1.992  15.302  1.1923  0.1958  0.7904
 1437SOL     OW15943   3.888   3.446   6.859 -0.8929  0.5049  0.0332
 1437SOL    HW115944   3.818   3.431   6.795  0.8930 -0.4033 -1.7226
 1437SOL    HW215945   3.889   3.541   6.866  0.7129  0.4881 -0.0222
 1438SOL     OW15946   2.164   0.077  10.134  0.4096  0.3245 -0.8103
 1438SOL    HW115947   2.213   0.159  10.142  0.8769  0.1055 -1.3976
 1438SOL    HW215948   2.239   0.018  10.142  0.1072 -0.1450 -1.4390
 1439SOL     OW15949   2.007   4.633   2.792  0.3007  0.1590 -0.0055
 1439SOL    HW115950   2.035   4.543   2.811 -0.0651  0.2144  0.8115
 1439SOL    HW215951   2.001   4.621   2.697 -0.9802  0.5890  0.0218
 1440SOL     OW15952   0.398   3.476   8.183  0.0692  0.4777 -0.1071
 1440SOL    HW115953   0.380   3.521   8.266 -1.1145 -2.9838  1.4970
 1440SOL    HW215954   0.413   3.546   8.120 -0.3843  1.3563  0.7551
 1441SOL     OW15955   4.723   2.871   3.946  0.2423  0.4276 -0.4892
 1441SOL    HW115956   0.052   2.824   3.902  0.7752 -1.1260  2.0247
 1441SOL    HW215957   4.689   2.928   3.876  1.0835 -1.3043 -2.2988
 1442SOL     OW15958   1.977   1.454   6.388  0.1612  0.4834 -0.4745
 1442SOL    HW115959   2.042   1.498   6.334  1.8279 -1.9358 -0.4426
 1442SOL    HW215960   1.896   1.492   6.355  0.3060  0.2051 -1.1426
 1443SOL     OW15961   2.952   2.919   0.756  0.0029 -0.6335 -0.8981
 1443SOL    HW115962   2.971   2.865   0.679  3.7827 -0.2202 -0.2400
 1443SOL    HW215963   2.881   2.876   0.804 -0.4500  1.8108  0.6326
 1444SOL     OW15964   4.711   4.737   4.497  0.0862  1.0480 -0.6573
 1444SOL    HW115965   0.051   0.008   4.447 -0.0325 -0.1320 -1.1610
 1444SOL    HW215966   4.647   0.034   4.438  0.1448 -1.2415 -2.2345
 1445SOL     OW15967   3.764   0.517   6.257 -0.2028 -0.1931 -0.7333
 1445SOL    HW115968   3.779   0.444   6.317  1.7044  0.7645 -0.0295
 1445SOL    HW215969   3.727   0.462   6.189 -0.2709 -0.5888 -0.3725
 1446SOL     OW15970   0.640   2.889   6.661  0.0120 -0.3457 -0.1409
 1446SOL    HW115971   0.699   2.819   6.631  2.1271  1.3338  0.0659
 1446SOL    HW215972   0.679   2.970   6.627 -1.4303  0.6109  0.5096
 1447SOL     OW15973   2.951   0.669   3.297 -0.1182 -0.2848  0.3565
 1447SOL    HW115974   2.905   0.634   3.221 -0.0487  1.4645 -0.4917
 1447SOL    HW215975   2.935   0.762   3.281 -2.0105 -1.0668 -2.3003
 1448SOL     OW15976   2.445   1.467   2.177 -0.2537  0.0970  0.3725
 1448SOL    HW115977   2.446   1.371   2.181  0.6014  0.0054 -2.4129
 1448SOL    HW215978   2.350   1.477   2.186 -0.5568 -0.8968 -1.5516
 1449SOL     OW15979   0.718   0.182   8.860  0.6425 -0.3146 -0.2936
 1449SOL    HW115980   0.703   0.187   8.765 -0.2198  0.6983 -0.1015
 1449SOL    HW215981   0.785   0.250   8.866  1.7654 -1.5464  0.9015
 1450SOL     OW15982   0.618   0.253   9.091 -0.1946  0.0729  0.5165
 1450SOL    HW115983   0.656   0.223   9.008 -1.9594  0.7673 -0.5450
 1450SOL    HW215984   0.525   0.235   9.079 -0.1869  1.0495 -1.0150
 1451SOL     OW15985   0.434   1.015   3.219 -0.7638  0.2180 -0.0743
 1451SOL    HW115986   0.410   1.041   3.308 -2.7474  1.5393 -0.9855
 1451SOL    HW215987   0.455   1.098   3.175 -0.2335  0.5088  0.7182
 1452SOL     OW15988   3.621   4.701   8.283  0.2613  0.2120 -0.0799
 1452SOL    HW115989   3.671   4.644   8.341 -1.7327 -0.7811  0.6558
 1452SOL    HW215990   3.560   4.636   8.249  0.8699  0.1459 -1.0157
 1453SOL     OW15991   1.477   3.542   4.788 -0.0332 -0.0548  0.1755
 1453SOL    HW115992   1.388   3.546   4.755  0.2459 -1.6978 -0.7921
 1453SOL    HW215993   1.456   3.486   4.862 -0.4068 -1.4672 -0.9958
 1454SOL     OW15994   1.223   0.930  17.095  0.5122 -0.9620  0.2022
 1454SOL    HW115995   1.148   0.895  17.047 -1.6470  2.9208  0.7201
 1454SOL    HW215996   1.173   0.945  17.175 -1.2312  1.0108 -1.2120
 1455SOL     OW15997   4.320   0.411   3.532 -0.2703  0.8940 -0.2790
 1455SOL    HW115998   4.379   0.417   3.607 -1.3470 -0.4021  0.6764
 1455SOL    HW215999   4.359   0.350   3.469 -0.2097 -0.0161  0.6429
 1456SOL     OW16000   4.118   2.540   5.904 -0.3180  0.0693 -0.1757
 1456SOL    HW116001   4.082   2.452   5.910  1.0036 -0.5619 -1.4255
 1456SOL    HW216002   4.176   2.525   5.978 -2.4392  3.0042  2.0653
 1457SOL     OW16003   0.312   3.979  12.803  0.7359  0.2590 -0.1601
 1457SOL    HW116004   0.219   4.001  12.810  0.5759  0.2773 -2.1814
 1457SOL    HW216005   0.314   3.920  12.878  1.9211 -1.1254 -1.2674
 1458SOL     OW16006   3.367   0.541   3.079  0.0976 -0.9776 -0.1495
 1458SOL    HW116007   3.293   0.511   3.026 -0.5526 -2.9749  1.8953
 1458SOL    HW216008   3.329   0.617   3.121  1.2849 -1.0513  1.0474
 1459SOL     OW16009   0.326   1.304   9.096  0.2416  0.2243 -0.2193
 1459SOL    HW116010   0.318   1.293   9.001  2.0925 -0.9481 -0.2367
 1459SOL    HW216011   0.287   1.222   9.127 -0.0648  0.0335 -1.1069
 1460SOL     OW16012   0.625   0.123   6.430 -0.7346  0.1663 -0.0510
 1460SOL    HW116013   0.608   0.089   6.518 -0.2351 -0.4925 -0.2097
 1460SOL    HW216014   0.641   0.216   6.448 -1.5238  0.5736 -1.4938
 1461SOL     OW16015   1.956   0.889   0.749 -0.0776 -0.4181  0.0377
 1461SOL    HW116016   1.964   0.952   0.677 -0.7401 -0.7424 -0.3151
 1461SOL    HW216017   1.942   0.806   0.705 -3.1457 -0.0226  0.2968
 1462SOL     OW16018   1.314   0.587   3.779 -0.8212  0.6440  0.3912
 1462SOL    HW116019   1.250   0.558   3.714 -2.0347  0.5235  1.6429
 1462SOL    HW216020   1.377   0.517   3.763  1.2970  2.0350  2.7398
 1463SOL     OW16021   4.352   1.985   1.183  0.5201  0.8434 -0.5111
 1463SOL    HW116022   4.349   2.079   1.199  1.3884  0.6935  0.5370
 1463SOL    HW216023   4.441   1.969   1.214  1.1268  0.7543 -2.3240
 1464SOL     OW16024   1.649   1.434   5.804  0.4984  0.1397  0.4104
 1464SOL    HW116025   1.581   1.446   5.870 -0.2558  0.2726 -0.3808
 1464SOL    HW216026   1.590   1.433   5.728  0.0354  0.6548  0.7637
 1465SOL     OW16027   0.589   2.009   3.321 -0.3983  0.2060 -0.1152
 1465SOL    HW116028   0.591   1.961   3.404 -1.9661 -0.9369 -0.7257
 1465SOL    HW216029   0.675   2.051   3.328 -0.6782  0.6605  0.5319
 1466SOL     OW16030   3.977   2.233  12.210  0.4242 -0.4744  0.2247
 1466SOL    HW116031   4.017   2.159  12.256  0.9039 -1.0871 -1.1540
 1466SOL    HW216032   3.885   2.210  12.201  0.4055 -0.1889 -0.3048
 1467SOL     OW16033   1.488   0.055   9.818  0.3561 -0.0893  0.1579
 1467SOL    HW116034   1.421   0.123   9.829  1.1199  0.6753  0.0539
 1467SOL    HW216035   1.437   4.727   9.775  3.1230 -2.7244  1.1833
 1468SOL     OW16036   2.834   0.626   2.656 -0.2346 -0.0360  0.1802
 1468SOL    HW116037   2.778   0.552   2.633 -0.6816 -0.1079  1.5106
 1468SOL    HW216038   2.917   0.604   2.613 -0.3271 -2.3179  1.1566
 1469SOL     OW16039   3.691   0.513   2.516  0.0800  0.2205  0.0271
 1469SOL    HW116040   3.655   0.586   2.466 -0.1916 -0.4253 -0.7186
 1469SOL    HW216041   3.631   0.513   2.591  1.1822 -1.3468  0.9228
 1470SOL     OW16042   4.372   1.433  12.541  0.3815 -0.1435 -0.8923
 1470SOL    HW116043   4.355   1.479  12.623 -1.2504 -1.9198 -0.2321
 1470SOL    HW216044   4.376   1.339  12.557  3.4551 -0.0763 -1.1942
 1471SOL     OW16045   4.267   3.651  12.200  0.2238 -0.3227  0.3226
 1471SOL    HW116046   4.217   3.572  12.179 -3.4229  1.1197  3.6848
 1471SOL    HW216047   4.323   3.611  12.266  0.9553 -1.4376 -0.9632
 1472SOL     OW16048   2.795   2.285   6.936  0.7240  0.0548  0.0804
 1472SOL    HW116049   2.751   2.289   6.852 -0.7076  0.3335  0.8434
 1472SOL    HW216050   2.882   2.273   6.899  0.3201 -0.5835 -0.6582
 1473SOL     OW16051   0.636   1.803   2.542  0.2069  0.0272 -0.6226
 1473SOL    HW116052   0.583   1.754   2.605  0.4077 -0.6351 -0.9654
 1473SOL    HW216053   0.625   1.746   2.465  0.7547 -0.9060 -0.0022
 1474SOL     OW16054   1.271   4.565   0.866  0.2293  0.0036 -0.3839
 1474SOL    HW116055   1.363   4.589   0.860  0.2627  0.1426  0.7048
 1474SOL    HW216056   1.235   4.558   0.777 -0.4565 -0.0954 -0.1006
 1475SOL     OW16057   4.004   0.354   4.075  0.5180  0.2035  0.4167
 1475SOL    HW116058   3.953   0.273   4.074 -0.7086  0.9794  0.5946
 1475SOL    HW216059   4.013   0.372   4.169  0.4662 -1.5288  0.7475
 1476SOL     OW16060   4.727   2.061  17.571 -0.1778 -0.0142 -0.8401
 1476SOL    HW116061   0.062   2.058  17.514  1.1757  2.6435  0.8283
 1476SOL    HW216062   4.666   2.051  17.499  0.4050 -0.8097 -1.2276
 1477SOL     OW16063   1.970   2.024   9.022  0.5283  0.1550 -0.2319
 1477SOL    HW116064   1.915   1.957   9.062  0.2216  2.0319  2.4974
 1477SOL    HW216065   1.910   2.096   9.002 -1.1420 -0.3302  3.0273
 1478SOL     OW16066   3.314   4.553   8.218 -0.0338 -0.1403 -0.2048
 1478SOL    HW116067   3.274   4.633   8.183 -0.2993 -0.7730 -1.3448
 1478SOL    HW216068   3.294   4.565   8.310 -0.5000  0.4102 -0.3779
 1479SOL     OW16069   4.375   0.863   8.288 -0.2409 -0.1375  0.7508
 1479SOL    HW116070   4.420   0.781   8.305 -1.5251 -0.8162  0.9331
 1479SOL    HW216071   4.448   0.920   8.264 -1.0977  0.0513 -1.3926
 1480SOL     OW16072   0.920   1.618   3.775 -0.4460 -0.5874 -0.5973
 1480SOL    HW116073   0.905   1.708   3.803 -0.2020 -0.7254 -0.0109
 1480SOL    HW216074   0.878   1.584   3.854 -1.5541  1.0787 -0.4635
 1481SOL     OW16075   0.201   0.460  17.543  0.0129  0.6560  0.0520
 1481SOL    HW116076   0.251   0.494  17.469  0.0929 -2.0770 -1.1696
 1481SOL    HW216077   0.148   0.400  17.490 -0.1945 -1.3622  2.5609
 1482SOL     OW16078   3.509   1.222   3.350  1.0900  0.1656  0.1771
 1482SOL    HW116079   3.483   1.131   3.337 -0.0820  0.6203 -0.6353
 1482SOL    HW216080   3.438   1.263   3.301  0.9434 -0.9589 -0.5701
 1483SOL     OW16081   3.152   3.120   5.297  0.2262 -0.0072  0.2700
 1483SOL    HW116082   3.154   3.151   5.206 -1.3360 -0.1551  0.1819
 1483SOL    HW216083   3.072   3.157   5.333 -1.2557 -0.2290 -2.7950
 1484SOL     OW16084   1.950   3.597   8.154 -0.3546 -0.1405 -0.2243
 1484SOL    HW116085   1.890   3.630   8.220 -2.8422  1.6077 -3.3702
 1484SOL    HW216086   2.034   3.603   8.201 -1.2765  1.7679  1.1598
 1485SOL     OW16087   1.283   4.258   1.940 -0.0351  0.0895 -0.3844
 1485SOL    HW116088   1.235   4.226   1.863  0.7779 -1.2338 -0.3370
 1485SOL    HW216089   1.209   4.305   1.977  1.0526  2.9043 -1.7679
 1486SOL     OW16090   1.770   1.970   8.823  0.7789  0.7172  0.2620
 1486SOL    HW116091   1.746   1.895   8.876 -0.4027  0.8222 -0.1306
 1486SOL    HW216092   1.687   2.017   8.822 -1.4356 -3.2649 -0.3264
 1487SOL     OW16093   1.083   1.481   0.822 -0.4182 -0.0897  0.0334
 1487SOL    HW116094   1.068   1.516   0.910  2.3151  1.1986 -0.0079
 1487SOL    HW216095   1.003   1.430   0.805  0.9377 -1.7671 -1.2543
 1488SOL     OW16096   2.439   2.692   6.293 -1.1789  0.5474  0.2635
 1488SOL    HW116097   2.481   2.686   6.207  1.1040 -0.1837  1.4069
 1488SOL    HW216098   2.513   2.722   6.347 -2.3578  1.0171  1.6093
 1489SOL     OW16099   3.075   4.262   4.768  0.4894 -0.3312  0.6550
 1489SOL    HW116100   3.121   4.292   4.690  2.9469 -2.7210  1.2047
 1489SOL    HW216101   2.989   4.304   4.758  0.9686  0.4267 -0.2397
 1490SOL     OW16102   2.511   2.592  11.551  0.2150  0.3187  0.7616
 1490SOL    HW116103   2.589   2.541  11.532  0.3022  0.9586 -0.5371
 1490SOL    HW216104   2.517   2.654  11.479  1.3314  0.4972  1.0005
 1491SOL     OW16105   4.708   1.756   2.490  0.1440  0.5933  0.3475
 1491SOL    HW116106   4.696   1.761   2.585 -0.6201 -2.3102  0.4071
 1491SOL    HW216107   4.664   1.677   2.458  1.5653 -0.1465  0.2391
 1492SOL     OW16108   1.185   1.553   3.011  0.0636  0.7376 -0.0513
 1492SOL    HW116109   1.273   1.524   3.036  0.2151  0.9784 -0.3033
 1492SOL    HW216110   1.172   1.636   3.057  0.1705 -0.1398  1.5724
 1493SOL     OW16111   1.468   1.491   2.536 -0.5245  0.1776  0.2578
 1493SOL    HW116112   1.432   1.403   2.541 -1.6855  0.6412 -0.0828
 1493SOL    HW216113   1.555   1.485   2.497  1.2555  2.3332  3.8708
 1494SOL     OW16114   0.606   3.004   5.005  0.1313  0.5428  0.0129
 1494SOL    HW116115   0.612   3.055   4.925 -1.5726  0.2003 -0.3242
 1494SOL    HW216116   0.654   2.923   4.987  1.2304  1.4403 -1.1073
 1495SOL     OW16117   4.359   1.708   3.415 -0.0705 -0.2950  1.0359
 1495SOL    HW116118   4.298   1.771   3.454  0.5177  0.9339 -0.0142
 1495SOL    HW216119   4.431   1.765   3.388  0.9045 -1.3070  1.4727
 1496SOL     OW16120   0.218   2.013   5.140 -0.6051 -0.3420 -0.2683
 1496SOL    HW116121   0.169   1.935   5.166 -3.7405  1.6406 -0.3206
 1496SOL    HW216122   0.250   1.977   5.057 -1.0676  0.0005 -0.5930
 1497SOL     OW16123   0.929   1.229   1.061 -0.2373  0.5246  0.0648
 1497SOL    HW116124   0.902   1.146   1.100 -1.4868  1.5781  1.4542
 1497SOL    HW216125   1.016   1.204   1.031 -0.4842 -1.7128  1.2623
 1498SOL     OW16126   0.304   1.664  15.998  0.0691  0.3775 -0.2628
 1498SOL    HW116127   0.265   1.648  16.084  0.7233  0.1579 -0.0075
 1498SOL    HW216128   0.306   1.760  15.994 -2.0130  0.4280 -0.1300
 1499SOL     OW16129   1.380   1.952   2.166  0.3722  0.0074  0.1981
 1499SOL    HW116130   1.359   1.997   2.248 -2.1329 -1.5851  0.4369
 1499SOL    HW216131   1.415   1.870   2.203  1.7646  0.8000  0.6558
 1500SOL     OW16132   0.165   3.112  13.021  0.3502 -0.2434  0.0016
 1500SOL    HW116133   0.205   3.161  13.093 -1.4603  0.9131  0.2431
 1500SOL    HW216134   0.087   3.161  12.994  0.9602 -1.0048 -3.1248
 1501SOL     OW16135   4.313   0.219   7.557 -0.3445 -0.7799  0.2444
 1501SOL    HW116136   4.218   0.211   7.545 -0.2529 -1.4637 -0.0364
 1501SOL    HW216137   4.338   0.268   7.479 -1.5375 -0.8828 -0.2012
 1502SOL     OW16138   0.401   1.868   6.051  0.0883 -0.1255 -0.0635
 1502SOL    HW116139   0.359   1.837   6.131 -1.8846  3.1050  0.1285
 1502SOL    HW216140   0.492   1.845   6.070 -0.1150  0.7607  1.9255
 1503SOL     OW16141   4.038   3.467   7.828  0.2367  0.0540 -0.0536
 1503SOL    HW116142   4.093   3.436   7.900 -0.0441  1.1727  0.6532
 1503SOL    HW216143   4.101   3.454   7.758 -1.8978  1.6373 -2.2478
 1504SOL     OW16144   0.967   1.711   7.124 -0.0531 -0.4750  0.3243
 1504SOL    HW116145   1.048   1.759   7.140 -0.6072  0.2255  0.9896
 1504SOL    HW216146   0.940   1.677   7.210 -0.4582 -1.9950 -0.3934
 1505SOL     OW16147   2.363   1.720  17.399  0.0589  0.1599  0.5938
 1505SOL    HW116148   2.313   1.800  17.416  0.0478  0.7545 -2.2756
 1505SOL    HW216149   2.298   1.650  17.390  1.1640 -1.1383  2.5449
 1506SOL     OW16150   1.124   1.638   5.621  0.1379  0.6194  0.6398
 1506SOL    HW116151   1.215   1.651   5.647  0.2709  3.6957 -1.3288
 1506SOL    HW216152   1.122   1.545   5.599  2.3238  0.6016  0.5252
 1507SOL     OW16153   2.892   0.390   2.833 -0.6561 -0.0247  0.5175
 1507SOL    HW116154   2.891   0.334   2.910  5.1203  1.3218  1.5136
 1507SOL    HW216155   2.901   0.330   2.758  0.2126 -1.7613  2.0191
 1508SOL     OW16156   0.013   0.883   9.464  0.2012 -0.5657  0.3669
 1508SOL    HW116157   4.683   0.876   9.527  0.8019 -0.3542  1.0727
 1508SOL    HW216158   0.077   0.835   9.516  2.0655  1.8300  0.2940
 1509SOL     OW16159   4.697   1.492  11.167  0.6547  0.6707 -0.3927
 1509SOL    HW116160   0.002   1.437  11.230  0.1363  2.2613  1.3605
 1509SOL    HW216161   4.712   1.428  11.097  0.4339  1.5548 -1.2553
 1510SOL     OW16162   0.080   2.447  14.328  0.6935 -0.0962  0.3650
 1510SOL    HW116163   0.084   2.352  14.337 -1.3038  0.0164  2.2698
 1510SOL    HW216164   0.072   2.482  14.416  2.5003 -2.0833  1.3158
 1511SOL     OW16165   1.406   2.076  16.778 -0.6428 -0.4177 -0.1707
 1511SOL    HW116166   1.311   2.081  16.778 -0.6527 -0.5911 -0.6310
 1511SOL    HW216167   1.422   2.037  16.692 -0.7364  0.5412 -0.6295
 1512SOL     OW16168   0.673   1.760  15.004  0.3205  0.1001  0.0767
 1512SOL    HW116169   0.627   1.842  14.988 -0.2307 -0.6160 -2.0854
 1512SOL    HW216170   0.624   1.687  14.964 -0.6233  0.4401  0.6195
 1513SOL     OW16171   0.762   2.795  15.847  0.3228 -0.0202  0.6867
 1513SOL    HW116172   0.844   2.842  15.848  1.4446 -2.0203  2.7518
 1513SOL    HW216173   0.712   2.836  15.777  0.4769  0.1359  0.6689
 1514SOL     OW16174   1.053   3.573  10.242 -0.0061  0.2757 -0.2007
 1514SOL    HW116175   0.989   3.619  10.297 -0.7526 -0.6043 -0.3316
 1514SOL    HW216176   1.135   3.617  10.263  0.3847  0.3819 -1.9582
 1515SOL     OW16177   4.269   4.429   9.495  0.1426 -0.0308 -0.4772
 1515SOL    HW116178   4.344   4.414   9.552 -0.0789  2.3492  0.4510
 1515SOL    HW216179   4.223   4.499   9.542  0.1755 -1.4730  1.7323
 1516SOL     OW16180   4.507   1.276   2.405  0.0070 -0.4131 -0.1130
 1516SOL    HW116181   4.554   1.195   2.387  1.0877  0.3706 -0.7993
 1516SOL    HW216182   4.475   1.254   2.493  0.9967 -1.0325  0.0929
 1517SOL     OW16183   4.577   2.118  16.759  0.0656  0.0775  0.1974
 1517SOL    HW116184   4.668   2.148  16.766  1.1443 -3.4195  1.1682
 1517SOL    HW216185   4.592   2.030  16.794 -0.3196 -1.0039 -2.3891
 1518SOL     OW16186   4.102   2.244   7.767  0.1858  0.6056  0.8053
 1518SOL    HW116187   4.038   2.183   7.803 -1.5580  0.9770 -1.6271
 1518SOL    HW216188   4.055   2.327   7.763 -0.3926  0.3288  1.9557
 1519SOL     OW16189   2.558   3.867   1.864 -0.0932  0.0645  0.3191
 1519SOL    HW116190   2.653   3.880   1.871  0.1088 -1.3346  0.1394
 1519SOL    HW216191   2.548   3.789   1.810  0.1750  1.5685 -1.8721
 1520SOL     OW16192   2.840   0.432   4.361 -0.1502  0.0059 -0.9267
 1520SOL    HW116193   2.767   0.489   4.385  0.0623  0.2972 -0.9766
 1520SOL    HW216194   2.781   0.362   4.332  0.6296 -0.7459 -0.7029
 1521SOL     OW16195   1.783   3.706   7.383  0.4508  0.1481 -0.5991
 1521SOL    HW116196   1.825   3.642   7.441 -0.1029  0.4039  0.0893
 1521SOL    HW216197   1.690   3.687   7.368  0.1951  0.5087  0.4806
 1522SOL     OW16198   2.166   4.167  17.667 -0.3647  0.2929 -0.2736
 1522SOL    HW116199   2.137   4.078  17.686  1.2496 -0.5810 -1.9939
 1522SOL    HW216200   2.110   4.184  17.591  0.6554  0.2486 -1.0396
 1523SOL     OW16201   3.395   2.680  14.529 -0.3633 -0.4583  0.4036
 1523SOL    HW116202   3.369   2.588  14.522 -1.0393 -0.1551 -1.0197
 1523SOL    HW216203   3.307   2.715  14.541 -0.3236  0.1477 -1.0359
 1524SOL     OW16204   1.717   4.658   8.617 -0.1687 -0.2037  0.1288
 1524SOL    HW116205   1.802   4.702   8.623 -1.9372  2.9361  1.9646
 1524SOL    HW216206   1.695   4.622   8.703  1.9706  1.0656  1.2007
 1525SOL     OW16207   1.209   0.476   2.470  0.0449 -0.7388  0.0817
 1525SOL    HW116208   1.240   0.417   2.539  2.7239  0.2237 -0.3165
 1525SOL    HW216209   1.122   0.438   2.459  0.7987 -2.9188  1.7016
 1526SOL     OW16210   2.481   0.427   2.741 -0.0087 -0.4189  0.1153
 1526SOL    HW116211   2.443   0.497   2.795  0.6445 -0.7894  1.0371
 1526SOL    HW216212   2.563   0.467   2.712 -0.2338  0.1227  0.2196
 1527SOL     OW16213   2.541   4.431   8.094  0.2893  0.2280 -0.3030
 1527SOL    HW116214   2.546   4.410   8.001 -1.1805  0.5959 -0.4528
 1527SOL    HW216215   2.616   4.383   8.130  1.4746  2.7725  0.5945
 1528SOL     OW16216   2.508   0.962  16.531  0.3578  0.2175  0.3550
 1528SOL    HW116217   2.414   0.978  16.527  0.2364 -0.3711  0.8367
 1528SOL    HW216218   2.536   0.902  16.462 -1.9653  1.2326 -1.4822
 1529SOL     OW16219   1.390   3.563   6.145 -0.0714 -0.2453  0.9801
 1529SOL    HW116220   1.340   3.633   6.186 -0.8175 -0.8999  1.1969
 1529SOL    HW216221   1.376   3.491   6.207  0.6812  0.1285  1.5783
 1530SOL     OW16222   2.656   4.553   4.393 -0.1675  0.2902 -0.2052
 1530SOL    HW116223   2.612   4.618   4.338 -1.0076  0.5044  0.7087
 1530SOL    HW216224   2.614   4.567   4.478  1.2656  0.7304  0.4317
 1531SOL     OW16225   4.718   0.903  15.867 -0.2732  0.2974  0.0147
 1531SOL    HW116226   4.690   0.882  15.956  0.8431  0.0968  0.3150
 1531SOL    HW216227   0.020   0.828  15.826  1.2893  0.6176  1.1178
 1532SOL     OW16228   2.207   1.716   6.421 -0.0720  0.1195  0.1559
 1532SOL    HW116229   2.193   1.715   6.515 -0.7676 -1.0944  0.0356
 1532SOL    HW216230   2.303   1.722   6.413 -0.3278  1.7733 -1.7874
 1533SOL     OW16231   0.934   4.284   3.132 -0.2611  0.0571  0.1044
 1533SOL    HW116232   0.880   4.218   3.176 -0.7366  0.3501 -0.0401
 1533SOL    HW216233   1.021   4.255   3.159 -0.4673 -0.2997  0.3908
 1534SOL     OW16234   4.539   0.269   5.784  0.0121  0.1761 -0.8509
 1534SOL    HW116235   4.573   0.358   5.785 -2.0693  0.9538  0.1276
 1534SOL    HW216236   4.610   0.227   5.736  1.0155 -0.6192  1.3439
 1535SOL     OW16237   3.501   0.287   3.637  0.0122  0.1588  0.2315
 1535SOL    HW116238   3.554   0.304   3.715 -1.0106 -0.5101  1.0809
 1535SOL    HW216239   3.518   0.196   3.611 -0.9813 -0.0777  0.4105
 1536SOL     OW16240   4.219   1.852   3.696  0.3552 -0.4824 -0.1884
 1536SOL    HW116241   4.204   1.919   3.630 -3.5778 -1.8368 -0.6870
 1536SOL    HW216242   4.314   1.842   3.690  0.3589 -2.0818  2.4002
 1537SOL     OW16243   2.785   2.451   4.177  0.3367  0.0013  0.9144
 1537SOL    HW116244   2.872   2.442   4.216  0.0044 -1.9652  1.1938
 1537SOL    HW216245   2.739   2.376   4.214 -0.6380  0.2887  0.2836
 1538SOL     OW16246   2.598   1.372   2.992 -0.1896 -0.1997  0.3245
 1538SOL    HW116247   2.675   1.429   2.994 -0.3326  0.0675 -1.7485
 1538SOL    HW216248   2.636   1.301   3.043  0.5741 -0.8311 -1.1379
 1539SOL     OW16249   0.573   2.619  11.409 -0.9508 -0.2568  0.0817
 1539SOL    HW116250   0.592   2.713  11.406  1.0475 -0.6090  1.7446
 1539SOL    HW216251   0.579   2.600  11.315 -0.2950 -0.2112  0.1167
 1540SOL     OW16252   1.508   3.121   8.974  0.1465  0.7758 -0.2350
 1540SOL    HW116253   1.428   3.117   8.923  0.7980  0.2523 -1.2184
 1540SOL    HW216254   1.504   3.203   9.023  2.7306  0.1090  1.1121
 1541SOL     OW16255   1.265   2.698  17.395  0.5970 -0.1124 -0.2978
 1541SOL    HW116256   1.288   2.634  17.327 -0.8072 -0.7250 -0.2185
 1541SOL    HW216257   1.189   2.741  17.355  0.3286 -0.0568  0.2740
 1542SOL     OW16258   4.703   4.485   4.268  0.2795 -0.2042 -0.5857
 1542SOL    HW116259   0.052   4.498   4.240  0.0927  1.0407 -0.6088
 1542SOL    HW216260   4.661   4.557   4.220 -1.1254 -1.3899 -1.1591
 1543SOL     OW16261   1.166   3.813  17.098 -0.5188 -0.4485 -0.3266
 1543SOL    HW116262   1.081   3.813  17.055 -0.9429 -0.9029  0.5059
 1543SOL    HW216263   1.218   3.769  17.031 -0.3247 -0.5758 -0.0959
 1544SOL     OW16264   1.437   1.958  16.543  0.6935 -0.0076 -0.1069
 1544SOL    HW116265   1.482   1.947  16.460  2.8360  1.9669  0.8145
 1544SOL    HW216266   1.349   1.921  16.527  0.7150  0.8203 -2.1273
 1545SOL     OW16267   0.796   1.069   7.072 -0.1925  0.2694 -0.5792
 1545SOL    HW116268   0.887   1.076   7.042  1.3573 -0.5028  3.9001
 1545SOL    HW216269   0.790   1.160   7.100  1.2537  0.8848 -2.3003
 1546SOL     OW16270   4.172   4.704   5.783 -0.1249  0.1843 -0.2098
 1546SOL    HW116271   4.230   4.690   5.857  0.9393  0.9620 -0.8907
 1546SOL    HW216272   4.230   0.006   5.720  0.9077  0.7127  1.1102
 1547SOL     OW16273   2.975   0.966   6.027  0.2522 -0.5623 -0.3712
 1547SOL    HW116274   3.041   0.906   5.991  0.6156 -1.3404  1.5982
 1547SOL    HW216275   2.929   0.980   5.944  0.5805  0.2642 -0.4074
 1548SOL     OW16276   2.262   2.374   2.564 -0.0542 -0.1847  0.0041
 1548SOL    HW116277   2.275   2.279   2.559 -0.5379 -0.2132 -0.6853
 1548SOL    HW216278   2.181   2.373   2.615  0.0216 -0.7941  0.1160
 1549SOL     OW16279   1.803   2.380  12.943  0.6056 -0.1578  0.4464
 1549SOL    HW116280   1.764   2.364  12.857  2.5607  1.1879 -0.6900
 1549SOL    HW216281   1.835   2.291  12.954  0.7149 -0.1585  0.1169
 1550SOL     OW16282   3.970   4.631   9.095  0.1485 -0.6328  0.2493
 1550SOL    HW116283   3.902   4.642   9.029  1.9316  0.6468 -1.3983
 1550SOL    HW216284   3.969   4.706   9.155  1.7052  0.4620 -1.0904
 1551SOL     OW16285   3.450   1.257   3.797 -0.0093 -0.5457 -0.0641
 1551SOL    HW116286   3.488   1.275   3.883  1.1572  0.9306 -0.8831
 1551SOL    HW216287   3.485   1.327   3.742  2.0172 -0.5136  1.2877
 1552SOL     OW16288   1.915   1.751   3.556 -0.2461  0.0855 -0.1008
 1552SOL    HW116289   1.974   1.748   3.631 -0.2082 -2.8064 -0.2316
 1552SOL    HW216290   1.971   1.804   3.499  1.2322  0.2087  1.4555
 1553SOL     OW16291   3.232   4.147  11.197 -0.4244 -0.1832  0.5487
 1553SOL    HW116292   3.209   4.240  11.195  0.8838  0.1435  0.6172
 1553SOL    HW216293   3.290   4.141  11.273  0.1534 -0.6156  0.0734
 1554SOL     OW16294   4.642   1.750   6.230  0.2896 -0.3202  0.1973
 1554SOL    HW116295   4.612   1.660   6.246  0.9686 -0.9209 -1.8910
 1554SOL    HW216296   4.615   1.760   6.139 -1.6988 -2.8821  0.5040
 1555SOL     OW16297   0.650   2.833   8.871  0.1453  0.0960 -0.3883
 1555SOL    HW116298   0.570   2.820   8.819 -0.9014  1.4733  0.8847
 1555SOL    HW216299   0.605   2.868   8.947  0.2031  1.8509 -1.1565
 1556SOL     OW16300   1.992   1.232   1.997 -0.8027  0.0303 -0.3471
 1556SOL    HW116301   1.908   1.185   1.995  0.7832 -2.8799  0.5717
 1556SOL    HW216302   1.964   1.322   2.009 -1.7549 -0.2322 -0.5976
 1557SOL     OW16303   3.169   1.398   6.327  0.2170  0.7355  0.3021
 1557SOL    HW116304   3.159   1.320   6.272  0.6893  1.7983 -1.3034
 1557SOL    HW216305   3.139   1.471   6.273 -0.1069 -1.1913 -2.1464
 1558SOL     OW16306   3.404   0.981  10.870 -0.0818 -0.1086 -0.4675
 1558SOL    HW116307   3.389   1.054  10.810  3.3284  2.2871  1.5759
 1558SOL    HW216308   3.370   1.018  10.951 -1.3555  2.0297 -1.9869
 1559SOL     OW16309   0.244   3.198   7.040 -0.5782  0.4031  0.2010
 1559SOL    HW116310   0.279   3.178   7.127  0.0461  1.9964  0.3100
 1559SOL    HW216311   0.156   3.162   7.051 -0.1509 -0.3483  1.2166
 1560SOL     OW16312   3.655   4.243  10.895 -0.1128  0.4044 -0.1408
 1560SOL    HW116313   3.597   4.288  10.834 -2.0109 -0.4298  1.0206
 1560SOL    HW216314   3.589   4.191  10.942 -0.5584  2.2977  1.3155
 1561SOL     OW16315   1.565   2.244   8.714 -0.0113  0.0955 -0.0552
 1561SOL    HW116316   1.545   2.181   8.783 -0.8097  0.1350 -0.2460
 1561SOL    HW216317   1.550   2.330   8.754  0.5655  0.1460  0.0487
 1562SOL     OW16318   0.260   2.508   5.711 -0.4864 -0.0201 -0.0455
 1562SOL    HW116319   0.334   2.497   5.770 -0.2361  1.3251 -0.1147
 1562SOL    HW216320   0.255   2.603   5.704 -1.7091 -0.1943 -1.6882
 1563SOL     OW16321   2.569   1.118   7.995 -0.0975  0.3755  0.5421
 1563SOL    HW116322   2.655   1.160   7.989  0.7766 -1.7623 -1.8188
 1563SOL    HW216323   2.610   1.032   8.005 -1.9247 -0.6630 -0.8877
 1564SOL     OW16324   2.325   1.688   4.269  0.3197  0.4386 -0.3787
 1564SOL    HW116325   2.253   1.683   4.332 -0.4817  1.1075 -1.2541
 1564SOL    HW216326   2.287   1.704   4.183 -1.2816  2.4860  0.7198
 1565SOL     OW16327   2.196   3.498   9.043  0.0795  0.2940 -0.5667
 1565SOL    HW116328   2.291   3.503   9.037 -0.1035  2.3307 -1.9195
 1565SOL    HW216329   2.191   3.538   9.130  1.4990 -0.5632 -0.0969
 1566SOL     OW16330   0.275   1.270  15.181  0.2561  0.3198 -0.3142
 1566SOL    HW116331   0.300   1.254  15.090  2.9454 -1.6330  0.7822
 1566SOL    HW216332   0.237   1.357  15.195  0.3107  0.0738  1.3169
 1567SOL     OW16333   1.969   3.121   1.651 -0.5665 -0.5180 -0.1917
 1567SOL    HW116334   2.053   3.153   1.620 -1.7635  2.9084  0.0293
 1567SOL    HW216335   1.932   3.196   1.699  2.4582  1.1267 -0.4584
 1568SOL     OW16336   4.064   2.728   8.341 -0.1234 -0.1644 -0.1047
 1568SOL    HW116337   4.005   2.653   8.333  0.9275 -0.6542 -3.0732
 1568SOL    HW216338   4.055   2.759   8.432 -2.4154  0.7014 -0.6345
 1569SOL     OW16339   0.515   0.544   0.347 -0.2483 -0.1330  0.1732
 1569SOL    HW116340   0.573   0.528   0.422  1.8487  0.7124 -1.2935
 1569SOL    HW216341   0.506   0.640   0.345  2.1400  0.0800  0.2602
 1570SOL     OW16342   1.887   1.563  16.163  0.1611  0.1403 -0.3081
 1570SOL    HW116343   1.970   1.524  16.190 -1.9277 -2.8261  1.7839
 1570SOL    HW216344   1.830   1.492  16.192  1.6136 -0.4237  1.2157
 1571SOL     OW16345   2.941   3.741   8.016 -0.1031 -0.0603 -0.2349
 1571SOL    HW116346   3.002   3.808   8.047 -1.4031  0.3836  1.3725
 1571SOL    HW216347   2.862   3.753   8.068  0.3130  1.1916  0.1020
 1572SOL     OW16348   3.039   1.776   8.424 -0.0519  0.1895  0.2386
 1572SOL    HW116349   3.039   1.782   8.329  0.3466 -0.8460  0.1679
 1572SOL    HW216350   2.952   1.801   8.453 -0.8389 -1.7939 -0.3839
 1573SOL     OW16351   3.245   1.218  17.575 -0.3020 -0.0769 -0.0042
 1573SOL    HW116352   3.314   1.233  17.511  0.1723 -0.0549  0.5086
 1573SOL    HW216353   3.289   1.266  17.646 -0.8161  0.8283 -0.2882
 1574SOL     OW16354   3.781   1.960   3.294  0.1343  0.1845 -0.0712
 1574SOL    HW116355   3.842   1.888   3.276 -1.2525 -0.6538 -1.4450
 1574SOL    HW216356   3.745   1.908   3.367  1.2391 -0.9061 -0.3015
 1575SOL     OW16357   3.451   0.377   5.727 -0.0223  0.1650  0.5905
 1575SOL    HW116358   3.479   0.452   5.781  0.6957  1.7400 -1.9967
 1575SOL    HW216359   3.451   0.303   5.788  1.3813 -1.1704 -1.0372
 1576SOL     OW16360   4.611   4.697   7.291 -0.2506  0.1340  0.4321
 1576SOL    HW116361   4.551   4.714   7.363 -1.0550 -0.4594 -0.1021
 1576SOL    HW216362   4.673   0.028   7.292 -0.8413  0.6237  0.9813
 1577SOL     OW16363   1.962   0.913   7.038 -0.3431 -0.5221 -0.6645
 1577SOL    HW116364   2.039   0.916   6.982 -0.1445  0.6690 -0.3241
 1577SOL    HW216365   1.989   0.864   7.116 -2.8312  0.7118  0.9709
 1578SOL     OW16366   0.409   3.801   2.326  0.2019 -0.1164 -0.2147
 1578SOL    HW116367   0.418   3.739   2.398  0.1382  1.0206  0.7812
 1578SOL    HW216368   0.408   3.737   2.255  1.2927 -0.1811 -0.1823
 1579SOL     OW16369   1.545   3.942   5.911 -0.1565  0.3804  0.0677
 1579SOL    HW116370   1.608   3.920   5.842 -1.1276 -0.7819 -0.4282
 1579SOL    HW216371   1.576   3.878   5.975  1.4325  1.5291  0.4569
 1580SOL     OW16372   2.463   0.009   5.717 -0.4560 -0.2970  0.6225
 1580SOL    HW116373   2.424   0.049   5.639  1.0542  1.9052  1.0166
 1580SOL    HW216374   2.556   0.016   5.698 -0.9903  2.6165 -1.0319
 1581SOL     OW16375   2.386   4.601   6.389 -0.1016  0.2900  0.2181
 1581SOL    HW116376   2.351   4.514   6.372 -0.2878  0.0608  1.8462
 1581SOL    HW216377   2.359   4.612   6.480  0.1592  1.0272  0.2073
 1582SOL     OW16378   1.813   0.498  16.535  0.5109  0.1651  0.6721
 1582SOL    HW116379   1.846   0.539  16.616  0.4282 -0.2216  0.8987
 1582SOL    HW216380   1.744   0.438  16.562  1.4361 -0.5953  1.3375
 1583SOL     OW16381   1.640   0.820   5.898  0.2338  0.2709  0.0952
 1583SOL    HW116382   1.625   0.736   5.941 -0.7321  1.1749  1.5136
 1583SOL    HW216383   1.554   0.860   5.913 -0.5551 -1.1848 -0.5071
 1584SOL     OW16384   4.236   4.701   8.029 -0.0194 -0.4396  0.4671
 1584SOL    HW116385   4.154   4.724   7.985  2.2562  2.2163 -2.3862
 1584SOL    HW216386   4.291   0.029   7.992 -0.1578 -0.1286  0.8476
 1585SOL     OW16387   4.031   3.632   5.490  0.2233 -0.4908  0.2900
 1585SOL    HW116388   4.020   3.541   5.463 -1.5176  0.3763 -1.9291
 1585SOL    HW216389   4.041   3.628   5.585  2.7847 -1.4782 -0.0050
 1586SOL     OW16390   2.853   0.121  13.457  0.1762 -0.3498 -0.1407
 1586SOL    HW116391   2.806   0.115  13.374 -1.0324  0.6992  0.4673
 1586SOL    HW216392   2.884   0.212  13.454 -1.9062  0.4109  1.6646
 1587SOL     OW16393   2.900   1.878  15.779 -0.2727 -0.6095  0.0489
 1587SOL    HW116394   2.926   1.826  15.704  1.5124  0.1681  0.1221
 1587SOL    HW216395   2.983   1.924  15.794 -1.2998  0.3658  2.8118
 1588SOL     OW16396   3.328   2.879   0.127  0.2565  0.1415 -0.2987
 1588SOL    HW116397   3.336   2.846   0.037  0.4801  1.2583 -0.6822
 1588SOL    HW216398   3.292   2.965   0.110  0.5808  0.1465 -0.9666
 1589SOL     OW16399   4.169   3.600   8.104  0.1619  0.1231 -0.0838
 1589SOL    HW116400   4.199   3.652   8.179  1.8274  3.6166 -3.1717
 1589SOL    HW216401   4.075   3.618   8.101  0.2087  0.5453  1.1893
 1590SOL     OW16402   0.507   3.955  13.247 -0.1078 -0.1823 -0.3617
 1590SOL    HW116403   0.568   3.977  13.176  0.9434  0.0442  0.6074
 1590SOL    HW216404   0.573   3.932  13.312  0.5010 -0.9516 -1.2629
 1591SOL     OW16405   1.301   4.511   3.281  0.1524  0.2837  0.1996
 1591SOL    HW116406   1.297   4.502   3.376 -0.4146 -0.8318  0.0710
 1591SOL    HW216407   1.395   4.500   3.266  0.2424  2.6013 -0.9117
 1592SOL     OW16408   0.426   1.265  11.829  0.5039  0.2909 -0.1119
 1592SOL    HW116409   0.373   1.333  11.788 -1.2366 -0.3162  1.1702
 1592SOL    HW216410   0.473   1.234  11.751 -0.6494  1.8266 -1.4205
 1593SOL     OW16411   0.157   0.452   8.681 -0.1747  0.8436  0.1717
 1593SOL    HW116412   0.071   0.412   8.663  0.4942  0.7124 -2.8368
 1593SOL    HW216413   0.175   0.451   8.586 -0.2362 -1.0244  0.1812
 1594SOL     OW16414   3.848   0.935   8.138  0.5721  0.1004 -0.0912
 1594SOL    HW116415   3.905   0.956   8.064 -0.1678  1.2370 -0.3391
 1594SOL    HW216416   3.911   0.896   8.199  0.1237  2.1757  1.6892
 1595SOL     OW16417   1.831   2.342   2.429  0.4944  0.0228  0.3027
 1595SOL    HW116418   1.800   2.432   2.416  0.8282  0.3353  1.6795
 1595SOL    HW216419   1.748   2.295   2.434 -0.2441  1.4611  1.6819
 1596SOL     OW16420   0.454   3.365   9.605  0.2163 -0.1956 -0.3560
 1596SOL    HW116421   0.476   3.339   9.695 -0.9658 -0.6423 -0.1881
 1596SOL    HW216422   0.455   3.277   9.567 -0.9647  0.1250 -1.1162
 1597SOL     OW16423   1.526   4.316   6.548  0.3715  0.3116 -0.2476
 1597SOL    HW116424   1.456   4.357   6.599  0.1277 -1.0177  0.4722
 1597SOL    HW216425   1.488   4.316   6.460  0.3719 -1.3467 -0.2443
 1598SOL     OW16426   3.977   3.574   6.018 -0.0594 -0.2335  0.3183
 1598SOL    HW116427   3.898   3.627   6.021 -1.4822 -2.2789 -0.4396
 1598SOL    HW216428   4.051   3.629   6.044  0.3904 -0.6125 -0.1392
 1599SOL     OW16429   3.922   1.170   8.956 -0.5777 -0.4921 -0.1940
 1599SOL    HW116430   3.927   1.076   8.939 -1.0466 -0.3938 -0.8711
 1599SOL    HW216431   4.009   1.206   8.941 -1.3112 -0.3643 -4.1512
 1600SOL     OW16432   3.176   4.341   9.318 -0.2463  0.2844  0.5025
 1600SOL    HW116433   3.087   4.351   9.283 -0.9384 -3.0354  1.3372
 1600SOL    HW216434   3.222   4.305   9.243  0.5502  0.0662  1.1008
 1601SOL     OW16435   1.205   0.977  15.934  0.5109  0.1120  0.0429
 1601SOL    HW116436   1.141   1.042  15.966  1.3475  1.4141 -0.9379
 1601SOL    HW216437   1.173   0.979  15.844  2.3777 -0.7493 -0.6176
 1602SOL     OW16438   1.858   3.311   8.110 -0.3250  0.2991 -0.4911
 1602SOL    HW116439   1.878   3.401   8.134  0.9671 -0.1035 -0.0588
 1602SOL    HW216440   1.813   3.281   8.190  0.1552 -1.7834 -1.0051
 1603SOL     OW16441   1.546   1.603   8.187  0.3626 -0.6398 -0.2493
 1603SOL    HW116442   1.598   1.530   8.222 -0.9074 -1.4212 -0.0144
 1603SOL    HW216443   1.599   1.681   8.172  0.8162 -1.0219 -0.6878
 1604SOL     OW16444   2.459   0.667   9.317  0.7866  0.0168 -0.0447
 1604SOL    HW116445   2.486   0.696   9.230  1.1923  2.8414  1.0447
 1604SOL    HW216446   2.367   0.695   9.323  1.0623  0.7881  0.5315
 1605SOL     OW16447   2.034   4.418   2.412  0.2826 -0.3898 -0.8796
 1605SOL    HW116448   2.012   4.426   2.319 -0.6682  2.5418 -0.3975
 1605SOL    HW216449   2.033   4.508   2.446 -1.5026 -0.9034  0.4474
 1606SOL     OW16450   0.973   0.594  13.123  0.2839 -0.1118  0.5051
 1606SOL    HW116451   1.043   0.654  13.146  0.8430  0.6172 -3.1331
 1606SOL    HW216452   1.016   0.522  13.076 -1.9246 -1.0772 -0.0335
 1607SOL     OW16453   3.709   3.166   6.469  0.7670  0.6061  0.7941
 1607SOL    HW116454   3.741   3.076   6.468 -0.4857  0.1854 -0.7655
 1607SOL    HW216455   3.694   3.170   6.375  0.8503 -0.2482  0.7445
 1608SOL     OW16456   0.507   0.360   2.996  0.0693 -0.1928  0.2330
 1608SOL    HW116457   0.578   0.374   2.933 -0.5914  3.1502  0.2113
 1608SOL    HW216458   0.486   0.271   2.968 -1.3813  0.9867 -2.3935
 1609SOL     OW16459   0.850   1.400  17.093  0.1767  0.3273 -0.3660
 1609SOL    HW116460   0.902   1.411  17.013  0.2020 -1.0153 -0.5400
 1609SOL    HW216461   0.849   1.304  17.096 -0.8372  0.4351  2.2886
 1610SOL     OW16462   4.079   1.672   6.989  0.3855  0.8230 -0.0474
 1610SOL    HW116463   3.998   1.651   7.036  1.0952  1.6404  1.5610
 1610SOL    HW216464   4.146   1.627   7.041  1.8216  1.0491 -1.7041
 1611SOL     OW16465   2.586   1.147   5.605 -1.0671  0.2875  0.8086
 1611SOL    HW116466   2.491   1.160   5.612 -1.2654 -1.2007  0.8981
 1611SOL    HW216467   2.590   1.061   5.561 -1.1992  0.8674 -0.3347
 1612SOL     OW16468   1.444   4.521   7.707 -0.2640 -0.3872  0.1413
 1612SOL    HW116469   1.398   4.438   7.716  0.4616 -0.5942  1.8561
 1612SOL    HW216470   1.534   4.498   7.729  0.2810  0.7081 -0.8843
 1613SOL     OW16471   4.030   4.578   0.563  0.8254  0.0800  0.2427
 1613SOL    HW116472   4.071   4.640   0.623 -1.3991 -0.9195  2.7670
 1613SOL    HW216473   3.941   4.607   0.580  1.8646  2.9938  0.8432
 1614SOL     OW16474   1.528   0.519   0.578  0.2151  0.0844  0.3606
 1614SOL    HW116475   1.576   0.462   0.519 -2.3483 -2.0051  0.2850
 1614SOL    HW216476   1.503   0.453   0.642 -0.6846  0.3827  0.3259
 1615SOL     OW16477   1.572   4.649   3.480 -0.1798 -0.0038  0.2062
 1615SOL    HW116478   1.549   4.625   3.390  0.7300 -2.4779  0.6404
 1615SOL    HW216479   1.652   4.598   3.491  1.2501  2.2992  0.6610
 1616SOL     OW16480   3.049   0.124  14.366  0.4337  0.0060 -0.0615
 1616SOL    HW116481   3.024   0.055  14.305 -3.1388 -2.2357  3.9430
 1616SOL    HW216482   3.095   0.190  14.312 -1.1809  0.2938 -1.0782
 1617SOL     OW16483   0.314   0.921  13.749  0.8382  0.2418  0.1382
 1617SOL    HW116484   0.237   0.882  13.708  0.0820  1.8446  0.0138
 1617SOL    HW216485   0.363   0.934  13.668  3.4758 -0.1632  1.6624
 1618SOL     OW16486   4.343   2.271   5.845  0.2391  0.6525 -0.0383
 1618SOL    HW116487   4.426   2.312   5.870 -0.5009  1.9297  0.3082
 1618SOL    HW216488   4.314   2.213   5.915  0.8593  0.3098 -0.0649
 1619SOL     OW16489   1.296   0.893   5.182  0.0429 -0.5583 -0.1187
 1619SOL    HW116490   1.364   0.959   5.170  0.7702 -0.8501  2.2610
 1619SOL    HW216491   1.348   0.813   5.172 -0.2751 -0.9702  1.4151
 1620SOL     OW16492   2.042   1.129   4.863 -0.4116  0.3519  0.2088
 1620SOL    HW116493   1.991   1.104   4.786  0.7312 -1.1601 -0.0720
 1620SOL    HW216494   2.011   1.061   4.923  1.1977 -1.5144 -1.0657
 1621SOL     OW16495   3.871   4.039   5.481 -0.2566  0.1739 -0.1233
 1621SOL    HW116496   3.879   3.995   5.566 -0.7864 -0.3977 -0.3738
 1621SOL    HW216497   3.954   4.018   5.438 -0.8323 -0.7322 -0.8013
 1622SOL     OW16498   0.349   1.223   0.463  0.8552 -0.0479  0.1174
 1622SOL    HW116499   0.351   1.128   0.456 -2.5601 -0.0676 -0.6201
 1622SOL    HW216500   0.264   1.238   0.422  0.3328 -1.9070  0.5420
 1623SOL     OW16501   0.902   1.653   2.613 -0.5617 -0.2084  0.5071
 1623SOL    HW116502   0.857   1.575   2.580  0.7029 -0.7005 -0.0924
 1623SOL    HW216503   0.872   1.651   2.703 -1.9294  2.6579  0.1109
 1624SOL     OW16504   4.640   1.213   9.515 -0.2084  0.0925 -0.1663
 1624SOL    HW116505   4.691   1.290   9.487 -0.1402 -0.2873 -1.0755
 1624SOL    HW216506   4.702   1.167   9.572  0.9499  0.8133 -0.8467
 1625SOL     OW16507   2.072   1.199   6.470 -0.2774  0.1448  0.1896
 1625SOL    HW116508   2.030   1.281   6.442  0.9176  1.2995  1.7963
 1625SOL    HW216509   2.149   1.187   6.414  0.3825 -1.2768  1.4095
 1626SOL     OW16510   2.532   1.490   5.064 -0.2529  0.2447  0.3969
 1626SOL    HW116511   2.523   1.446   4.980  0.3963  0.7997  0.0403
 1626SOL    HW216512   2.540   1.578   5.028 -0.7709 -0.3033 -1.0663
 1627SOL     OW16513   3.063   3.458  14.822 -0.3055  0.7630  0.5011
 1627SOL    HW116514   3.054   3.513  14.745  2.0501  1.2739  0.5868
 1627SOL    HW216515   3.143   3.412  14.795 -0.9139  0.8779 -1.4615
 1628SOL     OW16516   2.362   3.570   4.991 -0.2896 -0.5779 -0.2700
 1628SOL    HW116517   2.309   3.613   5.059 -0.2094  0.3172 -0.7690
 1628SOL    HW216518   2.391   3.502   5.051 -0.3630  1.0524  1.6334
 1629SOL     OW16519   1.894   1.842   3.849 -0.1820  0.4461  0.2014
 1629SOL    HW116520   1.925   1.763   3.892  0.6608 -0.6109 -2.3301
 1629SOL    HW216521   1.967   1.904   3.843  0.9548 -0.9683 -0.6020
 1630SOL     OW16522   4.443   4.276  17.488  0.0264 -0.0753  0.1819
 1630SOL    HW116523   4.419   4.313  17.403 -0.1972 -1.1009 -0.1953
 1630SOL    HW216524   4.518   4.217  17.477 -0.8098 -0.8092 -1.5559
 1631SOL     OW16525   0.089   3.759   3.838  0.8509  0.3847  0.4053
 1631SOL    HW116526   0.061   3.848   3.816 -2.0562 -0.9300 -1.2220
 1631SOL    HW216527   0.158   3.754   3.773 -1.2487  0.6703 -1.8523
 1632SOL     OW16528   3.002   2.212  13.201  0.1709  0.9141  0.2698
 1632SOL    HW116529   2.934   2.164  13.248 -1.0232 -1.1877 -3.6493
 1632SOL    HW216530   2.966   2.300  13.213 -2.1756 -0.3023  2.0043
 1633SOL     OW16531   2.235   3.552   5.445 -0.0874  0.1469  0.1628
 1633SOL    HW116532   2.189   3.482   5.492 -1.6322  2.2604  1.8180
 1633SOL    HW216533   2.213   3.626   5.503  0.5006 -0.2318  0.8717
 1634SOL     OW16534   3.813   4.347   0.284  0.2455  0.4852  0.3143
 1634SOL    HW116535   3.778   4.299   0.359  0.5632  0.1419  0.2471
 1634SOL    HW216536   3.896   4.380   0.319 -1.1416  1.8339  2.2995
 1635SOL     OW16537   1.270   1.536   6.421 -0.2108  0.1247 -0.1071
 1635SOL    HW116538   1.250   1.621   6.460 -0.3537 -0.8170  1.8661
 1635SOL    HW216539   1.233   1.543   6.333 -1.7926  1.5795  0.6633
 1636SOL     OW16540   3.394   4.484  13.725 -0.7222  0.0935  0.2084
 1636SOL    HW116541   3.366   4.404  13.681 -0.8103  0.9046 -1.1860
 1636SOL    HW216542   3.342   4.550  13.680 -1.1261 -0.2981  0.1017
 1637SOL     OW16543   2.744   2.277   7.532  0.0323  0.2004  0.0069
 1637SOL    HW116544   2.739   2.325   7.615 -2.3752 -0.9795  0.5615
 1637SOL    HW216545   2.752   2.185   7.557  0.8174  0.1967 -0.2652
 1638SOL     OW16546   3.392   3.918   2.943  0.1424  0.1893 -0.0839
 1638SOL    HW116547   3.352   3.938   2.859 -1.3250 -1.9368  0.1170
 1638SOL    HW216548   3.431   3.832   2.928 -0.7994 -0.3757  0.6601
 1639SOL     OW16549   2.974   0.994  12.369 -0.0078 -0.0289 -0.1899
 1639SOL    HW116550   2.905   1.025  12.427 -3.4794 -1.5349 -3.5226
 1639SOL    HW216551   2.925   0.940  12.307  0.3799 -1.5095  0.7740
 1640SOL     OW16552   2.675   0.810  17.135  0.4149  0.7296  0.2771
 1640SOL    HW116553   2.767   0.819  17.162  0.5849  1.8525 -0.6757
 1640SOL    HW216554   2.680   0.890  17.083 -2.8571  1.8935  1.7774
 1641SOL     OW16555   1.728   2.788  10.154 -0.0527 -0.2132 -0.6754
 1641SOL    HW116556   1.724   2.701  10.194 -0.7948  0.3102  0.4115
 1641SOL    HW216557   1.800   2.765  10.095 -0.8568 -0.3140 -1.6010
 1642SOL     OW16558   1.589   1.633   1.679 -0.0275  0.3832  0.3246
 1642SOL    HW116559   1.600   1.580   1.600  1.3434  0.4843  0.4607
 1642SOL    HW216560   1.497   1.660   1.670  0.2759  2.0791  2.2463
 1643SOL     OW16561   3.515   0.724   9.215  0.6386 -0.6238 -0.5873
 1643SOL    HW116562   3.511   0.813   9.249  0.2938 -0.9682  0.2916
 1643SOL    HW216563   3.420   0.708   9.214  0.8634 -1.9614 -1.1318
 1644SOL     OW16564   1.228   4.671   0.583  0.4745 -0.3971  0.6956
 1644SOL    HW116565   1.256   4.631   0.500  1.9687 -0.3161  1.1687
 1644SOL    HW216566   1.289   0.003   0.585  0.5152 -0.4352  0.8513
 1645SOL     OW16567   4.006   1.378   6.939 -0.4209 -0.2825 -0.0730
 1645SOL    HW116568   4.041   1.360   6.852 -0.7751  2.1137 -0.7120
 1645SOL    HW216569   3.953   1.454   6.914 -2.5924 -1.5482  0.6777
 1646SOL     OW16570   0.445   2.569  15.885  0.0532  0.0054  0.3786
 1646SOL    HW116571   0.430   2.664  15.885 -1.3692 -0.2004 -2.8920
 1646SOL    HW216572   0.389   2.542  15.811 -0.9126 -0.8940  1.4445
 1647SOL     OW16573   2.302   2.399   6.254  0.0119  0.2887 -0.3019
 1647SOL    HW116574   2.299   2.409   6.159  0.0590  1.1831 -0.2122
 1647SOL    HW216575   2.277   2.307   6.255 -2.0068  0.8327 -1.0649
 1648SOL     OW16576   2.629   2.815  13.282 -0.2378 -0.1033  0.0276
 1648SOL    HW116577   2.544   2.815  13.326 -0.8923  5.2951 -1.2446
 1648SOL    HW216578   2.606   2.846  13.195  0.4003  2.9181  0.9479
 1649SOL     OW16579   0.998   1.459   2.288 -0.6653  0.3758  0.1735
 1649SOL    HW116580   0.932   1.396   2.258 -0.1948  0.7031 -1.5423
 1649SOL    HW216581   1.035   1.419   2.367 -1.1902 -1.9625 -0.7779
 1650SOL     OW16582   4.160   1.590   5.291 -0.1161 -0.0579  0.2496
 1650SOL    HW116583   4.106   1.660   5.327  0.9642  0.8391  0.1082
 1650SOL    HW216584   4.170   1.540   5.372 -1.2626 -2.0056 -0.8122
 1651SOL     OW16585   3.286   3.668   6.054 -0.4702 -0.5667  0.4524
 1651SOL    HW116586   3.350   3.714   6.108 -2.0180 -1.2779  2.8867
 1651SOL    HW216587   3.241   3.733   6.000  1.0934  0.6412  0.5671
 1652SOL     OW16588   3.059   1.469   6.561 -0.2200  0.1437 -0.4868
 1652SOL    HW116589   3.122   1.532   6.596 -1.6002  1.1471  0.1869
 1652SOL    HW216590   3.112   1.424   6.495 -0.8035 -0.1932 -0.7181
 1653SOL     OW16591   1.304   2.180   4.890 -0.2695 -0.1126 -0.2718
 1653SOL    HW116592   1.358   2.100   4.890  1.3769  0.9997 -2.0421
 1653SOL    HW216593   1.234   2.142   4.943 -0.0499 -1.8850 -1.2342
 1654SOL     OW16594   3.222   0.149   7.074 -0.0499 -0.5539  0.1640
 1654SOL    HW116595   3.232   0.193   7.158 -0.5175  2.9018 -1.5640
 1654SOL    HW216596   3.311   0.170   7.043  0.6788 -1.5788  1.6012
 1655SOL     OW16597   1.848   1.640   0.457  0.4476  0.5568 -0.1624
 1655SOL    HW116598   1.939   1.665   0.442  1.3178 -2.6931 -0.3547
 1655SOL    HW216599   1.838   1.591   0.539  1.6305  0.7043  0.0649
 1656SOL     OW16600   4.068   4.307  13.558  0.1202  0.3302  0.2785
 1656SOL    HW116601   4.112   4.291  13.641  1.0134 -2.1879 -0.6528
 1656SOL    HW216602   3.990   4.256  13.579 -0.8041  1.7676  0.3585
 1657SOL     OW16603   3.621   0.876  15.691 -0.1078  0.1700  0.0087
 1657SOL    HW116604   3.703   0.925  15.695  0.0256  0.0505 -1.4284
 1657SOL    HW216605   3.646   0.792  15.730  1.5633 -0.4531 -2.3983
 1658SOL     OW16606   1.162   3.178   5.689 -0.4142 -0.1142 -0.6718
 1658SOL    HW116607   1.184   3.213   5.775 -2.0928  1.6168 -0.9519
 1658SOL    HW216608   1.071   3.201   5.668  0.1300  1.1475 -1.6128
 1659SOL     OW16609   1.767   0.200   3.986 -0.3062  0.0792  0.0185
 1659SOL    HW116610   1.851   0.242   4.005  0.4137 -1.0859 -0.5869
 1659SOL    HW216611   1.782   0.146   3.909 -1.4731 -0.9766  0.5310
 1660SOL     OW16612   2.146   0.688   2.557 -0.0661  0.2054 -0.3664
 1660SOL    HW116613   2.095   0.607   2.562 -0.6176  0.4875 -1.5539
 1660SOL    HW216614   2.085   0.755   2.586 -0.1494 -0.4401  0.9760
 1661SOL     OW16615   0.058   0.636   7.101  0.7054 -0.3243  0.2535
 1661SOL    HW116616   0.126   0.587   7.055  1.0318  1.6402 -1.3863
 1661SOL    HW216617   4.719   0.588   7.079  0.7973 -0.9489  1.2818
 1662SOL     OW16618   2.885   2.464   6.397  0.3309  0.0930 -0.2620
 1662SOL    HW116619   2.890   2.482   6.491 -2.1857 -1.1920  0.1271
 1662SOL    HW216620   2.825   2.532   6.366 -0.7199  0.3904  2.4691
 1663SOL     OW16621   4.354   2.753   2.218  0.4726 -0.3833 -0.5901
 1663SOL    HW116622   4.327   2.830   2.168 -1.0816  0.0966  0.9918
 1663SOL    HW216623   4.447   2.769   2.233  0.8968 -1.4680 -2.0662
 1664SOL     OW16624   3.498   0.297   7.573 -0.6767  0.0169  0.1739
 1664SOL    HW116625   3.588   0.286   7.603 -0.6319 -1.7444 -0.6154
 1664SOL    HW216626   3.455   0.240   7.637 -0.0076  0.3401  0.8998
 1665SOL     OW16627   0.962   2.670   4.513  0.3485  0.2857  0.2085
 1665SOL    HW116628   1.037   2.661   4.454  0.6222 -1.3138  0.7974
 1665SOL    HW216629   0.990   2.613   4.584  1.4973  2.7066  1.7010
 1666SOL     OW16630   0.416   4.599   4.078  0.4372  0.3626  0.0618
 1666SOL    HW116631   0.468   4.617   4.156  1.2795 -1.2632 -0.1109
 1666SOL    HW216632   0.451   4.668   4.021  2.6963 -0.5848  0.2774
 1667SOL     OW16633   4.336   2.438   3.854 -0.2135 -0.0520 -0.1018
 1667SOL    HW116634   4.348   2.528   3.882  0.0247 -0.6317  1.6854
 1667SOL    HW216635   4.429   2.417   3.861 -0.4286 -0.7205  0.7743
 1668SOL     OW16636   0.332   2.553   6.130  0.2630 -0.1724  0.2202
 1668SOL    HW116637   0.239   2.538   6.116 -0.1330  2.1534  0.3222
 1668SOL    HW216638   0.362   2.492   6.063  0.6400 -0.8835  1.0316
 1669SOL     OW16639   0.389   0.237   6.799  0.2081 -0.5395  0.0981
 1669SOL    HW116640   0.421   0.153   6.769 -0.9720 -0.2873 -1.8989
 1669SOL    HW216641   0.295   0.230   6.783  0.0337  1.8735 -0.0561
 1670SOL     OW16642   3.100   3.189   5.016  0.2907 -0.3233 -0.0320
 1670SOL    HW116643   3.100   3.226   4.928 -1.2277 -0.5735 -0.1474
 1670SOL    HW216644   3.110   3.268   5.068  2.0979  0.2609 -1.2779
 1671SOL     OW16645   0.154   0.355   3.652  0.0699  0.1561  0.6775
 1671SOL    HW116646   0.173   0.325   3.563  1.5738 -0.9659  1.3775
 1671SOL    HW216647   0.108   0.438   3.638 -0.2818  0.0615  1.2814
 1672SOL     OW16648   1.652   1.070  12.819 -1.2042  0.6110  0.1082
 1672SOL    HW116649   1.643   1.062  12.724  0.3575  1.4175 -0.0996
 1672SOL    HW216650   1.746   1.078  12.834 -0.7604 -0.6609 -1.9633
 1673SOL     OW16651   2.721   3.297   8.631  0.3503  0.6428  0.6167
 1673SOL    HW116652   2.692   3.368   8.688  1.9917  0.7500  1.3228
 1673SOL    HW216653   2.656   3.300   8.561  0.8084  0.7304  0.1993
 1674SOL     OW16654   4.175   3.308   8.702  0.6242 -0.9488 -0.3047
 1674SOL    HW116655   4.246   3.372   8.711  0.5599 -0.7968 -0.8725
 1674SOL    HW216656   4.210   3.238   8.756 -0.5265 -1.4809 -0.2491
 1675SOL     OW16657   0.111   2.165  16.783 -0.4767  0.0502 -0.1322
 1675SOL    HW116658   0.126   2.218  16.862  1.7105 -2.4933  1.1738
 1675SOL    HW216659   0.179   2.098  16.793  0.4522  0.7882 -1.6371
 1676SOL     OW16660   1.601   1.398   3.294 -0.1079  0.1930  0.2039
 1676SOL    HW116661   1.672   1.448   3.332  0.3394  2.5950 -3.8070
 1676SOL    HW216662   1.528   1.460   3.283 -1.0318 -0.8415  0.4424
 1677SOL     OW16663   3.959   1.744  14.353  0.4124 -0.0228 -0.4012
 1677SOL    HW116664   3.989   1.700  14.274  0.6358  1.9040 -1.4030
 1677SOL    HW216665   4.005   1.825  14.330 -0.6991  1.0478  1.1249
 1678SOL     OW16666   4.038   3.547   0.438 -0.0116  0.4074 -0.4669
 1678SOL    HW116667   4.009   3.547   0.529 -0.0788  0.9628 -0.4871
 1678SOL    HW216668   4.003   3.632   0.410 -0.3590  0.3482 -0.2124
 1679SOL     OW16669   1.827   2.122  15.953 -0.0772  0.0615 -0.7218
 1679SOL    HW116670   1.873   2.048  15.914  3.6252  1.9386  0.1632
 1679SOL    HW216671   1.831   2.118  16.048  2.0501 -1.4158 -0.8865
 1680SOL     OW16672   3.667   4.304   6.017 -0.1344 -0.1172 -0.2854
 1680SOL    HW116673   3.624   4.388   5.999  0.0846  0.1697  0.5316
 1680SOL    HW216674   3.661   4.298   6.113 -0.0909  0.1548 -0.2655
 1681SOL     OW16675   0.470   0.591   4.589 -0.1039 -0.0830 -0.0153
 1681SOL    HW116676   0.419   0.572   4.510 -0.7706 -1.1259  0.6740
 1681SOL    HW216677   0.419   0.553   4.661  0.2729 -2.7005 -1.1367
 1682SOL     OW16678   1.442   1.533  12.116  0.3415  0.3378  0.1725
 1682SOL    HW116679   1.365   1.498  12.160  0.0021 -0.8526 -1.3741
 1682SOL    HW216680   1.411   1.530  12.026 -1.7906  1.0194  0.8834
 1683SOL     OW16681   1.453   3.272  17.694 -0.1671 -0.5489  0.6454
 1683SOL    HW116682   1.447   3.224   0.013  1.7016 -2.1481 -0.1312
 1683SOL    HW216683   1.513   3.223  17.637 -0.4408 -1.6612  1.3128
 1684SOL     OW16684   1.954   4.484   7.503 -0.4118 -0.0808  0.1161
 1684SOL    HW116685   1.937   4.432   7.581 -0.0118  1.0729  0.9577
 1684SOL    HW216686   2.043   4.459   7.478 -0.1944 -0.0944  0.9098
 1685SOL     OW16687   1.253   4.382   4.660 -0.3366 -0.1892  0.0958
 1685SOL    HW116688   1.169   4.421   4.683 -1.5877 -1.7141 -1.8654
 1685SOL    HW216689   1.282   4.425   4.579 -1.9055  0.6836  0.0131
 1686SOL     OW16690   0.783   1.803  12.840  0.2123 -0.3449  0.7306
 1686SOL    HW116691   0.860   1.785  12.786 -0.5452 -1.1823 -0.0680
 1686SOL    HW216692   0.730   1.723  12.838  1.0117 -0.8703  0.6015
 1687SOL     OW16693   4.174   0.939   2.646 -0.3951 -0.5719 -0.1309
 1687SOL    HW116694   4.263   0.975   2.640  0.1386 -1.8600  0.1973
 1687SOL    HW216695   4.176   0.912   2.738 -1.3335  1.4428  0.4946
 1688SOL     OW16696   1.033   4.540   4.642  0.4576  0.1643  0.4512
 1688SOL    HW116697   0.941   4.569   4.637  0.7050  0.8810  0.0396
 1688SOL    HW216698   1.075   4.567   4.561  1.0349 -1.6103  0.1613
 1689SOL     OW16699   2.853   0.541  13.244 -0.0494 -0.6007  0.1501
 1689SOL    HW116700   2.844   0.634  13.265 -1.6711 -1.1757  1.9812
 1689SOL    HW216701   2.813   0.540  13.158  0.8740  3.2173 -0.3538
 1690SOL     OW16702   0.064   2.398   4.094 -0.0968  0.4984 -0.4471
 1690SOL    HW116703   0.125   2.471   4.078  2.5878 -1.4865  0.7602
 1690SOL    HW216704   4.728   2.449   4.118 -1.5163 -1.8720 -0.0708
 1691SOL     OW16705   1.574   1.560  10.222 -0.0297  0.2667  0.1061
 1691SOL    HW116706   1.551   1.624  10.290 -0.8963 -0.7907  0.8193
 1691SOL    HW216707   1.492   1.511  10.214  0.9245 -1.4340  0.6228
 1692SOL     OW16708   0.404   0.880   1.822  0.2290 -0.2541 -0.0531
 1692SOL    HW116709   0.496   0.859   1.804  0.0455 -0.0029 -1.2994
 1692SOL    HW216710   0.393   0.922   1.736  0.0180  0.6489  0.4136
 1693SOL     OW16711   0.856   2.063  16.892  0.4784  0.0575  0.0840
 1693SOL    HW116712   0.780   2.043  16.838  2.0487  0.7555 -2.4380
 1693SOL    HW216713   0.868   2.153  16.860 -2.6934  1.2590  2.3400
 1694SOL     OW16714   0.483   1.860   5.799  0.0506 -0.0227 -0.0080
 1694SOL    HW116715   0.406   1.880   5.746  0.8425 -1.1533 -1.5975
 1694SOL    HW216716   0.444   1.850   5.886 -1.8004 -0.6699 -0.9218
 1695SOL     OW16717   4.156   0.572   5.614 -0.1855  0.2446  0.2562
 1695SOL    HW116718   4.116   0.569   5.527  0.3108 -1.8893  0.1092
 1695SOL    HW216719   4.214   0.496   5.604 -0.1591  0.1541  1.1260
 1696SOL     OW16720   1.258   0.342   1.491 -0.7840 -0.3449 -0.4956
 1696SOL    HW116721   1.300   0.273   1.440  1.7905 -0.8242  2.3088
 1696SOL    HW216722   1.243   0.414   1.430 -1.0405 -1.4857 -1.7769
 1697SOL     OW16723   1.689   2.610   4.290 -0.1537  0.5755 -0.2995
 1697SOL    HW116724   1.607   2.621   4.339 -0.8150 -0.3017 -1.2147
 1697SOL    HW216725   1.699   2.702   4.265  0.9832  0.9034  1.2934
 1698SOL     OW16726   2.544   3.228  14.080 -0.5539 -0.0950 -0.0725
 1698SOL    HW116727   2.548   3.136  14.053  0.5868 -0.5893  1.7643
 1698SOL    HW216728   2.635   3.256  14.086  0.6075 -3.6619 -1.1938
 1699SOL     OW16729   0.964   2.181  16.574 -0.6304 -0.3233  0.1512
 1699SOL    HW116730   0.961   2.234  16.495 -0.2955  0.0498  0.3871
 1699SOL    HW216731   0.917   2.236  16.637 -0.0337  0.4954 -0.1346
 1700SOL     OW16732   0.065   3.804  11.349  0.4381  0.5617  0.0314
 1700SOL    HW116733   0.016   3.864  11.292 -0.8659 -0.1447  0.4233
 1700SOL    HW216734   0.011   3.799  11.428  1.2299  1.2872  0.6216
 1701SOL     OW16735   1.272   1.899   3.548 -0.1628  0.6540 -0.5447
 1701SOL    HW116736   1.264   1.889   3.642 -0.3174 -0.3100 -0.6640
 1701SOL    HW216737   1.224   1.827   3.507 -1.1664  0.3752  1.1299
 1702SOL     OW16738   2.381   3.035  17.623  0.1281 -0.8698  0.1298
 1702SOL    HW116739   2.462   3.009  17.578  0.8001  1.5288 -0.0439
 1702SOL    HW216740   2.429   3.077  17.694 -0.0466 -2.6361  1.2941
 1703SOL     OW16741   0.009   2.781   4.442 -0.0433 -0.1990 -0.4906
 1703SOL    HW116742   0.022   2.875   4.457  0.7802 -0.2700 -0.7815
 1703SOL    HW216743   4.661   2.778   4.409 -0.1042 -2.5077 -0.0935
 1704SOL     OW16744   4.422   2.251   2.235  0.4202 -0.4860 -0.0702
 1704SOL    HW116745   4.457   2.170   2.197  0.3969 -0.0505 -1.0374
 1704SOL    HW216746   4.328   2.237   2.235  0.5166 -1.0947  1.4712
 1705SOL     OW16747   0.513   3.686   6.824 -0.4990  0.0486  0.6516
 1705SOL    HW116748   0.524   3.763   6.879  1.9136  1.5689 -1.9548
 1705SOL    HW216749   0.477   3.621   6.884  1.2490 -0.1064  1.5332
 1706SOL     OW16750   1.438   1.457  16.020 -0.4357  0.3283 -0.3290
 1706SOL    HW116751   1.465   1.473  16.110  0.6268 -2.8727 -0.0938
 1706SOL    HW216752   1.402   1.541  15.992  0.4049  1.3446  1.6950
 1707SOL     OW16753   3.135   1.276   2.905  0.2088  0.3114 -0.2937
 1707SOL    HW116754   3.202   1.209   2.918  0.5704  0.6997 -0.1514
 1707SOL    HW216755   3.053   1.228   2.915 -0.5017  1.8668  1.4348
 1708SOL     OW16756   4.310   3.572   4.501 -0.5296  0.3653  0.1904
 1708SOL    HW116757   4.313   3.525   4.584 -3.3216  0.1543  0.1866
 1708SOL    HW216758   4.263   3.506   4.450 -0.7513  1.0500 -0.4902
 1709SOL     OW16759   1.601   2.074   4.452  0.4416  0.0714  0.2839
 1709SOL    HW116760   1.692   2.077   4.423  0.9837  1.1470  2.0762
 1709SOL    HW216761   1.609   2.007   4.519 -0.5914  0.3163  0.6523
 1710SOL     OW16762   1.448   3.500   4.394 -0.1009 -0.7363  0.3924
 1710SOL    HW116763   1.527   3.475   4.442  0.3226  0.0537  0.1194
 1710SOL    HW216764   1.483   3.557   4.325  0.5066 -0.9120  0.5496
 1711SOL     OW16765   3.378   3.859  13.292  0.7821  0.0217 -0.1591
 1711SOL    HW116766   3.352   3.892  13.206 -0.0691 -3.3566 -1.1928
 1711SOL    HW216767   3.364   3.764  13.285 -0.7600  0.0333  2.7682
 1712SOL     OW16768   1.069   2.409  12.878 -0.7463  0.2338 -0.6408
 1712SOL    HW116769   1.061   2.487  12.823  0.2498 -0.0111 -1.1344
 1712SOL    HW216770   0.979   2.379  12.888  0.3389 -1.7005  3.2223
 1713SOL     OW16771   1.183   3.092   2.488  0.1541  0.2928 -0.3512
 1713SOL    HW116772   1.178   2.998   2.503 -0.1246  0.1525 -1.3389
 1713SOL    HW216773   1.245   3.110   2.416  0.9063  0.1589  0.2608
 1714SOL     OW16774   4.385   4.366  10.566  0.1743 -0.1903  0.1630
 1714SOL    HW116775   4.327   4.294  10.544  0.3825 -0.4069  0.3312
 1714SOL    HW216776   4.358   4.434  10.503 -1.8303 -0.4080  0.7875
 1715SOL     OW16777   1.981   4.742   4.507 -0.0227  0.5081 -0.3729
 1715SOL    HW116778   2.030   4.725   4.427  1.0764  0.4713  0.3171
 1715SOL    HW216779   2.040   0.053   4.560 -1.7655  2.7957 -0.7027
 1716SOL     OW16780   2.616   0.648   4.686 -0.5088  0.2190 -0.1739
 1716SOL    HW116781   2.638   0.605   4.768 -1.9618 -0.2366 -0.0372
 1716SOL    HW216782   2.702   0.669   4.648 -0.2752  0.0320  0.2564
 1717SOL     OW16783   1.912   1.853   5.300  0.3312  0.3147  0.6426
 1717SOL    HW116784   1.994   1.803   5.296  0.9672  1.5701 -2.1427
 1717SOL    HW216785   1.912   1.868   5.395  0.8240  2.9536  0.2398
 1718SOL     OW16786   2.402   0.879   8.841 -0.4786 -0.7561 -0.0891
 1718SOL    HW116787   2.320   0.927   8.828  0.7260  0.9093 -1.5220
 1718SOL    HW216788   2.393   0.815   8.771 -1.0947 -0.3015 -0.4287
 1719SOL     OW16789   1.982   1.788   1.970  0.0829 -0.2888 -0.1972
 1719SOL    HW116790   2.033   1.865   1.996 -0.8834  0.9919 -2.0834
 1719SOL    HW216791   1.898   1.814   2.009  0.2773 -3.1396  2.1107
 1720SOL     OW16792   3.870   2.907  14.636  0.5339 -0.1255 -0.4673
 1720SOL    HW116793   3.785   2.864  14.647  0.2469  0.5054 -0.2122
 1720SOL    HW216794   3.852   2.928  14.544  0.0365 -0.9482 -0.5552
 1721SOL     OW16795   4.081   4.614   1.999 -0.1905 -0.4336 -0.0165
 1721SOL    HW116796   3.996   4.590   1.962 -0.4574 -0.9613  0.9405
 1721SOL    HW216797   4.064   4.636   2.091 -2.0579 -1.8054 -0.0313
 1722SOL     OW16798   3.670   1.101   6.520 -0.7852  0.3078  0.0701
 1722SOL    HW116799   3.690   1.042   6.592  1.6847 -0.4078 -1.1782
 1722SOL    HW216800   3.595   1.063   6.473 -0.4158 -2.4046  1.6834
 1723SOL     OW16801   2.686   0.404  16.518  0.1705  0.7091  0.5855
 1723SOL    HW116802   2.617   0.426  16.456 -0.2945 -1.0554  0.4924
 1723SOL    HW216803   2.638   0.334  16.562 -0.4370  0.4135 -0.5549
 1724SOL     OW16804   2.928   2.066   5.297 -0.2047 -0.1430 -0.2096
 1724SOL    HW116805   2.963   2.097   5.213 -0.5660 -1.5645 -0.8761
 1724SOL    HW216806   2.879   1.991   5.263 -1.1481  1.1085 -1.6115
 1725SOL     OW16807   1.226   1.857   3.821  0.3903 -0.4837  0.2207
 1725SOL    HW116808   1.245   1.780   3.874  1.2390 -0.5321 -0.1549
 1725SOL    HW216809   1.260   1.927   3.876 -1.1151  0.2391  0.2264
 1726SOL     OW16810   1.772   0.489   4.203  0.6150  0.0964 -0.7342
 1726SOL    HW116811   1.822   0.504   4.123 -0.7369  0.1924 -1.5581
 1726SOL    HW216812   1.742   0.574   4.235  0.0271 -0.3957  0.0325
 1727SOL     OW16813   4.716   0.214   5.280  0.2473  0.3506 -0.4916
 1727SOL    HW116814   4.625   0.188   5.271  0.4513 -0.9708  1.2713
 1727SOL    HW216815   4.717   0.293   5.227  1.3650  1.2597  0.8960
 1728SOL     OW16816   3.188   3.716   6.310  0.9085  0.7149 -0.2390
 1728SOL    HW116817   3.228   3.682   6.230 -0.3992 -1.3846 -0.0025
 1728SOL    HW216818   3.199   3.646   6.374  2.1374  1.6493  0.5735
 1729SOL     OW16819   3.908   3.206  16.003  0.1362 -0.0585  0.5928
 1729SOL    HW116820   3.911   3.209  15.907  1.7739 -2.8752  0.5479
 1729SOL    HW216821   3.997   3.224  16.033  0.9739 -0.0475 -1.8748
 1730SOL     OW16822   2.386   1.901   5.774 -0.1363  0.7861 -0.2463
 1730SOL    HW116823   2.475   1.924   5.750 -0.3345  2.7946  0.8688
 1730SOL    HW216824   2.390   1.812   5.808 -1.2030  0.3729 -1.2050
 1731SOL     OW16825   1.615   4.360   0.037 -0.3689  0.1976  0.3559
 1731SOL    HW116826   1.665   4.279   0.023  0.0881  0.9057 -2.0575
 1731SOL    HW216827   1.609   4.393  17.712  3.1466 -1.4889 -0.5121
 1732SOL     OW16828   1.319   3.170  15.537 -0.1565  0.3766  0.0633
 1732SOL    HW116829   1.349   3.128  15.617  1.1295 -1.4519 -1.3925
 1732SOL    HW216830   1.244   3.219  15.573  0.4385  1.6806 -0.4647
 1733SOL     OW16831   1.180   0.074   2.122 -0.3320  0.2991 -0.2802
 1733SOL    HW116832   1.129   0.007   2.076  0.9551 -2.1580  1.9093
 1733SOL    HW216833   1.106   0.133   2.134 -0.4679 -0.3585  2.0801
 1734SOL     OW16834   1.971   4.452  17.101  0.7009 -0.1323  0.3319
 1734SOL    HW116835   1.895   4.416  17.056  0.4026 -0.7256  1.3099
 1734SOL    HW216836   1.919   4.498  17.167  1.3642 -0.5636  1.1626
 1735SOL     OW16837   1.090   2.088  13.279  0.0317 -0.1511 -0.4800
 1735SOL    HW116838   1.115   2.180  13.269 -2.1835  0.1803 -2.9270
 1735SOL    HW216839   1.179   2.060  13.303  0.1388 -0.5319 -1.3164
 1736SOL     OW16840   0.541   1.106   5.651  0.3436 -0.2264 -0.0410
 1736SOL    HW116841   0.548   1.050   5.574 -1.9525 -1.1516  0.4288
 1736SOL    HW216842   0.568   1.190   5.614  3.1830 -0.5905  1.2357
 1737SOL     OW16843   2.676   2.781  10.582  0.0839 -0.4066 -0.4891
 1737SOL    HW116844   2.634   2.720  10.643  2.0897  0.8884  2.1554
 1737SOL    HW216845   2.601   2.840  10.568  0.6880  0.3422 -0.5422
 1738SOL     OW16846   2.032   0.785   7.283  0.2989 -0.4474 -0.4427
 1738SOL    HW116847   2.003   0.717   7.343  1.4070  0.5901  1.2651
 1738SOL    HW216848   2.116   0.750   7.254  0.5061  0.9614 -1.5751
 1739SOL     OW16849   1.728   3.564   5.058  0.1590 -0.0194  0.3353
 1739SOL    HW116850   1.703   3.638   5.113 -2.3170 -1.6268  1.3673
 1739SOL    HW216851   1.760   3.501   5.123 -0.9588  2.1683  3.0003
 1740SOL     OW16852   0.456   2.040  11.866 -0.0088  0.7330  0.0564
 1740SOL    HW116853   0.528   1.997  11.913  1.3040  2.1747 -0.6349
 1740SOL    HW216854   0.507   2.117  11.840  1.7181 -0.2314  0.5961
 1741SOL     OW16855   2.227   1.700   4.811 -0.4064 -0.4126 -0.0888
 1741SOL    HW116856   2.141   1.738   4.828 -0.4626 -0.6715  0.2094
 1741SOL    HW216857   2.228   1.607   4.836  0.3482  0.3111  2.6039
 1742SOL     OW16858   0.879   1.672   8.826 -0.2058  0.7611  0.1404
 1742SOL    HW116859   0.951   1.637   8.877 -1.3615 -0.4495  0.9306
 1742SOL    HW216860   0.815   1.685   8.896  1.4922  0.8922  1.6692
 1743SOL     OW16861   3.675   4.459  11.072  0.2875 -0.6117 -0.1192
 1743SOL    HW116862   3.604   4.514  11.038  0.5276 -0.7223 -0.8047
 1743SOL    HW216863   3.657   4.384  11.015 -3.4799 -1.0903  1.6886
 1744SOL     OW16864   0.969   0.046  14.681  0.4140 -0.4977 -0.1297
 1744SOL    HW116865   1.006   0.034  14.768 -3.5615  0.3904  1.6904
 1744SOL    HW216866   0.882   0.005  14.687  0.6057 -0.2142  4.3922
 1745SOL     OW16867   1.736   1.107   2.015  0.0104 -0.0044  0.1606
 1745SOL    HW116868   1.653   1.145   1.986 -1.0991 -2.7068 -0.1749
 1745SOL    HW216869   1.698   1.042   2.074 -1.3478 -0.8734 -1.6809
 1746SOL     OW16870   2.515   3.075   1.652  0.0110 -0.0682 -0.3311
 1746SOL    HW116871   2.548   3.163   1.667  1.9855 -0.7645 -0.5273
 1746SOL    HW216872   2.471   3.077   1.737 -0.7698 -0.0588 -0.7388
 1747SOL     OW16873   1.463   2.363   8.982  0.1775  0.6573  0.3136
 1747SOL    HW116874   1.379   2.394   8.949 -0.6435 -1.4403  0.4322
 1747SOL    HW216875   1.507   2.441   9.016 -0.7718  1.0364  0.6521
 1748SOL     OW16876   1.209   4.663   6.997 -0.6339  0.0502 -0.1200
 1748SOL    HW116877   1.272   4.688   7.064 -0.7883  1.1634 -0.3917
 1748SOL    HW216878   1.216   4.569   7.012 -1.1150  0.3701  2.0633
 1749SOL     OW16879   2.456   2.561   5.708  0.6776 -0.0146 -0.1267
 1749SOL    HW116880   2.495   2.505   5.640 -1.6733 -0.4405 -1.1172
 1749SOL    HW216881   2.479   2.520   5.791 -0.4650  0.0271  0.2068
 1750SOL     OW16882   4.251   2.985   5.582 -0.6601 -0.1464  0.8595
 1750SOL    HW116883   4.259   2.940   5.665 -1.2528  0.7631  1.4146
 1750SOL    HW216884   4.182   2.933   5.539 -0.7351  0.6368  0.0213
 1751SOL     OW16885   1.613   2.208   2.730 -0.5113 -0.1270  0.2287
 1751SOL    HW116886   1.618   2.174   2.641 -0.4653 -0.8770  0.5206
 1751SOL    HW216887   1.611   2.126   2.779 -1.5161 -0.5095 -0.4745
 1752SOL     OW16888   0.351   4.286  16.294 -0.1210 -0.1387  0.6019
 1752SOL    HW116889   0.441   4.255  16.298  0.5092  1.5420 -0.3272
 1752SOL    HW216890   0.336   4.291  16.389  1.9387 -1.7491  1.0058
 1753SOL     OW16891   2.690   0.711   4.989 -0.3715 -0.1607 -0.0340
 1753SOL    HW116892   2.777   0.709   4.949 -1.5151 -0.8471 -2.4854
 1753SOL    HW216893   2.654   0.785   4.940 -0.2116  0.4934  0.8345
 1754SOL     OW16894   3.382   1.052  14.366 -0.3655 -0.3871  0.5872
 1754SOL    HW116895   3.299   1.070  14.410 -0.8855 -0.4076 -0.4048
 1754SOL    HW216896   3.357   1.050  14.274  2.3373  3.1598 -0.2215
 1755SOL     OW16897   4.412   3.812   7.338 -0.1869  0.0623 -0.3427
 1755SOL    HW116898   4.329   3.831   7.295  0.2170  0.2828 -1.0405
 1755SOL    HW216899   4.464   3.885   7.303  0.7766 -0.3995  0.1118
 1756SOL     OW16900   0.797   1.083   1.980 -0.5167 -0.4582 -0.0911
 1756SOL    HW116901   0.832   1.013   1.923 -2.0042 -1.2585 -0.0089
 1756SOL    HW216902   0.729   1.122   1.925  1.6084  2.0076 -0.9997
 1757SOL     OW16903   0.629   3.654   9.892 -0.0678  0.0901 -0.2221
 1757SOL    HW116904   0.614   3.720   9.960  1.1043 -0.8519  0.9376
 1757SOL    HW216905   0.551   3.602   9.912  0.2206 -0.5703 -0.8018
 1758SOL     OW16906   0.491   4.344   3.961 -0.2756 -0.2241 -0.8639
 1758SOL    HW116907   0.557   4.318   4.025  1.9149  1.0646 -2.5626
 1758SOL    HW216908   0.438   4.394   4.022 -1.4015 -2.8187  0.2874
 1759SOL     OW16909   4.703   3.183   7.035  0.1030  0.8307 -0.4209
 1759SOL    HW116910   4.642   3.151   7.101 -0.5491  2.5708 -0.1590
 1759SOL    HW216911   4.638   3.218   6.974 -0.7010  2.9277  1.6400
 1760SOL     OW16912   1.009   1.692   2.152  0.2890 -0.1189  0.1660
 1760SOL    HW116913   0.975   1.733   2.232  2.7754  0.0008  1.1663
 1760SOL    HW216914   1.021   1.604   2.189  0.1375  0.1881  0.9590
 1761SOL     OW16915   3.990   0.702  13.943  0.8679 -0.1098 -0.4291
 1761SOL    HW116916   4.046   0.776  13.968  0.9848 -0.7803  1.3367
 1761SOL    HW216917   4.061   0.653  13.902  1.2919  0.6832 -0.6546
 1762SOL     OW16918   0.627   0.559   4.001  0.3504 -0.1811 -0.3383
 1762SOL    HW116919   0.589   0.487   4.051  0.4516  0.4372  0.6216
 1762SOL    HW216920   0.613   0.634   4.059  0.5709  1.6442 -2.6342
 1763SOL     OW16921   1.478   3.395   5.063 -0.3227  0.1425 -0.2937
 1763SOL    HW116922   1.569   3.425   5.069 -0.4830  0.7210 -0.7426
 1763SOL    HW216923   1.426   3.437   5.131  1.6202  3.4551 -0.8445
 1764SOL     OW16924   3.901   3.096  16.795  0.5703  0.2372  0.2115
 1764SOL    HW116925   3.897   3.004  16.769  0.0759  0.2427  0.2705
 1764SOL    HW216926   3.958   3.136  16.729  2.3922  0.2364  1.7981
 1765SOL     OW16927   3.620   4.256   3.484 -0.3709  0.0867 -0.6337
 1765SOL    HW116928   3.550   4.217   3.538  0.3072 -1.3119 -0.7559
 1765SOL    HW216929   3.631   4.185   3.420 -0.9924 -2.1714  1.7392
 1766SOL     OW16930   4.061   3.702  13.153  0.4009 -0.0931  0.5545
 1766SOL    HW116931   4.068   3.710  13.248  3.4383 -1.3344  0.4126
 1766SOL    HW216932   4.121   3.628  13.141  3.1807  2.4293 -0.9593
 1767SOL     OW16933   2.038   1.371   2.316  0.1466 -0.5045 -0.1984
 1767SOL    HW116934   1.946   1.352   2.332  0.6405 -2.1934  0.6277
 1767SOL    HW216935   2.080   1.285   2.307 -1.9555 -1.5712  0.0285
 1768SOL     OW16936   4.728   4.115   6.927 -0.3713 -0.0337 -0.0606
 1768SOL    HW116937   0.017   4.198   6.965  0.1835 -0.6743  0.8926
 1768SOL    HW216938   0.031   4.056   6.987 -1.4695  1.7317  2.5123
 1769SOL     OW16939   2.228   2.405   7.411  0.0646 -0.0049 -0.0929
 1769SOL    HW116940   2.177   2.356   7.476  0.5533  0.9122  0.9687
 1769SOL    HW216941   2.175   2.412   7.331  0.3111  0.2135 -0.2346
 1770SOL     OW16942   4.080   0.928  11.097 -0.3444  0.0399  0.0534
 1770SOL    HW116943   4.058   0.893  11.011 -0.3541 -0.9877  0.4755
 1770SOL    HW216944   4.023   1.000  11.126 -0.6880 -1.1612  2.3740
 1771SOL     OW16945   2.782   0.281   8.141 -0.2208 -0.2562 -0.1482
 1771SOL    HW116946   2.759   0.210   8.081 -2.7417  1.1659 -0.8572
 1771SOL    HW216947   2.861   0.240   8.176 -0.1090 -0.6543 -0.8685
 1772SOL     OW16948   2.669   4.687   6.626 -0.3729  0.0697 -0.0863
 1772SOL    HW116949   2.645   0.035   6.650  1.4788  0.9232 -1.3727
 1772SOL    HW216950   2.764   4.687   6.609 -0.4770 -2.9601 -0.6345
 1773SOL     OW16951   3.521   1.561   3.410 -0.0940  0.0162  0.4084
 1773SOL    HW116952   3.505   1.647   3.370  0.9465  0.1843  0.3615
 1773SOL    HW216953   3.576   1.521   3.343  1.1964 -0.0458  1.5023
 1774SOL     OW16954   3.495   2.980   6.792  0.1100  0.4324  0.3726
 1774SOL    HW116955   3.567   2.917   6.794 -0.3121 -0.0595  0.1189
 1774SOL    HW216956   3.528   3.039   6.724 -1.6375  1.3125  0.2788
 1775SOL     OW16957   2.049   0.189  13.717  0.0494 -0.2555 -0.5080
 1775SOL    HW116958   1.977   0.165  13.659 -1.1081 -0.0944  0.8774
 1775SOL    HW216959   2.071   0.099  13.740 -3.2245 -1.5795 -2.6488
 1776SOL     OW16960   1.891   4.178   7.418 -0.6486  0.7243  0.1927
 1776SOL    HW116961   1.868   4.245   7.354 -2.8883  0.8753  1.1895
 1776SOL    HW216962   1.823   4.112   7.401  2.6416 -2.6555 -0.0124
 1777SOL     OW16963   4.548   1.536   7.449  0.5111  0.3678 -0.6189
 1777SOL    HW116964   4.516   1.604   7.391 -0.1071  0.1263 -0.5601
 1777SOL    HW216965   4.643   1.540   7.440  0.5445  0.4146 -0.2741
 1778SOL     OW16966   1.059   4.204   8.932  0.1824  0.1809  0.3303
 1778SOL    HW116967   1.034   4.273   8.870  3.5762  0.9865 -0.1435
 1778SOL    HW216968   1.026   4.241   9.013  1.8168  0.8346  0.6983
 1779SOL     OW16969   1.419   0.297   3.102 -0.0036  0.5368 -0.7278
 1779SOL    HW116970   1.479   0.254   3.041  1.6114  0.4544  0.8833
 1779SOL    HW216971   1.348   0.329   3.047 -1.4608  0.9797  1.4160
 1780SOL     OW16972   0.269   2.742  16.280 -0.0666  0.2898  0.1452
 1780SOL    HW116973   0.225   2.797  16.345  0.2034  0.2649  0.3500
 1780SOL    HW216974   0.357   2.756  16.316  0.4972  0.7148 -1.4271
 1781SOL     OW16975   3.228   4.264   3.168 -0.0229 -0.2240  0.3514
 1781SOL    HW116976   3.224   4.174   3.136 -2.3310  0.8374 -2.4102
 1781SOL    HW216977   3.307   4.258   3.222 -1.1431  0.5945  2.0796
 1782SOL     OW16978   0.597   0.795  13.576 -0.3379  0.7293  1.0350
 1782SOL    HW116979   0.611   0.745  13.495  0.0854 -0.0184  1.5733
 1782SOL    HW216980   0.554   0.873  13.541  0.5959  2.0148  2.7289
 1783SOL     OW16981   4.591   2.692   2.619 -0.4732 -0.3869  0.5335
 1783SOL    HW116982   4.580   2.778   2.661  0.1669 -0.8203  1.5882
 1783SOL    HW216983   4.567   2.709   2.528  1.0336 -0.0376  0.1927
 1784SOL     OW16984   2.922   4.507  10.120 -0.4633  0.5262  0.5239
 1784SOL    HW116985   2.877   4.463  10.192 -1.4666 -0.8393 -0.9385
 1784SOL    HW216986   2.869   4.586  10.107 -1.2227  0.6431  4.3009
 1785SOL     OW16987   1.630   0.484   8.076 -0.1418 -0.0610  0.3069
 1785SOL    HW116988   1.711   0.501   8.123 -0.2895 -0.2803  0.6411
 1785SOL    HW216989   1.643   0.395   8.042 -1.7390 -1.3204  3.0129
 1786SOL     OW16990   4.597   2.000   6.373 -0.2219 -0.1067  0.1798
 1786SOL    HW116991   4.588   2.058   6.449  0.3760 -0.1461  0.2852
 1786SOL    HW216992   4.613   1.920   6.423  2.0176 -0.7715 -1.5751
 1787SOL     OW16993   1.317   2.519  17.163  0.3707 -0.1646  0.2874
 1787SOL    HW116994   1.313   2.431  17.128 -0.6787 -0.5110  1.2869
 1787SOL    HW216995   1.379   2.560  17.102  0.0780 -1.7358 -1.0414
 1788SOL     OW16996   2.934   4.458   6.160  0.6900  0.2153 -0.2084
 1788SOL    HW116997   2.888   4.532   6.121  0.6621  1.4724  2.2290
 1788SOL    HW216998   2.993   4.506   6.218 -1.2300 -0.3590  2.2220
 1789SOL     OW16999   1.149   3.428   7.481 -0.1273 -0.3073 -0.6452
 1789SOL    HW117000   1.060   3.461   7.496  0.6603  1.4086  0.2816
 1789SOL    HW217001   1.186   3.516   7.486  0.6765 -0.6822 -0.0389
 1790SOL     OW17002   0.956   3.997   4.832 -0.0884 -0.0847 -0.0004
 1790SOL    HW117003   0.869   3.958   4.824  1.2480 -3.2382  0.8518
 1790SOL    HW217004   0.930   4.071   4.886 -0.4232 -1.2151  1.3899
 1791SOL     OW17005   1.986   1.136   7.253  0.3281 -0.2081 -0.3822
 1791SOL    HW117006   2.015   1.189   7.180 -2.4171 -0.4403 -1.6541
 1791SOL    HW217007   1.985   1.054   7.203 -1.3949 -0.2651 -0.2554
 1792SOL     OW17008   2.974   2.347  11.123 -0.5533  0.3755 -0.0459
 1792SOL    HW117009   2.943   2.417  11.066 -0.5965 -0.1060 -0.6193
 1792SOL    HW217010   3.010   2.401  11.193 -1.2130  1.6937 -0.7295
 1793SOL     OW17011   2.729   0.351   4.888  0.0488 -0.8465  0.0032
 1793SOL    HW117012   2.816   0.326   4.858  0.2791  0.7986 -0.6802
 1793SOL    HW217013   2.674   0.333   4.811  0.7177 -0.0569 -0.6586
 1794SOL     OW17014   0.203   2.932   0.050  0.0632 -0.2839 -0.0235
 1794SOL    HW117015   0.230   2.854   0.098  1.1927  1.0268  1.4475
 1794SOL    HW217016   0.176   2.974   0.131 -0.3634  0.2113 -0.4169
 1795SOL     OW17017   1.645   1.095   1.559 -0.3112  0.8926  0.2639
 1795SOL    HW117018   1.623   1.164   1.622  0.7241 -1.5403  3.3480
 1795SOL    HW217019   1.740   1.108   1.569 -0.1153 -0.1198 -0.2962
 1796SOL     OW17020   2.254   1.062   6.688  0.2881 -0.8957  0.1832
 1796SOL    HW117021   2.201   1.107   6.622  1.3363 -0.7592 -0.5633
 1796SOL    HW217022   2.342   1.098   6.690 -0.8080  1.9141 -1.4285
 1797SOL     OW17023   0.274   0.257  14.636 -0.3577 -0.1761 -0.6373
 1797SOL    HW117024   0.258   0.351  14.621  0.7951  0.0969 -0.1668
 1797SOL    HW217025   0.269   0.218  14.549  0.6309 -0.7887 -0.4128
 1798SOL     OW17026   3.930   1.427   3.619  0.3988 -0.7350 -0.5354
 1798SOL    HW117027   3.945   1.342   3.660 -1.0499  0.1037  1.7572
 1798SOL    HW217028   4.018   1.455   3.645 -0.0640 -0.3809  0.6401
 1799SOL     OW17029   2.666   2.675   6.477 -0.0801 -0.6282 -0.8512
 1799SOL    HW117030   2.615   2.739   6.527 -0.0787 -0.8127 -0.6149
 1799SOL    HW217031   2.728   2.647   6.544 -0.2865 -0.4783 -0.5974
 1800SOL     OW17032   4.077   2.863   5.970  0.0931 -0.0758 -0.0592
 1800SOL    HW117033   4.076   2.798   6.040 -2.8326  1.2277  1.0846
 1800SOL    HW217034   4.167   2.854   5.937  0.5060 -0.4912  1.1887
 1801SOL     OW17035   2.937   1.549   2.540 -0.8111 -0.3578 -0.0492
 1801SOL    HW117036   3.017   1.562   2.490 -1.1656  1.4659 -0.1559
 1801SOL    HW217037   2.933   1.455   2.555 -1.9781 -0.0748  1.4516
 1802SOL     OW17038   1.847   2.009  11.860 -0.6593 -0.6582  0.8789
 1802SOL    HW117039   1.903   2.047  11.791  0.2699 -0.7617  1.5692
 1802SOL    HW217040   1.759   2.036  11.835  0.1342  0.8695 -0.3196
 1803SOL     OW17041   1.880   3.257  16.807  0.0236 -0.0317 -0.0620
 1803SOL    HW117042   1.831   3.257  16.724  0.8477 -4.7492 -0.5505
 1803SOL    HW217043   1.947   3.321  16.783 -0.6353  0.3719 -0.8491
 1804SOL     OW17044   3.134   0.492   3.693  0.3022 -0.4778  0.3314
 1804SOL    HW117045   3.051   0.537   3.675  0.8043 -0.2639 -1.4421
 1804SOL    HW217046   3.172   0.554   3.756  0.9185 -1.0174  0.4886
 1805SOL     OW17047   0.252   0.655   5.925  0.1875  0.2040 -0.3281
 1805SOL    HW117048   0.232   0.607   5.844  1.2380  0.8375 -0.9794
 1805SOL    HW217049   0.162   0.679   5.946  0.1961 -0.2184  0.1795
 1806SOL     OW17050   0.140   0.859  10.369 -0.7652 -0.7550 -0.2786
 1806SOL    HW117051   0.227   0.897  10.386 -0.0968 -2.2305 -0.3899
 1806SOL    HW217052   0.133   0.863  10.274 -0.2625 -0.1413 -0.2912
 1807SOL     OW17053   2.023   0.942  10.712 -0.1567 -0.2598 -0.7378
 1807SOL    HW117054   1.930   0.917  10.705 -0.0472 -0.7025 -0.6282
 1807SOL    HW217055   2.029   0.892  10.793 -0.5257  0.2184 -0.4117
 1808SOL     OW17056   4.181   4.657   5.198 -0.1102  0.3827 -0.5162
 1808SOL    HW117057   4.162   4.582   5.254 -0.9165  0.2859 -0.9268
 1808SOL    HW217058   4.122   4.644   5.124 -0.2717 -1.7542  0.0079
 1809SOL     OW17059   2.630   2.552   3.109  0.0192  0.2621 -0.5858
 1809SOL    HW117060   2.693   2.617   3.075 -0.7678  0.8862 -0.8500
 1809SOL    HW217061   2.551   2.606   3.100  0.1619  0.6183  0.2888
 1810SOL     OW17062   3.257   0.933  16.212 -0.6450 -0.0341 -0.3203
 1810SOL    HW117063   3.237   0.999  16.146 -2.5957 -0.7108 -0.3931
 1810SOL    HW217064   3.246   0.993  16.286 -2.2532 -2.4596  1.3703
 1811SOL     OW17065   4.045   1.110   3.522  0.5198  0.3196  0.2754
 1811SOL    HW117066   4.094   1.191   3.512  1.7504 -0.7167 -2.1143
 1811SOL    HW217067   4.022   1.112   3.615  0.4960  1.4627  0.2448
 1812SOL     OW17068   3.732   4.027   7.808 -0.0574  0.2824 -0.2557
 1812SOL    HW117069   3.709   3.935   7.805  1.5010 -0.1266  0.2073
 1812SOL    HW217070   3.811   4.034   7.754  0.2648 -1.6008 -0.0102
 1813SOL     OW17071   0.538   0.318   1.895  0.0981  0.0730  0.8590
 1813SOL    HW117072   0.511   0.283   1.810  1.1067 -1.3417  1.1141
 1813SOL    HW217073   0.455   0.349   1.930 -1.2811 -0.9065 -1.5828
 1814SOL     OW17074   2.958   1.774   1.402  0.3623  0.4490 -0.2279
 1814SOL    HW117075   2.943   1.728   1.319 -0.0162 -2.1463  1.2858
 1814SOL    HW217076   3.004   1.707   1.453 -1.4295  0.7570  1.7889
 1815SOL     OW17077   3.836   3.881   4.356  0.4363 -0.3787  0.2375
 1815SOL    HW117078   3.845   3.967   4.316  0.1328 -1.3528 -1.8945
 1815SOL    HW217079   3.808   3.833   4.279 -4.5664  0.2468  1.6525
 1816SOL     OW17080   2.627   4.221  14.215 -0.1418  0.2849  0.1635
 1816SOL    HW117081   2.624   4.125  14.212 -1.7738  0.3559 -0.3776
 1816SOL    HW217082   2.546   4.239  14.262 -0.7310  1.0931 -1.1442
 1817SOL     OW17083   4.467   2.510  14.867 -0.4135  0.1141 -0.2449
 1817SOL    HW117084   4.412   2.556  14.931 -1.0823  1.2174 -1.6072
 1817SOL    HW217085   4.498   2.443  14.928 -0.7866  1.1796  1.1400
 1818SOL     OW17086   4.639   0.821  16.108 -0.0264 -0.6866 -0.6482
 1818SOL    HW117087   4.639   0.882  16.182  0.0978  0.0672 -1.2782
 1818SOL    HW217088   4.596   0.743  16.144 -0.6273 -0.5056 -0.9758
 1819SOL     OW17089   4.428   2.131   7.120  0.1324 -0.2534 -0.0225
 1819SOL    HW117090   4.517   2.141   7.154  0.4295  0.6156 -1.0444
 1819SOL    HW217091   4.392   2.175   7.196  2.3505  0.0708  0.8459
 1820SOL     OW17092   3.665   1.465  15.268 -0.0986 -0.2407 -0.1382
 1820SOL    HW117093   3.690   1.557  15.271 -2.1227  0.2357  2.4262
 1820SOL    HW217094   3.668   1.444  15.361  0.8611 -1.7646 -0.5059
 1821SOL     OW17095   0.321   3.861   5.747 -0.4011 -0.0051  0.3836
 1821SOL    HW117096   0.360   3.936   5.702 -0.1332 -0.5407 -0.2634
 1821SOL    HW217097   0.226   3.874   5.738 -0.1248  2.6064  1.0930
 1822SOL     OW17098   0.585   4.023   2.288  0.3242 -0.0582 -0.3265
 1822SOL    HW117099   0.522   3.951   2.290  0.3076 -0.0607 -1.1344
 1822SOL    HW217100   0.634   4.007   2.208  2.0799  0.0995  0.7191
 1823SOL     OW17101   0.508   2.497   8.642 -0.6952 -0.3603 -0.4147
 1823SOL    HW117102   0.588   2.536   8.678 -0.5457  0.1274 -1.2808
 1823SOL    HW217103   0.532   2.404   8.640 -2.0264 -0.7097  0.7701
 1824SOL     OW17104   0.629   3.146   4.782  0.1200 -0.3037  0.1865
 1824SOL    HW117105   0.586   3.229   4.760  3.0699  1.6601  1.8320
 1824SOL    HW217106   0.719   3.165   4.757  0.5913 -0.7915  1.5348
 1825SOL     OW17107   3.055   4.128  12.827  0.0579  0.2039 -0.0707
 1825SOL    HW117108   3.044   4.061  12.895  2.2720  0.6846  0.7550
 1825SOL    HW217109   3.016   4.203  12.873 -0.9897  0.6298 -1.6529
 1826SOL     OW17110   0.659   2.678   6.300 -0.2919  0.3918  0.0557
 1826SOL    HW117111   0.631   2.590   6.275  3.3231 -0.5217 -0.8066
 1826SOL    HW217112   0.631   2.727   6.223 -0.3207  0.4933  0.1306
 1827SOL     OW17113   2.508   4.378   1.282  0.0741 -0.0782  0.1714
 1827SOL    HW117114   2.431   4.358   1.335 -0.4714 -0.5217 -0.8014
 1827SOL    HW217115   2.550   4.293   1.275  2.1804  0.9792 -0.1194
 1828SOL     OW17116   4.513   0.973   1.753  0.0493  0.2611  0.3090
 1828SOL    HW117117   4.447   0.934   1.696  0.2650  0.7307 -0.2637
 1828SOL    HW217118   4.558   0.900   1.795 -0.6367 -0.9626 -1.0707
 1829SOL     OW17119   1.097   0.668   5.983  0.5170  0.3209 -0.5840
 1829SOL    HW117120   1.105   0.735   6.052  0.6179 -0.2921 -0.0001
 1829SOL    HW217121   1.185   0.631   5.985  0.4255  0.0918 -1.0110
 1830SOL     OW17122   0.529   3.836   4.101  0.1903 -0.3034 -0.0359
 1830SOL    HW117123   0.623   3.851   4.113  0.0293  2.1342 -1.7525
 1830SOL    HW217124   0.522   3.850   4.006 -0.6767 -0.1499  0.0506
 1831SOL     OW17125   1.474   0.367   3.743  0.0445 -0.7474  0.3302
 1831SOL    HW117126   1.470   0.274   3.766 -1.9520 -0.6420  0.3943
 1831SOL    HW217127   1.557   0.376   3.696 -0.0076  2.0144  0.7402
 1832SOL     OW17128   4.310   0.135   0.832 -0.3623 -0.0164 -0.8781
 1832SOL    HW117129   4.308   0.058   0.890 -2.4382  1.0257  0.4473
 1832SOL    HW217130   4.270   0.201   0.889 -1.9680 -1.3513 -0.4409
 1833SOL     OW17131   2.610   4.590  11.331 -0.6850  0.0618 -0.1474
 1833SOL    HW117132   2.702   4.598  11.306  0.0342  1.9768  3.1454
 1833SOL    HW217133   2.586   4.521  11.269  0.3577 -0.4533  0.0152
 1834SOL     OW17134   0.210   0.809   3.639 -0.1838 -0.4223  0.3028
 1834SOL    HW117135   0.139   0.770   3.587 -2.5020  0.4011  2.8411
 1834SOL    HW217136   0.230   0.888   3.589  4.0959 -0.8606  1.3817
 1835SOL     OW17137   0.242   2.701   8.536  0.5998  0.1735 -0.1942
 1835SOL    HW117138   0.146   2.702   8.539  0.5531  1.3665 -1.8723
 1835SOL    HW217139   0.244   2.611   8.569  0.4862  0.0553 -0.5107
 1836SOL     OW17140   1.178   4.535   8.005  0.1722 -0.7862  0.7413
 1836SOL    HW117141   1.126   4.462   8.038 -1.0474 -1.0702 -1.8529
 1836SOL    HW217142   1.257   4.489   7.976 -0.9493 -2.7643  0.8483
 1837SOL     OW17143   0.032   2.510   7.540 -0.5668  0.1557 -0.3446
 1837SOL    HW117144   0.026   2.508   7.636  0.6398 -4.7367 -0.3527
 1837SOL    HW217145   4.681   2.499   7.519 -0.5193 -0.0505 -0.4419
 1838SOL     OW17146   1.693   2.121  14.568  0.5895  0.2870  0.8382
 1838SOL    HW117147   1.692   2.026  14.577  1.1790  0.2457  0.5234
 1838SOL    HW217148   1.785   2.137  14.546 -0.6589  2.7345 -2.5896
 1839SOL     OW17149   2.671   2.909   0.550 -0.7846  0.1751 -0.1720
 1839SOL    HW117150   2.626   2.979   0.503  1.2625 -0.3362 -2.8285
 1839SOL    HW217151   2.609   2.881   0.618  0.6169 -2.7380 -0.0952
 1840SOL     OW17152   2.293   3.542   7.022  0.2157 -0.1020  0.5906
 1840SOL    HW117153   2.305   3.576   7.110  1.4402  1.6113 -0.2331
 1840SOL    HW217154   2.209   3.580   6.994 -0.1506 -0.9642  0.5029
 1841SOL     OW17155   2.187   1.538   8.614  0.1199  0.0232 -0.1744
 1841SOL    HW117156   2.095   1.518   8.627  0.6111 -1.2266  1.4283
 1841SOL    HW217157   2.211   1.480   8.541 -3.1687 -0.1251 -1.1056
 1842SOL     OW17158   1.697   4.553   5.920  0.4883  0.8468  0.2334
 1842SOL    HW117159   1.656   4.603   5.849 -0.2118 -0.5211 -0.3182
 1842SOL    HW217160   1.772   4.613   5.925  0.8013  0.4931 -0.2326
 1843SOL     OW17161   4.350   2.951   8.632 -0.0573  0.3149  0.0232
 1843SOL    HW117162   4.349   3.013   8.704  1.8926 -1.4358  1.5426
 1843SOL    HW217163   4.442   2.927   8.623  0.2908  1.7472 -0.2067
 1844SOL     OW17164   4.098   2.945   6.685 -0.6135 -0.4658  0.3731
 1844SOL    HW117165   4.087   2.919   6.777  1.2201 -3.1429 -0.1692
 1844SOL    HW217166   4.190   2.921   6.674 -0.0304  0.3606  3.3699
 1845SOL     OW17167   1.966   0.698   2.243 -0.2991 -0.0171 -0.2599
 1845SOL    HW117168   1.947   0.620   2.295  0.4770 -0.9188 -1.3209
 1845SOL    HW217169   1.905   0.692   2.170 -1.7504 -0.3544  0.9875
 1846SOL     OW17170   2.889   0.994  16.207  0.1160 -0.4737 -0.0299
 1846SOL    HW117171   2.911   1.080  16.171  1.8022 -1.3166 -1.0133
 1846SOL    HW217172   2.975   0.955  16.224  0.2128  1.2501  3.4238
 1847SOL     OW17173   4.562   3.465   7.267  0.3304 -0.4467  0.0382
 1847SOL    HW117174   4.596   3.377   7.283 -0.3488 -0.6497  0.4228
 1847SOL    HW217175   4.591   3.514   7.344 -3.3823 -0.0182  1.1799
 1848SOL     OW17176   2.700   0.258  14.016  0.0890  0.7908  0.1657
 1848SOL    HW117177   2.715   0.196  13.945 -0.8789  0.5205  0.1913
 1848SOL    HW217178   2.780   0.310  14.013  1.1069 -0.7350  0.9685
 1849SOL     OW17179   1.624   4.382   9.759  0.3430 -0.3315  0.0255
 1849SOL    HW117180   1.576   4.381   9.676 -1.1357  2.3010  0.8600
 1849SOL    HW217181   1.693   4.319   9.740  0.7121 -0.0442  0.4450
 1850SOL     OW17182   0.188   2.863   6.032  0.7324 -0.2949  0.2561
 1850SOL    HW117183   0.210   2.950   5.998 -1.1055 -0.1734 -0.6557
 1850SOL    HW217184   0.218   2.878   6.121 -1.2694  0.5462  0.8020
 1851SOL     OW17185   2.723   1.416   3.646  0.1590  0.5120 -0.4883
 1851SOL    HW117186   2.799   1.473   3.639 -1.4804  2.6977 -0.3164
 1851SOL    HW217187   2.722   1.354   3.573 -0.3810  0.7204 -0.6553
 1852SOL     OW17188   3.053   1.243   4.442  0.3123  0.3641 -0.3443
 1852SOL    HW117189   2.989   1.205   4.502  0.8966  2.3489  1.5336
 1852SOL    HW217190   3.003   1.245   4.361 -0.6750 -1.1764  0.2210
 1853SOL     OW17191   0.134   2.718   4.182 -0.2610 -0.2008  0.2523
 1853SOL    HW117192   0.144   2.811   4.165 -0.3094 -0.4856 -1.3100
 1853SOL    HW217193   0.128   2.718   4.278 -0.0478 -0.4314  0.2661
 1854SOL     OW17194   3.199   4.020   3.399  0.6963  0.5487  0.2655
 1854SOL    HW117195   3.110   4.041   3.372  1.3346  0.9476 -1.5550
 1854SOL    HW217196   3.228   4.007   3.309 -1.7309 -1.6314 -0.1932
 1855SOL     OW17197   0.757   1.710   6.949 -0.1685 -0.5760 -0.2767
 1855SOL    HW117198   0.841   1.716   6.994 -1.3530 -1.8168  2.0411
 1855SOL    HW217199   0.702   1.753   7.014  1.2172  0.7406  0.0377
 1856SOL     OW17200   4.200   3.224  17.359  0.5244  0.4404  0.1319
 1856SOL    HW117201   4.257   3.295  17.389  2.3169 -1.0636  0.2325
 1856SOL    HW217202   4.116   3.269  17.345 -0.3839 -1.6183 -0.9825
 1857SOL     OW17203   4.682   3.474   2.655 -0.0226 -0.4294  0.7027
 1857SOL    HW117204   4.628   3.552   2.641 -1.1290 -1.5155 -0.9547
 1857SOL    HW217205   4.726   3.505   2.734 -0.4224 -0.8910  1.1004
 1858SOL     OW17206   1.861   1.735   1.602  0.4988 -0.1820  0.7807
 1858SOL    HW117207   1.766   1.737   1.615  0.5925 -0.9363  1.6540
 1858SOL    HW217208   1.866   1.654   1.551  0.0592  0.4181 -0.1937
 1859SOL     OW17209   3.786   0.831  10.122 -0.1385  0.0301 -0.0879
 1859SOL    HW117210   3.725   0.902  10.100 -0.0153  1.7139  5.0561
 1859SOL    HW217211   3.734   0.762  10.080 -0.7825 -0.5219  1.5926
 1860SOL     OW17212   3.306   1.314   3.227  0.5695  0.1951 -0.5601
 1860SOL    HW117213   3.227   1.331   3.278  1.1440 -1.1295  0.7757
 1860SOL    HW217214   3.304   1.396   3.178 -0.3478 -0.9481 -2.4435
 1861SOL     OW17215   0.657   0.711   2.979 -0.7008 -0.0378  0.1847
 1861SOL    HW117216   0.690   0.792   3.018 -0.2312  0.0122 -0.3264
 1861SOL    HW217217   0.681   0.717   2.887  0.5706 -0.1359  0.5059
 1862SOL     OW17218   3.950   1.734   4.512 -0.1827  0.2976  0.3370
 1862SOL    HW117219   4.032   1.782   4.522 -1.3984  2.1740  1.3992
 1862SOL    HW217220   3.953   1.696   4.424  1.4362  0.0204  0.5312
 1863SOL     OW17221   0.609   3.538   4.991  0.0817 -0.3179  0.1975
 1863SOL    HW117222   0.663   3.609   5.026  1.8205 -1.6068  0.1071
 1863SOL    HW217223   0.523   3.547   5.032  0.6684  1.0382  1.1269
 1864SOL     OW17224   4.634   1.750   9.457  0.1299  0.2449  0.4775
 1864SOL    HW117225   4.550   1.781   9.492 -0.5248  0.3198 -1.1486
 1864SOL    HW217226   4.651   1.669   9.506 -0.3189  0.3828  0.8631
 1865SOL     OW17227   0.094   1.750  16.754  0.2456  0.6210 -0.0609
 1865SOL    HW117228   0.163   1.813  16.774  1.5861 -1.5197  2.0681
 1865SOL    HW217229   0.053   1.720  16.835  0.4553  0.2239 -0.0987
 1866SOL     OW17230   1.499   0.573  12.352 -0.3758 -0.6776  0.4149
 1866SOL    HW117231   1.550   0.653  12.363 -0.0211 -0.5842 -1.7886
 1866SOL    HW217232   1.480   0.534  12.437  1.5851  0.8340  1.5625
 1867SOL     OW17233   3.902   3.158  17.599 -0.1849  0.2283 -0.1199
 1867SOL    HW117234   3.975   3.180  17.657 -0.8642  0.7670  0.5196
 1867SOL    HW217235   3.830   3.167  17.661  1.4676  0.4625  1.7825
 1868SOL     OW17236   3.189   4.094  16.251 -0.2585 -0.5406 -0.1434
 1868SOL    HW117237   3.205   4.024  16.315 -0.5157 -0.5691 -0.1128
 1868SOL    HW217238   3.166   4.054  16.168  2.5011 -2.6863  0.1061
 1869SOL     OW17239   4.294   4.098  13.226  0.2117  0.3853  0.2027
 1869SOL    HW117240   4.321   4.070  13.313 -2.7491 -1.8158  0.4104
 1869SOL    HW217241   4.294   4.013  13.182  1.3816  1.5282 -2.0057
 1870SOL     OW17242   1.361   3.037   9.541  0.3465 -0.4109 -0.6127
 1870SOL    HW117243   1.445   3.066   9.503  1.6362 -0.3788  2.2261
 1870SOL    HW217244   1.402   3.007   9.623  3.1295  0.4977 -1.6619
 1871SOL     OW17245   3.980   1.944   3.989  0.3629 -0.5252 -0.5650
 1871SOL    HW117246   3.967   1.929   3.895  0.2840 -2.5824 -0.2241
 1871SOL    HW217247   4.068   1.982   3.986  0.1246  0.0588 -0.3093
 1872SOL     OW17248   2.317   2.778   4.060  0.3034  0.2472  0.3788
 1872SOL    HW117249   2.371   2.708   4.095 -0.0031  0.4778  1.3023
 1872SOL    HW217250   2.228   2.757   4.088 -0.6590  2.7108 -0.7893
 1873SOL     OW17251   2.255   3.612  11.311  0.5041 -0.4192 -0.0644
 1873SOL    HW117252   2.327   3.674  11.307  0.0927  0.1621  1.5835
 1873SOL    HW217253   2.306   3.547  11.262  2.4580  0.6645  0.5850
 1874SOL     OW17254   0.055   3.287   0.668 -0.5177  0.5252  0.2153
 1874SOL    HW117255   0.090   3.207   0.708 -1.6348 -0.9513 -1.7408
 1874SOL    HW217256   0.008   3.260   0.589  2.1500  0.6092 -1.3967
 1875SOL     OW17257   1.667   1.910   5.591 -0.1420 -0.1095 -0.6829
 1875SOL    HW117258   1.711   1.829   5.619  1.3866  0.7904 -0.5252
 1875SOL    HW217259   1.649   1.952   5.675 -0.9033 -1.6699 -0.0648
 1876SOL     OW17260   3.845   3.099   5.578 -0.0759 -0.1679  0.1001
 1876SOL    HW117261   3.886   3.058   5.503 -1.6201 -1.1400 -0.2146
 1876SOL    HW217262   3.827   3.188   5.546  1.1806 -0.5437 -1.6579
 1877SOL     OW17263   0.049   4.004   8.817 -0.3906 -0.3556 -0.7675
 1877SOL    HW117264   0.092   3.992   8.901 -1.1284  1.5806 -0.1190
 1877SOL    HW217265   4.724   4.066   8.846 -0.6156 -0.2803 -1.4352
 1878SOL     OW17266   2.053   4.480  10.239 -0.5252  0.3255 -0.2539
 1878SOL    HW117267   2.144   4.506  10.222 -1.1802  2.4818 -0.5638
 1878SOL    HW217268   2.016   4.566  10.217 -1.1491 -0.3346 -1.7875
 1879SOL     OW17269   3.752   4.428   3.043 -0.6356 -0.5382 -0.3087
 1879SOL    HW117270   3.817   4.492   3.073 -1.1648 -0.3952  0.5121
 1879SOL    HW217271   3.805   4.351   3.021 -0.0160 -0.2397  0.1581
 1880SOL     OW17272   4.527   2.903  10.464  0.5009  0.6981  0.0565
 1880SOL    HW117273   4.595   2.968  10.480  1.3839 -0.7731  2.2455
 1880SOL    HW217274   4.461   2.956  10.420  1.4406  1.0029 -0.9527
 1881SOL     OW17275   2.621   2.716   3.943  0.3153  0.2490 -0.0505
 1881SOL    HW117276   2.596   2.749   3.857  2.2669  1.3889 -0.1845
 1881SOL    HW217277   2.691   2.655   3.920 -0.8678 -0.2491 -2.3738
 1882SOL     OW17278   1.073   3.180   3.058  0.3294  0.1816  0.0458
 1882SOL    HW117279   1.052   3.176   2.965  1.4141  0.2466 -0.2077
 1882SOL    HW217280   1.026   3.101   3.087  2.3137 -1.0349 -0.0189
 1883SOL     OW17281   0.720   1.850   3.814  0.2020 -0.8153  0.5517
 1883SOL    HW117282   0.691   1.777   3.759  1.4296 -0.1680 -0.9729
 1883SOL    HW217283   0.661   1.843   3.889  2.0944 -0.2028  2.0981
 1884SOL     OW17284   0.826   1.025   5.108  0.0003  0.2215 -0.3831
 1884SOL    HW117285   0.884   0.950   5.091 -1.1086 -0.3232 -1.8107
 1884SOL    HW217286   0.785   1.044   5.024 -2.0632 -0.6854  0.4295
 1885SOL     OW17287   2.367   3.036   4.139  0.5197 -0.0758  0.2223
 1885SOL    HW117288   2.427   3.089   4.087 -0.6582  1.1178  0.1158
 1885SOL    HW217289   2.351   2.958   4.085  0.9887  0.6379 -0.9341
 1886SOL     OW17290   4.573   0.520  10.307  0.2979 -0.0916  0.1037
 1886SOL    HW117291   4.602   0.578  10.378  1.9430  0.6775 -1.1880
 1886SOL    HW217292   4.478   0.521  10.320  0.3999  1.8600  0.6931
 1887SOL     OW17293   1.573   0.500   7.382  0.1893  0.0437  0.1175
 1887SOL    HW117294   1.665   0.479   7.399  0.4702 -0.3357 -1.9672
 1887SOL    HW217295   1.576   0.591   7.351  1.8231 -0.1275 -0.2254
 1888SOL     OW17296   2.010   2.461   2.026 -0.1647 -0.0943 -0.1563
 1888SOL    HW117297   1.919   2.437   2.038 -0.4201  1.5404  1.1374
 1888SOL    HW217298   2.024   2.554   2.046  3.6254 -0.4540 -1.0464
 1889SOL     OW17299   0.731   2.848   2.392 -0.1944  0.3346 -0.2963
 1889SOL    HW117300   0.638   2.863   2.404  0.0183  1.0701  0.3776
 1889SOL    HW217301   0.746   2.762   2.431 -1.9914 -0.3847 -1.1913
 1890SOL     OW17302   0.779   0.013   5.112  0.3414 -0.2886  1.3048
 1890SOL    HW117303   0.824   0.045   5.034 -0.2642  0.6793  1.3501
 1890SOL    HW217304   0.839   0.049   5.178 -0.9275 -0.8376  2.7647
 1891SOL     OW17305   0.309   0.557  13.638  0.2227 -0.5835  0.2454
 1891SOL    HW117306   0.304   0.521  13.727 -2.2956  2.0842  1.1558
 1891SOL    HW217307   0.304   0.650  13.657 -1.1649 -1.1333  2.5744
 1892SOL     OW17308   4.488   0.562   5.234 -0.3900 -0.1082  0.6071
 1892SOL    HW117309   4.520   0.559   5.324  1.6487 -1.6085 -0.1599
 1892SOL    HW217310   4.503   0.472   5.207  3.3113  1.4188 -2.4733
 1893SOL     OW17311   1.073   0.861   2.306 -0.1689 -0.2643  0.1736
 1893SOL    HW117312   1.032   0.894   2.227  2.5152 -1.3433 -1.6823
 1893SOL    HW217313   1.006   0.848   2.374  0.4190  0.8805  0.9833
 1894SOL     OW17314   4.566   4.708   6.208 -0.2021  0.4111  0.2536
 1894SOL    HW117315   4.507   4.651   6.256 -1.0582  1.4295  0.4164
 1894SOL    HW217316   4.531   0.047   6.247  1.6436  2.0576 -1.4778
 1895SOL     OW17317   2.507   0.033   0.967 -0.8000 -0.1466  0.3137
 1895SOL    HW117318   2.526   0.040   1.060 -0.7348  1.0484  0.2049
 1895SOL    HW217319   2.494   4.680   0.957 -1.9564  0.1876 -1.3673
 1896SOL     OW17320   0.771   0.635  12.957  0.4735  0.3595  0.1503
 1896SOL    HW117321   0.695   0.616  13.012 -1.2718  1.6117 -1.8823
 1896SOL    HW217322   0.846   0.621  13.016  0.1560 -2.7670 -0.1907
 1897SOL     OW17323   1.529   3.954   3.558  0.6849  0.0300 -0.1776
 1897SOL    HW117324   1.596   3.931   3.622 -1.9840 -2.6879  1.6282
 1897SOL    HW217325   1.548   4.039   3.519 -0.6244  0.9591  1.2085
 1898SOL     OW17326   3.426   4.326  17.366 -0.0818 -0.4499  0.0795
 1898SOL    HW117327   3.357   4.352  17.428  0.6956 -0.2562  0.8690
 1898SOL    HW217328   3.498   4.290  17.418  2.6146  0.6183 -2.8807
 1899SOL     OW17329   2.652   1.222  16.195  0.4283 -0.3006  0.6551
 1899SOL    HW117330   2.746   1.207  16.193  0.5977  0.6804  1.2511
 1899SOL    HW217331   2.642   1.241  16.102  0.7542  1.7294  1.0237
 1900SOL     OW17332   0.913   3.838  10.543 -0.0378 -0.4329  0.2485
 1900SOL    HW117333   0.894   3.753  10.502  1.9208 -2.2875  3.2146
 1900SOL    HW217334   0.946   3.823  10.631  0.9846 -1.8456 -0.3620
 1901SOL     OW17335   4.256   3.004   7.201 -0.2963 -0.0185  0.1135
 1901SOL    HW117336   4.193   3.034   7.266 -2.7743 -3.1534 -0.8344
 1901SOL    HW217337   4.250   2.909   7.208 -0.6029  0.0121  0.2556
 1902SOL     OW17338   2.590   0.559   3.344  0.4208 -0.0480  0.0937
 1902SOL    HW117339   2.679   0.558   3.308  0.8767 -1.8454  1.1915
 1902SOL    HW217340   2.550   0.513   3.271  0.0199  2.2751 -1.1320
 1903SOL     OW17341   4.197   3.163   8.314  0.3167  0.2186 -0.0991
 1903SOL    HW117342   4.275   3.199   8.272  1.7870 -0.8706  1.7425
 1903SOL    HW217343   4.223   3.075   8.339 -0.9462 -0.7829 -2.3201
 1904SOL     OW17344   4.333   0.690  15.042  0.1264  0.7831 -0.1901
 1904SOL    HW117345   4.286   0.608  15.059  1.6727  0.5035  2.6918
 1904SOL    HW217346   4.416   0.674  15.087 -0.9099  1.0762  1.8321
 1905SOL     OW17347   2.932   2.412   7.141  0.1652  0.0449 -0.1065
 1905SOL    HW117348   2.887   2.492   7.114 -1.5451 -0.7364  0.4221
 1905SOL    HW217349   2.881   2.340   7.102  0.4196 -1.5661  2.5559
 1906SOL     OW17350   4.328   3.450   5.407 -0.2857 -0.4716  0.7163
 1906SOL    HW117351   4.399   3.415   5.351 -0.6161  0.7741 -0.4843
 1906SOL    HW217352   4.327   3.376   5.467  1.2976  0.6375  2.1218
 1907SOL     OW17353   1.280   3.573   4.599  0.1330 -0.3139 -0.3953
 1907SOL    HW117354   1.185   3.568   4.606  0.3864 -1.7751  1.6374
 1907SOL    HW217355   1.300   3.536   4.513 -0.0756 -0.8649 -0.2026
 1908SOL     OW17356   0.760   0.257   2.545  0.8203  0.3302 -0.1814
 1908SOL    HW117357   0.832   0.320   2.547  1.7945 -0.8679  3.4504
 1908SOL    HW217358   0.801   0.171   2.532  1.1291  0.2678  1.2773
 1909SOL     OW17359   0.272   1.698   8.990  1.0565  0.0285 -0.0237
 1909SOL    HW117360   0.231   1.785   9.000 -0.7444 -0.6026 -1.8652
 1909SOL    HW217361   0.198   1.645   8.960 -0.8158  0.8778  3.1132
 1910SOL     OW17362   2.773   3.894   8.613  0.1143  0.0869 -0.5885
 1910SOL    HW117363   2.708   3.830   8.640 -1.0295  0.9223 -1.3523
 1910SOL    HW217364   2.767   3.953   8.689 -0.0067  0.7088 -1.0824
 1911SOL     OW17365   2.245   4.346  10.900  0.0544 -0.1954  0.1135
 1911SOL    HW117366   2.335   4.331  10.871 -0.6497  1.4095 -2.9295
 1911SOL    HW217367   2.253   4.375  10.991  1.1052 -1.5805  0.4587
 1912SOL     OW17368   3.942   3.683   5.180 -0.0697 -0.2039  0.5223
 1912SOL    HW117369   3.930   3.777   5.192 -0.1709 -0.4451  2.2955
 1912SOL    HW217370   3.971   3.661   5.268 -2.1619 -1.3944  0.9255
 1913SOL     OW17371   3.038   3.783   7.331 -0.1218  0.3146 -0.0969
 1913SOL    HW117372   3.074   3.749   7.413  0.1009  2.0431  0.5159
 1913SOL    HW217373   3.116   3.802   7.279 -0.3466 -0.5288 -0.7495
 1914SOL     OW17374   2.980   0.040   5.386 -0.2075  0.1065  0.1702
 1914SOL    HW117375   3.075   0.033   5.377 -0.2544 -0.3960  0.0809
 1914SOL    HW217376   2.972   0.007   5.475  1.5616  0.4687  0.4728
 1915SOL     OW17377   4.669   3.297   4.379 -0.1480  0.1410  0.6149
 1915SOL    HW117378   4.675   3.366   4.313 -0.9111 -0.4393 -0.0608
 1915SOL    HW217379   4.697   3.217   4.333 -0.1228  0.2578  0.4288
 1916SOL     OW17380   2.580   1.127   4.213 -0.2577  0.2840 -0.7559
 1916SOL    HW117381   2.566   1.082   4.297 -0.9157  0.0646 -0.9784
 1916SOL    HW217382   2.503   1.097   4.164 -1.5931 -1.7048  2.5333
 1917SOL     OW17383   2.401   0.123   6.239  0.0769 -0.6649 -0.1532
 1917SOL    HW117384   2.373   0.049   6.293 -0.2499 -1.2046 -1.0506
 1917SOL    HW217385   2.409   0.075   6.156  3.2123  2.4097 -1.6207
 1918SOL     OW17386   1.766   4.004   7.927 -0.1536 -0.2000  0.0275
 1918SOL    HW117387   1.704   4.062   7.882  0.6207  0.4051 -0.2648
 1918SOL    HW217388   1.795   4.054   8.004 -0.9913 -0.6621  0.6412
 1919SOL     OW17389   4.535   4.330   5.030 -0.0569  0.4017  0.2660
 1919SOL    HW117390   4.552   4.339   5.124 -0.0569 -1.4178  0.4380
 1919SOL    HW217391   4.575   4.251   4.995 -0.3229  0.1856  0.4476
 1920SOL     OW17392   3.880   4.148   4.284  0.1026 -0.4975  0.1235
 1920SOL    HW117393   3.969   4.183   4.280  0.6999 -1.7480  2.3421
 1920SOL    HW217394   3.835   4.232   4.274  0.1700 -0.3777  0.8558
 1921SOL     OW17395   3.613   3.591   9.360  0.0935  0.2889 -0.0802
 1921SOL    HW117396   3.669   3.648   9.412  0.4009 -0.0074 -0.0871
 1921SOL    HW217397   3.673   3.570   9.289 -1.6824  0.2867 -1.5947
 1922SOL     OW17398   0.622   0.057   9.541 -0.2939  0.2007 -0.0085
 1922SOL    HW117399   0.528   0.055   9.560  0.0834 -2.6256  1.5363
 1922SOL    HW217400   0.626   0.041   9.446 -0.2143  2.1821 -0.3361
 1923SOL     OW17401   1.746   1.658   3.191 -0.3233  0.3403 -0.2941
 1923SOL    HW117402   1.785   1.605   3.260 -3.2712  0.2883  1.3268
 1923SOL    HW217403   1.796   1.740   3.193  0.1293  0.0618 -0.4016
 1924SOL     OW17404   0.315   0.573   3.292 -0.3987 -0.1535 -0.9935
 1924SOL    HW117405   0.336   0.585   3.199  0.4472  0.1765 -0.7657
 1924SOL    HW217406   0.399   0.535   3.318  0.2006  0.7670 -1.5834
 1925SOL     OW17407   3.193   0.000  16.606 -0.1597 -0.6660 -0.7046
 1925SOL    HW117408   3.228   4.668  16.557 -0.0587 -0.7608 -0.4925
 1925SOL    HW217409   3.270   0.055  16.623 -0.3933 -0.2089 -1.1371
 1926SOL     OW17410   0.318   2.287   5.983 -0.4846  0.2078  0.3591
 1926SOL    HW117411   0.259   2.250   5.917  1.6076  0.7350 -1.7880
 1926SOL    HW217412   0.390   2.329   5.936  0.0791 -1.2295 -0.0754
 1927SOL     OW17413   1.521   3.043   5.571  0.0120 -1.0191  0.5423
 1927SOL    HW117414   1.442   3.009   5.529 -0.4398 -1.4841  1.7808
 1927SOL    HW217415   1.560   2.957   5.586  0.1465 -1.4841 -2.3178
 1928SOL     OW17416   2.671   3.819   4.913  0.2723  0.3870  0.1020
 1928SOL    HW117417   2.629   3.804   4.998  1.2581 -1.6678  0.2253
 1928SOL    HW217418   2.738   3.880   4.947  2.2228 -1.5349 -0.2991
 1929SOL     OW17419   4.666   4.728   3.751 -0.4626  0.1624  0.1200
 1929SOL    HW117420   4.653   4.692   3.663  0.4862  0.2584 -0.0507
 1929SOL    HW217421   4.695   4.650   3.798  0.1129  1.3020  1.6098
 1930SOL     OW17422   4.431   1.977   2.160 -0.0497  0.1160 -0.6826
 1930SOL    HW117423   4.507   1.920   2.149  0.4286  0.8033 -0.9513
 1930SOL    HW217424   4.368   1.925   2.210  0.8676  0.8254  1.2143
 1931SOL     OW17425   4.630   3.082   9.057  0.0230 -0.4844  0.4159
 1931SOL    HW117426   4.570   3.012   9.032 -0.8310  0.3782  0.0930
 1931SOL    HW217427   4.597   3.165   9.023 -1.3071 -1.9822 -1.9307
 1932SOL     OW17428   0.102   4.683   8.758 -0.0416 -0.4748  0.1329
 1932SOL    HW117429   0.184   4.633   8.764 -0.2605 -0.8019  0.4091
 1932SOL    HW217430   0.111   4.741   8.834 -0.6833  1.1485 -1.0480
 1933SOL     OW17431   0.081   2.374  12.094  0.6167  0.3370  0.3721
 1933SOL    HW117432   0.045   2.454  12.133  1.3796  0.3929  0.9621
 1933SOL    HW217433   0.074   2.307  12.163 -0.6119  1.0811  0.9851
 1934SOL     OW17434   4.189   3.669   8.554 -0.0796 -0.0833  0.1330
 1934SOL    HW117435   4.268   3.615   8.559 -0.0844 -0.1148 -0.1470
 1934SOL    HW217436   4.142   3.627   8.626 -0.0119  2.2580  1.5387
 1935SOL     OW17437   4.371   1.199  15.887 -0.0528 -0.0479 -0.2590
 1935SOL    HW117438   4.341   1.287  15.861  0.3859  0.5754  1.3176
 1935SOL    HW217439   4.312   1.150  15.830  3.8971 -0.5501 -3.8901
 1936SOL     OW17440   1.118   3.160   9.548 -0.3621  0.2400 -0.4320
 1936SOL    HW117441   1.125   3.215   9.471 -1.2743  1.6336  0.4927
 1936SOL    HW217442   1.196   3.105   9.545 -1.2664 -1.0104 -1.0297
 1937SOL     OW17443   2.114   2.762  13.212  0.0515 -0.4008  0.2362
 1937SOL    HW117444   2.032   2.734  13.171  0.4337  0.4935 -1.1445
 1937SOL    HW217445   2.167   2.774  13.133 -2.0784  1.9953 -0.8596
 1938SOL     OW17446   2.761   0.675  16.611 -0.6407 -0.3654  0.2215
 1938SOL    HW117447   2.819   0.688  16.535 -0.3601  1.2753  0.7221
 1938SOL    HW217448   2.705   0.604  16.579 -1.3676  0.4048 -0.2435
 1939SOL     OW17449   0.091   2.333   3.628 -0.1636 -0.2995 -0.2184
 1939SOL    HW117450   0.061   2.421   3.650 -1.7422 -1.4256  2.1160
 1939SOL    HW217451   0.187   2.334   3.630 -0.1762 -3.0150  1.1451
 1940SOL     OW17452   4.354   1.221  10.852 -0.1010 -0.1245 -0.1214
 1940SOL    HW117453   4.412   1.190  10.922 -0.2310  0.8535  0.4190
 1940SOL    HW217454   4.286   1.248  10.914 -0.4434 -0.0532 -0.5334
 1941SOL     OW17455   0.380   1.224   2.736 -0.0235  0.2041  0.0158
 1941SOL    HW117456   0.461   1.265   2.706  0.7367 -0.1695  1.5583
 1941SOL    HW217457   0.390   1.138   2.695 -0.4039 -1.2175  2.9568
 1942SOL     OW17458   3.632   0.406   0.512  0.2984 -0.7540  0.0741
 1942SOL    HW117459   3.684   0.455   0.448  0.4073  0.9293  1.4201
 1942SOL    HW217460   3.598   0.475   0.569 -1.2636 -0.8885 -0.6857
 1943SOL     OW17461   0.510   3.399   9.317  0.6661 -0.6277 -0.0070
 1943SOL    HW117462   0.569   3.459   9.364 -0.5665 -1.2907  2.4118
 1943SOL    HW217463   0.438   3.455   9.289  1.3889 -0.1342 -0.8640
 1944SOL     OW17464   0.330   4.721   8.409  0.0718 -0.5958  0.1750
 1944SOL    HW117465   0.401   4.703   8.346  0.8951  0.3769  0.8334
 1944SOL    HW217466   0.355   4.657   8.475  0.1157 -1.2204 -0.4439
 1945SOL     OW17467   0.682   2.877  13.777  0.1889  0.0337 -0.0660
 1945SOL    HW117468   0.777   2.872  13.773  0.0576 -1.4776 -1.2512
 1945SOL    HW217469   0.660   2.908  13.689 -1.5545  1.2923  0.8048
 1946SOL     OW17470   2.731   3.933   0.271  0.3745 -0.6190  0.8387
 1946SOL    HW117471   2.792   3.986   0.219  1.2842 -0.5778  1.9603
 1946SOL    HW217472   2.667   3.916   0.202  0.8441 -1.5299  0.6233
 1947SOL     OW17473   4.031   4.297   7.062 -0.1804  0.2350 -0.6828
 1947SOL    HW117474   3.938   4.309   7.042 -0.6446 -1.0474  0.6810
 1947SOL    HW217475   4.020   4.329   7.152  1.8071  0.1137 -0.4044
 1948SOL     OW17476   3.487   1.731   2.148  0.0430 -0.2028  0.2900
 1948SOL    HW117477   3.494   1.636   2.135  0.4434 -0.0077 -0.9534
 1948SOL    HW217478   3.395   1.746   2.171 -0.1442 -1.4950  0.4123
 1949SOL     OW17479   1.413   0.003   6.146 -0.2496 -0.2585  0.3935
 1949SOL    HW117480   1.469   4.668   6.158  2.6921  1.7150 -0.6699
 1949SOL    HW217481   1.467   0.043   6.078 -1.5842 -0.0750 -0.5483
 1950SOL     OW17482   1.918   2.605   8.190 -0.6766 -0.0765 -0.2607
 1950SOL    HW117483   1.901   2.521   8.233 -2.7023  0.0182 -0.8937
 1950SOL    HW217484   1.964   2.653   8.259 -0.7210  0.3353 -0.5186
 1951SOL     OW17485   3.576   1.856   0.543  0.1016  0.0475 -0.5886
 1951SOL    HW117486   3.592   1.872   0.450  2.4175  1.3402  0.0303
 1951SOL    HW217487   3.580   1.945   0.577 -4.0274 -0.1182  0.3743
 1952SOL     OW17488   2.557   2.397   5.495 -0.1694  0.4690  0.0244
 1952SOL    HW117489   2.597   2.311   5.480 -0.3327  0.6197 -1.2557
 1952SOL    HW217490   2.469   2.371   5.466 -0.4187 -0.5541  1.6741
 1953SOL     OW17491   0.281   2.490  13.380 -0.3227 -0.2411  0.4168
 1953SOL    HW117492   0.262   2.579  13.411  3.6783  0.4986  0.7288
 1953SOL    HW217493   0.282   2.444  13.464  2.9970 -0.4876  0.2305
 1954SOL     OW17494   3.024   3.485   5.928 -0.5853 -0.4749  0.0716
 1954SOL    HW117495   3.043   3.446   6.013  1.3046  0.4978  0.1068
 1954SOL    HW217496   3.108   3.483   5.882 -1.0985  0.4879 -0.8922
 1955SOL     OW17497   3.707   0.184   8.409  0.0930  0.1585 -0.5793
 1955SOL    HW117498   3.699   0.124   8.483  0.9168 -1.6057 -1.9027
 1955SOL    HW217499   3.680   0.122   8.340  1.0969  0.2398 -1.0467
 1956SOL     OW17500   3.654   3.864  12.398  0.2414  0.2350  0.3626
 1956SOL    HW117501   3.683   3.924  12.467  2.8577  0.3336 -0.8285
 1956SOL    HW217502   3.734   3.856  12.345  0.1040 -1.5154  0.4078
 1957SOL     OW17503   3.702   0.244   8.033 -1.0560 -1.0440  0.5952
 1957SOL    HW117504   3.715   0.149   8.034  1.0990 -0.7509  1.5506
 1957SOL    HW217505   3.766   0.276   8.097  1.6315 -1.0480 -2.0733
 1958SOL     OW17506   3.436   4.196   8.159 -0.1173 -0.4418  0.2917
 1958SOL    HW117507   3.420   4.185   8.252 -0.1134 -0.0550  0.3383
 1958SOL    HW217508   3.507   4.133   8.146  1.7327  1.5201  0.9557
 1959SOL     OW17509   2.789   2.070  10.756 -0.6375  0.0422  0.1398
 1959SOL    HW117510   2.818   2.031  10.674  0.7228 -1.1722  1.2034
 1959SOL    HW217511   2.765   2.156  10.721  0.8554 -0.5175 -2.2495
 1960SOL     OW17512   3.932   2.953   8.159  1.1001  0.1107 -0.5021
 1960SOL    HW117513   3.862   2.890   8.179  1.3431  0.1066  0.3537
 1960SOL    HW217514   3.981   2.942   8.241  1.0281 -0.9788 -0.6075
 1961SOL     OW17515   3.377   0.330   5.156  0.4054 -0.6241  0.2455
 1961SOL    HW117516   3.457   0.356   5.204 -1.1147  1.2308  1.7801
 1961SOL    HW217517   3.409   0.328   5.066  1.7645  2.7994  0.6335
 1962SOL     OW17518   1.447   3.657   6.789 -0.0451 -0.3450 -0.1726
 1962SOL    HW117519   1.396   3.714   6.846  1.4604  0.3968  0.4461
 1962SOL    HW217520   1.391   3.670   6.712 -1.4045  2.0914  1.2639
 1963SOL     OW17521   1.951   3.297   4.437  0.1890 -0.2967  0.0435
 1963SOL    HW117522   2.000   3.264   4.513 -0.1679 -0.6178  0.1311
 1963SOL    HW217523   1.883   3.230   4.431  0.0077 -0.1759  0.7199
 1964SOL     OW17524   3.448   3.664   2.810  1.0296 -0.2837  0.6620
 1964SOL    HW117525   3.535   3.637   2.837  0.3481 -0.7419  2.4624
 1964SOL    HW217526   3.421   3.582   2.769 -2.4930  0.0770  2.2013
 1965SOL     OW17527   2.726   2.407   7.769 -0.0280  0.4159  0.4618
 1965SOL    HW117528   2.646   2.456   7.747 -0.5235  0.2892  2.0046
 1965SOL    HW217529   2.782   2.476   7.803 -0.0575 -0.4054  2.1563
 1966SOL     OW17530   1.292   2.867   2.027 -0.6531  0.3159  0.3347
 1966SOL    HW117531   1.275   2.791   2.083  0.8777  1.4730  2.3740
 1966SOL    HW217532   1.373   2.840   1.984  0.1444  0.9558  1.4263
 1967SOL     OW17533   3.174   0.327   1.526  0.0972  0.3832  0.0408
 1967SOL    HW117534   3.128   0.401   1.487  1.1133  0.1681 -1.5294
 1967SOL    HW217535   3.207   0.359   1.610  1.2337 -1.0483  0.1242
 1968SOL     OW17536   3.237   1.515   9.005 -0.9051 -0.1166 -0.2628
 1968SOL    HW117537   3.157   1.491   8.958 -2.4127  2.2700  1.0902
 1968SOL    HW217538   3.243   1.453   9.077 -2.7013  2.2129  1.8988
 1969SOL     OW17539   2.870   4.584   2.420 -0.2152  0.0544 -0.4161
 1969SOL    HW117540   2.949   4.558   2.468 -1.1683 -1.2848  0.4292
 1969SOL    HW217541   2.869   4.527   2.343 -1.5463  0.8172 -0.9528
 1970SOL     OW17542   4.029   4.075   2.778  0.3320 -0.2674  0.2351
 1970SOL    HW117543   4.031   4.016   2.702 -0.4050  0.1150 -0.0788
 1970SOL    HW217544   4.051   4.157   2.733 -0.8735 -0.1940 -0.2177
 1971SOL     OW17545   1.970   3.681   0.069 -0.5918 -0.5249 -0.0421
 1971SOL    HW117546   2.054   3.635   0.062  0.3854  1.4119 -1.0906
 1971SOL    HW217547   1.971   3.688   0.164 -0.1303 -1.6267  0.0321
 1972SOL     OW17548   2.496   4.390  10.870 -0.1665 -0.2423 -0.0409
 1972SOL    HW117549   2.497   4.345  10.785  0.3915 -0.0984 -0.1093
 1972SOL    HW217550   2.561   4.458  10.853 -0.0490 -0.5634 -0.8880
 1973SOL     OW17551   4.055   1.429   3.270 -0.5174 -0.0989 -0.4192
 1973SOL    HW117552   4.141   1.434   3.312 -0.0900  0.1494 -1.3322
 1973SOL    HW217553   4.013   1.366   3.329  0.8262 -1.7574 -1.2465
 1974SOL     OW17554   2.084   4.590   3.142  1.1431  0.2880 -0.6896
 1974SOL    HW117555   2.145   4.636   3.084  0.9524  1.3627 -0.0441
 1974SOL    HW217556   2.024   4.654   3.181  1.2795 -0.4169  0.6517
 1975SOL     OW17557   2.500   2.149  16.485 -0.7514 -0.6115 -0.1244
 1975SOL    HW117558   2.420   2.152  16.432 -0.8712  2.3600  0.1993
 1975SOL    HW217559   2.486   2.237  16.522  2.5674 -0.2115  0.2084
 1976SOL     OW17560   3.512   1.101   0.113  0.4414 -0.0380  0.4355
 1976SOL    HW117561   3.507   1.015   0.155  2.6879  0.3921  1.6195
 1976SOL    HW217562   3.466   1.083   0.032 -0.7634  3.2094  0.3853
 1977SOL     OW17563   2.823   2.384  17.561 -0.3129 -0.0552 -0.0411
 1977SOL    HW117564   2.781   2.304  17.593  3.2080 -2.3318 -1.1297
 1977SOL    HW217565   2.772   2.452  17.605 -0.6820 -0.7946  0.6721
 1978SOL     OW17566   4.723   3.033   9.306  0.2213  0.4519 -0.5586
 1978SOL    HW117567   4.698   3.048   9.215 -0.3927 -1.0816 -0.6429
 1978SOL    HW217568   4.645   3.064   9.351  0.1212  0.6032 -0.8380
 1979SOL     OW17569   3.961   0.322  14.760 -0.8606  0.5227 -0.5462
 1979SOL    HW117570   3.973   0.414  14.739  0.8546 -0.0608 -2.1284
 1979SOL    HW217571   3.970   0.289  14.671  0.8775 -2.2065  0.6330
 1980SOL     OW17572   3.975   1.190  11.353  1.0080  0.1067  0.2266
 1980SOL    HW117573   4.030   1.140  11.414  0.5878 -0.3094  0.2626
 1980SOL    HW217574   4.013   1.278  11.351  0.0461  0.5666  2.8941
 1981SOL     OW17575   1.844   3.799   4.951 -0.3817 -0.4426 -0.0771
 1981SOL    HW117576   1.878   3.786   4.862  0.8603  1.9212  0.0527
 1981SOL    HW217577   1.755   3.767   4.941 -1.1309  1.1191  1.6823
 1982SOL     OW17578   3.247   3.724   2.007 -0.1918  0.2214 -0.4952
 1982SOL    HW117579   3.232   3.664   1.934  1.4119  1.2152 -1.6549
 1982SOL    HW217580   3.249   3.804   1.954 -0.8440  0.1620 -0.6120
 1983SOL     OW17581   4.127   3.755   4.590  0.0355 -0.0679  0.3571
 1983SOL    HW117582   4.205   3.701   4.578  1.1463  2.0130 -1.5190
 1983SOL    HW217583   4.115   3.750   4.685  1.4570 -1.6098  0.4592
 1984SOL     OW17584   3.825   2.232   5.284 -0.2347 -0.3597  0.1019
 1984SOL    HW117585   3.740   2.192   5.300 -0.5537  0.2424 -0.0877
 1984SOL    HW217586   3.855   2.263   5.370 -0.9113 -0.1188  0.2478
 1985SOL     OW17587   1.755   1.806   9.064  0.5970 -0.1210  0.2154
 1985SOL    HW117588   1.784   1.786   9.153 -0.8796 -0.4255  0.6381
 1985SOL    HW217589   1.784   1.736   9.006  1.7363 -0.3263  1.0422
 1986SOL     OW17590   3.687   1.402   4.958 -0.3002 -0.1571  0.2433
 1986SOL    HW117591   3.675   1.495   4.938 -0.2575 -0.4887 -1.2787
 1986SOL    HW217592   3.778   1.393   4.931 -0.0561 -0.2412  1.0748
 1987SOL     OW17593   2.577   4.138   7.687  0.2169 -0.0132 -0.3072
 1987SOL    HW117594   2.534   4.163   7.605 -2.7944  1.8854  1.8689
 1987SOL    HW217595   2.495   4.141   7.736  1.7634 -0.4387  2.2645
 1988SOL     OW17596   2.838   2.917   8.887 -0.1661  0.1497 -0.3016
 1988SOL    HW117597   2.774   2.876   8.828 -0.3969  1.9861 -1.3178
 1988SOL    HW217598   2.871   2.990   8.836  1.1313  1.0045  1.7806
 1989SOL     OW17599   2.532   2.937  13.023 -0.0645  0.7950 -0.0582
 1989SOL    HW117600   2.561   3.025  13.045  1.6854  0.0594  0.6128
 1989SOL    HW217601   2.501   2.946  12.933 -0.0911  1.1544 -0.0137
 1990SOL     OW17602   3.676   0.583  16.728  0.0141 -0.3039  0.1395
 1990SOL    HW117603   3.767   0.611  16.741 -0.2698 -0.7276  3.0833
 1990SOL    HW217604   3.637   0.638  16.795  1.8331  1.4206 -0.2093
 1991SOL     OW17605   1.068   4.075   1.815 -0.8360  0.1247  0.9167
 1991SOL    HW117606   1.097   4.033   1.734 -1.5991 -2.6775  2.0824
 1991SOL    HW217607   1.042   3.996   1.862  1.8398  0.3694  2.8173
 1992SOL     OW17608   4.270   3.016  17.532  0.0682  0.0878 -0.0650
 1992SOL    HW117609   4.225   3.085  17.482 -0.7422 -0.3255  0.1017
 1992SOL    HW217610   4.220   2.947  17.488 -0.4803  1.2666 -1.3164
 1993SOL     OW17611   3.395   3.460   4.312  0.7807  0.1449 -0.2098
 1993SOL    HW117612   3.419   3.428   4.399 -0.1354  0.3737  0.1296
 1993SOL    HW217613   3.301   3.479   4.323  0.5681 -0.9410 -0.1610
 1994SOL     OW17614   1.380   1.066   7.035 -0.4749  0.0945  0.1419
 1994SOL    HW117615   1.471   1.073   7.066 -0.5717 -1.0555  0.6585
 1994SOL    HW217616   1.383   1.033   6.945  1.4695 -0.4087  0.3778
 1995SOL     OW17617   1.295   1.610   1.761  0.2848  0.4340 -0.3195
 1995SOL    HW117618   1.246   1.688   1.788 -1.4952 -1.0522  0.7859
 1995SOL    HW217619   1.302   1.562   1.843  0.3024 -0.9345 -1.1181
 1996SOL     OW17620   3.387   0.318   2.640  0.9443  0.1808  0.1217
 1996SOL    HW117621   3.448   0.348   2.708 -0.8743 -1.7901  2.5973
 1996SOL    HW217622   3.388   0.394   2.582  0.9284 -0.9047 -1.2907
 1997SOL     OW17623   4.539   3.512   6.953  0.1007 -0.1877 -0.2773
 1997SOL    HW117624   4.560   3.498   7.045  2.3057  0.3343 -0.7100
 1997SOL    HW217625   4.443   3.510   6.959  0.0818 -0.1780 -0.5642
 1998SOL     OW17626   2.035   3.019   3.542 -0.1191  0.4417  0.5283
 1998SOL    HW117627   2.117   2.993   3.499 -0.4832 -0.8606  0.6040
 1998SOL    HW217628   1.996   2.931   3.543 -0.9459  0.8120  0.7855
 1999SOL     OW17629   2.702   3.245   4.592  0.7252  0.3176 -0.6306
 1999SOL    HW117630   2.762   3.191   4.540  0.4164 -0.3276 -0.3197
 1999SOL    HW217631   2.683   3.314   4.528  1.1383  2.0260  1.1065
 2000SOL     OW17632   1.019   1.271   5.881 -0.0690  0.3098  0.8857
 2000SOL    HW117633   0.932   1.250   5.915 -0.3021  1.1951  0.8613
 2000SOL    HW217634   0.983   1.313   5.802  0.8779 -0.9154 -0.1841
 2001SOL     OW17635   3.019   4.183   5.236  0.0969 -0.4378  0.1588
 2001SOL    HW117636   3.066   4.219   5.311  0.1562 -1.2594  0.5224
 2001SOL    HW217637   2.964   4.116   5.276  2.0808 -1.1141  1.7825
 2002SOL     OW17638   4.466   0.148   2.801  0.3081  0.1721 -0.8016
 2002SOL    HW117639   4.437   0.238   2.789 -1.5046 -0.5071 -1.5661
 2002SOL    HW217640   4.558   0.155   2.777  1.0622 -0.1370  2.0073
 2003SOL     OW17641   0.568   4.693  15.251 -0.0880  0.0822 -0.4489
 2003SOL    HW117642   0.481   4.659  15.269  0.7896 -1.5497  0.7435
 2003SOL    HW217643   0.580   0.022  15.314  2.0306  0.8842 -1.7416
 2004SOL     OW17644   1.861   1.582   6.934 -0.3154  0.0653 -0.5667
 2004SOL    HW117645   1.805   1.589   7.012  0.3234 -1.1348 -0.0129
 2004SOL    HW217646   1.849   1.666   6.889 -0.5445  0.6705  0.6166
 2005SOL     OW17647   0.655   1.516   6.052 -0.1585 -0.1938 -0.2122
 2005SOL    HW117648   0.695   1.577   6.115  0.6659 -0.1113 -0.8170
 2005SOL    HW217649   0.676   1.553   5.966  1.6943 -1.7482 -0.4132
 2006SOL     OW17650   0.174   2.727   3.824  0.0509 -0.1504  0.0665
 2006SOL    HW117651   0.237   2.775   3.770  0.1089  1.8777  1.9352
 2006SOL    HW217652   0.230   2.687   3.890  1.8681  0.6797 -0.9615
 2007SOL     OW17653   2.378   0.409   8.795 -0.3647  0.1162  0.2527
 2007SOL    HW117654   2.390   0.386   8.887 -0.6812 -0.4322  0.1540
 2007SOL    HW217655   2.461   0.452   8.774 -0.0256 -1.2019 -1.1309
 2008SOL     OW17656   2.966   2.984   7.892  0.0593 -0.4274 -0.1040
 2008SOL    HW117657   2.873   2.966   7.880 -0.2521  0.4910  0.8346
 2008SOL    HW217658   2.974   3.078   7.877  0.6257 -0.5592 -0.6191
 2009SOL     OW17659   1.143   4.441   6.419 -0.3735  0.3223 -0.1149
 2009SOL    HW117660   1.137   4.362   6.473  0.4216 -0.4955 -1.2146
 2009SOL    HW217661   1.054   4.476   6.416 -0.0442  1.0192 -1.8116
 2010SOL     OW17662   3.495   3.655   2.160  0.8208 -0.0592 -0.0532
 2010SOL    HW117663   3.410   3.652   2.117  0.4511 -2.3469  0.8562
 2010SOL    HW217664   3.558   3.633   2.091  1.9641 -0.5949  1.1643
 2011SOL     OW17665   0.864   1.466   1.829  0.3710  0.2959  0.3501
 2011SOL    HW117666   0.871   1.539   1.890 -2.3342  0.4392  0.4863
 2011SOL    HW217667   0.773   1.471   1.802 -0.0901 -2.8450  1.3341
 2012SOL     OW17668   3.277   1.559   2.003 -0.8134  0.3130  0.2508
 2012SOL    HW117669   3.232   1.496   1.947  0.5758  1.4384 -2.0944
 2012SOL    HW217670   3.365   1.523   1.991  0.1444  1.8826  2.3276
 2013SOL     OW17671   1.717   2.188   5.474  0.3316  0.3431 -0.5530
 2013SOL    HW117672   1.697   2.130   5.548  0.6783  1.6005  0.5234
 2013SOL    HW217673   1.650   2.153   5.415  0.3738  0.8214 -0.8844
 2014SOL     OW17674   0.332   4.525   1.652  0.2760  0.1071  0.4176
 2014SOL    HW117675   0.352   4.543   1.744 -1.2559 -0.0576  0.7896
 2014SOL    HW217676   0.236   4.525   1.659  0.4278  1.0338  2.5841
 2015SOL     OW17677   3.418   2.301   7.371 -0.4769 -0.3539 -0.0246
 2015SOL    HW117678   3.485   2.295   7.440  1.1794  1.4136 -1.4838
 2015SOL    HW217679   3.343   2.341   7.414 -0.1990 -1.6492  1.6726
 2016SOL     OW17680   3.230   2.763   6.325  0.6910 -0.2111 -0.4319
 2016SOL    HW117681   3.325   2.767   6.339  0.9027 -0.1526 -1.8077
 2016SOL    HW217682   3.227   2.763   6.229  2.6534  1.1754 -0.4999
 2017SOL     OW17683   0.753   2.425  17.186  0.0562 -0.6148  0.2700
 2017SOL    HW117684   0.810   2.444  17.111  1.6099 -0.5020  1.4951
 2017SOL    HW217685   0.819   2.457  17.247 -1.3226  3.2529 -0.2191
 2018SOL     OW17686   4.674   4.111  15.378  0.0398  0.1057 -0.1040
 2018SOL    HW117687   0.026   4.123  15.360  0.3040 -1.6873  0.0641
 2018SOL    HW217688   4.641   4.180  15.320 -1.0223  0.2566  0.6814
 2019SOL     OW17689   2.183   2.549   7.010  0.1747 -0.1402 -0.2519
 2019SOL    HW117690   2.101   2.530   6.965  0.9274  1.6096 -2.3483
 2019SOL    HW217691   2.184   2.495   7.089  2.4366 -1.1723 -0.9750
 2020SOL     OW17692   1.819   3.149   7.435  0.0702 -0.3292 -0.9345
 2020SOL    HW117693   1.878   3.088   7.480  0.8300 -0.1561 -1.7140
 2020SOL    HW217694   1.755   3.157   7.507  0.9056  2.2341 -0.5015
 2021SOL     OW17695   1.848   4.410   5.417 -0.5402  0.2494  0.2467
 2021SOL    HW117696   1.774   4.356   5.444  1.3495 -2.1449  0.6631
 2021SOL    HW217697   1.867   4.458   5.497 -0.0852  1.0109 -0.3148
 2022SOL     OW17698   3.665   2.564  14.839 -0.0247 -0.2252 -0.1670
 2022SOL    HW117699   3.585   2.550  14.787 -0.6064 -2.8306  1.4319
 2022SOL    HW217700   3.727   2.599  14.776 -0.1027 -0.1648 -0.2103
 2023SOL     OW17701   2.699   0.914   6.224 -0.6099  0.5117  0.7170
 2023SOL    HW117702   2.751   0.939   6.148 -1.2142  1.4525  0.6109
 2023SOL    HW217703   2.764   0.905   6.293  0.0805 -1.1460 -0.1461
 2024SOL     OW17704   0.379   2.328   4.265 -0.2379  0.1715  1.1231
 2024SOL    HW117705   0.325   2.365   4.335 -0.1806 -0.2451  1.3874
 2024SOL    HW217706   0.328   2.249   4.244  0.0851 -0.4735  2.7051
 2025SOL     OW17707   4.158   1.143   5.414 -0.3212  0.2292 -0.0704
 2025SOL    HW117708   4.199   1.057   5.407 -1.5946 -0.3299 -0.5328
 2025SOL    HW217709   4.095   1.153   5.342 -3.2392 -2.2693  2.1658
 2026SOL     OW17710   2.151   2.296   3.837 -0.1559  0.6105 -0.1604
 2026SOL    HW117711   2.133   2.270   3.747  0.9868  2.1766 -0.8405
 2026SOL    HW217712   2.078   2.254   3.883  0.0155 -0.4314 -0.8356
 2027SOL     OW17713   3.493   1.698   5.587 -0.7375 -0.2000 -0.0373
 2027SOL    HW117714   3.423   1.735   5.640 -1.8954 -0.0921 -1.6552
 2027SOL    HW217715   3.549   1.776   5.586  1.6439 -1.9339 -1.7204
 2028SOL     OW17716   4.736   2.114   0.413 -0.1291  0.2096 -0.1143
 2028SOL    HW117717   4.653   2.080   0.380 -0.7837  0.4411  1.2857
 2028SOL    HW217718   4.741   2.206   0.387  0.6988 -0.1028 -1.0632
 2029SOL     OW17719   3.901   1.120   9.463 -0.2894 -0.3491 -0.4511
 2029SOL    HW117720   3.973   1.057   9.460  0.0573  0.0502 -0.5838
 2029SOL    HW217721   3.895   1.135   9.557  2.6694  0.5153 -0.3907
 2030SOL     OW17722   0.078   2.610  13.170 -0.0979 -0.0133  0.1163
 2030SOL    HW117723   0.143   2.594  13.238  0.2933  0.1398 -0.2195
 2030SOL    HW217724   0.121   2.560  13.100  1.2444 -1.5128  2.0189
 2031SOL     OW17725   3.362   4.083   2.517  0.0490  0.5990 -0.5667
 2031SOL    HW117726   3.423   4.156   2.520  0.2293  0.4514 -0.6234
 2031SOL    HW217727   3.418   4.016   2.477 -2.6498 -1.5538 -0.7342
 2032SOL     OW17728   3.177   3.524   2.142 -0.3023  0.0075 -0.0012
 2032SOL    HW117729   3.256   3.489   2.101  0.1627  0.8173  0.1974
 2032SOL    HW217730   3.181   3.611   2.101  1.5296  1.0822  2.4552
 2033SOL     OW17731   1.105   3.937  11.959 -0.2114 -0.2220  0.1059
 2033SOL    HW117732   1.140   3.848  11.950  0.3131  0.0981 -0.9960
 2033SOL    HW217733   1.080   3.930  12.051  2.2452 -2.3917  0.5960
 2034SOL     OW17734   2.994   3.972  13.063  0.4926  0.4290  0.4923
 2034SOL    HW117735   2.956   3.884  13.052 -1.2126  1.3400 -1.0633
 2034SOL    HW217736   2.958   3.996  13.149 -0.6020 -0.5433  0.3131
 2035SOL     OW17737   2.835   3.469   9.155  0.1299 -0.5256  0.1699
 2035SOL    HW117738   2.819   3.562   9.168  1.6243 -0.2388 -0.0951
 2035SOL    HW217739   2.913   3.459   9.100  1.0674  0.8589  1.2637
 2036SOL     OW17740   1.319   2.933   8.617 -0.0807 -0.1449 -0.3059
 2036SOL    HW117741   1.307   2.969   8.529 -1.0141  1.7841  0.6069
 2036SOL    HW217742   1.407   2.963   8.639 -0.4785  0.4551  0.4934
 2037SOL     OW17743   2.200   1.049   8.187 -0.1638  0.8199  0.1932
 2037SOL    HW117744   2.251   0.968   8.187 -1.4833 -0.0179 -0.5240
 2037SOL    HW217745   2.275   1.108   8.187  0.1605  0.4078  0.6951
 2038SOL     OW17746   2.898   0.115   2.693 -0.1401 -0.4662  0.2764
 2038SOL    HW117747   2.804   0.099   2.684 -0.7355  3.0911  0.2865
 2038SOL    HW217748   2.934   0.066   2.767 -0.3544  0.7088  1.1524
 2039SOL     OW17749   2.816   3.089   1.569  0.1432 -0.2067  0.3414
 2039SOL    HW117750   2.848   3.013   1.521  3.1323 -0.3077  2.5493
 2039SOL    HW217751   2.720   3.084   1.564  0.0759  1.3659 -0.2115
 2040SOL     OW17752   4.261   3.881  12.353  0.0619 -0.1362 -0.2462
 2040SOL    HW117753   4.275   3.817  12.284 -0.8579 -0.0596 -0.5038
 2040SOL    HW217754   4.290   3.842  12.436  1.1695  1.8097  0.2836
 2041SOL     OW17755   4.006   1.207   8.466  0.4442 -0.7460  0.0140
 2041SOL    HW117756   4.047   1.134   8.513  2.1077 -0.6912 -1.3400
 2041SOL    HW217757   4.026   1.177   8.377 -0.2219 -1.4616  0.1070
 2042SOL     OW17758   0.346   0.782   8.177 -0.0825  0.2260  0.3265
 2042SOL    HW117759   0.394   0.771   8.259  0.0868 -0.1961  0.1764
 2042SOL    HW217760   0.401   0.728   8.120 -1.1858 -1.3202  0.7284
 2043SOL     OW17761   2.252   4.679   3.704 -0.1696 -0.1248  0.3368
 2043SOL    HW117762   2.245   0.033   3.706 -1.5223 -0.2292  1.2264
 2043SOL    HW217763   2.347   4.670   3.703 -0.2813 -1.2369  0.2905
 2044SOL     OW17764   4.133   0.628   8.982 -0.6090 -0.5229  0.1168
 2044SOL    HW117765   4.196   0.681   9.030 -0.5340 -1.6093  1.2456
 2044SOL    HW217766   4.099   0.576   9.055  2.9271  1.4805  3.1636
 2045SOL     OW17767   2.076   4.696  13.481  0.0913  0.3431 -0.0793
 2045SOL    HW117768   1.995   4.694  13.531  0.5079 -1.0177  0.5279
 2045SOL    HW217769   2.084   0.045  13.449  0.3801  0.7502  1.1535
 2046SOL     OW17770   1.209   2.333   6.722 -0.7158  0.3452 -0.5813
 2046SOL    HW117771   1.296   2.301   6.698  0.5535  1.5390  2.3571
 2046SOL    HW217772   1.202   2.407   6.662  2.5159  0.5380 -0.7298
 2047SOL     OW17773   4.241   0.469   3.129 -0.6764  0.4457  0.2413
 2047SOL    HW117774   4.324   0.460   3.176 -0.0303  0.1359 -0.9426
 2047SOL    HW217775   4.251   0.398   3.065 -1.1235  1.9543 -1.5018
 2048SOL     OW17776   0.733   1.388   6.426  0.0715 -0.1399 -0.1095
 2048SOL    HW117777   0.733   1.330   6.502  0.3834 -0.9985 -0.7599
 2048SOL    HW217778   0.712   1.334   6.349  0.6445  0.2395 -0.5321
 2049SOL     OW17779   3.066   2.595  11.782 -0.0633  0.6479  0.1707
 2049SOL    HW117780   3.067   2.685  11.748 -0.5113  1.0417  1.1901
 2049SOL    HW217781   3.148   2.558  11.752 -0.2513 -1.9094  2.8573
 2050SOL     OW17782   2.579   0.804  17.699  0.3857  0.2511  0.0367
 2050SOL    HW117783   2.595   0.840  17.611  2.4023 -0.5550  0.0696
 2050SOL    HW217784   2.512   0.739  17.680 -0.4359  0.2733  3.0127
 2051SOL     OW17785   1.101   0.311  10.082  0.0396  1.0858 -0.4083
 2051SOL    HW117786   1.169   0.270  10.137 -2.3440  0.6140  2.1772
 2051SOL    HW217787   1.079   0.376  10.149 -1.2414  0.2134  0.0101
 2052SOL     OW17788   0.841   2.996   6.182  0.5871  0.0038  0.2996
 2052SOL    HW117789   0.924   2.992   6.134 -0.7344  0.9578 -2.0346
 2052SOL    HW217790   0.797   2.924   6.137 -1.1669  0.0428  1.9332
 2053SOL     OW17791   0.246   3.482   0.720 -0.3859 -0.1022  0.3382
 2053SOL    HW117792   0.232   3.498   0.813 -3.5769 -0.5264 -0.0749
 2053SOL    HW217793   0.163   3.445   0.691 -1.2699  1.5887  0.7482
 2054SOL     OW17794   3.617   0.154  16.170  0.0522  0.6463  0.1627
 2054SOL    HW117795   3.555   0.216  16.130  0.4734 -1.2614 -3.4828
 2054SOL    HW217796   3.578   0.153  16.257  0.8779 -2.6008  0.4902
 2055SOL     OW17797   3.641   0.104   2.253  0.2190 -0.4836 -0.6429
 2055SOL    HW117798   3.691   0.135   2.329 -0.8465 -3.1627  1.1309
 2055SOL    HW217799   3.653   0.171   2.185 -1.7167 -1.0599 -1.5631
 2056SOL     OW17800   3.770   0.739   7.179 -0.0615  0.4141 -0.3601
 2056SOL    HW117801   3.696   0.797   7.194 -0.1210  0.7711 -2.0756
 2056SOL    HW217802   3.791   0.767   7.090 -2.2104 -1.2158 -1.3803
 2057SOL     OW17803   1.100   1.242  17.190 -0.2644 -1.1189 -0.2420
 2057SOL    HW117804   1.007   1.253  17.174 -0.3869 -1.7637  0.0314
 2057SOL    HW217805   1.121   1.157  17.149  2.0426 -1.4068  1.5285
 2058SOL     OW17806   3.666   3.584   8.328 -0.5470 -0.2277  0.0778
 2058SOL    HW117807   3.693   3.493   8.339  0.7598  0.2448  0.7236
 2058SOL    HW217808   3.587   3.572   8.274 -1.4499  2.1099  0.8638
 2059SOL     OW17809   4.100   0.253  14.981  0.0655  0.2225 -0.1667
 2059SOL    HW117810   4.023   0.261  14.924  0.1455 -0.6394 -0.3907
 2059SOL    HW217811   4.164   0.251  14.909 -0.1506 -0.9403 -0.3314
 2060SOL     OW17812   3.226   4.074  10.474 -0.4194  0.2866 -0.4785
 2060SOL    HW117813   3.246   3.986  10.443 -0.5879  0.3354 -0.7243
 2060SOL    HW217814   3.176   4.053  10.552 -1.1876 -0.8065 -1.2756
 2061SOL     OW17815   2.632   2.055   1.735 -0.2361  0.3420  0.6969
 2061SOL    HW117816   2.710   2.071   1.681 -1.4639 -1.0039 -1.4684
 2061SOL    HW217817   2.673   2.038   1.819 -0.3266  1.3319  0.9465
 2062SOL     OW17818   0.052   1.406   9.402 -0.8278 -0.3718  0.0548
 2062SOL    HW117819   0.073   1.460   9.326 -0.8208 -0.5159 -0.0446
 2062SOL    HW217820   0.098   1.328   9.372 -0.4822  0.0892 -0.5989
 2063SOL     OW17821   1.712   4.701  10.222 -0.4554  0.5630 -0.2313
 2063SOL    HW117822   1.767   4.736  10.152  0.0278 -1.1722 -0.7027
 2063SOL    HW217823   1.640   4.654  10.178  0.9375  0.4875 -2.4477
 2064SOL     OW17824   1.983   4.676   2.520 -0.7306  0.1618  0.4619
 2064SOL    HW117825   1.924   4.738   2.476  0.6496  0.2630 -1.2666
 2064SOL    HW217826   2.062   4.729   2.529 -0.0481 -0.7961  0.1468
 2065SOL     OW17827   3.023   2.315   5.968  0.2028 -0.1300  0.0841
 2065SOL    HW117828   3.010   2.409   5.956 -1.2523 -0.2462  0.8805
 2065SOL    HW217829   2.944   2.305   6.021 -0.9812  0.8718 -1.4961
 2066SOL     OW17830   3.877   3.360   7.602  0.0246  0.5556  0.1958
 2066SOL    HW117831   3.871   3.293   7.534  3.5846  0.9880 -0.5043
 2066SOL    HW217832   3.951   3.340   7.660 -1.3937 -1.3504  1.3707
 2067SOL     OW17833   1.262   2.950   5.559 -0.1847 -0.5212  0.2167
 2067SOL    HW117834   1.250   3.024   5.618 -1.0702 -1.3423  1.0634
 2067SOL    HW217835   1.205   2.886   5.601  1.2145 -1.3282  0.8734
 2068SOL     OW17836   3.445   2.958   3.737 -0.4850  0.4424 -0.7893
 2068SOL    HW117837   3.399   3.033   3.776 -1.7430 -0.5371 -0.3694
 2068SOL    HW217838   3.389   2.887   3.769  0.6177 -0.9589 -1.9746
 2069SOL     OW17839   3.091   4.535   9.679 -0.2575 -0.1202 -0.2144
 2069SOL    HW117840   3.123   4.446   9.661 -2.6130 -1.7174  3.3618
 2069SOL    HW217841   3.112   4.582   9.599 -2.0174  1.0102 -0.0041
 2070SOL     OW17842   2.722   3.001   4.772 -0.0207 -0.4720  0.0240
 2070SOL    HW117843   2.686   3.029   4.688  2.8372  0.6784 -0.8254
 2070SOL    HW217844   2.732   3.089   4.807  2.3340  0.5161 -3.2180
 2071SOL     OW17845   4.204   3.545   9.760  0.1604  0.3443  0.4364
 2071SOL    HW117846   4.269   3.612   9.781  2.7794 -1.6154 -1.3210
 2071SOL    HW217847   4.195   3.504   9.846  0.5782  1.9485  1.2541
 2072SOL     OW17848   1.528   0.067   4.736  0.0867 -0.3443 -0.1595
 2072SOL    HW117849   1.434   0.079   4.753  0.3612  1.5384  0.0742
 2072SOL    HW217850   1.524   4.727   4.688  1.4505 -0.5069  0.0156
 2073SOL     OW17851   1.567   0.560   7.810 -0.0980  0.0074  0.0596
 2073SOL    HW117852   1.544   0.652   7.826 -0.5212 -0.4514  2.0378
 2073SOL    HW217853   1.597   0.537   7.897 -2.2133 -0.7434  0.5773
 2074SOL     OW17854   0.272   3.991   9.478  0.4671  0.0595 -0.1718
 2074SOL    HW117855   0.278   3.964   9.386 -2.1825  1.2781 -0.6804
 2074SOL    HW217856   0.363   3.994   9.509  0.0051  1.0133  1.0780
 2075SOL     OW17857   2.727   1.130   6.735 -0.3941  0.2130  0.8690
 2075SOL    HW117858   2.682   1.130   6.819 -0.1637  1.1328  0.9863
 2075SOL    HW217859   2.656   1.164   6.680  0.7753 -0.4453 -1.0593
 2076SOL     OW17860   3.227   2.378  11.994  0.3159  0.2169 -0.4226
 2076SOL    HW117861   3.237   2.421  12.079 -1.6349  1.6444 -0.9028
 2076SOL    HW217862   3.151   2.417  11.951  0.2091  0.2820 -0.1702
 2077SOL     OW17863   2.058   4.530   3.801 -0.3157  0.0813  0.0275
 2077SOL    HW117864   2.068   4.482   3.719 -0.5703 -2.1176  1.2826
 2077SOL    HW217865   2.126   4.597   3.792 -0.6064  0.0073 -2.7007
 2078SOL     OW17866   4.376   2.108  11.299 -0.5044 -0.6762 -0.1899
 2078SOL    HW117867   4.456   2.105  11.351 -0.8956  0.3831  0.4760
 2078SOL    HW217868   4.403   2.077  11.213  2.1704  1.9091 -0.2870
 2079SOL     OW17869   0.987   2.489  15.042  0.3654 -0.5176  0.8413
 2079SOL    HW117870   0.926   2.435  15.092  1.0096 -2.3197 -0.3099
 2079SOL    HW217871   1.074   2.458  15.066  0.5575  0.2423  1.1352
 2080SOL     OW17872   4.655   0.125  12.946 -0.1959  0.3861 -0.0096
 2080SOL    HW117873   4.679   0.218  12.944 -2.0685  0.8893  0.7579
 2080SOL    HW217874   4.684   0.103  12.858  1.3634 -1.7763  1.0457
 2081SOL     OW17875   3.205   2.912   7.033  0.1154  0.6656  0.0746
 2081SOL    HW117876   3.260   2.834   7.036 -0.2208  0.4653  1.0329
 2081SOL    HW217877   3.160   2.894   7.116  0.4189 -2.9203 -0.5426
 2082SOL     OW17878   4.250   3.472   4.770 -0.3595 -0.0582 -0.0472
 2082SOL    HW117879   4.197   3.414   4.715 -1.7609 -0.1128  1.3803
 2082SOL    HW217880   4.194   3.491   4.845  1.4294  0.5929  1.1261
 2083SOL     OW17881   3.591   2.954   8.388  0.1884  0.2975  0.0540
 2083SOL    HW117882   3.670   2.908   8.415  1.1082  1.2981 -0.9655
 2083SOL    HW217883   3.577   2.914   8.303 -0.1557 -1.1774  0.8032
 2084SOL     OW17884   0.173   2.867   7.190  0.3125  0.4390  0.3057
 2084SOL    HW117885   0.163   2.788   7.137  2.1389  0.3652  0.0794
 2084SOL    HW217886   0.267   2.875   7.174  0.1308  1.3551 -0.3726
 2085SOL     OW17887   3.967   4.412   1.774 -0.2293 -0.6268  0.4846
 2085SOL    HW117888   3.913   4.464   1.834 -1.3671  1.6583 -2.5157
 2085SOL    HW217889   3.924   4.432   1.690  0.0938  1.9214  0.9253
 2086SOL     OW17890   2.927   1.758   5.380 -0.1481  0.2915 -0.1028
 2086SOL    HW117891   2.915   1.698   5.307 -0.2003 -1.1599  1.1072
 2086SOL    HW217892   3.015   1.740   5.413 -0.7736 -0.6639  1.0588
 2087SOL     OW17893   4.562   2.937   6.014 -1.0654  0.1155 -0.1880
 2087SOL    HW117894   4.578   2.963   6.105 -0.7799  0.5495 -0.3631
 2087SOL    HW217895   4.646   2.955   5.973 -1.5003  1.8056 -0.3610
 2088SOL     OW17896   3.826   3.180   7.381 -0.1521 -0.5629  0.2081
 2088SOL    HW117897   3.747   3.197   7.329  0.1048  0.7667  0.2358
 2088SOL    HW217898   3.892   3.164   7.314 -0.2193 -0.6863  0.1730
 2089SOL     OW17899   4.610   2.442   7.878  0.5409 -0.3654 -0.2388
 2089SOL    HW117900   4.576   2.508   7.939  0.8961 -0.5480  0.1495
 2089SOL    HW217901   4.671   2.396   7.935  0.0247 -0.3392  0.3375
 2090SOL     OW17902   1.667   4.599   7.266  0.6263  0.0246 -0.2700
 2090SOL    HW117903   1.573   4.603   7.286  1.0089  2.6346  0.9409
 2090SOL    HW217904   1.687   4.687   7.236  1.0491  0.4783  1.3781
 2091SOL     OW17905   1.336   0.309   9.649 -0.0366  0.0200  0.4245
 2091SOL    HW117906   1.308   0.375   9.713  0.8380  0.3859  0.4256
 2091SOL    HW217907   1.429   0.330   9.638 -0.2065 -0.9641 -2.7306
 2092SOL     OW17908   2.341   3.831   9.495  0.2019 -0.4316 -0.8394
 2092SOL    HW117909   2.418   3.827   9.438  1.0275  0.2829  0.2282
 2092SOL    HW217910   2.364   3.907   9.548 -2.5872 -0.8901  1.0253
 2093SOL     OW17911   1.963   3.082   5.728 -0.1831 -0.0851 -0.6933
 2093SOL    HW117912   2.043   3.099   5.677  1.0097  1.1040  1.5656
 2093SOL    HW217913   1.895   3.127   5.678  0.6394 -0.8377 -2.5093
 2094SOL     OW17914   4.542   0.968  12.432  0.4483 -0.1082  0.3181
 2094SOL    HW117915   4.468   1.021  12.401  0.4536  0.5008  1.3723
 2094SOL    HW217916   4.579   0.936  12.349 -0.1758 -4.0490  1.5245
 2095SOL     OW17917   2.759   0.174   2.364 -0.2786  0.2840  0.3810
 2095SOL    HW117918   2.831   0.118   2.394 -0.7731  0.4947  1.9753
 2095SOL    HW217919   2.795   0.225   2.292  0.4930 -0.3452  0.3234
 2096SOL     OW17920   1.414   1.635   3.303 -0.1381  0.1389 -0.4635
 2096SOL    HW117921   1.441   1.713   3.351 -0.1510  0.2678 -0.6630
 2096SOL    HW217922   1.413   1.665   3.212 -2.7339  0.5954 -0.2740
 2097SOL     OW17923   4.477   2.039   8.430 -0.1277  0.4836 -0.1770
 2097SOL    HW117924   4.528   2.102   8.481 -1.7036  3.1089 -1.8106
 2097SOL    HW217925   4.480   1.959   8.482 -0.9003  0.0501 -0.7936
 2098SOL     OW17926   1.929   4.512   2.108 -0.1612 -0.0521 -0.4860
 2098SOL    HW117927   1.863   4.574   2.136 -1.0775 -0.9743 -0.5972
 2098SOL    HW217928   1.956   4.554   2.026  0.1824 -2.0074 -1.3901
 2099SOL     OW17929   1.591   0.751   5.370 -0.1171  0.3850 -0.2099
 2099SOL    HW117930   1.653   0.697   5.419  0.0989  1.3548  0.5747
 2099SOL    HW217931   1.576   0.823   5.432 -1.7086 -1.7663  1.8779
 2100SOL     OW17932   2.132   1.404   0.387  0.1514  0.0657  0.3435
 2100SOL    HW117933   2.103   1.494   0.401 -1.5881 -0.3661 -0.4545
 2100SOL    HW217934   2.168   1.405   0.298  1.1346  0.9554  0.7555
 2101SOL     OW17935   0.786   3.866  14.304  0.1112 -0.4373  0.1294
 2101SOL    HW117936   0.742   3.791  14.264  0.2647 -0.7530  0.5522
 2101SOL    HW217937   0.799   3.923  14.228  0.9477  1.1176  1.4518
 2102SOL     OW17938   1.056   0.308   4.022  0.0855 -0.3703 -0.1276
 2102SOL    HW117939   1.014   0.391   4.002  0.6589  0.0115  0.2468
 2102SOL    HW217940   1.145   0.343   4.026 -0.1275  0.1916 -0.4420
 2103SOL     OW17941   1.941   1.386   7.577 -0.3675  0.4459 -0.6061
 2103SOL    HW117942   1.889   1.408   7.654 -0.5028 -2.6743  0.2200
 2103SOL    HW217943   1.875   1.346   7.519 -0.2973  3.0662 -2.4913
 2104SOL     OW17944   1.968   0.292   1.351  0.2866  0.2602  0.3240
 2104SOL    HW117945   2.005   0.275   1.264 -0.1555  0.6103  0.0720
 2104SOL    HW217946   2.028   0.362   1.377 -0.8955  0.7563  1.6990
 2105SOL     OW17947   3.380   3.837   6.822 -0.7363  0.7894 -0.0539
 2105SOL    HW117948   3.446   3.770   6.804  0.0001  1.2925  0.8047
 2105SOL    HW217949   3.322   3.790   6.883 -1.7980 -0.4659 -2.0170
 2106SOL     OW17950   3.508   3.837   2.399  0.1727  0.0934 -0.2844
 2106SOL    HW117951   3.445   3.771   2.426  2.0504 -1.3383  0.6441
 2106SOL    HW217952   3.511   3.820   2.305 -0.5139 -0.1271 -0.2640
 2107SOL     OW17953   3.700   0.286   3.862  0.4748 -0.0492  0.1687
 2107SOL    HW117954   3.639   0.285   3.935 -0.4636  0.9662 -0.6046
 2107SOL    HW217955   3.762   0.218   3.888 -0.2153 -1.1640 -1.1035
 2108SOL     OW17956   4.358   3.960   3.224 -0.2852  0.4741 -0.3252
 2108SOL    HW117957   4.415   3.991   3.294 -1.3822 -0.8061  1.1093
 2108SOL    HW217958   4.377   4.029   3.160 -0.1762  0.7694  0.0258
 2109SOL     OW17959   3.593   4.136  16.435 -0.0592  0.1041  0.2850
 2109SOL    HW117960   3.632   4.088  16.362  1.0775  0.0416  0.9333
 2109SOL    HW217961   3.563   4.065  16.492 -0.3104 -0.9142 -1.1161
 2110SOL     OW17962   2.891   1.098   2.303 -0.1759 -0.4665 -0.5532
 2110SOL    HW117963   2.803   1.136   2.296 -0.2603 -0.3413  1.1069
 2110SOL    HW217964   2.887   1.070   2.395  0.6005  1.4718  0.0589
 2111SOL     OW17965   4.232   3.416   0.234 -0.4700  0.2832  0.1887
 2111SOL    HW117966   4.249   3.354   0.304  0.5437  0.4884  0.1230
 2111SOL    HW217967   4.222   3.495   0.287  3.2643 -0.3988  1.9039
 2112SOL     OW17968   2.056   3.596  10.222  0.4785  0.7118  0.1462
 2112SOL    HW117969   2.123   3.611  10.288 -0.3391 -1.0747  1.3857
 2112SOL    HW217970   2.115   3.606  10.147  0.1952  2.0839  0.1059
 2113SOL     OW17971   3.286   0.690   1.672 -0.3278 -0.3027  0.1451
 2113SOL    HW117972   3.316   0.770   1.628  1.2564 -0.9260  0.1080
 2113SOL    HW217973   3.218   0.661   1.611  0.1050 -0.1946 -0.3887
 2114SOL     OW17974   1.464   0.902   8.156 -0.8619  0.3216 -0.6811
 2114SOL    HW117975   1.548   0.863   8.182 -1.5360  1.3225  2.9933
 2114SOL    HW217976   1.475   0.976   8.216  0.2579 -0.2883 -0.1378
 2115SOL     OW17977   0.079   1.869  15.862  0.1731 -0.4929  0.2937
 2115SOL    HW117978   0.058   1.896  15.952  0.6250 -1.0276  0.5678
 2115SOL    HW217979   0.034   1.938  15.814 -1.0831 -1.8828 -0.5125
 2116SOL     OW17980   1.387   2.333  16.266 -0.5768 -0.6418 -0.3115
 2116SOL    HW117981   1.435   2.331  16.183  2.2415  2.4360  1.2049
 2116SOL    HW217982   1.455   2.307  16.329 -0.4217 -0.0419 -0.2258
 2117SOL     OW17983   2.899   1.808   8.176  0.2840 -0.0384  0.0352
 2117SOL    HW117984   2.937   1.875   8.119  1.3908 -1.7046 -1.2115
 2117SOL    HW217985   2.807   1.828   8.193 -0.2260 -1.1150 -1.4285
 2118SOL     OW17986   1.175   4.201   2.368 -0.4995 -0.6445  0.0238
 2118SOL    HW117987   1.185   4.115   2.328 -1.9606 -0.2630 -1.1459
 2118SOL    HW217988   1.174   4.268   2.299  5.0573 -0.8507 -0.2814
 2119SOL     OW17989   2.503   4.144  10.718  0.5560 -0.7749  0.0680
 2119SOL    HW117990   2.452   4.091  10.657  0.1712  0.8955 -1.0502
 2119SOL    HW217991   2.591   4.139  10.679  0.5388 -0.0248 -0.0730
 2120SOL     OW17992   0.865   0.468   4.250 -0.3418 -0.8855 -0.3574
 2120SOL    HW117993   0.801   0.473   4.320 -0.6770  0.1116 -0.7433
 2120SOL    HW217994   0.844   0.390   4.198  3.0656 -1.7558 -0.4910
 2121SOL     OW17995   0.395   1.480   9.296  0.1433  0.3560 -0.0460
 2121SOL    HW117996   0.393   1.415   9.226 -0.3086 -0.3798  0.6442
 2121SOL    HW217997   0.310   1.520   9.281 -0.7402 -0.9031  1.6204
 2122SOL     OW17998   3.464   2.852  11.397  0.4343  0.1221 -0.3552
 2122SOL    HW117999   3.476   2.757  11.402 -0.7924  0.0419  0.9713
 2122SOL    HW218000   3.539   2.888  11.350  0.2791 -1.1328 -1.5476
 2123SOL     OW18001   3.368   4.219   3.981  0.2735  0.3341 -0.0625
 2123SOL    HW118002   3.448   4.209   4.033 -1.2679  0.8018  2.4051
 2123SOL    HW218003   3.389   4.297   3.930  0.3338 -0.4839 -1.2860
 2124SOL     OW18004   1.880   2.139  11.316  0.2636  0.2252  0.1852
 2124SOL    HW118005   1.822   2.113  11.245 -1.5601 -0.9475  2.0914
 2124SOL    HW218006   1.928   2.215  11.284  1.2053 -0.2508  0.4556
 2125SOL     OW18007   2.909   4.686   3.175 -0.3362 -0.3764 -0.4569
 2125SOL    HW118008   2.861   4.626   3.231  1.0015  0.4966  1.6033
 2125SOL    HW218009   2.994   4.696   3.217 -0.8752  1.2496  0.2701
 2126SOL     OW18010   1.791   3.282  13.874 -0.0877 -0.0658 -0.3027
 2126SOL    HW118011   1.738   3.352  13.910 -0.5083  1.0417 -3.0428
 2126SOL    HW218012   1.842   3.328  13.807 -2.2501  1.9762 -0.5088
 2127SOL     OW18013   2.295   3.546   1.392 -0.5710  0.0857  0.4323
 2127SOL    HW118014   2.290   3.556   1.297 -0.9112  0.2790  0.4682
 2127SOL    HW218015   2.331   3.458   1.400 -0.0861  0.2952  0.5076
 2128SOL     OW18016   3.059   2.634   1.051  0.0916  0.1920  0.0718
 2128SOL    HW118017   3.072   2.728   1.040  1.8723 -0.4168 -3.0572
 2128SOL    HW218018   3.148   2.606   1.029 -0.5622 -1.3343 -0.6565
 2129SOL     OW18019   0.304   1.869   0.549 -0.2594 -0.2237  0.2822
 2129SOL    HW118020   0.237   1.930   0.581 -1.2658 -1.5903  0.7546
 2129SOL    HW218021   0.383   1.896   0.595  1.3269  1.1019 -3.2226
 2130SOL     OW18022   3.099   1.527   1.427 -0.0377  0.6556 -0.1194
 2130SOL    HW118023   3.173   1.482   1.468 -0.8142  1.9645  2.7193
 2130SOL    HW218024   3.044   1.450   1.412  0.0299  0.8034 -1.1393
 2131SOL     OW18025   0.018   3.096   6.650  0.2682 -0.0591  0.4875
 2131SOL    HW118026   4.710   3.153   6.708  0.3842  0.6791 -0.1310
 2131SOL    HW218027   0.029   3.017   6.703  0.2697 -0.9026 -0.7643
 2132SOL     OW18028   2.644   3.453   4.414 -0.2330  0.2239  0.8359
 2132SOL    HW118029   2.633   3.456   4.319 -1.0956  0.7400  0.9560
 2132SOL    HW218030   2.555   3.480   4.437 -1.2347 -1.9245 -0.4311
 2133SOL     OW18031   3.539   2.002   5.865  0.3048  0.4175 -0.2648
 2133SOL    HW118032   3.561   2.095   5.870  1.0519  0.3085 -1.4279
 2133SOL    HW218033   3.514   1.982   5.955  0.4471 -2.2025 -0.8034
 2134SOL     OW18034   0.548   1.729   8.908  0.4632 -0.0724  0.3344
 2134SOL    HW118035   0.465   1.689   8.934 -0.0192  0.3647 -0.5424
 2134SOL    HW218036   0.612   1.712   8.977 -1.5928 -0.6320  2.0803
 2135SOL     OW18037   1.236   1.320   4.324  0.2439  0.0750 -0.4544
 2135SOL    HW118038   1.283   1.280   4.398 -1.5911  0.7734  1.0952
 2135SOL    HW218039   1.206   1.398   4.371 -1.1200  0.1375 -1.4234
 2136SOL     OW18040   2.249   3.879   3.020  0.3892  0.6566  0.1057
 2136SOL    HW118041   2.176   3.827   3.053  0.2758  0.4115 -0.5334
 2136SOL    HW218042   2.310   3.868   3.093 -0.3028 -1.2870  0.4034
 2137SOL     OW18043   3.308   2.760   3.817  0.1477 -0.4014 -0.9260
 2137SOL    HW118044   3.286   2.776   3.909 -0.2371 -3.0400 -0.5486
 2137SOL    HW218045   3.236   2.703   3.788  1.2448 -1.7771 -0.9405
 2138SOL     OW18046   1.992   0.245   4.280  1.0901 -0.3526 -0.3064
 2138SOL    HW118047   1.994   0.304   4.355  0.8415  0.7829 -1.1880
 2138SOL    HW218048   1.991   0.154   4.311 -0.2342 -1.3863 -3.3222
 2139SOL     OW18049   3.095   1.993   7.347  0.4038  0.0838 -0.2111
 2139SOL    HW118050   3.044   2.067   7.315  0.6017 -0.0743 -0.8938
 2139SOL    HW218051   3.164   1.984   7.281 -0.4862  0.1493 -1.1590
 2140SOL     OW18052   1.686   3.479   8.325  0.6244 -0.1705 -0.3844
 2140SOL    HW118053   1.779   3.470   8.345  0.3617 -2.6694 -0.2811
 2140SOL    HW218054   1.668   3.564   8.364  2.0941  0.8007 -1.7819
 2141SOL     OW18055   4.695   1.985   2.315 -0.2188  0.2064 -0.1672
 2141SOL    HW118056   4.716   1.901   2.356 -1.9950  0.0993  0.5274
 2141SOL    HW218057   4.612   2.010   2.355  1.1779  0.9456  2.3070
 2142SOL     OW18058   2.692   2.927   7.362  0.9196 -0.0737 -0.1963
 2142SOL    HW118059   2.658   2.864   7.298  0.6902  2.3212 -2.4064
 2142SOL    HW218060   2.652   2.905   7.446  1.1943  0.4009  0.0571
 2143SOL     OW18061   4.101   0.060   6.250 -0.8370  0.3852 -0.2881
 2143SOL    HW118062   4.010   0.048   6.225 -0.9875 -1.0704  0.9556
 2143SOL    HW218063   4.112   0.144   6.205 -2.4024  0.2351 -0.9598
 2144SOL     OW18064   3.645   1.144  15.318  0.0889 -0.1653 -0.5417
 2144SOL    HW118065   3.622   1.228  15.277 -1.2030 -0.4502 -0.4092
 2144SOL    HW218066   3.710   1.163  15.385 -1.6604  0.8876  0.8557
 2145SOL     OW18067   3.167   2.975  17.089 -0.4101  0.0869 -0.4503
 2145SOL    HW118068   3.192   3.060  17.126 -0.6423 -1.0032  2.1686
 2145SOL    HW218069   3.194   2.983  16.997 -0.8097 -0.7413 -0.6390
 2146SOL     OW18070   3.638   3.254  16.252 -0.1559 -0.1882 -0.5048
 2146SOL    HW118071   3.595   3.265  16.167 -1.1257 -0.4842 -0.0526
 2146SOL    HW218072   3.559   3.226  16.297  0.6329 -1.0349  0.3409
 2147SOL     OW18073   2.430   0.396  17.331 -0.0178  0.3264  0.0107
 2147SOL    HW118074   2.474   0.351  17.259  0.5690  2.0928 -0.7212
 2147SOL    HW218075   2.431   0.487  17.303 -1.0430  0.1611 -0.5316
 2148SOL     OW18076   1.091   2.977   6.444  0.0300 -0.1161 -0.2328
 2148SOL    HW118077   1.091   3.051   6.383 -1.3950  1.5953  1.8555
 2148SOL    HW218078   1.183   2.951   6.443  0.6817  2.1296  0.7045
 2149SOL     OW18079   0.032   4.707  16.948 -0.5553 -0.6207 -0.0582
 2149SOL    HW118080   4.738   4.650  16.879  1.9396  0.2544 -2.0914
 2149SOL    HW218081   0.039   0.040  16.888  1.8841  0.5259  1.7071
 2150SOL     OW18082   0.102   2.455   7.085  0.3325  0.3179  0.0891
 2150SOL    HW118083   0.117   2.453   7.180  0.9529  0.3860 -0.0061
 2150SOL    HW218084   0.161   2.520   7.047 -1.9711  2.9097  1.0116
 2151SOL     OW18085   3.184   2.354   8.092  0.1672 -0.5050 -0.3446
 2151SOL    HW118086   3.121   2.283   8.084  0.4557 -0.4788 -3.0307
 2151SOL    HW218087   3.261   2.298   8.102  1.3398  1.1545  0.0845
 2152SOL     OW18088   1.863   3.418   4.195 -0.1157  0.0119  0.4869
 2152SOL    HW118089   1.943   3.427   4.143  0.0049  0.7662  0.8051
 2152SOL    HW218090   1.889   3.365   4.270 -0.2957  0.0091  0.5466
 2153SOL     OW18091   1.784   4.560  17.264 -0.4223  0.3412  0.2817
 2153SOL    HW118092   1.695   4.586  17.241 -0.0135  0.5120 -1.1379
 2153SOL    HW218093   1.802   4.621  17.335 -0.2280  0.5317  0.0712
 2154SOL     OW18094   0.340   0.591   7.519 -0.1655 -0.1303  0.7555
 2154SOL    HW118095   0.342   0.496   7.513  1.0819  0.1646 -3.7847
 2154SOL    HW218096   0.433   0.593   7.540  0.1413 -1.0872 -0.5495
 2155SOL     OW18097   2.624   2.930   5.884  0.4571 -0.0916 -0.1603
 2155SOL    HW118098   2.567   2.932   5.807 -1.2473 -0.7916  1.0924
 2155SOL    HW218099   2.685   2.865   5.850 -1.1773 -0.6852 -1.9677
 2156SOL     OW18100   3.361   1.878  11.772 -0.1951 -0.2581  0.3526
 2156SOL    HW118101   3.453   1.851  11.769 -0.5247 -1.6771  3.0131
 2156SOL    HW218102   3.364   1.974  11.778  3.8003 -0.4049  0.3257
 2157SOL     OW18103   3.187   2.884  11.354 -0.4059 -0.1724  0.4853
 2157SOL    HW118104   3.219   2.795  11.345  0.8694  0.1928  1.4812
 2157SOL    HW218105   3.138   2.875  11.436  0.2085  1.3903  1.0187
 2158SOL     OW18106   1.319   0.914   2.415 -0.3431  0.0693 -0.1223
 2158SOL    HW118107   1.238   0.890   2.371 -0.3104  0.8358 -0.6105
 2158SOL    HW218108   1.368   0.833   2.400 -1.5387 -0.4041 -1.4894
 2159SOL     OW18109   2.565   2.155   4.754  0.0360  0.2768 -0.5710
 2159SOL    HW118110   2.525   2.219   4.696  0.2510 -0.4825 -1.5630
 2159SOL    HW218111   2.639   2.204   4.790  0.2750 -0.5804  0.1212
 2160SOL     OW18112   2.655   0.693   7.752  0.4443 -0.0491  0.1506
 2160SOL    HW118113   2.683   0.688   7.660  1.9544  2.1246  0.4990
 2160SOL    HW218114   2.661   0.787   7.767 -1.4506 -0.2106  1.9943
 2161SOL     OW18115   0.941   0.547   3.997 -0.0925  0.1331  0.2544
 2161SOL    HW118116   0.875   0.507   4.053  0.6887 -3.0631 -1.1056
 2161SOL    HW218117   1.009   0.579   4.057 -1.0967  1.5068  0.6501
 2162SOL     OW18118   2.725   2.243  15.095  0.2550  0.2147 -0.2374
 2162SOL    HW118119   2.692   2.155  15.080  0.3970  0.0158  0.5885
 2162SOL    HW218120   2.679   2.302  15.036  1.4528  0.5135 -0.8727
 2163SOL     OW18121   4.336   4.115   9.749  0.1810 -0.5511 -0.2649
 2163SOL    HW118122   4.422   4.074   9.758  0.6422  0.2968 -0.8500
 2163SOL    HW218123   4.359   4.179   9.682  0.2976  1.7018  1.9328
 2164SOL     OW18124   1.179   1.944   8.697 -0.4315 -0.8432  0.6799
 2164SOL    HW118125   1.207   1.946   8.789 -2.8942  0.6734  1.3997
 2164SOL    HW218126   1.091   1.982   8.703 -0.2663 -0.3335 -0.2367
 2165SOL     OW18127   0.612   4.221   6.810  0.2241  0.3613 -0.0508
 2165SOL    HW118128   0.537   4.164   6.795 -0.6843  0.4135  4.2227
 2165SOL    HW218129   0.570   4.282   6.870  1.4094  1.1732 -0.0671
 2166SOL     OW18130   0.547   1.731   4.848 -0.4216 -0.2811  0.2963
 2166SOL    HW118131   0.541   1.716   4.943 -1.3276 -2.3598 -0.0859
 2166SOL    HW218132   0.642   1.743   4.844 -0.0892 -3.4759 -1.3362
 2167SOL     OW18133   1.625   2.542   6.557  0.6189  0.1292  0.1076
 2167SOL    HW118134   1.661   2.624   6.591  2.5088  0.2513 -2.2079
 2167SOL    HW218135   1.656   2.486   6.628 -0.0516 -1.1578 -0.6207
 2168SOL     OW18136   2.006   1.206  11.548  0.1243 -0.6651 -0.0529
 2168SOL    HW118137   2.077   1.144  11.565  1.3359  0.0841 -2.4915
 2168SOL    HW218138   2.063   1.281  11.530  0.0413 -0.6489 -0.2441
 2169SOL     OW18139   3.102   3.663  15.304 -0.1727  0.5697 -0.1770
 2169SOL    HW118140   3.038   3.726  15.338 -0.0884 -0.0582  1.1212
 2169SOL    HW218141   3.062   3.623  15.226 -0.1025 -0.2898  0.2302
 2170SOL     OW18142   2.233   4.016  10.139  0.2847  0.1596  0.6339
 2170SOL    HW118143   2.281   4.041  10.060  0.6742 -2.0173  0.1852
 2170SOL    HW218144   2.154   4.070  10.127  0.1541  0.4157  2.6056
 2171SOL     OW18145   0.473   0.945   7.642 -1.0624 -0.1294 -0.8045
 2171SOL    HW118146   0.394   0.926   7.693 -0.7544  0.0605 -0.2648
 2171SOL    HW218147   0.458   1.038   7.623 -0.9007  0.6112  2.6749
 2172SOL     OW18148   1.448   1.359   7.360  0.3062  0.1953  0.2388
 2172SOL    HW118149   1.529   1.307   7.360 -0.2941 -0.7346 -1.4806
 2172SOL    HW218150   1.386   1.291   7.335 -0.0062  0.0163  1.5105
 2173SOL     OW18151   1.583   2.296  14.715 -0.5204  0.1688  0.1681
 2173SOL    HW118152   1.551   2.358  14.649 -0.5742 -0.7506 -0.6694
 2173SOL    HW218153   1.613   2.232  14.650  0.6620  0.6236  0.2546
 2174SOL     OW18154   0.292   1.798  13.931  0.6861  0.0826 -0.0986
 2174SOL    HW118155   0.236   1.725  13.957  1.8180 -1.2989 -1.5460
 2174SOL    HW218156   0.280   1.806  13.836 -0.6809 -2.4880 -0.1233
 2175SOL     OW18157   4.470   3.342   5.033 -0.4579 -0.1469  0.1931
 2175SOL    HW118158   4.397   3.280   5.031 -0.7791  0.2220  0.5236
 2175SOL    HW218159   4.446   3.399   4.960 -2.0490  0.8008  1.4598
 2176SOL     OW18160   3.005   2.394  12.917  0.0921 -0.1235 -0.2214
 2176SOL    HW118161   3.029   2.487  12.923  0.4583 -0.3114  1.2591
 2176SOL    HW218162   2.943   2.393  12.989  0.4169 -0.5393  0.0471
 2177SOL     OW18163   1.839   3.220   4.762  0.1084  0.2705  0.0929
 2177SOL    HW118164   1.802   3.138   4.730  1.3326  0.4557 -1.7826
 2177SOL    HW218165   1.935   3.215   4.759  0.1601  0.5757  1.4495
 2178SOL     OW18166   2.066   0.668   5.231 -0.2212  0.0144 -0.7853
 2178SOL    HW118167   2.088   0.758   5.210  1.5427 -1.1760 -3.9466
 2178SOL    HW218168   1.971   0.666   5.218 -0.2271 -1.2794 -0.5570
 2179SOL     OW18169   3.983   3.609   2.551  0.6717 -0.3278 -0.0264
 2179SOL    HW118170   4.015   3.581   2.637  0.0497 -1.2659 -0.1004
 2179SOL    HW218171   3.890   3.621   2.573  0.5420 -0.6337 -0.4140
 2180SOL     OW18172   0.592   0.393   6.433  0.0273 -0.6022  0.2477
 2180SOL    HW118173   0.662   0.420   6.492 -0.6757  0.2271  0.6887
 2180SOL    HW218174   0.521   0.444   6.471  0.6438  1.1547 -0.9344
 2181SOL     OW18175   3.602   3.931   4.963 -0.0804  0.3543 -0.0936
 2181SOL    HW118176   3.510   3.927   4.986  0.5475 -2.5254  1.8558
 2181SOL    HW218177   3.603   3.967   4.874 -0.6940  2.5185  0.7769
 2182SOL     OW18178   3.392   0.417  11.031  0.5130  0.4512  0.1455
 2182SOL    HW118179   3.366   0.501  11.068 -2.0966  0.2365 -1.2155
 2182SOL    HW218180   3.437   0.375  11.104  0.1124  1.0806  0.7598
 2183SOL     OW18181   4.636   2.066  15.749 -0.1198 -0.2772  0.7134
 2183SOL    HW118182   4.653   2.150  15.706  2.5149 -2.0941 -1.7727
 2183SOL    HW218183   4.559   2.031  15.704 -0.1912  1.7940 -0.7311
 2184SOL     OW18184   0.665   1.383   3.827  0.4967  0.4179 -0.2377
 2184SOL    HW118185   0.597   1.315   3.832  0.2489  0.8352  2.1373
 2184SOL    HW218186   0.679   1.403   3.920  0.8517 -3.5802  0.5855
 2185SOL     OW18187   4.475   1.035   2.897 -0.1758  0.3606  0.2600
 2185SOL    HW118188   4.536   0.961   2.904  0.1963  0.7806  1.3885
 2185SOL    HW218189   4.515   1.068   2.816  2.9469 -0.5836  1.4031
 2186SOL     OW18190   1.740   1.142  14.374 -0.0571  0.4390 -0.4728
 2186SOL    HW118191   1.774   1.229  14.352 -0.7947  0.8007 -0.1808
 2186SOL    HW218192   1.715   1.112  14.287 -0.8588 -3.5582  1.1258
 2187SOL     OW18193   0.215   4.328   7.985  0.4229 -0.4828  0.4419
 2187SOL    HW118194   0.190   4.401   7.929  0.1344 -1.2540 -0.4420
 2187SOL    HW218195   0.275   4.372   8.045 -1.6280 -1.9516  3.5624
 2188SOL     OW18196   0.705   1.799   7.674  0.2275  0.1103  0.1941
 2188SOL    HW118197   0.776   1.816   7.611  0.4197 -1.7058 -0.0777
 2188SOL    HW218198   0.626   1.785   7.622  1.4493  0.3565 -1.7520
 2189SOL     OW18199   0.951   1.739   4.458 -0.4044 -0.6131 -0.4530
 2189SOL    HW118200   0.864   1.773   4.479  0.0576  0.2483  0.0738
 2189SOL    HW218201   1.004   1.756   4.536  0.5973  2.2084 -1.7601
 2190SOL     OW18202   1.337   3.694   9.039 -0.0281  0.1442 -0.0941
 2190SOL    HW118203   1.261   3.738   9.002  0.6988  1.7838  0.3526
 2190SOL    HW218204   1.303   3.605   9.041  2.0508 -0.5871  1.9172
 2191SOL     OW18205   2.514   0.366   8.204 -0.0360 -0.1441  0.2782
 2191SOL    HW118206   2.461   0.300   8.160  0.2047 -0.6607  0.7677
 2191SOL    HW218207   2.596   0.365   8.153  0.7734 -0.2058  1.5886
 2192SOL     OW18208   2.336   2.897   5.990 -0.2376 -0.3306  0.2685
 2192SOL    HW118209   2.289   2.904   6.073  1.8375  2.3113  1.2000
 2192SOL    HW218210   2.305   2.808   5.972 -1.1399  0.2488 -1.0419
 2193SOL     OW18211   4.270   3.620   7.456 -0.4864  0.0053  0.2819
 2193SOL    HW118212   4.194   3.623   7.397  0.7728  0.2242 -1.3188
 2193SOL    HW218213   4.318   3.693   7.417 -2.7042 -0.0846 -2.7222
 2194SOL     OW18214   3.228   1.701  12.655 -0.2145 -0.3928  0.1003
 2194SOL    HW118215   3.274   1.634  12.605 -0.7876 -0.9061  0.2656
 2194SOL    HW218216   3.258   1.669  12.740  0.0944  2.0429  0.9154
 2195SOL     OW18217   3.993   1.674   3.367  0.1073 -0.4077  0.3292
 2195SOL    HW118218   4.028   1.595   3.325  0.8169  0.1775 -0.1814
 2195SOL    HW218219   4.028   1.739   3.306 -1.1444  0.5870  0.6879
 2196SOL     OW18220   1.719   2.649  12.574 -0.2152  0.3569  0.4343
 2196SOL    HW118221   1.779   2.616  12.507 -1.3535  0.3449 -0.5781
 2196SOL    HW218222   1.777   2.634  12.649  0.8339  0.8257 -0.2856
 2197SOL     OW18223   0.306   3.356   5.574 -0.5759 -0.0918 -0.6351
 2197SOL    HW118224   0.261   3.282   5.533 -0.0234 -0.7038 -0.1232
 2197SOL    HW218225   0.280   3.357   5.666 -4.0982 -2.3251 -1.6335
 2198SOL     OW18226   4.114   3.162   7.706  0.5761 -0.4720 -0.9891
 2198SOL    HW118227   4.130   3.151   7.800 -2.1992 -1.5019 -0.6581
 2198SOL    HW218228   4.159   3.244   7.687 -0.5149  0.0877 -1.1118
 2199SOL     OW18229   1.096   1.723  11.407  0.2946  0.1321 -0.3533
 2199SOL    HW118230   1.023   1.751  11.462  1.9015 -1.4113  2.5484
 2199SOL    HW218231   1.171   1.760  11.453 -1.7680  4.3228 -0.4417
 2200SOL     OW18232   4.181   0.082   0.601  0.0208  0.7230  0.3162
 2200SOL    HW118233   4.241   0.069   0.528 -1.4140  1.3598 -0.9870
 2200SOL    HW218234   4.246   0.093   0.670  1.6302  0.4439 -1.1670
 2201SOL     OW18235   3.869   3.151  14.129 -0.5020 -0.0994 -0.1744
 2201SOL    HW118236   3.849   3.234  14.085  0.0017 -0.9126 -1.9521
 2201SOL    HW218237   3.869   3.095  14.051 -0.6119 -0.4089  0.0509
 2202SOL     OW18238   0.290   2.588   6.911  0.0635  0.3319  0.0675
 2202SOL    HW118239   0.334   2.669   6.884 -1.4404 -0.1092 -3.7260
 2202SOL    HW218240   0.370   2.536   6.908 -0.5077 -0.5979  0.9073
 2203SOL     OW18241   4.471   0.402   3.747 -0.1602 -0.0668  0.0485
 2203SOL    HW118242   4.407   0.400   3.817  2.1123  4.2989  2.2769
 2203SOL    HW218243   4.538   0.465   3.775  0.9730 -1.2172 -0.0661
 2204SOL     OW18244   3.141   0.985  12.627 -0.1721  0.0901  0.3328
 2204SOL    HW118245   3.092   1.042  12.686  0.6871  0.4307  0.7134
 2204SOL    HW218246   3.204   0.961  12.695 -0.2289  0.9368  0.6866
 2205SOL     OW18247   3.455   1.583   7.610 -0.1615 -0.5961 -0.2264
 2205SOL    HW118248   3.489   1.541   7.531  1.6715  1.4398 -0.5235
 2205SOL    HW218249   3.492   1.671   7.606 -1.2848 -0.1957 -1.6616
 2206SOL     OW18250   4.245   3.394   6.002  0.0343  0.3727 -0.1579
 2206SOL    HW118251   4.217   3.409   6.092  0.9995 -2.1714  0.5542
 2206SOL    HW218252   4.282   3.306   6.012 -0.1503  0.5500  2.0801
 2207SOL     OW18253   2.416   2.912   8.534 -0.0129 -0.0240  0.1922
 2207SOL    HW118254   2.445   2.894   8.445  0.7757  3.0351 -0.1617
 2207SOL    HW218255   2.423   2.823   8.567  2.0419 -0.2164 -0.8236
 2208SOL     OW18256   0.517   3.869   9.738  0.5605  0.1074  0.4565
 2208SOL    HW118257   0.476   3.943   9.782 -2.8183 -0.4421 -1.8103
 2208SOL    HW218258   0.565   3.819   9.805 -2.4327 -1.6971  1.2539
 2209SOL     OW18259   1.842   3.377   1.654 -0.4248  0.3972  0.0662
 2209SOL    HW118260   1.918   3.398   1.599  1.4336  0.9278  2.8144
 2209SOL    HW218261   1.840   3.446   1.721 -3.4568  0.7585 -0.3915
 2210SOL     OW18262   1.746   4.007   4.267 -0.6435 -0.5565 -0.1357
 2210SOL    HW118263   1.763   4.048   4.352  0.1041 -0.5564 -0.2830
 2210SOL    HW218264   1.796   3.925   4.268 -0.7316 -0.6109 -0.1369
 2211SOL     OW18265   3.762   2.287   5.995 -0.2680  0.2574 -0.4800
 2211SOL    HW118266   3.853   2.256   5.990  0.2763  1.8481 -0.2325
 2211SOL    HW218267   3.732   2.306   5.906 -1.0020  2.1174  0.1806
 2212SOL     OW18268   0.857   1.722   3.208  0.3427 -0.1265  0.6024
 2212SOL    HW118269   0.863   1.809   3.248  3.2217  0.2167 -0.5684
 2212SOL    HW218270   0.811   1.742   3.126 -2.2353  1.6585  2.4591
 2213SOL     OW18271   2.533   4.736   2.393  0.2198 -0.0114  0.9026
 2213SOL    HW118272   2.464   0.056   2.419  0.3514  0.4494  0.1496
 2213SOL    HW218273   2.614   0.043   2.404  0.1175  0.2945  0.2879
 2214SOL     OW18274   3.509   1.850   3.476  0.4153  0.1116 -0.2055
 2214SOL    HW118275   3.599   1.822   3.493  0.6382  1.7877  1.2816
 2214SOL    HW218276   3.520   1.943   3.493 -1.6304  0.5097 -1.0604
 2215SOL     OW18277   2.571   0.212   6.641 -0.7445 -0.0456 -0.1388
 2215SOL    HW118278   2.501   0.193   6.703 -1.7905  0.8691 -1.0470
 2215SOL    HW218279   2.515   0.232   6.566 -2.2099 -0.0793  0.9494
 2216SOL     OW18280   3.111   3.219   3.398  0.0587 -0.3377  0.4127
 2216SOL    HW118281   3.094   3.125   3.389 -0.4903 -0.4479  2.6597
 2216SOL    HW218282   3.183   3.229   3.335  0.0734 -0.2996  0.4358
 2217SOL     OW18283   2.570   2.350   8.796  0.7640  0.1614  0.2734
 2217SOL    HW118284   2.661   2.379   8.808  0.8920  0.4548 -1.3197
 2217SOL    HW218285   2.565   2.284   8.865  2.0482 -0.0144  0.2058
 2218SOL     OW18286   4.507   3.417  15.417 -0.7308  0.5110  0.1881
 2218SOL    HW118287   4.477   3.507  15.402  1.1829  1.3210  1.3173
 2218SOL    HW218288   4.423   3.373  15.432  0.3555 -2.0945 -1.3336
 2219SOL     OW18289   0.324   0.187  14.890 -0.1636 -1.1319  0.2658
 2219SOL    HW118290   0.233   0.173  14.916 -0.6111 -0.2811 -0.8234
 2219SOL    HW218291   0.306   0.201  14.797 -0.4648  1.0812  0.6576
 2220SOL     OW18292   1.320   2.253   5.220 -0.0437  0.4702 -0.2594
 2220SOL    HW118293   1.408   2.254   5.183  0.7805  3.5284  1.7238
 2220SOL    HW218294   1.328   2.212   5.306 -0.4144 -1.9592 -1.3848
 2221SOL     OW18295   1.616   2.828   6.601  0.7224  0.4971  0.0941
 2221SOL    HW118296   1.535   2.830   6.652  0.8332  1.0915  0.2527
 2221SOL    HW218297   1.657   2.908   6.634  0.9144 -0.1044  1.3122
 2222SOL     OW18298   1.994   1.346   6.981  0.2843 -0.0647 -0.2213
 2222SOL    HW118299   2.073   1.383   6.940  1.9772 -2.2168  1.0798
 2222SOL    HW218300   1.945   1.428   6.978 -1.1044 -0.9298 -1.0880
 2223SOL     OW18301   4.572   2.575  16.551 -0.0105  0.7432  0.0015
 2223SOL    HW118302   4.636   2.643  16.570 -0.5102  0.2063  3.5211
 2223SOL    HW218303   4.637   2.506  16.563 -0.4896  0.3299  0.2037
 2224SOL     OW18304   0.775   2.272   5.910  0.5957 -0.1136  0.1474
 2224SOL    HW118305   0.772   2.256   5.815 -3.5215  1.9975 -0.0580
 2224SOL    HW218306   0.727   2.194   5.938 -1.2641 -0.0109 -2.7725
 2225SOL     OW18307   2.427   4.013   2.390 -0.2234  0.1544  0.6694
 2225SOL    HW118308   2.489   4.078   2.423 -2.2909  2.6544 -0.3270
 2225SOL    HW218309   2.361   4.069   2.350 -1.2225  0.6942  3.0468
 2226SOL     OW18310   2.395   0.906   5.691  0.0645  0.2376 -0.4324
 2226SOL    HW118311   2.435   0.905   5.778 -0.9213  0.1349  0.0180
 2226SOL    HW218312   2.457   0.862   5.632  1.4035 -1.3504  2.1667
 2227SOL     OW18313   4.356   0.796   6.517 -0.0278 -0.7633 -0.5914
 2227SOL    HW118314   4.433   0.813   6.462 -0.6485  1.1078 -0.8637
 2227SOL    HW218315   4.391   0.737   6.584 -2.9958 -0.3090  1.3429
 2228SOL     OW18316   0.629   3.418   8.592  0.0947  0.1331 -0.0856
 2228SOL    HW118317   0.599   3.328   8.579 -0.6335  0.6098 -1.7201
 2228SOL    HW218318   0.558   3.472   8.557  0.9667  1.8697  0.8699
 2229SOL     OW18319   3.591   0.561   6.515  0.5213 -1.0600  0.2318
 2229SOL    HW118320   3.558   0.612   6.441  0.2882 -1.8504 -0.2106
 2229SOL    HW218321   3.679   0.597   6.523 -0.6111  1.6049  0.4995
 2230SOL     OW18322   3.378   4.642   1.946 -0.5233  0.2687 -0.1214
 2230SOL    HW118323   3.382   4.667   2.038 -3.3576 -0.5854  0.2437
 2230SOL    HW218324   3.439   4.570   1.933  2.0278  2.2651  0.6270
 2231SOL     OW18325   2.017   4.235   9.015  0.9254  0.3231  0.1094
 2231SOL    HW118326   2.011   4.167   9.082  2.1999 -0.1394 -0.2478
 2231SOL    HW218327   2.110   4.258   9.022  0.8947  0.3866  0.3061
 2232SOL     OW18328   0.781   4.072   9.832 -0.0493  0.2074 -0.2408
 2232SOL    HW118329   0.719   4.133   9.795  0.2884 -0.0560 -1.2309
 2232SOL    HW218330   0.744   4.064   9.920  0.7064  0.7048  0.1305
 2233SOL     OW18331   1.627   3.428   4.589 -0.0556 -0.2815 -0.8808
 2233SOL    HW118332   1.568   3.464   4.655 -2.7125 -1.2823 -2.7281
 2233SOL    HW218333   1.700   3.389   4.638 -0.2867  0.8236  0.3654
 2234SOL     OW18334   1.896   0.424  14.210  0.5054  0.4430 -0.2088
 2234SOL    HW118335   1.939   0.342  14.235 -1.3227 -0.2034  0.7509
 2234SOL    HW218336   1.912   0.433  14.116 -0.8512 -0.1947 -0.4990
 2235SOL     OW18337   3.405   2.473   1.278 -0.2460  0.0215 -0.6181
 2235SOL    HW118338   3.362   2.456   1.195 -2.3039  0.1023  0.4329
 2235SOL    HW218339   3.363   2.558   1.287 -0.2190 -0.0663  0.4261
 2236SOL     OW18340   1.159   2.945   2.889 -0.1034  0.3104 -0.3851
 2236SOL    HW118341   1.119   2.858   2.898  1.3264 -0.2615  0.5681
 2236SOL    HW218342   1.228   2.920   2.951 -0.3254  1.1874  0.2134
 2237SOL     OW18343   4.470   2.232   5.589 -0.0871  0.3286 -0.2497
 2237SOL    HW118344   4.486   2.139   5.603  1.2295  0.5687 -0.2148
 2237SOL    HW218345   4.404   2.255   5.655  0.3656 -1.3638  0.7871
 2238SOL     OW18346   2.824   0.358   3.398 -0.3033  0.3328  0.4515
 2238SOL    HW118347   2.868   0.431   3.442  2.7800 -0.3436 -1.4944
 2238SOL    HW218348   2.892   0.354   3.330  0.5614 -0.6359  1.3743
 2239SOL     OW18349   3.181   1.148   0.313 -0.6592 -0.3737 -0.1745
 2239SOL    HW118350   3.202   1.229   0.267 -1.5692  0.6012  1.1299
 2239SOL    HW218351   3.262   1.122   0.358 -0.4789  0.1707 -0.1812
 2240SOL     OW18352   3.317   0.933  10.033  0.4177  0.0634 -0.5968
 2240SOL    HW118353   3.300   0.894  10.119  2.5134  1.4898  0.4620
 2240SOL    HW218354   3.409   0.958  10.029  0.4140  0.1270 -0.2878
 2241SOL     OW18355   2.338   0.297   1.966  0.2986  0.4406  0.3538
 2241SOL    HW118356   2.251   0.338   1.970  0.5064  1.2256 -3.5821
 2241SOL    HW218357   2.366   0.331   1.881  0.9851 -0.6313  0.1530
 2242SOL     OW18358   2.440   0.974  16.803 -0.1369 -0.8014  0.8235
 2242SOL    HW118359   2.496   1.036  16.849 -0.6511  0.2884 -0.0038
 2242SOL    HW218360   2.472   0.996  16.715 -1.7118 -0.4263  0.3440
 2243SOL     OW18361   1.657   3.419   7.565  0.2126  0.8579 -0.7475
 2243SOL    HW118362   1.618   3.461   7.489 -1.3068 -0.7642 -0.8510
 2243SOL    HW218363   1.604   3.342   7.584  0.9368  0.5064 -0.1174
 2244SOL     OW18364   0.290   2.113  13.809 -0.4797 -0.1643  0.1323
 2244SOL    HW118365   0.197   2.125  13.790 -0.7960 -0.6703  1.3973
 2244SOL    HW218366   0.311   2.046  13.745  2.4802  0.8575  0.0493
 2245SOL     OW18367   2.687   2.878  11.677 -0.5556  0.3003  0.1384
 2245SOL    HW118368   2.743   2.861  11.601 -0.2797  1.6837  0.0329
 2245SOL    HW218369   2.649   2.957  11.640 -1.6740  0.0318  0.7348
 2246SOL     OW18370   0.020   1.055   2.037 -0.0386 -0.1492  0.2495
 2246SOL    HW118371   0.072   0.990   1.990  0.9809  0.7137  0.1824
 2246SOL    HW218372   4.679   1.009   2.050 -0.7510  1.2253  0.5905
 2247SOL     OW18373   1.032   3.512  17.225  0.2885  0.0073  0.0108
 2247SOL    HW118374   1.042   3.513  17.130 -2.4622 -0.4057 -0.2781
 2247SOL    HW218375   0.961   3.576  17.231 -0.1287 -0.4052 -0.5596
 2248SOL     OW18376   2.005   4.320   0.119  0.0477 -0.2894 -0.2357
 2248SOL    HW118377   1.956   4.280   0.191 -1.7720 -1.6875 -2.2231
 2248SOL    HW218378   1.948   4.296   0.045 -2.7227 -1.7796  2.3697
 2249SOL     OW18379   3.996   2.715   4.335  0.5603 -0.2284  1.0215
 2249SOL    HW118380   3.918   2.665   4.357 -0.4655  0.4787 -1.0065
 2249SOL    HW218381   3.965   2.805   4.329  0.8426 -0.1190  1.2239
 2250SOL     OW18382   3.049   1.763   3.812 -0.7846  0.4172 -0.6822
 2250SOL    HW118383   3.130   1.757   3.761  0.8466  2.0993  1.6891
 2250SOL    HW218384   3.086   1.730   3.894 -0.1629 -0.0672 -1.1570
 2251SOL     OW18385   4.014   3.704   9.654 -0.3494 -0.7608 -0.1234
 2251SOL    HW118386   4.044   3.795   9.659 -3.7806  0.3404  0.4561
 2251SOL    HW218387   4.097   3.662   9.679  0.6107  1.0368 -0.2063
 2252SOL     OW18388   3.153   2.192   5.768 -0.2314 -0.0469 -0.0506
 2252SOL    HW118389   3.216   2.263   5.755 -0.0863 -0.5784 -2.2000
 2252SOL    HW218390   3.128   2.222   5.855 -0.6727 -0.8045  0.0868
 2253SOL     OW18391   2.031   1.477   9.615  0.1469  0.2553  0.1736
 2253SOL    HW118392   2.008   1.425   9.693  2.6913 -0.5219  0.4087
 2253SOL    HW218393   1.989   1.419   9.552 -0.3267  0.7612  0.0242
 2254SOL     OW18394   2.252   2.655   9.475  0.5435  0.3070  0.2558
 2254SOL    HW118395   2.220   2.695   9.394  0.7049 -1.3161 -0.6315
 2254SOL    HW218396   2.237   2.565   9.445 -1.5111  0.6658  0.2465
 2255SOL     OW18397   1.124   1.007  10.235 -0.2282  0.0597 -0.0074
 2255SOL    HW118398   1.087   0.938  10.179  0.6513 -0.9772  0.6826
 2255SOL    HW218399   1.217   0.992  10.216  0.1921  1.5756  0.8956
 2256SOL     OW18400   3.174   3.774   1.230 -0.0489 -0.1035 -0.1770
 2256SOL    HW118401   3.211   3.805   1.147 -0.5559 -0.7433 -0.6444
 2256SOL    HW218402   3.137   3.856   1.264  2.7462  0.2145  2.0268
 2257SOL     OW18403   4.122   2.982   2.128  0.5103  0.0521  0.0254
 2257SOL    HW118404   4.102   2.983   2.034 -2.0465 -2.4810  0.5502
 2257SOL    HW218405   4.216   2.995   2.115  0.3987 -0.6842 -1.4753
 2258SOL     OW18406   2.636   4.108   2.075 -0.0265  0.4198 -0.5089
 2258SOL    HW118407   2.638   4.046   2.003 -2.2065  1.0393 -1.1133
 2258SOL    HW218408   2.574   4.177   2.049 -1.4026 -0.4763  0.3891
 2259SOL     OW18409   3.309   1.454   4.119 -0.2491  0.1956 -0.1006
 2259SOL    HW118410   3.392   1.451   4.072 -0.4025  0.6930 -0.4062
 2259SOL    HW218411   3.334   1.454   4.211 -1.2996  0.2923  0.1932
 2260SOL     OW18412   4.346   0.542   1.776  0.1761 -0.0715 -0.2814
 2260SOL    HW118413   4.358   0.633   1.750 -0.6212 -0.1553 -0.9578
 2260SOL    HW218414   4.430   0.522   1.818 -0.3180  0.8951  1.1471
 2261SOL     OW18415   0.865   2.418   9.480  0.1770 -0.4731  0.3121
 2261SOL    HW118416   0.785   2.455   9.516  0.1446 -0.4808  0.2477
 2261SOL    HW218417   0.932   2.474   9.520 -0.1813  0.3465 -0.2616
 2262SOL     OW18418   3.949   3.785   7.796  0.3323  0.2938 -0.0534
 2262SOL    HW118419   4.007   3.740   7.858 -1.3664  2.2268  2.9364
 2262SOL    HW218420   3.986   3.873   7.786  0.2205  0.2333 -0.9260
 2263SOL     OW18421   3.419   4.121   5.892  0.0374  0.0465 -0.3513
 2263SOL    HW118422   3.408   4.033   5.930  0.4153  1.2550  2.6020
 2263SOL    HW218423   3.515   4.127   5.897 -0.0369  0.2244  1.0349
 2264SOL     OW18424   0.836   1.329   7.097 -0.4971  0.0071 -0.7140
 2264SOL    HW118425   0.846   1.374   7.013  1.4600  0.4038 -0.2707
 2264SOL    HW218426   0.888   1.388   7.151  0.2921 -0.6176 -0.8027
 2265SOL     OW18427   2.451   2.947  10.037 -0.3268  0.2039 -0.1656
 2265SOL    HW118428   2.441   3.041  10.050 -0.5349  0.3754 -1.5509
 2265SOL    HW218429   2.528   2.944  10.093  0.2392 -1.1823 -1.0358
 2266SOL     OW18430   2.955   0.392  13.458 -0.9208  0.4722  0.2082
 2266SOL    HW118431   3.043   0.420  13.482 -1.0934  1.3712 -0.2141
 2266SOL    HW218432   2.940   0.451  13.384  0.3644 -0.4624 -0.7760
 2267SOL     OW18433   4.417   1.884   9.624 -0.3078  0.0811  0.3151
 2267SOL    HW118434   4.406   1.817   9.691 -2.3572  0.2207  0.1034
 2267SOL    HW218435   4.438   1.956   9.684 -2.5623  0.6485  0.4257
 2268SOL     OW18436   1.406   2.622   3.161  0.4084  0.6661  0.8002
 2268SOL    HW118437   1.338   2.559   3.135  2.1711 -0.2086 -1.6876
 2268SOL    HW218438   1.481   2.564   3.172 -0.4007 -0.9006 -2.0097
 2269SOL     OW18439   4.187   2.824   5.101 -0.2062  0.5949  0.5568
 2269SOL    HW118440   4.142   2.739   5.102  0.4753  0.2310  0.3774
 2269SOL    HW218441   4.235   2.805   5.020  0.2685 -0.4599  1.0911
 2270SOL     OW18442   3.280   3.815  10.461 -0.4444 -0.1778 -0.1570
 2270SOL    HW118443   3.328   3.759  10.523 -1.3291 -0.8255 -0.0562
 2270SOL    HW218444   3.296   3.770  10.378 -0.8707  2.2784 -1.5670
 2271SOL     OW18445   1.819   4.280   2.515 -0.3005  0.1251  0.0088
 2271SOL    HW118446   1.795   4.224   2.441  0.8906 -0.9080  0.3845
 2271SOL    HW218447   1.872   4.346   2.471  0.9117 -1.2022 -0.5363
 2272SOL     OW18448   3.317   0.626   5.966 -0.4822 -0.0641  0.7288
 2272SOL    HW118449   3.409   0.601   5.968  0.1900  2.4668  0.6764
 2272SOL    HW218450   3.276   0.540   5.977  1.4771 -1.0274  0.5350
 2273SOL     OW18451   2.962   2.240   7.347  0.7381  0.1978 -0.2900
 2273SOL    HW118452   2.879   2.224   7.391  1.1693  0.0666  0.4614
 2273SOL    HW218453   2.938   2.320   7.300  0.8062  1.5488  1.9874
 2274SOL     OW18454   3.960   1.440   8.759 -0.3119 -0.0071  0.4397
 2274SOL    HW118455   3.893   1.376   8.782  0.4170 -1.8742 -2.6378
 2274SOL    HW218456   4.039   1.392   8.785  0.1511 -0.7820 -2.3929
 2275SOL     OW18457   1.312   3.813   7.057 -0.0367  0.7371  0.3519
 2275SOL    HW118458   1.347   3.897   7.027  1.3722  0.6944  1.8440
 2275SOL    HW218459   1.336   3.812   7.150  1.0220 -3.0374  0.0380
 2276SOL     OW18460   4.588   1.600   0.389  0.0709  0.3757 -0.0248
 2276SOL    HW118461   4.634   1.569   0.311 -0.9505 -1.3567  0.0563
 2276SOL    HW218462   4.659   1.647   0.433 -2.3302  0.7952  3.4276
 2277SOL     OW18463   2.093   3.546   4.379 -0.5494 -0.0323 -0.2456
 2277SOL    HW118464   2.044   3.466   4.401 -0.6731  0.3910  0.9775
 2277SOL    HW218465   2.061   3.611   4.441  0.6436 -1.1612  1.5442
 2278SOL     OW18466   2.615   3.166   6.925  0.1934 -0.2411  0.2289
 2278SOL    HW118467   2.534   3.216   6.919  0.0846 -0.5456 -0.8018
 2278SOL    HW218468   2.621   3.129   7.013  0.7069 -0.6996 -0.0021
 2279SOL     OW18469   3.296   2.224   6.986 -0.1354  0.4280 -0.3196
 2279SOL    HW118470   3.271   2.258   7.072  0.5851  1.0252 -0.3486
 2279SOL    HW218471   3.386   2.195   7.003 -0.6134 -2.5205 -3.0001
 2280SOL     OW18472   1.568   4.082   4.770  0.6488 -0.2673  0.2895
 2280SOL    HW118473   1.492   4.109   4.718 -0.4135 -1.2157  1.3225
 2280SOL    HW218474   1.567   3.986   4.765 -1.1136 -0.0231 -3.6896
 2281SOL     OW18475   4.428   2.637  17.574  1.0134 -0.2454  0.2734
 2281SOL    HW118476   4.511   2.614  17.616  0.9051  0.0297  0.6429
 2281SOL    HW218477   4.452   2.699  17.506  0.1011  3.1983  3.1169
 2282SOL     OW18478   3.855   0.731   3.574 -0.4664 -0.1383  0.2305
 2282SOL    HW118479   3.765   0.755   3.551 -0.8371 -1.8523 -0.1211
 2282SOL    HW218480   3.835   0.646   3.614  2.8428 -2.0273 -2.1522
 2283SOL     OW18481   3.639   0.668  10.939  0.2015 -0.2403  0.4841
 2283SOL    HW118482   3.549   0.668  10.973 -0.1800 -1.8387 -0.5622
 2283SOL    HW218483   3.626   0.644  10.847  1.4411  0.9542 -0.0038
 2284SOL     OW18484   0.555   3.872  10.042 -0.1757 -0.2116  0.1463
 2284SOL    HW118485   0.487   3.921   9.996 -2.5019 -2.5180  1.1889
 2284SOL    HW218486   0.628   3.931  10.066 -1.1698  0.2534  2.0283
 2285SOL     OW18487   4.091   3.424   3.541 -0.1683 -0.2209  0.0532
 2285SOL    HW118488   4.123   3.428   3.631 -1.5425  0.8131  0.4833
 2285SOL    HW218489   4.070   3.330   3.538  3.1352 -0.9438 -1.1005
 2286SOL     OW18490   4.330   2.846   0.264  0.6032  0.3560 -0.4739
 2286SOL    HW118491   4.327   2.901   0.186 -3.4278  1.9825  0.8264
 2286SOL    HW218492   4.411   2.798   0.251  1.2959  1.2891  0.4187
 2287SOL     OW18493   2.646   1.666   7.154  0.2366  0.1106  0.0571
 2287SOL    HW118494   2.614   1.622   7.233  0.6063  0.5949  0.4727
 2287SOL    HW218495   2.692   1.739   7.195 -0.0262 -0.9025  2.1497
 2288SOL     OW18496   0.388   0.068   6.249  0.3645 -0.1328  0.3167
 2288SOL    HW118497   0.476   0.095   6.273 -0.3642  1.6447  1.0255
 2288SOL    HW218498   0.403   4.715   6.243 -3.1274 -0.6109 -1.2888
 2289SOL     OW18499   3.995   0.423  16.896  0.4893  0.4632 -0.5603
 2289SOL    HW118500   4.018   0.408  16.804  2.3453 -0.4539  0.0544
 2289SOL    HW218501   3.914   0.373  16.902  0.2804  0.9758  0.9682
 2290SOL     OW18502   2.803   4.370  10.317  0.0979 -0.5392 -0.5398
 2290SOL    HW118503   2.720   4.330  10.343  0.0912  0.1406  0.5058
 2290SOL    HW218504   2.858   4.340  10.390  1.7346  0.8993 -1.1769
 2291SOL     OW18505   3.738   1.805  15.544 -0.2382  0.1340 -0.4930
 2291SOL    HW118506   3.779   1.890  15.528 -1.0050  0.4757 -0.6537
 2291SOL    HW218507   3.659   1.812  15.490 -0.9245 -1.2622  0.3479
 2292SOL     OW18508   1.103   4.568  12.404 -0.0899 -0.0220 -0.1905
 2292SOL    HW118509   1.013   4.573  12.434 -0.3136  0.5210 -0.9469
 2292SOL    HW218510   1.102   4.484  12.357  3.0110 -0.4906  0.5908
 2293SOL     OW18511   3.391   1.796   7.867 -0.2982  0.1033 -0.2001
 2293SOL    HW118512   3.332   1.869   7.885 -0.6183 -0.2658  0.2647
 2293SOL    HW218513   3.328   1.725   7.851  0.5612 -0.6378 -0.3044
 2294SOL     OW18514   1.827   2.189   3.582 -0.7940 -0.1274 -0.0231
 2294SOL    HW118515   1.763   2.238   3.634 -2.7080 -0.7065 -1.8616
 2294SOL    HW218516   1.842   2.246   3.507 -0.8945 -0.5193 -0.3439
 2295SOL     OW18517   1.800   2.521   5.069 -0.1216  0.7267  0.2906
 2295SOL    HW118518   1.711   2.509   5.105 -0.7349  0.7039 -1.2420
 2295SOL    HW218519   1.779   2.529   4.976  0.0043 -0.0403  0.1941
 2296SOL     OW18520   1.374   0.340   1.907  0.1148 -0.3140 -0.2398
 2296SOL    HW118521   1.290   0.361   1.948  1.3472  1.0726  1.5650
 2296SOL    HW218522   1.352   0.292   1.827 -1.7533  0.5176 -0.2361
 2297SOL     OW18523   0.370   1.465   6.034 -0.7683 -0.1854  0.0765
 2297SOL    HW118524   0.375   1.388   6.091  1.9819 -0.1993 -0.1802
 2297SOL    HW218525   0.449   1.510   6.065 -0.1108 -0.8024 -0.7040
 2298SOL     OW18526   3.736   2.630   5.836 -0.9099 -0.2963  0.1260
 2298SOL    HW118527   3.687   2.587   5.767 -1.1062  0.3361 -0.1276
 2298SOL    HW218528   3.680   2.707   5.849 -2.3385 -1.2015 -0.7177
 2299SOL     OW18529   4.737   3.504   6.343 -0.2724  0.5466 -0.3480
 2299SOL    HW118530   0.035   3.437   6.397 -1.6437 -0.4793 -0.6037
 2299SOL    HW218531   0.076   3.544   6.311 -0.5678  1.3612 -0.0927
 2300SOL     OW18532   2.588   3.484   8.822 -0.1297 -0.5906 -0.1418
 2300SOL    HW118533   2.540   3.563   8.847  2.2736  0.7282  0.2441
 2300SOL    HW218534   2.574   3.430   8.900  1.6309  1.3077  1.4749
 2301SOL     OW18535   3.715   3.777   6.330  0.6002  0.3697 -0.2640
 2301SOL    HW118536   3.778   3.782   6.257  0.6733 -2.5264 -0.3756
 2301SOL    HW218537   3.772   3.749   6.402  0.9737  2.5783  0.2934
 2302SOL     OW18538   1.872   1.596   4.558  0.1728 -0.2009  0.0603
 2302SOL    HW118539   1.789   1.563   4.524 -1.2275  3.2899  0.1053
 2302SOL    HW218540   1.860   1.580   4.651 -0.7380 -3.7109 -0.6553
 2303SOL     OW18541   1.423   2.631   6.727 -0.3261 -0.6298  0.2579
 2303SOL    HW118542   1.496   2.569   6.732  1.5793  1.6581  1.1680
 2303SOL    HW218543   1.384   2.587   6.652  0.3035 -0.0883 -0.3829
 2304SOL     OW18544   4.699   3.455   2.341 -0.4806 -0.1549 -0.3324
 2304SOL    HW118545   4.719   3.547   2.322  0.2688 -0.4765 -1.0689
 2304SOL    HW218546   4.712   3.449   2.436 -1.9436  3.7183  0.1358
 2305SOL     OW18547   4.736   2.128   7.466  0.5362  0.3889 -0.4235
 2305SOL    HW118548   4.676   2.058   7.491  0.1059  1.4587  1.4878
 2305SOL    HW218549   0.029   2.161   7.549 -0.8023  2.5587 -0.7173
 2306SOL     OW18550   3.951   2.533   8.530 -0.1290 -0.1116 -0.2059
 2306SOL    HW118551   3.859   2.535   8.557  0.3175  0.4919  1.2873
 2306SOL    HW218552   3.983   2.458   8.581  1.1445  0.0570 -0.7786
 2307SOL     OW18553   1.901   2.717   6.684 -0.4547  0.1272  0.1123
 2307SOL    HW118554   1.853   2.721   6.767  0.7515 -1.5108  0.8872
 2307SOL    HW218555   1.846   2.653   6.638 -2.0029  2.2756 -0.9924
 2308SOL     OW18556   3.570   1.816   9.090 -0.3256  0.0356  0.0096
 2308SOL    HW118557   3.603   1.729   9.114 -1.1557 -0.4890 -0.7305
 2308SOL    HW218558   3.478   1.793   9.098 -0.4437 -0.1513 -1.8667
 2309SOL     OW18559   2.257   4.605   8.716  0.2035 -0.1279 -0.1189
 2309SOL    HW118560   2.258   4.694   8.750  0.5265 -0.2946  0.3151
 2309SOL    HW218561   2.169   4.589   8.682 -0.3370  0.2363  1.1363
 2310SOL     OW18562   2.175   1.033   7.873  0.4233  0.2463  0.0808
 2310SOL    HW118563   2.244   1.099   7.881  0.1197  0.8703 -2.2623
 2310SOL    HW218564   2.116   1.082   7.815  1.3230  0.0630 -1.0057
 2311SOL     OW18565   2.369   1.889   1.237 -0.0198  0.5781 -0.2326
 2311SOL    HW118566   2.334   1.978   1.237  1.2324  1.0673 -0.3218
 2311SOL    HW218567   2.327   1.844   1.311  0.1948 -0.8631 -0.9853
 2312SOL     OW18568   0.835   3.046   1.808  0.0807 -0.0906 -0.1278
 2312SOL    HW118569   0.866   3.136   1.802  0.5634 -0.3101 -1.0534
 2312SOL    HW218570   0.911   2.987   1.808  0.1483 -0.0131 -0.7993
 2313SOL     OW18571   2.579   3.737   7.277  0.6391 -0.0742  0.0793
 2313SOL    HW118572   2.541   3.817   7.313  0.9420  0.5478 -0.9690
 2313SOL    HW218573   2.672   3.756   7.293  1.4068 -3.4585 -0.3581
 2314SOL     OW18574   4.592   1.153   3.856 -0.0764  0.1922  0.2542
 2314SOL    HW118575   4.607   1.107   3.938  2.7022  0.7216  0.0426
 2314SOL    HW218576   4.661   1.219   3.853  0.9840 -0.9215  0.2521
 2315SOL     OW18577   1.508   1.253   2.334 -0.4358 -0.0898  0.2481
 2315SOL    HW118578   1.603   1.262   2.343 -0.2487 -2.6187  0.8027
 2315SOL    HW218579   1.498   1.315   2.262 -0.9026 -0.3446  0.0974
 2316SOL     OW18580   3.772   3.255   4.677 -0.4309  0.3886  0.1877
 2316SOL    HW118581   3.844   3.200   4.648  0.1817  1.6482 -0.6508
 2316SOL    HW218582   3.791   3.338   4.633  2.1054 -0.3593 -0.0664
 2317SOL     OW18583   2.083   0.014   0.789  0.1315  0.2510 -0.2204
 2317SOL    HW118584   2.032   4.698   0.845 -1.1661  1.4889 -0.1077
 2317SOL    HW218585   2.159   4.711   0.752 -0.7317 -0.9122 -0.5701
 2318SOL     OW18586   1.720   2.004   6.740 -0.0522 -0.3650 -0.1991
 2318SOL    HW118587   1.642   2.041   6.783 -0.0304  0.3865 -0.8257
 2318SOL    HW218588   1.763   1.961   6.815 -1.1966 -1.4283 -0.1506
 2319SOL     OW18589   0.867   3.477   7.601 -0.5748  0.5689 -0.0443
 2319SOL    HW118590   0.820   3.426   7.535 -1.0064  1.8200 -0.7127
 2319SOL    HW218591   0.793   3.522   7.641 -0.5140 -0.3469  1.0757
 2320SOL     OW18592   2.836   2.217   8.595 -0.3976  0.0454  0.2073
 2320SOL    HW118593   2.794   2.300   8.620 -1.2771  0.3491 -2.2559
 2320SOL    HW218594   2.920   2.243   8.557 -0.5683 -0.8519 -0.7646
 2321SOL     OW18595   2.984   3.258   8.346  0.3812 -0.4128  0.0397
 2321SOL    HW118596   2.955   3.335   8.394  0.3186 -0.4630  0.0828
 2321SOL    HW218597   2.902   3.236   8.303  0.5059  0.0117 -0.4115
 2322SOL     OW18598   0.119   0.904  11.273  0.5694 -0.0616 -0.3978
 2322SOL    HW118599   0.149   0.976  11.218 -2.7335 -0.0124 -2.1221
 2322SOL    HW218600   0.031   0.901  11.236  1.2332  1.8981 -2.1751
 2323SOL     OW18601   0.093   4.516  14.373 -0.3699 -0.0943 -0.7468
 2323SOL    HW118602   0.175   4.522  14.324  0.3844 -0.3378  0.5068
 2323SOL    HW218603   0.035   4.534  14.299 -0.1958  0.7358 -0.6850
 2324SOL     OW18604   1.850   0.467  12.314 -0.3181 -0.0706 -0.2237
 2324SOL    HW118605   1.871   0.430  12.400 -2.2564 -2.6482 -0.8645
 2324SOL    HW218606   1.920   0.528  12.292  1.0970 -1.2272  1.0608
 2325SOL     OW18607   3.944   3.397  11.052 -0.1001  0.4078  0.8794
 2325SOL    HW118608   3.870   3.337  11.046  0.4080  0.0398 -1.3722
 2325SOL    HW218609   3.998   3.347  11.114 -0.0251  1.1312  1.4114
 2326SOL     OW18610   2.751   2.551   3.389  0.0447  0.0061  0.1688
 2326SOL    HW118611   2.667   2.579   3.426 -0.0513 -0.5038  0.3320
 2326SOL    HW218612   2.728   2.543   3.297 -0.5355  0.2942  0.2857
 2327SOL     OW18613   3.460   0.132   5.611 -0.2538  0.6185 -0.2788
 2327SOL    HW118614   3.402   0.209   5.609  0.8014  1.3727 -1.2731
 2327SOL    HW218615   3.514   0.148   5.535  1.8221 -0.1849  1.0298
 2328SOL     OW18616   2.555   0.906   1.735 -0.5137  0.3445 -0.2940
 2328SOL    HW118617   2.595   0.941   1.814  0.1136  0.8554 -0.8403
 2328SOL    HW218618   2.476   0.959   1.748 -0.1750 -0.3560  4.3065
 2329SOL     OW18619   3.887   2.015   4.637  0.0559 -0.1224  0.1690
 2329SOL    HW118620   3.804   2.022   4.590  1.0249  0.1956 -1.5293
 2329SOL    HW218621   3.946   1.997   4.564 -2.7626 -0.3581 -2.0549
 2330SOL     OW18622   4.072   3.125   5.982  0.7139  0.3529 -0.0213
 2330SOL    HW118623   4.068   3.033   5.958  0.9699 -0.0127  1.3568
 2330SOL    HW218624   4.167   3.130   5.993  0.4874  0.7524  1.6254
 2331SOL     OW18625   1.078   4.211  15.182  0.2082 -0.1139 -0.3783
 2331SOL    HW118626   1.033   4.127  15.177 -0.2653  0.0585  1.1479
 2331SOL    HW218627   1.027   4.259  15.247 -0.0007 -0.5808 -0.1984
 2332SOL     OW18628   1.266   0.035  10.115 -0.4321  0.3833 -0.4108
 2332SOL    HW118629   1.177   0.005  10.133 -0.4563  0.3859 -0.5285
 2332SOL    HW218630   1.259   0.043  10.020  1.1121  3.0862 -0.2846
 2333SOL     OW18631   1.367   0.212   6.323  0.2381 -0.1077 -0.0251
 2333SOL    HW118632   1.402   0.129   6.292 -0.0321  0.3118 -1.4425
 2333SOL    HW218633   1.403   0.210   6.412 -0.3211 -0.2631  0.1963
 2334SOL     OW18634   3.635   1.161   3.597 -0.4428  0.3915  0.0358
 2334SOL    HW118635   3.563   1.149   3.535 -3.0510  0.3660  3.0284
 2334SOL    HW218636   3.627   1.252   3.627  0.6837  0.6692 -0.5160
 2335SOL     OW18637   3.152   4.236   7.072  0.4303  0.1593  0.2472
 2335SOL    HW118638   3.187   4.181   7.143 -1.9243  0.3262  1.5592
 2335SOL    HW218639   3.088   4.178   7.030  2.8284 -1.1947 -1.5192
 2336SOL     OW18640   3.761   2.413  11.031 -0.7815  0.4686  0.1650
 2336SOL    HW118641   3.808   2.340  10.990  1.1125  0.3162  2.5993
 2336SOL    HW218642   3.833   2.474  11.046  0.9344 -1.6772  0.7678
 2337SOL     OW18643   1.388   4.563   9.378 -0.1484  0.3967  0.0908
 2337SOL    HW118644   1.373   4.619   9.454 -3.3773 -2.1033  1.2489
 2337SOL    HW218645   1.306   4.521   9.352 -0.3661 -0.0644  1.5048
 2338SOL     OW18646   2.399   1.057   4.612 -0.0581  0.2393  0.3268
 2338SOL    HW118647   2.351   1.128   4.569  0.2514 -0.0132 -0.4323
 2338SOL    HW218648   2.422   0.999   4.539 -2.6518  1.4264 -1.4577
 2339SOL     OW18649   1.335   2.476   1.567  0.0206  0.0115  0.2004
 2339SOL    HW118650   1.352   2.545   1.503  1.2919  1.7981  2.4749
 2339SOL    HW218651   1.332   2.521   1.651 -2.7931 -2.2046  1.2767
 2340SOL     OW18652   3.387   3.258  16.363  0.7893  0.3861 -0.0410
 2340SOL    HW118653   3.392   3.268  16.458  3.3734  1.5967 -0.2838
 2340SOL    HW218654   3.344   3.173  16.358 -2.0551  1.8157  0.5666
 2341SOL     OW18655   1.056   1.214  16.027 -0.3425 -0.7221  0.7387
 2341SOL    HW118656   0.974   1.223  15.977  0.8144  1.1847 -0.8206
 2341SOL    HW218657   1.029   1.210  16.118 -1.1429 -0.7758  0.5031
 2342SOL     OW18658   3.339   2.224   3.325 -0.2868  0.2105 -0.3542
 2342SOL    HW118659   3.337   2.240   3.419  3.5661 -0.3995 -0.2015
 2342SOL    HW218660   3.387   2.297   3.286  0.3757 -0.0122  0.0532
 2343SOL     OW18661   3.416   1.324  12.293  0.4368 -0.2377 -0.0760
 2343SOL    HW118662   3.396   1.363  12.207  0.6225 -0.2306 -0.1162
 2343SOL    HW218663   3.508   1.301  12.283 -0.0711 -2.1887 -0.1781
 2344SOL     OW18664   1.059   3.040  10.181 -0.5490 -0.0993  0.3990
 2344SOL    HW118665   1.083   3.009  10.268 -2.7452 -0.3686  0.9090
 2344SOL    HW218666   1.065   3.135  10.184  2.3406 -0.2264 -0.5299
 2345SOL     OW18667   4.709   0.727   3.172 -0.8414  0.0547 -0.1166
 2345SOL    HW118668   0.004   0.805   3.130 -2.7702 -0.0491 -1.9898
 2345SOL    HW218669   4.625   0.763   3.201  0.6313  1.7374  2.0968
 2346SOL     OW18670   3.319   4.319   5.708 -0.1065 -0.1532 -0.4926
 2346SOL    HW118671   3.369   4.296   5.630  0.7355  1.5730 -0.4553
 2346SOL    HW218672   3.350   4.246   5.761 -1.0270  0.0056  0.2705
 2347SOL     OW18673   2.641   4.494   9.924 -0.3464 -0.2702 -0.3440
 2347SOL    HW118674   2.580   4.458   9.988 -0.7519  1.5246  0.2701
 2347SOL    HW218675   2.711   4.429   9.934 -0.5860 -0.5919 -0.7373
 2348SOL     OW18676   2.448   2.934   5.434  0.4011  0.1019  0.4568
 2348SOL    HW118677   2.393   2.896   5.366  1.8833 -2.1395  0.5215
 2348SOL    HW218678   2.431   3.028   5.425  2.0059  0.3668  0.0635
 2349SOL     OW18679   0.145   3.202  16.027 -0.5494  0.0807  0.5267
 2349SOL    HW118680   0.085   3.254  16.080  0.4344  1.8827 -0.1293
 2349SOL    HW218681   0.140   3.113  16.062 -0.1134 -0.6085 -1.1640
 2350SOL     OW18682   2.485   4.319   9.324 -0.2363 -0.3025  0.3801
 2350SOL    HW118683   2.504   4.408   9.295 -0.9585 -0.5051 -0.7398
 2350SOL    HW218684   2.453   4.273   9.246 -1.8152  0.0519  0.8065
 2351SOL     OW18685   0.666   1.915  11.993  0.5180 -0.0933  0.2867
 2351SOL    HW118686   0.657   1.823  11.966 -0.7537  0.2757 -0.5218
 2351SOL    HW218687   0.623   1.918  12.078  1.0403  4.5378  0.3599
 2352SOL     OW18688   1.991   3.598   2.399  0.4513  0.0655 -0.1632
 2352SOL    HW118689   2.048   3.640   2.334  3.0160 -2.0447  0.6973
 2352SOL    HW218690   1.942   3.670   2.437  0.7009 -1.3041  2.7199
 2353SOL     OW18691   4.721   4.144   8.164  0.1734  0.1610 -0.0284
 2353SOL    HW118692   4.651   4.111   8.107  1.1865  0.0296 -1.1768
 2353SOL    HW218693   4.713   4.234   8.131  1.3964  0.3310  0.1439
 2354SOL     OW18694   4.290   0.062   1.939  0.3639 -0.7222 -0.5384
 2354SOL    HW118695   4.273   0.003   2.013 -1.1515  1.3957  0.7713
 2354SOL    HW218696   4.213   0.039   1.888 -0.9436  1.8075  0.3230
 2355SOL     OW18697   0.077   3.878   0.370  0.0796  0.3466  0.2525
 2355SOL    HW118698   0.133   3.859   0.295 -1.3732 -0.0548 -0.7266
 2355SOL    HW218699   0.145   3.874   0.438 -0.4446  0.0919  0.7593
 2356SOL     OW18700   1.351   4.425   6.736 -0.1768  0.2307 -0.2307
 2356SOL    HW118701   1.257   4.411   6.748  0.2773 -1.9343  0.7384
 2356SOL    HW218702   1.380   4.416   6.827 -0.1245 -1.6378 -0.4213
 2357SOL     OW18703   1.020   0.052   3.916  0.5695 -0.3090 -0.0920
 2357SOL    HW118704   1.052   0.141   3.931  2.3680 -0.7581 -1.3385
 2357SOL    HW218705   1.100   0.019   3.876  1.9478  1.2835  1.3634
 2358SOL     OW18706   2.885   0.011   4.688 -0.5284 -0.3907  0.4835
 2358SOL    HW118707   2.980   0.026   4.694 -0.0682 -3.3616  0.3532
 2358SOL    HW218708   2.878   4.665   4.650  1.3400 -0.2260 -0.2289
 2359SOL     OW18709   2.176   2.219   9.067  0.3323  0.2438  0.3430
 2359SOL    HW118710   2.143   2.130   9.057  1.6751  0.1189 -2.9048
 2359SOL    HW218711   2.091   2.265   9.061  1.4856  2.3920  0.4329
 2360SOL     OW18712   0.454   2.766   8.708  0.6726  0.0869  0.2821
 2360SOL    HW118713   0.366   2.770   8.672 -0.1664  0.4296  2.3805
 2360SOL    HW218714   0.458   2.673   8.686  2.5348 -0.1943  1.7764
 2361SOL     OW18715   1.528   4.110  17.605  0.6735 -0.1834  0.1161
 2361SOL    HW118716   1.608   4.074  17.567  1.3571  1.3677  0.0826
 2361SOL    HW218717   1.516   4.198  17.571 -0.8699 -0.1370  0.7800
 2362SOL     OW18718   1.394   2.357  16.750 -0.1015 -0.0166 -0.3558
 2362SOL    HW118719   1.336   2.335  16.677  0.2490 -0.3310 -0.5371
 2362SOL    HW218720   1.402   2.272  16.792  0.6440  1.7810  3.1481
 2363SOL     OW18721   2.019   4.669   8.476  0.3959  0.0255  0.3174
 2363SOL    HW118722   2.079   4.608   8.520  1.5269 -1.0765 -2.7788
 2363SOL    HW218723   2.042   4.651   8.385  0.4412 -0.3785  0.4062
 2364SOL     OW18724   2.270   2.583   2.955  0.1069 -0.2620 -0.3138
 2364SOL    HW118725   2.253   2.664   2.906  0.9783 -0.6107 -1.1900
 2364SOL    HW218726   2.222   2.511   2.914  0.4536 -0.4601 -0.3745
 2365SOL     OW18727   1.540   3.092   2.772 -0.1236  0.2847  0.2410
 2365SOL    HW118728   1.520   3.149   2.698  1.1843  0.7338  0.2338
 2365SOL    HW218729   1.534   3.009   2.725 -0.8747  1.0588 -1.0351
 2366SOL     OW18730   0.470   2.851   5.880  0.3755  0.1958  0.6433
 2366SOL    HW118731   0.427   2.820   5.960  0.0924 -0.8240  0.0916
 2366SOL    HW218732   0.559   2.848   5.916  0.3888 -1.2779  0.4969
 2367SOL     OW18733   0.727   3.236   7.443 -0.3732  0.2774  0.2892
 2367SOL    HW118734   0.667   3.162   7.456  0.3586  0.2194  3.3795
 2367SOL    HW218735   0.694   3.250   7.354 -0.4545 -0.2523  0.2328
 2368SOL     OW18736   3.173   4.562   2.267  0.4151  0.2511  0.2885
 2368SOL    HW118737   3.241   4.624   2.241  2.8081 -2.0816  1.0521
 2368SOL    HW218738   3.221   4.499   2.320 -1.8885 -2.0920 -0.3936
 2369SOL     OW18739   4.055   2.224   5.754  0.4759 -0.3253  0.0295
 2369SOL    HW118740   4.139   2.254   5.789 -0.4257 -0.9663  2.7987
 2369SOL    HW218741   4.008   2.212   5.836 -1.6717 -0.7188 -1.2639
 2370SOL     OW18742   0.158   4.504   6.397 -0.3475  0.2250 -0.1192
 2370SOL    HW118743   0.150   4.519   6.302 -1.9033 -2.3624 -0.3864
 2370SOL    HW218744   0.108   4.422   6.399  0.7282 -0.3754  2.2479
 2371SOL     OW18745   3.906   0.753   6.469  0.6635  0.0474 -0.2139
 2371SOL    HW118746   3.939   0.791   6.550 -1.1256  0.5795  0.2698
 2371SOL    HW218747   3.951   0.669   6.471  0.8179  0.1570  0.6911
 2372SOL     OW18748   2.597   2.688   4.395 -0.0087 -0.2578  0.4041
 2372SOL    HW118749   2.548   2.686   4.313  0.8283  0.1181 -0.1077
 2372SOL    HW218750   2.597   2.784   4.392  3.5177 -0.2776  0.0856
 2373SOL     OW18751   2.394   2.714  15.965 -0.2170 -0.3723 -0.2841
 2373SOL    HW118752   2.381   2.806  15.943  1.2125 -0.0835  0.0587
 2373SOL    HW218753   2.306   2.682  15.986  0.1238 -0.3104  1.2344
 2374SOL     OW18754   3.987   0.250  14.494 -0.2374  0.1444  0.4697
 2374SOL    HW118755   4.041   0.317  14.453  0.2583 -1.5073 -1.6318
 2374SOL    HW218756   3.898   0.281  14.476 -0.9108 -1.5201  0.9292
 2375SOL     OW18757   0.325   4.719   5.045  0.1914  0.2822 -0.3210
 2375SOL    HW118758   0.285   4.639   5.013  1.5222  0.3698 -2.2356
 2375SOL    HW218759   0.404   4.688   5.090  0.2084 -0.7713 -1.0839
 2376SOL     OW18760   1.867   3.038   6.866 -0.1402 -0.2145 -0.1132
 2376SOL    HW118761   1.822   3.067   6.787 -0.6231  0.7351  0.5091
 2376SOL    HW218762   1.790   3.025   6.922  1.6219  1.6290  2.7248
 2377SOL     OW18763   0.125   4.620   9.107  0.3751  0.3791  0.2219
 2377SOL    HW118764   0.038   4.583   9.093  1.1692 -0.4808 -2.3383
 2377SOL    HW218765   0.096   4.694   9.161  1.7906  0.8882  0.3065
 2378SOL     OW18766   0.671   1.035   7.457 -0.2853  0.0877 -0.3229
 2378SOL    HW118767   0.598   0.985   7.495  1.0925 -1.0060  0.9070
 2378SOL    HW218768   0.728   1.024   7.533 -0.5195 -2.5512 -0.5179
 2379SOL     OW18769   0.538   0.476   3.401 -0.0838  0.3800  0.5553
 2379SOL    HW118770   0.528   0.474   3.497 -1.6157  1.2952  0.4058
 2379SOL    HW218771   0.596   0.402   3.384 -0.2792  0.5760 -0.9537
 2380SOL     OW18772   3.855   0.771   4.311 -0.3086 -0.4278  0.2781
 2380SOL    HW118773   3.792   0.701   4.328 -0.5591 -0.1768  0.3774
 2380SOL    HW218774   3.876   0.755   4.219  3.6446  0.1713  1.0941
 2381SOL     OW18775   3.731   2.716   9.185 -0.6342  0.2877  0.2713
 2381SOL    HW118776   3.765   2.656   9.119  0.3207 -1.6890  2.5418
 2381SOL    HW218777   3.705   2.796   9.140  2.8319  0.3102 -1.6554
 2382SOL     OW18778   3.448   1.082   7.940 -0.3582  0.5529  0.5110
 2382SOL    HW118779   3.514   1.108   8.004 -1.0531 -1.2717  1.9770
 2382SOL    HW218780   3.500   1.056   7.864  0.3672  0.6344  0.9771
 2383SOL     OW18781   1.004   2.844   4.915 -0.4120 -0.4720 -0.2981
 2383SOL    HW118782   1.011   2.800   5.000 -0.8015 -0.9819 -0.5312
 2383SOL    HW218783   1.054   2.788   4.857  1.4538  0.6731  0.2285
 2384SOL     OW18784   3.109   4.644   9.937 -0.0372 -0.6332 -0.3243
 2384SOL    HW118785   3.098   4.625   9.844 -0.4499 -2.6735  0.1392
 2384SOL    HW218786   3.035   4.599   9.979 -0.6587  1.4425  0.7969
 2385SOL     OW18787   1.700   1.376   8.303  0.0248 -0.3154  0.1813
 2385SOL    HW118788   1.709   1.289   8.264  0.7354  0.4507 -1.4021
 2385SOL    HW218789   1.792   1.402   8.303  0.0925 -0.5574 -0.9571
 2386SOL     OW18790   1.458   0.887   6.844 -0.5591  0.3413  0.2892
 2386SOL    HW118791   1.458   0.957   6.778 -2.3947 -1.1699 -1.3213
 2386SOL    HW218792   1.541   0.842   6.825 -2.0485 -2.5267  0.5233
 2387SOL     OW18793   4.694   2.454   6.552  0.0844 -0.4464 -0.4957
 2387SOL    HW118794   4.690   2.517   6.481 -0.6216  2.0835  1.7572
 2387SOL    HW218795   4.721   2.506   6.628 -0.5848 -4.1357  2.2750
 2388SOL     OW18796   0.680   1.805   8.670 -0.1802  0.0570 -0.8558
 2388SOL    HW118797   0.774   1.818   8.684  0.1612 -0.5818 -2.5807
 2388SOL    HW218798   0.667   1.743   8.741  3.1684 -1.5463 -1.6154
 2389SOL     OW18799   0.801   0.566   7.206 -0.0339  0.0079 -0.1589
 2389SOL    HW118800   0.892   0.589   7.224 -0.4432  0.3378  1.4679
 2389SOL    HW218801   0.829   0.524   7.124  0.0567 -1.1768  0.4764
 2390SOL     OW18802   2.715   3.354   7.683 -0.3030  0.3555  0.3339
 2390SOL    HW118803   2.706   3.408   7.605 -1.5153 -0.4961 -0.1283
 2390SOL    HW218804   2.742   3.412   7.754  2.7551  1.5790 -1.8463
 2391SOL     OW18805   3.869   1.794   7.338  0.8203  0.1359 -0.5797
 2391SOL    HW118806   3.894   1.723   7.279  2.5515  0.1717  0.1109
 2391SOL    HW218807   3.825   1.857   7.280 -2.5240 -2.1011 -0.4563
 2392SOL     OW18808   3.308   1.284   5.058  0.0398  0.1159  0.0929
 2392SOL    HW118809   3.252   1.234   5.117  1.2165 -1.8304 -0.4377
 2392SOL    HW218810   3.246   1.355   5.044  1.3937  1.4928  1.0800
 2393SOL     OW18811   4.130   0.302   6.113 -0.7586 -0.6345 -0.2939
 2393SOL    HW118812   4.083   0.362   6.054 -1.4991  0.1385  1.0832
 2393SOL    HW218813   4.195   0.272   6.050 -0.9019  2.1632 -1.7872
 2394SOL     OW18814   1.470   0.372   4.977  0.3129 -0.3758  0.2053
 2394SOL    HW118815   1.383   0.343   5.006 -0.5025  0.6076 -1.2609
 2394SOL    HW218816   1.512   0.328   5.051  0.7911 -0.5305 -0.1617
 2395SOL     OW18817   0.838   2.976  17.410 -0.1267 -0.1896  0.1800
 2395SOL    HW118818   0.920   2.928  17.403 -1.2228 -1.6399 -2.4620
 2395SOL    HW218819   0.778   2.929  17.353  1.1952 -2.7036  0.8599
 2396SOL     OW18820   0.453   1.627   7.738 -0.3765 -0.5786 -1.1861
 2396SOL    HW118821   0.385   1.679   7.781 -0.7696 -0.3405 -2.0765
 2396SOL    HW218822   0.463   1.557   7.801  2.4938  0.9738  0.0715
 2397SOL     OW18823   1.554   0.482   4.710 -0.2820  0.4312  0.0239
 2397SOL    HW118824   1.537   0.466   4.803 -0.9926 -1.5223 -0.4515
 2397SOL    HW218825   1.606   0.410   4.675 -0.7090 -0.9555  2.2513
 2398SOL     OW18826   4.045   4.182   8.025 -0.7788 -0.3904 -0.1182
 2398SOL    HW118827   4.053   4.134   8.108  0.6564  2.7985  1.6198
 2398SOL    HW218828   4.081   4.268   8.050  0.2509 -0.6364 -0.7671
 2399SOL     OW18829   0.487   4.067   6.065 -0.5452  0.0635  0.2456
 2399SOL    HW118830   0.477   4.132   5.995 -1.2893 -0.9784 -0.6167
 2399SOL    HW218831   0.456   4.119   6.139 -0.2698 -0.1451  0.5081
 2400SOL     OW18832   0.760   1.727  11.246  0.1855 -0.6662  0.3064
 2400SOL    HW118833   0.714   1.785  11.185  3.1024  2.5982  1.1667
 2400SOL    HW218834   0.692   1.728  11.313 -1.6167  0.1739 -1.5561
 2401SOL     OW18835   4.315   2.157  17.374 -0.3887  0.3458  0.4273
 2401SOL    HW118836   4.228   2.138  17.411 -1.1912  0.0383 -1.5968
 2401SOL    HW218837   4.312   2.252  17.385 -2.5518  0.5104 -1.5612
 2402SOL     OW18838   1.921   0.847   5.916 -0.4337  0.2322  0.7813
 2402SOL    HW118839   1.955   0.928   5.876 -0.2651  0.8366  2.1355
 2402SOL    HW218840   1.829   0.870   5.905  0.0583  1.7734 -0.1033
 2403SOL     OW18841   0.824   1.629   4.025 -0.2134 -0.1125  0.1831
 2403SOL    HW118842   0.737   1.598   4.050 -0.9424  2.8135  1.3596
 2403SOL    HW218843   0.879   1.557   4.055 -1.2240 -0.0044  2.3665
 2404SOL     OW18844   0.300   1.330   9.965 -0.3628 -0.2973  0.6057
 2404SOL    HW118845   0.285   1.333  10.060  1.2914 -2.4893  0.9245
 2404SOL    HW218846   0.375   1.387   9.950 -0.3316 -1.2723 -2.8568
 2405SOL     OW18847   4.349   0.031   8.546 -0.1498  0.3140  0.0650
 2405SOL    HW118848   4.289   4.725   8.604 -1.9022  2.3065 -0.1131
 2405SOL    HW218849   4.404   4.704   8.508 -1.3719 -0.5288 -0.1626
 2406SOL     OW18850   0.794   3.143   4.436  0.2764 -0.6255  0.1060
 2406SOL    HW118851   0.722   3.090   4.469  0.6153 -2.2209 -1.7463
 2406SOL    HW218852   0.764   3.233   4.450 -0.7922 -1.0188  0.3007
 2407SOL     OW18853   2.180   2.137  15.797 -0.2830 -0.5065 -0.2259
 2407SOL    HW118854   2.234   2.078  15.744  0.7084  0.6909 -0.5494
 2407SOL    HW218855   2.219   2.224  15.794 -2.4423  0.4324 -1.1624
 2408SOL     OW18856   2.913   3.682   4.008 -0.4444  0.0135 -0.2945
 2408SOL    HW118857   2.923   3.774   3.985  2.6206 -0.4390 -0.7601
 2408SOL    HW218858   2.839   3.691   4.068 -0.9299 -2.4426 -0.5041
 2409SOL     OW18859   3.651   1.944   8.299  0.0734 -0.7830  0.0305
 2409SOL    HW118860   3.698   1.902   8.371  0.7033 -0.5123 -0.2276
 2409SOL    HW218861   3.606   1.871   8.255 -0.5574  0.4594 -1.3677
 2410SOL     OW18862   3.897   3.297   4.942 -0.0158 -0.1799  0.3551
 2410SOL    HW118863   3.910   3.204   4.957 -2.2397 -0.6927 -0.8718
 2410SOL    HW218864   3.876   3.284   4.849  0.1458 -1.7691  0.5558
 2411SOL     OW18865   1.750   4.093   1.969  0.0196  0.0279  0.1292
 2411SOL    HW118866   1.785   4.041   2.041 -0.2795  1.7213  1.4949
 2411SOL    HW218867   1.806   4.073   1.894  0.7610 -0.9601  0.9574
 2412SOL     OW18868   4.221   2.241   3.716  0.1117 -0.4373  0.4163
 2412SOL    HW118869   4.264   2.303   3.776  1.1349 -0.5146 -0.2260
 2412SOL    HW218870   4.295   2.186   3.689  0.0903  0.5510 -1.6850
 2413SOL     OW18871   2.295   0.049   4.081 -0.3447  0.1483 -0.4892
 2413SOL    HW118872   2.246   4.709   4.069 -0.0922  0.0852 -1.1026
 2413SOL    HW218873   2.239   0.105   4.135 -0.5116  1.1873 -1.7558
 2414SOL     OW18874   2.137   0.319   2.906  0.1660 -0.7008 -0.1097
 2414SOL    HW118875   2.077   0.329   2.832 -0.9576  2.6296  1.2566
 2414SOL    HW218876   2.135   0.411   2.934  2.7676 -0.3714 -1.0052
 2415SOL     OW18877   2.362   1.330   7.182 -0.6911 -0.4883 -0.0820
 2415SOL    HW118878   2.352   1.271   7.257 -0.5214 -2.7104 -1.8173
 2415SOL    HW218879   2.358   1.419   7.216 -0.3609 -1.1488  1.7004
 2416SOL     OW18880   0.839   2.080  15.692 -0.3132  0.2619  0.0420
 2416SOL    HW118881   0.801   2.146  15.750 -0.1011  1.5481 -1.2762
 2416SOL    HW218882   0.906   2.043  15.750  1.0198  2.1422 -0.3076
 2417SOL     OW18883   0.858   4.637   8.090 -0.2349  0.0370 -0.4100
 2417SOL    HW118884   0.869   4.544   8.110  0.6649 -0.1015 -1.5487
 2417SOL    HW218885   0.825   4.657   8.177  2.3172 -1.4641  0.8896
 2418SOL     OW18886   3.670   4.010   6.532  0.1420 -0.3770  0.2028
 2418SOL    HW118887   3.581   3.977   6.525 -0.9553  3.5025 -4.1124
 2418SOL    HW218888   3.717   3.928   6.517  0.6466  0.1474 -1.1568
 2419SOL     OW18889   0.186   3.291   2.225 -0.6831 -0.0230  0.8792
 2419SOL    HW118890   0.232   3.283   2.308 -0.7189 -0.9560  0.8077
 2419SOL    HW218891   0.150   3.204   2.211 -0.9032 -0.0614  1.6704
 2420SOL     OW18892   1.186   4.347   5.893  0.0225 -0.2731 -0.3335
 2420SOL    HW118893   1.154   4.300   5.816 -0.3942 -0.0277 -0.3081
 2420SOL    HW218894   1.222   4.421   5.845  2.6593 -1.2235  0.1604
 2421SOL     OW18895   4.054   2.661  13.411  0.1247 -0.3715  0.0529
 2421SOL    HW118896   4.086   2.650  13.321 -1.3866 -3.8188 -0.0767
 2421SOL    HW218897   3.975   2.608  13.404 -0.5086  0.6227 -0.3080
 2422SOL     OW18898   1.767   4.127  10.152 -0.4610 -0.1769  0.1165
 2422SOL    HW118899   1.784   4.116  10.246  1.7306 -0.1126 -0.2679
 2422SOL    HW218900   1.715   4.207  10.150  1.3824  1.0054 -0.5743
 2423SOL     OW18901   4.222   1.911   6.453 -0.3558  0.5080  0.0018
 2423SOL    HW118902   4.305   1.865   6.468 -0.1383  0.4159 -1.5001
 2423SOL    HW218903   4.257   1.971   6.388 -1.3586  1.8346  0.6917
 2424SOL     OW18904   2.615   0.900   5.205 -0.4677 -0.3642 -0.6962
 2424SOL    HW118905   2.675   0.971   5.181 -1.2144  0.2862 -0.6535
 2424SOL    HW218906   2.653   0.838   5.143  1.6785  1.3709 -1.1398
 2425SOL     OW18907   1.748   1.721   5.135 -0.0044  0.0698 -0.0221
 2425SOL    HW118908   1.741   1.646   5.194  0.2471  0.1644  0.1283
 2425SOL    HW218909   1.823   1.760   5.180 -0.5349  2.9745 -1.6268
 2426SOL     OW18910   4.007   1.649   4.987  0.2542  0.1315 -0.6949
 2426SOL    HW118911   4.087   1.611   5.025  0.2760  0.7692 -0.0873
 2426SOL    HW218912   3.981   1.584   4.922  0.7767  0.8696 -1.6389
 2427SOL     OW18913   2.391   1.026   4.057  0.2313  0.0828 -0.5266
 2427SOL    HW118914   2.322   0.960   4.050  0.5932 -0.4530  1.0451
 2427SOL    HW218915   2.365   1.092   3.993  0.2346  1.1140  0.5355
 2428SOL     OW18916   4.043   2.066  13.024 -0.3342  0.1765  0.2206
 2428SOL    HW118917   4.022   2.039  12.934  0.5497  1.7278 -0.4476
 2428SOL    HW218918   3.999   2.149  13.041  1.3460  1.4187 -1.5565
 2429SOL     OW18919   4.664   0.492   2.600 -0.2775 -0.3009 -0.3792
 2429SOL    HW118920   4.671   0.456   2.511 -0.7309  1.1381 -1.0013
 2429SOL    HW218921   4.728   0.562   2.609  1.1231 -1.2737 -2.6885
 2430SOL     OW18922   4.336   4.740  16.059  0.1751  0.0425 -0.2944
 2430SOL    HW118923   4.355   0.080  16.011  1.6131 -0.3160 -0.3387
 2430SOL    HW218924   4.250   0.022  16.093  0.4630  0.2645  0.2786
 2431SOL     OW18925   2.592   4.221   7.385 -0.2079  0.3769  0.2405
 2431SOL    HW118926   2.655   4.273   7.336  0.7174  0.3613  1.4006
 2431SOL    HW218927   2.526   4.194   7.321  0.9042 -0.4195 -0.5642
 2432SOL     OW18928   0.576   0.364   2.724  0.1116  0.0974  0.6274
 2432SOL    HW118929   0.587   0.455   2.694 -1.3182  0.1886  0.3550
 2432SOL    HW218930   0.624   0.320   2.654  0.1807  0.8142  0.2178
 2433SOL     OW18931   4.312   0.775   9.125 -0.3566  0.0120  0.1245
 2433SOL    HW118932   4.329   0.728   9.206 -1.3931  0.0502  0.3686
 2433SOL    HW218933   4.399   0.804   9.099  0.3433  1.0067  3.5811
 2434SOL     OW18934   0.028   3.028   8.403  0.3204  0.6769  0.4954
 2434SOL    HW118935   0.021   3.081   8.325  2.1298  1.1764  0.6678
 2434SOL    HW218936   0.111   2.981   8.389 -0.4119 -0.3429 -0.4737
 2435SOL     OW18937   3.535   3.610   1.737 -0.0768  0.1287  0.1311
 2435SOL    HW118938   3.472   3.670   1.778  0.2887  1.8693 -1.9300
 2435SOL    HW218939   3.514   3.525   1.776 -1.0354  0.6273  0.7124
 2436SOL     OW18940   3.572   0.733   3.802  0.4230  0.4066 -0.3489
 2436SOL    HW118941   3.560   0.656   3.747 -1.4016  0.3431  0.1335
 2436SOL    HW218942   3.517   0.794   3.752  0.1264  0.4777  0.0683
 2437SOL     OW18943   0.591   4.616   3.466 -0.5332  0.5389  0.2642
 2437SOL    HW118944   0.513   4.596   3.519  0.4968  1.2774  2.0493
 2437SOL    HW218945   0.568   4.571   3.385  0.0653 -0.0149  0.4050
 2438SOL     OW18946   1.397   2.519   3.960  0.4331 -0.3081 -0.1973
 2438SOL    HW118947   1.467   2.584   3.959  1.1333 -1.0666 -0.0919
 2438SOL    HW218948   1.402   2.495   4.052  2.4810 -0.1473 -0.2798
 2439SOL     OW18949   0.082   1.754   1.430 -0.0093  0.1554 -0.0556
 2439SOL    HW118950   0.055   1.765   1.521  0.8856  0.6693  0.1604
 2439SOL    HW218951   0.174   1.739   1.453  0.1843 -0.3656 -1.1890
 2440SOL     OW18952   3.861   2.956   0.613 -0.2820 -0.4509 -0.1233
 2440SOL    HW118953   3.786   2.961   0.554  0.4534  1.0072 -0.9328
 2440SOL    HW218954   3.838   2.868   0.642  0.4012 -0.4591  0.4020
 2441SOL     OW18955   4.146   3.864   2.109 -0.3888  0.0414  0.6506
 2441SOL    HW118956   4.214   3.882   2.174 -1.3067 -0.5276  1.7595
 2441SOL    HW218957   4.079   3.820   2.161  0.9526 -2.2652  0.4375
 2442SOL     OW18958   4.379   3.718  12.549 -0.7421  0.1877  0.2282
 2442SOL    HW118959   4.401   3.639  12.501  1.8623  0.6571  0.6750
 2442SOL    HW218960   4.445   3.721  12.619  0.5429  2.0362 -1.0682
 2443SOL     OW18961   1.932   0.175  14.048  0.5216  0.1657  0.9597
 2443SOL    HW118962   1.906   0.259  14.011  0.2670 -0.2347  0.2381
 2443SOL    HW218963   2.022   0.164  14.016 -0.0366 -0.4404 -0.3677
 2444SOL     OW18964   0.328   2.188   1.740 -0.3992  0.8199  0.0923
 2444SOL    HW118965   0.262   2.245   1.701  0.9905  1.8417 -0.7293
 2444SOL    HW218966   0.390   2.255   1.768  0.9815 -0.1640 -0.5947
 2445SOL     OW18967   2.786   3.015   9.145 -0.3638 -0.2082  0.0965
 2445SOL    HW118968   2.778   2.987   9.054  0.7585 -0.7178  0.1647
 2445SOL    HW218969   2.797   2.932   9.191  1.3276  0.7919  1.5443
 2446SOL     OW18970   0.064   1.111  16.011 -0.6085 -0.1288  0.3421
 2446SOL    HW118971   0.045   1.032  15.962 -0.6215 -0.6931  1.2595
 2446SOL    HW218972   4.722   1.123  16.057 -0.6771 -0.5708  0.3266
 2447SOL     OW18973   1.011   4.086  13.409 -0.1723 -0.2364  0.3361
 2447SOL    HW118974   0.947   4.131  13.464 -1.7080  0.2160 -1.8200
 2447SOL    HW218975   1.047   4.157  13.357  1.1692 -1.1535  0.0153
 2448SOL     OW18976   0.237   0.065   5.874 -0.0356 -0.2713 -0.5888
 2448SOL    HW118977   0.217   0.149   5.913  0.1225 -0.8027  0.6334
 2448SOL    HW218978   0.150   0.029   5.861 -0.6368  1.4704 -1.3282
 2449SOL     OW18979   1.148   0.593   2.817 -0.1729 -0.6092 -0.2780
 2449SOL    HW118980   1.157   0.530   2.889 -3.5124  0.0360  0.7072
 2449SOL    HW218981   1.192   0.564   2.737 -0.3167  3.6565 -1.9011
 2450SOL     OW18982   2.872   3.725   6.675 -0.0379 -0.3210 -0.1143
 2450SOL    HW118983   2.838   3.637   6.662 -0.4447 -0.4857  2.2102
 2450SOL    HW218984   2.826   3.737   6.758  1.7205 -1.5784  1.0465
 2451SOL     OW18985   1.503   4.268   5.282 -0.3642  0.8231 -0.1008
 2451SOL    HW118986   1.457   4.352   5.290 -0.8012  0.4192  1.5295
 2451SOL    HW218987   1.514   4.264   5.187  0.2337 -1.2302  0.0759
 2452SOL     OW18988   3.658   2.117  17.407 -0.0188 -0.0287  0.2736
 2452SOL    HW118989   3.678   2.161  17.489 -0.1436 -1.8717  1.2725
 2452SOL    HW218990   3.729   2.147  17.350 -1.6158  0.5356 -1.4558
 2453SOL     OW18991   2.543   0.647   8.271  0.1479 -0.3214  0.3807
 2453SOL    HW118992   2.613   0.585   8.293  1.0165  0.4968 -0.0942
 2453SOL    HW218993   2.472   0.589   8.243  0.2850 -0.9375  1.2865
 2454SOL     OW18994   2.452   2.946   8.827  0.3894  0.1243  0.1807
 2454SOL    HW118995   2.527   2.914   8.776 -0.7628 -1.5977 -0.4392
 2454SOL    HW218996   2.387   2.876   8.819  1.2542 -0.9787  2.8323
 2455SOL     OW18997   1.595   4.111   7.729  0.2131  0.0111 -0.1314
 2455SOL    HW118998   1.574   4.042   7.667  3.7340  0.6478 -2.0496
 2455SOL    HW218999   1.525   4.175   7.715 -0.9459 -1.3660 -0.5652
 2456SOL     OW19000   2.363   0.844   7.331 -0.0709 -0.0902 -0.0515
 2456SOL    HW119001   2.445   0.893   7.339  0.3090 -0.4171 -1.9326
 2456SOL    HW219002   2.344   0.828   7.424  2.1515 -1.4787  0.1824
 2457SOL     OW19003   1.066   2.067   4.995 -0.0765 -0.1016  0.0157
 2457SOL    HW119004   1.071   1.977   5.026  0.6544 -0.3244 -0.7402
 2457SOL    HW219005   1.012   2.108   5.063  2.1996  2.3364  0.3368
 2458SOL     OW19006   1.433   0.265   8.568 -0.0646  0.0992 -0.3783
 2458SOL    HW119007   1.431   0.172   8.591 -1.3507  0.0429 -0.7482
 2458SOL    HW219008   1.467   0.252   8.480  0.6585  0.4883 -0.1576
 2459SOL     OW19009   3.551   3.207   1.697 -0.4061 -0.2108 -0.8056
 2459SOL    HW119010   3.547   3.269   1.624 -0.5426  1.0583  0.2723
 2459SOL    HW219011   3.471   3.157   1.677 -1.1023  0.7579 -0.4309
 2460SOL     OW19012   2.043   4.259   2.171 -0.5396 -0.0940  0.0276
 2460SOL    HW119013   2.015   4.173   2.139  0.2255  0.3367 -1.7884
 2460SOL    HW219014   1.976   4.311   2.126 -0.8179 -1.0464 -0.6563
 2461SOL     OW19015   0.571   1.680  10.707 -0.5243  0.0949 -0.1161
 2461SOL    HW119016   0.649   1.627  10.725 -0.9699 -0.6204 -0.2905
 2461SOL    HW219017   0.500   1.625  10.740  0.2689 -0.3628  0.8430
 2462SOL     OW19018   0.624   4.601  12.882  0.0277  0.3885 -0.0147
 2462SOL    HW119019   0.592   4.516  12.911  1.5778 -0.2086 -0.0942
 2462SOL    HW219020   0.643   4.647  12.964 -0.9074 -0.5481  0.7261
 2463SOL     OW19021   1.533   1.004   5.520  0.4705 -0.4109 -0.2044
 2463SOL    HW119022   1.446   0.974   5.547  0.1615 -1.4115 -2.3365
 2463SOL    HW219023   1.518   1.083   5.467  0.3732  0.0467  0.5032
 2464SOL     OW19024   0.795   4.521   1.591 -0.1143  0.0579 -0.2287
 2464SOL    HW119025   0.718   4.568   1.562 -0.7601 -1.1801 -0.4941
 2464SOL    HW219026   0.845   4.593   1.629 -0.4818  1.1281 -1.8359
 2465SOL     OW19027   0.889   1.058   6.671 -0.6140 -0.5393 -0.2323
 2465SOL    HW119028   0.973   1.014   6.683  0.0360  0.6559 -0.4042
 2465SOL    HW219029   0.916   1.138   6.716 -2.1211 -1.0416  1.5251
 2466SOL     OW19030   4.686   1.182  15.071  0.2068 -0.0261 -0.4147
 2466SOL    HW119031   4.646   1.142  14.993 -0.1531  0.2064 -0.3499
 2466SOL    HW219032   4.710   1.101  15.116  0.2610  0.6579  0.7718
 2467SOL     OW19033   3.307   4.315  15.897  0.4474 -0.5715 -0.1811
 2467SOL    HW119034   3.258   4.232  15.889  0.1851 -0.4108 -0.2322
 2467SOL    HW219035   3.262   4.343  15.977  0.7545  0.8673 -0.5279
 2468SOL     OW19036   4.310   4.264  14.451  0.0051  0.0077 -0.5875
 2468SOL    HW119037   4.336   4.264  14.543  3.6640 -1.9016 -1.6123
 2468SOL    HW219038   4.291   4.173  14.431 -0.3622 -0.4642  1.8778
 2469SOL     OW19039   3.280   2.701   0.778  0.3016 -0.6311 -0.0327
 2469SOL    HW119040   3.264   2.608   0.761 -2.6639  0.1392 -1.4354
 2469SOL    HW219041   3.323   2.728   0.696  0.1383 -1.1689 -0.3001
 2470SOL     OW19042   2.936   4.386   9.177  0.4235  0.7389 -0.5269
 2470SOL    HW119043   2.901   4.473   9.198  0.9769  0.3646  1.9522
 2470SOL    HW219044   2.907   4.357   9.090 -2.9269 -1.9886  1.5194
 2471SOL     OW19045   4.336   0.110   4.000  0.2168  0.7013 -0.3863
 2471SOL    HW119046   4.331   0.054   3.923  0.7281  0.2134 -0.0548
 2471SOL    HW219047   4.428   0.136   4.001 -0.5167  3.3675  1.0472
 2472SOL     OW19048   4.176   2.952   0.633 -0.3105  0.1985 -0.0516
 2472SOL    HW119049   4.090   2.930   0.670  0.1476  0.1579  0.9907
 2472SOL    HW219050   4.165   3.024   0.571  1.0302  0.6060  0.1786
 2473SOL     OW19051   2.536   3.096   6.061  0.7797 -0.9635  0.4898
 2473SOL    HW119052   2.449   3.057   6.068  0.5682 -1.1696 -3.2619
 2473SOL    HW219053   2.558   3.030   5.995 -3.6975 -2.6817  0.6762
 2474SOL     OW19054   3.801   1.750   7.704 -0.1712  0.6813 -0.0131
 2474SOL    HW119055   3.883   1.732   7.659  0.9039  2.5602  1.1881
 2474SOL    HW219056   3.752   1.767   7.623 -1.1952 -0.0088  0.4537
 2475SOL     OW19057   0.528   3.425   1.945  0.0854 -0.3004  0.2507
 2475SOL    HW119058   0.496   3.424   1.854  1.1033  1.4246 -0.1396
 2475SOL    HW219059   0.538   3.331   1.958  0.6362 -0.1352  1.0497
 2476SOL     OW19060   3.472   0.906  11.189  0.2501  0.1558  0.1635
 2476SOL    HW119061   3.567   0.903  11.175  0.3670 -2.6512  1.6092
 2476SOL    HW219062   3.454   0.993  11.153  1.4684 -0.1083 -1.0816
 2477SOL     OW19063   0.654   2.593  13.461 -0.4597 -0.0901 -0.1228
 2477SOL    HW119064   0.644   2.517  13.518 -0.4464  1.6264  2.1673
 2477SOL    HW219065   0.595   2.658  13.500 -0.9517 -0.9573  0.5728
 2478SOL     OW19066   0.110   2.012   6.215 -0.0607 -0.1055  0.5692
 2478SOL    HW119067   0.030   2.000   6.267  0.6861 -1.5007  1.3956
 2478SOL    HW219068   0.165   1.937   6.236 -0.0203 -0.4646 -0.8143
 2479SOL     OW19069   4.265   3.407   9.542  0.3152 -0.4769 -0.0234
 2479SOL    HW119070   4.236   3.321   9.573  0.8933 -0.6427  0.0586
 2479SOL    HW219071   4.230   3.465   9.609 -1.8485 -0.0612 -1.5014
 2480SOL     OW19072   4.452   2.632   1.430 -0.3073  0.2678 -0.3585
 2480SOL    HW119073   4.496   2.672   1.504  0.4223 -0.9148 -0.1585
 2480SOL    HW219074   4.448   2.542   1.464 -0.3800  1.0689  1.7318
 2481SOL     OW19075   4.240   2.748  10.722  0.3075  0.3639  0.4069
 2481SOL    HW119076   4.147   2.763  10.737  0.3723  0.5884  0.5682
 2481SOL    HW219077   4.270   2.804  10.793  0.9753 -2.9182  2.6879
 2482SOL     OW19078   1.432   3.653   4.120 -1.0627 -0.2633  0.8047
 2482SOL    HW119079   1.470   3.721   4.176 -0.7385 -0.1009  0.3917
 2482SOL    HW219080   1.476   3.681   4.039 -0.5306 -1.4532  0.6743
 2483SOL     OW19081   0.571   2.472   6.895  0.4236 -0.1769 -0.4266
 2483SOL    HW119082   0.659   2.509   6.902 -0.1429  1.2737 -0.9580
 2483SOL    HW219083   0.578   2.432   6.808 -0.9239  1.3548 -1.2320
 2484SOL     OW19084   3.113   0.638   1.445  0.0595  0.3944 -0.4843
 2484SOL    HW119085   3.136   0.633   1.352  2.3011  0.4755  0.0600
 2484SOL    HW219086   3.040   0.699   1.436 -0.5351 -0.3528 -0.6106
 2485SOL     OW19087   1.015   2.784  17.287 -0.0519 -0.4902  0.3706
 2485SOL    HW119088   0.921   2.762  17.288  0.5186 -2.9924 -0.1109
 2485SOL    HW219089   1.044   2.760  17.200 -0.3263 -1.8414  0.6443
 2486SOL     OW19090   3.482   0.794  14.247  0.0312  0.2745 -0.6595
 2486SOL    HW119091   3.529   0.835  14.320  1.5255  0.3234 -1.6440
 2486SOL    HW219092   3.524   0.836  14.172 -0.9264 -1.2051 -2.0075
 2487SOL     OW19093   2.301   0.698  13.575 -0.2116  0.0103 -0.1022
 2487SOL    HW119094   2.374   0.699  13.636 -0.3865  1.5672  0.0925
 2487SOL    HW219095   2.274   0.790  13.583 -0.7486 -0.3968  2.6832
 2488SOL     OW19096   2.738   0.585  11.888 -0.0402 -0.2139  0.0292
 2488SOL    HW119097   2.766   0.660  11.941 -0.2056 -0.4216  0.4085
 2488SOL    HW219098   2.729   0.516  11.954  3.6400  0.0957  0.8884
 2489SOL     OW19099   0.052   3.681   7.203  0.6504  0.0032  0.2300
 2489SOL    HW119100   0.079   3.589   7.193 -0.2093 -0.2814  0.5216
 2489SOL    HW219101   0.002   3.668   7.283  2.9510 -2.2744  1.2946
 2490SOL     OW19102   3.568   2.334   2.807  0.0024 -0.3409  0.0312
 2490SOL    HW119103   3.634   2.403   2.799  0.2748 -0.6059 -0.0102
 2490SOL    HW219104   3.600   2.272   2.741  1.4442 -2.0063  2.2814
 2491SOL     OW19105   3.364   4.609   8.518  0.1139 -0.1304  0.1330
 2491SOL    HW119106   3.413   4.643   8.593 -0.1003 -1.4905  0.8927
 2491SOL    HW219107   3.336   4.525   8.554  0.3683 -0.5499 -0.6407
 2492SOL     OW19108   0.052   1.033   4.734 -0.1426 -0.2392 -0.8656
 2492SOL    HW119109   0.067   0.990   4.818  1.0170  1.0467 -0.4204
 2492SOL    HW219110   0.022   1.117   4.769 -1.2862  0.5110 -3.6203
 2493SOL     OW19111   3.041   0.377  15.757  0.7235 -0.6491  0.2233
 2493SOL    HW119112   2.954   0.342  15.740  0.7572 -0.8937  0.5359
 2493SOL    HW219113   3.051   0.351  15.849 -1.1537 -0.5312  0.4553
 2494SOL     OW19114   0.018   1.134   6.462 -0.3181  0.3139  0.1494
 2494SOL    HW119115   4.679   1.154   6.510 -0.6465 -0.8973  0.1030
 2494SOL    HW219116   0.054   1.071   6.523  2.8141  1.1122 -0.8877
 2495SOL     OW19117   2.291   2.472   3.972  0.3449  0.2712 -0.0959
 2495SOL    HW119118   2.245   2.401   3.927 -2.1934  0.7744  1.6725
 2495SOL    HW219119   2.374   2.431   3.994  0.2410 -0.0079 -0.2206
 2496SOL     OW19120   3.169   3.944  13.531  0.3195  0.7246  0.0486
 2496SOL    HW119121   3.137   4.015  13.587 -0.1388  1.8102 -1.5703
 2496SOL    HW219122   3.262   3.966  13.528  0.6794 -1.0635 -1.6688
 2497SOL     OW19123   1.031   1.697   7.580 -0.0298  0.0448  0.4641
 2497SOL    HW119124   1.017   1.616   7.628 -0.6373 -0.5832 -0.7664
 2497SOL    HW219125   1.103   1.734   7.631  0.2613  1.1597 -0.7489
 2498SOL     OW19126   2.222   3.362   8.006  0.0380 -0.3185  0.1595
 2498SOL    HW119127   2.188   3.372   7.918  0.2139 -1.9361 -0.0883
 2498SOL    HW219128   2.191   3.275   8.032  0.7601  0.1076  2.4698
 2499SOL     OW19129   4.082   3.342   5.343 -0.4685 -0.0534  0.2110
 2499SOL    HW119130   4.104   3.284   5.270  0.9093 -0.9765  1.3451
 2499SOL    HW219131   4.163   3.386   5.368 -1.8713  0.6759  3.5099
 2500SOL     OW19132   4.055   0.042  13.557 -0.9775 -0.5292  0.2017
 2500SOL    HW119133   4.107   4.703  13.565  0.8365  0.8804  2.6298
 2500SOL    HW219134   3.985   0.014  13.499  0.2401 -0.1035 -1.4657
 2501SOL     OW19135   3.100   4.238   2.198 -0.3040 -0.6030  0.2802
 2501SOL    HW119136   3.127   4.192   2.277  1.4000  3.1092  1.8388
 2501SOL    HW219137   3.024   4.286   2.230  0.4321 -0.1825  1.4018
 2502SOL     OW19138   3.773   3.804   8.209  0.6350 -0.5737  0.2366
 2502SOL    HW119139   3.856   3.801   8.257  1.4320  0.2363 -1.1102
 2502SOL    HW219140   3.737   3.724   8.247  1.3515 -0.5695  0.9387
 2503SOL     OW19141   1.802   2.733   2.901  0.0860 -0.0006  0.1146
 2503SOL    HW119142   1.799   2.767   2.990 -1.6254  0.9585 -0.3049
 2503SOL    HW219143   1.896   2.715   2.890  0.2222 -0.2441  1.6971
 2504SOL     OW19144   3.666   4.433   5.101 -0.0944  0.2826 -0.1418
 2504SOL    HW119145   3.627   4.475   5.177  0.6154 -2.5084  1.7385
 2504SOL    HW219146   3.660   4.514   5.049 -0.6439  1.6763  2.0828
 2505SOL     OW19147   2.975   3.649   8.329  0.2524 -0.1361  0.6815
 2505SOL    HW119148   2.931   3.573   8.367 -0.0029  0.3927  1.4382
 2505SOL    HW219149   3.051   3.624   8.276 -0.9132 -2.2469  0.0003
 2506SOL     OW19150   2.748   2.622  10.214 -0.0088  0.0999  0.2147
 2506SOL    HW119151   2.801   2.597  10.138  0.4765  1.4603  0.1098
 2506SOL    HW219152   2.695   2.695  10.182  1.2855  0.5260 -0.9680
 2507SOL     OW19153   3.420   2.594   7.621  0.6763  0.3932 -0.0330
 2507SOL    HW119154   3.371   2.534   7.678 -0.1387  0.9139 -0.1795
 2507SOL    HW219155   3.358   2.605   7.549 -0.8644 -0.9659  1.0579
 2508SOL     OW19156   0.556   1.733  14.637 -0.2042  0.4625  0.1600
 2508SOL    HW119157   0.537   1.642  14.614 -0.0635  0.8449 -1.5343
 2508SOL    HW219158   0.649   1.726  14.655 -0.3091 -0.0577  0.4713
 2509SOL     OW19159   1.470   3.290   8.338  0.6151 -1.1916  0.2202
 2509SOL    HW119160   1.541   3.352   8.320  0.5085 -1.3394 -0.7069
 2509SOL    HW219161   1.394   3.317   8.286  1.1155  0.1117  0.1765
 2510SOL     OW19162   2.291   2.943   3.454  0.1128  1.0524  0.0780
 2510SOL    HW119163   2.278   2.902   3.368 -0.2828 -1.1152  1.1665
 2510SOL    HW219164   2.385   2.961   3.446 -0.2490  2.3937 -1.1608
 2511SOL     OW19165   2.051   2.646   2.770  0.5278  0.5165 -0.0763
 2511SOL    HW119166   2.102   2.703   2.712  0.0193 -2.5147 -3.4593
 2511SOL    HW219167   2.030   2.567   2.720 -0.3478  0.4658  0.3822
 2512SOL     OW19168   0.189   0.275   5.448 -0.2301 -0.3397 -0.0021
 2512SOL    HW119169   0.132   0.261   5.523 -2.3482 -0.5178 -1.6515
 2512SOL    HW219170   0.143   0.216   5.388 -0.8438 -0.2733  0.3976
 2513SOL     OW19171   0.639   4.579  16.627 -0.1115 -0.5479 -0.3637
 2513SOL    HW119172   0.631   4.592  16.722  1.3162  0.3833 -0.3678
 2513SOL    HW219173   0.606   4.660  16.589 -2.0745 -1.3400 -0.3294
 2514SOL     OW19174   3.274   2.614   4.122  0.6109 -0.5448  0.5786
 2514SOL    HW119175   3.360   2.619   4.163  1.2073 -0.0180 -0.7198
 2514SOL    HW219176   3.287   2.526   4.086 -1.3386 -1.3002  1.7174
 2515SOL     OW19177   1.931   0.934   5.035 -0.1181 -0.1535  0.2253
 2515SOL    HW119178   1.995   0.941   5.105 -0.9065  0.7661  0.8387
 2515SOL    HW219179   1.886   0.851   5.051 -0.9559  0.0916 -0.8022
 2516SOL     OW19180   0.977   4.173   4.192 -0.2422 -0.0392  0.2120
 2516SOL    HW119181   1.070   4.184   4.213 -0.6893  0.8570  1.7163
 2516SOL    HW219182   0.947   4.242   4.251 -0.5015 -0.3424  0.4322
 2517SOL     OW19183   2.474   2.636  15.069  0.5796 -0.0004 -0.6191
 2517SOL    HW119184   2.466   2.629  14.974  0.3141 -0.7385 -0.5405
 2517SOL    HW219185   2.549   2.579  15.087  0.2969  0.0138  0.5940
 2518SOL     OW19186   1.138   1.450  13.392  0.2849  0.1173  0.1506
 2518SOL    HW119187   1.193   1.502  13.333  2.3214  1.1982  2.9738
 2518SOL    HW219188   1.161   1.467  13.484 -0.6890  2.1292  0.0194
 2519SOL     OW19189   1.834   2.706   5.366 -0.7483  0.2100  0.9067
 2519SOL    HW119190   1.888   2.745   5.435  0.5438  1.3825 -0.7626
 2519SOL    HW219191   1.827   2.619   5.405 -0.0306  0.1273  0.8387
 2520SOL     OW19192   0.177   3.807   5.044  0.6357 -0.0820  0.6189
 2520SOL    HW119193   0.083   3.788   5.051  0.4575  0.5929  0.0757
 2520SOL    HW219194   0.181   3.893   5.002  1.2808 -0.2969  0.2463
 2521SOL     OW19195   2.828   0.211   7.204  0.4308 -0.1472 -0.5636
 2521SOL    HW119196   2.898   0.165   7.251  1.0920  1.6490  0.1765
 2521SOL    HW219197   2.857   0.208   7.113 -2.5216 -2.1876 -1.4443
 2522SOL     OW19198   0.076   3.467   3.856  0.0043 -0.2869  0.3878
 2522SOL    HW119199   0.072   3.562   3.863  0.6325 -0.3107  1.0026
 2522SOL    HW219200   0.122   3.444   3.936 -0.7605 -0.9793  0.6275
 2523SOL     OW19201   2.239   0.572  12.415  0.1022  0.2818 -0.0066
 2523SOL    HW119202   2.188   0.568  12.334 -0.8830 -0.0315  0.6256
 2523SOL    HW219203   2.178   0.571  12.489 -0.3127  2.6875 -0.3168
 2524SOL     OW19204   3.516   0.654   8.038  0.2420 -0.2936 -0.2074
 2524SOL    HW119205   3.527   0.722   7.972  0.3218 -0.5071 -0.4117
 2524SOL    HW219206   3.535   0.705   8.117 -0.8283  1.4157 -1.0645
 2525SOL     OW19207   2.548   0.547   3.883  0.1315  0.4627 -1.2017
 2525SOL    HW119208   2.605   0.495   3.826  2.3525  0.0597  1.4364
 2525SOL    HW219209   2.598   0.628   3.887 -1.4951  1.4286 -0.3651
 2526SOL     OW19210   1.505   4.696   7.528  0.3302  0.1734  0.0186
 2526SOL    HW119211   1.494   4.622   7.587  2.7047  0.6292  1.0294
 2526SOL    HW219212   1.424   4.691   7.477 -0.0726 -2.0839  0.9234
 2527SOL     OW19213   3.974   0.609   7.878 -0.2766 -0.3441  0.4325
 2527SOL    HW119214   3.893   0.571   7.911 -0.6554  0.8695  0.9006
 2527SOL    HW219215   4.002   0.529   7.832  1.4725  0.8347 -0.5820
 2528SOL     OW19216   1.824   4.711  14.289 -0.0199  0.4584 -0.3256
 2528SOL    HW119217   1.821   0.056  14.329 -0.1244  0.7850 -1.0334
 2528SOL    HW219218   1.741   4.716  14.242 -0.6955  0.9790  0.9420
 2529SOL     OW19219   0.683   3.579  16.750  0.4979  0.2130 -0.0813
 2529SOL    HW119220   0.729   3.600  16.669 -2.0132  1.3484 -1.2066
 2529SOL    HW219221   0.669   3.659  16.801  0.6528 -1.1515  2.1147
 2530SOL     OW19222   2.357   3.942   9.099 -0.7005 -0.5485 -0.3732
 2530SOL    HW119223   2.331   3.932   9.007 -1.8770 -1.0836  0.0222
 2530SOL    HW219224   2.295   4.008   9.132  0.8277  0.5443  0.3036
 2531SOL     OW19225   3.604   2.045  11.572 -0.1956 -0.1221  0.0814
 2531SOL    HW119226   3.663   2.089  11.511 -0.3676 -0.4308 -0.3089
 2531SOL    HW219227   3.655   2.067  11.650 -0.6040  2.5177 -0.4283
 2532SOL     OW19228   0.292   4.711   3.504 -0.1812 -0.0979  0.0863
 2532SOL    HW119229   0.267   4.633   3.555  0.5346 -1.5972 -1.8542
 2532SOL    HW219230   0.215   4.728   3.449 -0.8374  1.6251  1.5412
 2533SOL     OW19231   3.303   1.495  16.805 -0.0374  0.0759  0.1703
 2533SOL    HW119232   3.299   1.590  16.806 -2.4506 -0.0365  2.8205
 2533SOL    HW219233   3.387   1.477  16.764  0.3928 -0.4718  1.2818
 2534SOL     OW19234   2.076   0.894   2.105  0.6166  0.2429 -0.1181
 2534SOL    HW119235   2.036   0.815   2.140  0.3720  0.6693  0.5662
 2534SOL    HW219236   2.058   0.963   2.169  0.6755  0.7074 -0.6046
 2535SOL     OW19237   2.520   1.870   7.486 -0.2469 -0.4550 -0.1075
 2535SOL    HW119238   2.510   1.945   7.428  1.3321 -0.7195 -0.7220
 2535SOL    HW219239   2.469   1.896   7.563  0.8975  1.6018 -0.0729
 2536SOL     OW19240   0.375   1.735   0.180 -0.1349 -0.2684 -0.0683
 2536SOL    HW119241   0.293   1.778   0.205  0.6738  0.5696  1.1685
 2536SOL    HW219242   0.426   1.809   0.145  0.0221 -0.7322 -0.8201
 2537SOL     OW19243   0.770   0.827   6.209  0.2587 -0.2094  0.3944
 2537SOL    HW119244   0.771   0.841   6.304 -0.5150 -0.1078  0.3874
 2537SOL    HW219245   0.683   0.790   6.197  0.6027 -0.8507 -0.0750
 2538SOL     OW19246   0.090   0.761   8.106  0.1259 -0.0631  0.5377
 2538SOL    HW119247   0.048   0.692   8.158 -1.3416 -1.0233 -1.8943
 2538SOL    HW219248   0.174   0.767   8.151 -0.4293 -1.5636  1.8036
 2539SOL     OW19249   2.651   3.166   7.214 -0.2701 -0.1067  0.0964
 2539SOL    HW119250   2.725   3.182   7.155 -1.7081  2.6286 -0.9839
 2539SOL    HW219251   2.671   3.090   7.267 -1.2215  0.0227  0.6490
 2540SOL     OW19252   4.508   2.187   4.100  0.4934 -0.1518  0.1460
 2540SOL    HW119253   4.433   2.238   4.131  0.8942  0.9203 -0.6808
 2540SOL    HW219254   4.517   2.114   4.162 -0.4803 -1.0608 -0.8016
 2541SOL     OW19255   4.518   2.231   6.554 -0.2277  0.2245 -0.2483
 2541SOL    HW119256   4.484   2.225   6.644 -1.0670  1.2096 -0.5010
 2541SOL    HW219257   4.601   2.276   6.571  0.5229 -0.5446 -1.9045
 2542SOL     OW19258   4.674   0.998   2.707  0.5134 -0.0875 -0.0308
 2542SOL    HW119259   0.006   0.962   2.657  0.1445  0.2040 -0.7990
 2542SOL    HW219260   4.715   1.021   2.790  0.0582  0.6215 -0.0084
 2543SOL     OW19261   0.197   0.775   6.265  0.4306  0.4200  0.6081
 2543SOL    HW119262   0.229   0.822   6.188 -0.2561 -0.4236 -0.1879
 2543SOL    HW219263   0.228   0.834   6.334  1.0782 -1.6615  2.1105
 2544SOL     OW19264   2.804   3.115   0.342  0.1962  0.3178  0.8972
 2544SOL    HW119265   2.864   3.042   0.326  1.5686  1.3719  1.2135
 2544SOL    HW219266   2.842   3.142   0.425  2.7915 -1.7629  0.3965
 2545SOL     OW19267   4.281   1.957  12.140  0.3662  0.1720 -0.0740
 2545SOL    HW119268   4.374   1.935  12.129  0.1831 -1.4667  1.5350
 2545SOL    HW219269   4.248   1.896  12.075 -0.2006  1.2674 -0.8091
 2546SOL     OW19270   4.115   2.904   3.133  0.0275  0.1231  0.0673
 2546SOL    HW119271   4.167   2.854   3.071  1.8985  0.6651  1.1890
 2546SOL    HW219272   4.127   2.997   3.113  1.4929  0.0734  0.7034
 2547SOL     OW19273   1.892   2.381   0.922 -0.2512  0.3610  0.1642
 2547SOL    HW119274   1.816   2.344   0.966  0.0888  0.1708  0.5822
 2547SOL    HW219275   1.959   2.314   0.931  0.5990  1.0843 -0.7289
 2548SOL     OW19276   3.629   1.334   6.248 -0.0189  0.0034  0.5590
 2548SOL    HW119277   3.570   1.306   6.178 -0.4174  1.4523  0.3234
 2548SOL    HW219278   3.644   1.421   6.211 -0.8823  0.2786  0.8672
 2549SOL     OW19279   4.455   1.828   5.160  0.1210  0.4479  0.2487
 2549SOL    HW119280   4.378   1.855   5.112  1.1787 -0.2819 -1.8430
 2549SOL    HW219281   4.486   1.918   5.168 -0.0314  0.8724 -4.0800
 2550SOL     OW19282   3.946   0.549  10.418  0.2304 -0.0301  0.0114
 2550SOL    HW119283   3.924   0.501  10.498  1.9536 -0.6743  0.1037
 2550SOL    HW219284   3.909   0.636  10.429 -0.8286 -0.6794  1.6176
 2551SOL     OW19285   3.984   3.209  14.373 -0.1444  0.6022  0.5417
 2551SOL    HW119286   3.902   3.208  14.421 -0.4302 -0.6262  0.0314
 2551SOL    HW219287   3.955   3.212  14.282  1.3164  0.8558  0.0773
 2552SOL     OW19288   4.315   4.528   2.048 -0.0526  0.5821  0.0161
 2552SOL    HW119289   4.326   4.444   2.004 -1.6210 -1.1577  2.9711
 2552SOL    HW219290   4.224   4.552   2.032  0.2155 -0.0007 -2.2541
 2553SOL     OW19291   1.813   0.139   0.814 -0.1177 -0.1386 -0.0586
 2553SOL    HW119292   1.851   0.190   0.886  0.4443  1.9348 -1.8229
 2553SOL    HW219293   1.880   0.071   0.804 -1.3502 -1.3747  0.1213
 2554SOL     OW19294   2.162   1.388   4.308 -0.3553 -0.1308  0.1052
 2554SOL    HW119295   2.135   1.470   4.348  0.3038  1.0157 -1.7830
 2554SOL    HW219296   2.249   1.407   4.275 -0.8448  0.4580 -0.8530
 2555SOL     OW19297   2.654   1.869   5.647  0.1034  0.3883 -0.3055
 2555SOL    HW119298   2.640   1.813   5.570 -2.1164 -1.7471  1.6394
 2555SOL    HW219299   2.749   1.872   5.651  0.2225  1.0716 -3.3429
 2556SOL     OW19300   1.629   2.801   5.633 -0.4324  0.5625 -0.0780
 2556SOL    HW119301   1.688   2.816   5.706  0.4883  3.2303 -1.3839
 2556SOL    HW219302   1.560   2.745   5.670  0.1523  1.3707  2.2131
 2557SOL     OW19303   3.711   3.037   7.741 -0.4712 -0.0346 -0.7337
 2557SOL    HW119304   3.745   3.085   7.817  0.8438  0.6983 -1.7852
 2557SOL    HW219305   3.680   2.958   7.785 -0.5041 -0.2427 -1.1357
 2558SOL     OW19306   2.300   1.943  15.356 -0.0449 -0.5334  0.0841
 2558SOL    HW119307   2.249   2.015  15.319 -1.0254 -1.2957 -0.0470
 2558SOL    HW219308   2.244   1.935  15.433  1.3625  0.3296  1.1886
 2559SOL     OW19309   3.322   0.704  17.577  0.0473 -0.1870 -0.5391
 2559SOL    HW119310   3.302   0.758  17.501  1.0845  0.2135 -0.5271
 2559SOL    HW219311   3.304   0.616  17.543 -0.9841 -0.0824 -0.2611
 2560SOL     OW19312   3.373   1.632  17.585  0.3461  0.0688  0.4381
 2560SOL    HW119313   3.309   1.663  17.649  0.4122  0.0634  0.5058
 2560SOL    HW219314   3.374   1.540  17.612  1.5951  0.1537  0.6720
 2561SOL     OW19315   2.578   2.977   3.380  0.0702 -0.2981 -0.3568
 2561SOL    HW119316   2.669   2.995   3.406 -0.0088  2.0904 -1.8162
 2561SOL    HW219317   2.553   3.056   3.333 -1.2943 -1.5267 -1.6731
 2562SOL     OW19318   2.333   4.583  10.115 -0.0294  0.3721 -0.6056
 2562SOL    HW119319   2.400   4.515  10.124  0.6745  1.1910  0.4477
 2562SOL    HW219320   2.330   4.592  10.020 -1.6568 -0.4752 -0.6234
 2563SOL     OW19321   4.342   4.474   4.883  0.1293 -0.3121 -0.3135
 2563SOL    HW119322   4.281   4.401   4.877  1.0476 -1.0188 -1.0331
 2563SOL    HW219323   4.409   4.439   4.943  2.4098  2.6669 -1.1130
 2564SOL     OW19324   2.610   2.341   0.039 -0.2197 -0.0147  0.3347
 2564SOL    HW119325   2.517   2.321   0.050 -0.3866 -0.6506 -2.0969
 2564SOL    HW219326   2.646   2.255   0.020  1.3060  0.7570 -0.2715
 2565SOL     OW19327   3.698   0.972  17.374 -0.0877 -0.0402 -0.2482
 2565SOL    HW119328   3.606   0.995  17.382 -0.4678 -2.2056  1.7968
 2565SOL    HW219329   3.695   0.944  17.282 -1.5400 -1.6380  0.2899
 2566SOL     OW19330   4.491   0.987  14.942 -0.3656 -0.3814  0.2330
 2566SOL    HW119331   4.501   1.051  14.872 -2.4413  0.8950  1.0846
 2566SOL    HW219332   4.397   1.000  14.959 -0.2583  0.6776 -0.0019
 2567SOL     OW19333   0.088   3.050  11.096  0.3465  0.3810 -0.3329
 2567SOL    HW119334   0.050   3.003  11.022 -0.9081  1.0759 -0.1110
 2567SOL    HW219335   0.067   3.138  11.065 -0.0448  0.2285 -0.4981
 2568SOL     OW19336   0.404   1.323  17.370 -0.4145  0.1131 -0.1269
 2568SOL    HW119337   0.328   1.380  17.362  1.3840  2.0875 -3.0826
 2568SOL    HW219338   0.359   1.248  17.409 -0.2449  0.7260  1.2386
 2569SOL     OW19339   1.933   3.205   2.054 -0.7351  0.1552 -0.0449
 2569SOL    HW119340   1.890   3.205   2.139 -1.1083 -0.7163 -0.2355
 2569SOL    HW219341   1.958   3.294   2.032  0.0950  0.1376  0.8192
 2570SOL     OW19342   4.048   2.296   6.023 -0.7316 -0.1049  0.5824
 2570SOL    HW119343   4.109   2.257   6.086  1.5505  0.0789 -1.4906
 2570SOL    HW219344   4.022   2.363   6.087 -2.0497 -1.9117  1.9311
 2571SOL     OW19345   4.306   1.658   2.367  0.2368  0.1508 -0.2763
 2571SOL    HW119346   4.225   1.627   2.326  0.2111 -0.2118  0.0390
 2571SOL    HW219347   4.310   1.754   2.363 -2.6414  0.2799 -0.2667
 2572SOL     OW19348   0.747   3.583   3.408  0.6924 -0.1045 -0.0140
 2572SOL    HW119349   0.791   3.593   3.323 -1.4139  1.4805 -0.9056
 2572SOL    HW219350   0.800   3.513   3.446 -1.0371 -1.4357 -0.0518
 2573SOL     OW19351   2.474   1.735   4.510 -0.4871 -0.2928 -0.1652
 2573SOL    HW119352   2.416   1.737   4.434 -1.9423 -1.4644  0.9135
 2573SOL    HW219353   2.538   1.669   4.485  1.7361  2.4510 -1.7438
 2574SOL     OW19354   1.018   1.548   9.484 -0.0584  0.2192  0.7466
 2574SOL    HW119355   0.932   1.570   9.519  0.2055  3.6145 -0.7618
 2574SOL    HW219356   1.078   1.584   9.550 -3.7514 -0.2545  4.3997
 2575SOL     OW19357   1.856   0.415   2.307 -0.3324 -0.1041  0.1485
 2575SOL    HW119358   1.772   0.455   2.286  0.1145  1.3490  1.1123
 2575SOL    HW219359   1.853   0.431   2.402  0.1322 -2.6823  0.5881
 2576SOL     OW19360   0.103   2.473  15.781 -0.1902 -0.3259  0.2996
 2576SOL    HW119361   0.057   2.414  15.841 -3.0400 -0.0069 -1.5738
 2576SOL    HW219362   0.111   2.552  15.835 -0.7050 -1.0351  1.4234
 2577SOL     OW19363   1.589   4.284   8.589  0.3148  0.0206 -0.3796
 2577SOL    HW119364   1.676   4.243   8.587 -0.2712 -1.1993 -0.7058
 2577SOL    HW219365   1.533   4.220   8.546 -0.5104  1.4627 -1.4341
 2578SOL     OW19366   3.536   4.661  15.680  0.4341  0.1582 -0.0096
 2578SOL    HW119367   3.569   4.740  15.722  0.1004 -1.7521  3.9238
 2578SOL    HW219368   3.570   4.590  15.735  1.0920  1.1222  0.8217
 2579SOL     OW19369   2.194   0.567   5.457 -0.2747 -0.5651 -0.1012
 2579SOL    HW119370   2.160   0.599   5.373 -0.6224  1.3052  0.7375
 2579SOL    HW219371   2.215   0.478   5.430 -1.8460 -0.5232 -1.5246
 2580SOL     OW19372   4.690   4.674   2.311  0.5337 -0.1372  0.3064
 2580SOL    HW119373   4.707   4.592   2.358  3.6537 -0.6848 -1.7942
 2580SOL    HW219374   0.019   4.678   2.246 -0.6208 -0.5106 -0.9683
 2581SOL     OW19375   2.708   3.872   5.822 -0.8725 -0.1215 -0.5226
 2581SOL    HW119376   2.627   3.846   5.865 -2.2186  1.6932 -1.9374
 2581SOL    HW219377   2.768   3.818   5.874  1.5476  1.9018 -1.2140
 2582SOL     OW19378   1.444   0.121   0.273  0.3283  0.2317  0.2644
 2582SOL    HW119379   1.501   0.196   0.291 -0.6521  0.6514  1.5483
 2582SOL    HW219380   1.392   0.129   0.352  0.0997  1.2567  0.0108
 2583SOL     OW19381   2.075   2.331   7.208 -0.3957  0.4752  0.5061
 2583SOL    HW119382   1.982   2.322   7.230 -0.8819 -0.3155 -1.8930
 2583SOL    HW219383   2.102   2.244   7.178  2.6701  1.4508  0.5007
 2584SOL     OW19384   4.483   3.380   7.826  0.3162 -0.2643  0.3570
 2584SOL    HW119385   4.475   3.468   7.862 -1.1935 -0.0813 -0.4064
 2584SOL    HW219386   4.573   3.355   7.844  0.0962 -1.0295  0.4293
 2585SOL     OW19387   4.041   2.025   8.576  0.1292  0.4583  0.2060
 2585SOL    HW119388   4.038   2.071   8.660 -1.5341 -0.0878  0.4446
 2585SOL    HW219389   4.025   1.934   8.602 -0.8185  0.9698  1.4259
 2586SOL     OW19390   1.891   1.492   5.620  0.3615 -0.2648  0.5335
 2586SOL    HW119391   1.935   1.576   5.633 -2.3515  1.3035 -0.5958
 2586SOL    HW219392   1.813   1.518   5.668  0.0603  1.0780 -0.6642
 2587SOL     OW19393   1.370   3.865  10.883  0.1347  0.1555 -0.3375
 2587SOL    HW119394   1.429   3.789  10.883 -0.2759 -0.1588  0.6605
 2587SOL    HW219395   1.408   3.941  10.925  1.3591  0.2688 -1.6208
 2588SOL     OW19396   0.025   4.043   2.844 -0.6792 -0.8832 -0.0271
 2588SOL    HW119397   4.695   4.013   2.787 -0.2091 -2.8409  0.4217
 2588SOL    HW219398   0.058   4.126   2.809  0.4007 -1.0175  0.6964
 2589SOL     OW19399   0.121   3.620  15.465  0.6164 -0.2180 -0.5561
 2589SOL    HW119400   0.061   3.685  15.431 -0.5948 -0.3612  1.3212
 2589SOL    HW219401   0.106   3.540  15.414 -1.6803  0.7272 -1.3735
 2590SOL     OW19402   3.938   4.548   2.475  0.0093 -0.0012  0.1099
 2590SOL    HW119403   3.936   4.488   2.549 -1.0230 -1.7715 -1.3544
 2590SOL    HW219404   3.862   4.601   2.499 -0.0723 -0.3032  0.5123
 2591SOL     OW19405   1.151   1.828   0.276 -0.1925  0.4488 -0.1835
 2591SOL    HW119406   1.247   1.828   0.276 -0.1970  0.3487  0.5020
 2591SOL    HW219407   1.131   1.814   0.368 -0.6207  1.5626 -0.1028
 2592SOL     OW19408   2.982   3.588  16.564  0.0387 -0.3127 -0.7380
 2592SOL    HW119409   2.989   3.612  16.471 -0.6293  1.3300 -0.3635
 2592SOL    HW219410   3.066   3.542  16.570  0.1947 -0.1151 -1.3652
 2593SOL     OW19411   4.525   3.072  13.406  0.8340  0.0779  0.3979
 2593SOL    HW119412   4.445   3.056  13.455  0.9696  0.7492  0.8446
 2593SOL    HW219413   4.555   3.153  13.450 -0.2533  0.3991  0.5326
 2594SOL     OW19414   3.228   0.804   8.370 -0.0859 -0.1512  0.0099
 2594SOL    HW119415   3.251   0.790   8.278 -2.3698 -0.8277 -0.4546
 2594SOL    HW219416   3.238   0.721   8.417 -0.6003  0.9718  2.1344
 2595SOL     OW19417   2.515   3.813   5.331 -0.2208  0.4981 -0.0458
 2595SOL    HW119418   2.442   3.769   5.287 -0.9566  2.3161 -0.6264
 2595SOL    HW219419   2.544   3.743   5.390 -0.1057  0.4531 -0.1555
 2596SOL     OW19420   4.086   0.061   3.719  0.0316  0.0361  0.3280
 2596SOL    HW119421   4.179   0.082   3.727 -0.5957  3.4643 -1.4746
 2596SOL    HW219422   4.058   0.126   3.654  0.3647 -1.4331 -1.2974
 2597SOL     OW19423   3.441   3.768   3.775  0.1818 -0.7064  0.7150
 2597SOL    HW119424   3.409   3.683   3.806  0.3860 -1.1812 -0.3915
 2597SOL    HW219425   3.405   3.782   3.687  1.6821 -0.9389  0.0633
 2598SOL     OW19426   2.620   4.503   7.628  0.2140 -0.2101 -1.2019
 2598SOL    HW119427   2.622   4.428   7.687  3.1338  0.2775 -0.6696
 2598SOL    HW219428   2.710   4.497   7.596  0.3208 -0.7588 -0.8016
 2599SOL     OW19429   2.535   0.454   0.762  0.3219  0.3041 -0.8918
 2599SOL    HW119430   2.508   0.425   0.849 -0.2108  1.2091 -0.7597
 2599SOL    HW219431   2.475   0.529   0.759  0.9525  0.8887  1.3489
 2600SOL     OW19432   3.901   3.959   7.295 -0.2492 -0.7233  0.0942
 2600SOL    HW119433   3.885   4.038   7.346 -2.0101 -0.5289 -0.7462
 2600SOL    HW219434   3.841   3.892   7.330 -1.8213  0.1931 -0.8673
 2601SOL     OW19435   1.170   3.439   6.802 -0.2493  0.1975  0.2949
 2601SOL    HW119436   1.143   3.528   6.778  3.0012  0.5602 -1.9533
 2601SOL    HW219437   1.219   3.417   6.723  0.9166 -1.1543  1.4039
 2602SOL     OW19438   1.869   0.542   8.203 -0.1646  0.2154 -0.0659
 2602SOL    HW119439   1.949   0.595   8.211  0.2018 -0.1815 -1.0727
 2602SOL    HW219440   1.910   0.456   8.209  2.0908  1.3681  1.0850
 2603SOL     OW19441   1.677   1.130   3.211  0.4673 -0.0092  0.3286
 2603SOL    HW119442   1.675   1.213   3.259 -0.0647 -0.3822  0.9476
 2603SOL    HW219443   1.591   1.145   3.171  0.5632 -1.0325 -0.2567
 2604SOL     OW19444   0.931   2.784   0.634  0.1696 -0.0814 -0.4849
 2604SOL    HW119445   0.951   2.696   0.602  2.1602  0.4393 -0.6687
 2604SOL    HW219446   0.966   2.831   0.559  1.2989  2.1656  1.4223
 2605SOL     OW19447   2.434   2.591  14.808 -0.0974  0.1345 -0.5734
 2605SOL    HW119448   2.505   2.623  14.753 -0.8174 -0.0868 -1.6336
 2605SOL    HW219449   2.363   2.584  14.744  1.1396 -0.8299 -1.8265
 2606SOL     OW19450   2.833   2.564   3.899  0.0795 -0.1480  0.1154
 2606SOL    HW119451   2.892   2.545   3.972 -0.9705  0.4076  1.1134
 2606SOL    HW219452   2.811   2.479   3.860 -1.1095  0.1396  0.1806
 2607SOL     OW19453   4.224   2.021   4.018 -0.2358  0.7870 -0.7354
 2607SOL    HW119454   4.293   2.029   3.953 -0.5309 -1.3421 -1.3305
 2607SOL    HW219455   4.239   2.089   4.084 -1.8638  2.0904 -1.7198
 2608SOL     OW19456   0.711   3.446   5.759  0.5498 -0.2072  0.2816
 2608SOL    HW119457   0.664   3.423   5.678 -0.0147 -0.5092  0.6969
 2608SOL    HW219458   0.637   3.480   5.810 -0.1871  0.1699 -1.0251
 2609SOL     OW19459   2.101   3.286   5.393 -0.0664  0.1852  0.7631
 2609SOL    HW119460   2.007   3.303   5.388 -0.1410 -0.6297 -0.8083
 2609SOL    HW219461   2.111   3.279   5.298  1.1068 -0.5974  0.9496
 2610SOL     OW19462   2.608   3.930   6.670 -0.2122  0.4260  0.3488
 2610SOL    HW119463   2.598   3.861   6.604 -1.1767 -0.5098  1.4693
 2610SOL    HW219464   2.684   3.978   6.637 -0.7262  1.9099  1.3338
 2611SOL     OW19465   4.368   3.208   3.791  0.4123  0.3525  0.2873
 2611SOL    HW119466   4.369   3.233   3.698 -1.9283  0.2497  0.2253
 2611SOL    HW219467   4.431   3.271   3.825 -0.8282  0.7912  1.7412
 2612SOL     OW19468   2.856   1.116  17.452 -0.4640 -0.1813 -0.2297
 2612SOL    HW119469   2.772   1.160  17.440  0.6138  1.9025 -0.1590
 2612SOL    HW219470   2.858   1.116  17.548  1.1603  2.2310 -0.2623
 2613SOL     OW19471   1.572   2.413   7.034  0.2117 -0.0090  0.9512
 2613SOL    HW119472   1.506   2.382   7.096  1.2330 -0.5429  1.7625
 2613SOL    HW219473   1.588   2.499   7.073 -1.8771  0.9021 -0.2211
 2614SOL     OW19474   1.721   1.808   8.490  0.0724 -0.0040 -0.1151
 2614SOL    HW119475   1.730   1.871   8.419  0.7328  0.1757  0.1277
 2614SOL    HW219476   1.812   1.790   8.513 -0.5592 -1.2006  1.4737
 2615SOL     OW19477   4.163   2.951   4.768  0.2525 -0.0492  0.4382
 2615SOL    HW119478   4.236   2.954   4.707  0.4844 -1.7623  0.6280
 2615SOL    HW219479   4.170   2.861   4.800  0.5753  0.0073  0.5287
 2616SOL     OW19480   0.997   0.319   6.128  0.0207 -0.0319  0.0184
 2616SOL    HW119481   0.950   0.238   6.108 -1.4784  0.9498 -0.4953
 2616SOL    HW219482   0.920   0.368   6.160  2.8066  2.8796  2.2675
 2617SOL     OW19483   3.659   0.805   2.067 -0.2728  0.0706 -0.4842
 2617SOL    HW119484   3.610   0.755   2.001 -0.2846 -0.4510 -0.0864
 2617SOL    HW219485   3.583   0.852   2.101 -0.6444 -0.3926 -0.6747
 2618SOL     OW19486   1.968   4.279  11.106  0.3828  0.3991  1.0018
 2618SOL    HW119487   2.045   4.268  11.050 -1.5935 -2.3572 -1.1977
 2618SOL    HW219488   2.005   4.303  11.190  0.7482  1.5832  0.4951
 2619SOL     OW19489   1.239   4.688   9.065 -0.3877  0.2509 -0.6821
 2619SOL    HW119490   1.163   4.688   9.007  0.0943  0.5444 -1.3124
 2619SOL    HW219491   1.266   4.596   9.070 -1.1681  0.1124  1.0585
 2620SOL     OW19492   2.717   3.373  10.097  0.0458 -0.1574 -0.2245
 2620SOL    HW119493   2.807   3.354  10.071 -0.1705  0.6490 -1.5326
 2620SOL    HW219494   2.706   3.318  10.175 -0.1730  1.0694  0.6170
 2621SOL     OW19495   1.255   4.687   7.429  0.0240  0.3084 -0.4784
 2621SOL    HW119496   1.245   4.677   7.334  1.5035  0.5664 -0.6653
 2621SOL    HW219497   1.181   4.632   7.454 -0.4259  1.4119  0.6348
 2622SOL     OW19498   1.491   4.357   6.999 -0.0912 -0.4435 -0.2345
 2622SOL    HW119499   1.570   4.304   6.987  0.3156 -0.3075  1.8083
 2622SOL    HW219500   1.491   4.368   7.094 -0.6818 -1.2992 -0.1441
 2623SOL     OW19501   1.207   3.798   2.844 -0.1728 -0.4644  0.1470
 2623SOL    HW119502   1.199   3.720   2.900  0.7802 -1.2772 -0.8672
 2623SOL    HW219503   1.187   3.864   2.911  1.3541  0.7819 -0.6602
 2624SOL     OW19504   2.532   0.645  13.745  0.1177  0.0606  0.4338
 2624SOL    HW119505   2.603   0.644  13.809  1.5839 -1.7012 -1.2043
 2624SOL    HW219506   2.566   0.683  13.664 -0.5038  2.9144  1.5120
 2625SOL     OW19507   2.456   0.291   1.253  0.1911  0.1205 -0.1376
 2625SOL    HW119508   2.478   0.327   1.339 -0.7508  0.1423  0.1011
 2625SOL    HW219509   2.395   0.223   1.280  0.7912 -0.6084 -0.6400
 2626SOL     OW19510   3.247   0.285  10.128 -0.0754 -0.1124  0.1960
 2626SOL    HW119511   3.269   0.283  10.035 -0.1318 -1.6384  0.2219
 2626SOL    HW219512   3.163   0.239  10.138 -0.1625  0.1809  0.8273
 2627SOL     OW19513   2.571   1.965   5.323  0.8067  0.2026 -0.2851
 2627SOL    HW119514   2.578   1.890   5.381 -0.0984  0.7460  0.5135
 2627SOL    HW219515   2.619   1.939   5.244  0.8332  0.1832 -0.2628
 2628SOL     OW19516   2.611   1.616   7.449 -0.0209 -0.1406 -0.2178
 2628SOL    HW119517   2.700   1.637   7.478 -0.5404 -0.7697  1.8931
 2628SOL    HW219518   2.571   1.703   7.446 -2.4015 -1.2671 -1.4980
 2629SOL     OW19519   4.131   1.659   5.911 -0.1982 -0.8702 -0.5823
 2629SOL    HW119520   4.047   1.639   5.868 -1.0498 -1.5030  1.4051
 2629SOL    HW219521   4.134   1.587   5.974  1.8716 -0.3667 -0.1315
 2630SOL     OW19522   2.069   2.932   5.283  0.3158 -0.2634 -0.1619
 2630SOL    HW119523   1.997   2.996   5.278 -1.9601 -2.6799  1.1684
 2630SOL    HW219524   2.026   2.882   5.353  0.4096  2.3204  1.7387
 2631SOL     OW19525   0.944   4.000   3.266 -0.2068  0.0739 -0.0156
 2631SOL    HW119526   0.977   3.963   3.348 -0.0935  1.0728  0.3847
 2631SOL    HW219527   0.854   3.969   3.258  0.6122 -2.0102 -1.1695
 2632SOL     OW19528   1.627   3.218   4.219 -0.5952  0.0082  0.0681
 2632SOL    HW119529   1.671   3.301   4.239  2.3110 -1.7856  1.1254
 2632SOL    HW219530   1.563   3.238   4.150 -1.1432  0.1787  0.6273
 2633SOL     OW19531   0.832   2.586   1.551  0.1541  0.1667 -0.1691
 2633SOL    HW119532   0.875   2.562   1.469  1.0326  1.0271  0.0415
 2633SOL    HW219533   0.899   2.645   1.585 -0.6247  0.1668  1.3499
 2634SOL     OW19534   0.872   1.116  15.801 -0.2179  0.3685 -0.5394
 2634SOL    HW119535   0.867   1.025  15.832 -3.0027  1.0393  0.9240
 2634SOL    HW219536   0.815   1.169  15.856  0.4380 -1.4290  1.8944
 2635SOL     OW19537   3.286   3.200   4.280  0.1765  0.3919  0.2575
 2635SOL    HW119538   3.333   3.283   4.289  2.3994 -0.7440 -0.8502
 2635SOL    HW219539   3.226   3.226   4.210 -0.8480  1.9842  1.7198
 2636SOL     OW19540   1.025   2.754   1.632 -0.0872  0.9343  0.3507
 2636SOL    HW119541   1.049   2.839   1.596 -1.9384  1.5925  0.6441
 2636SOL    HW219542   1.013   2.768   1.725  1.3647 -0.9708  0.8276
 2637SOL     OW19543   4.330   2.162   8.259 -0.2649  0.0362 -0.4050
 2637SOL    HW119544   4.378   2.108   8.322 -2.0869 -0.3095  0.6795
 2637SOL    HW219545   4.396   2.198   8.199  2.0961 -3.5293  0.0161
 2638SOL     OW19546   3.765   4.049  12.559 -0.2038  0.5763 -0.2543
 2638SOL    HW119547   3.845   3.998  12.551  1.0521  2.5992 -0.5630
 2638SOL    HW219548   3.792   4.121  12.615 -1.9188  0.9407  0.0906
 2639SOL     OW19549   0.763   2.789   8.405  0.0529 -0.2303 -0.0421
 2639SOL    HW119550   0.811   2.761   8.327 -0.3060 -0.0023 -0.3479
 2639SOL    HW219551   0.709   2.710   8.409  0.2664 -0.4044 -0.5647
 2640SOL     OW19552   4.372   2.895   7.974  0.6645 -0.3391  0.2351
 2640SOL    HW119553   4.358   2.816   8.025 -0.0986 -2.0863 -2.6767
 2640SOL    HW219554   4.348   2.871   7.884 -2.2968  2.3744  0.3062
 2641SOL     OW19555   3.910   3.392  11.978 -0.5245  0.0307  0.2189
 2641SOL    HW119556   3.948   3.304  11.981  0.0384  0.2813  0.4374
 2641SOL    HW219557   3.933   3.412  11.888 -1.4398  0.0142 -0.0165
 2642SOL     OW19558   1.005   3.206  13.449  0.5011 -0.3804 -0.3358
 2642SOL    HW119559   1.009   3.187  13.542  0.4951 -1.6791 -0.6070
 2642SOL    HW219560   0.946   3.139  13.415 -0.1633  0.2610 -0.4571
 2643SOL     OW19561   2.636   0.544   8.745 -0.6414 -0.2858  0.2900
 2643SOL    HW119562   2.690   0.559   8.668 -4.1062  0.4287 -1.9734
 2643SOL    HW219563   2.688   0.583   8.816  0.3586  0.3728 -0.7911
 2644SOL     OW19564   3.567   1.602   6.226  0.1779 -0.3865  0.0206
 2644SOL    HW119565   3.507   1.668   6.259  1.5111  0.3682  0.9323
 2644SOL    HW219566   3.643   1.646   6.264  0.5455 -0.9719 -0.0388
 2645SOL     OW19567   0.264   0.058   4.337  0.4440 -0.2194  0.3150
 2645SOL    HW119568   0.224   4.741   4.273  0.6906 -0.1971  0.1400
 2645SOL    HW219569   0.355   0.032   4.325  1.3219  2.2917  1.6381
 2646SOL     OW19570   0.422   1.136  12.662  0.3708  0.1392 -0.4756
 2646SOL    HW119571   0.380   1.085  12.732 -0.3239 -0.8598 -1.6133
 2646SOL    HW219572   0.360   1.141  12.589 -2.1134  0.2302  1.6277
 2647SOL     OW19573   4.314   2.406  17.452  0.0370 -0.0436  0.3668
 2647SOL    HW119574   4.240   2.444  17.405  0.3500  0.1764  0.0555
 2647SOL    HW219575   4.347   2.486  17.492  1.1070  0.1958 -1.0192
 2648SOL     OW19576   0.279   2.558   1.810 -0.4331  0.2894 -0.4405
 2648SOL    HW119577   0.367   2.526   1.828  0.1266  1.1966 -1.5713
 2648SOL    HW219578   0.223   2.522   1.879  2.6683  1.0416  2.4629
 2649SOL     OW19579   0.785   4.168  13.542  0.3871 -0.1963  0.1952
 2649SOL    HW119580   0.776   4.241  13.602  0.3288  0.0660 -0.1328
 2649SOL    HW219581   0.692   4.145  13.542  0.3308  0.0758  2.0159
 2650SOL     OW19582   0.929   2.440  16.965  0.2635 -0.1689 -0.5409
 2650SOL    HW119583   1.012   2.475  16.931 -0.1027  1.0688 -0.1490
 2650SOL    HW219584   0.969   2.362  17.004  1.1691  0.2660 -0.5884
 2651SOL     OW19585   3.401   2.791   0.565 -0.3122 -0.6376 -0.2446
 2651SOL    HW119586   3.448   2.870   0.537  0.0434 -0.9363 -0.4836
 2651SOL    HW219587   3.327   2.786   0.505 -0.7569  0.3843  0.2262
 2652SOL     OW19588   2.821   3.158   5.128 -0.2787 -0.0365 -0.0352
 2652SOL    HW119589   2.839   3.197   5.042  0.7381 -1.9656 -0.6859
 2652SOL    HW219590   2.861   3.218   5.191 -0.1456  1.7663 -1.8224
 2653SOL     OW19591   4.403   1.323   3.783  0.0626 -0.3030 -0.0163
 2653SOL    HW119592   4.342   1.264   3.828 -1.3376 -0.0232 -1.5458
 2653SOL    HW219593   4.480   1.271   3.805 -0.3108  0.0988  2.1990
 2654SOL     OW19594   2.386   3.352   2.037 -1.4122 -0.1051  0.4714
 2654SOL    HW119595   2.307   3.378   2.085 -2.8154 -0.9793 -1.3540
 2654SOL    HW219596   2.426   3.433   2.067 -0.6157 -0.3544  0.0902
 2655SOL     OW19597   0.149   0.064   7.214 -0.2647 -0.6776 -0.4147
 2655SOL    HW119598   0.186   0.101   7.294 -3.2021 -1.0666  1.1533
 2655SOL    HW219599   0.131   0.142   7.162  0.9532 -0.6355 -0.7608
 2656SOL     OW19600   0.046   3.841   9.067 -0.2475  1.0328 -0.0725
 2656SOL    HW119601   4.693   3.827   9.073 -0.3868  0.8128 -2.4614
 2656SOL    HW219602   0.072   3.750   9.048 -2.9082  0.0859  0.8508
 2657SOL     OW19603   0.616   2.088   9.591  0.2134 -0.1859 -0.0880
 2657SOL    HW119604   0.654   2.125   9.670 -1.9582  0.5530  0.6025
 2657SOL    HW219605   0.598   2.170   9.545  0.1307 -0.9402 -1.4155
 2658SOL     OW19606   2.167   1.700   0.032 -0.3777  0.0876  0.4900
 2658SOL    HW119607   2.099   1.767   0.031  1.0693  1.5556  2.5537
 2658SOL    HW219608   2.127   1.652  17.723 -1.6502  2.0747 -0.1118
 2659SOL     OW19609   1.425   0.467   4.294  0.1502 -0.3382 -0.3262
 2659SOL    HW119610   1.481   0.527   4.244  1.3871  0.7137  2.3561
 2659SOL    HW219611   1.370   0.431   4.224  0.5688 -0.3564 -0.6449
 2660SOL     OW19612   2.052   3.166   7.011  0.0102 -0.9804  0.8526
 2660SOL    HW119613   1.968   3.200   7.040 -0.3453  1.6647 -3.1615
 2660SOL    HW219614   2.024   3.141   6.923  0.2395  2.3383 -0.1509
 2661SOL     OW19615   2.338   0.968   2.917 -0.1023  0.1168  0.2180
 2661SOL    HW119616   2.326   1.036   2.851 -2.2889  0.0142  0.4975
 2661SOL    HW219617   2.261   0.987   2.971  1.3018  1.9712  1.5761
 2662SOL     OW19618   4.025   1.981  14.212 -0.4411  0.0993  0.1411
 2662SOL    HW119619   4.034   1.968  14.117  1.3228  2.5218 -0.0173
 2662SOL    HW219620   4.084   2.054  14.230 -0.2135 -0.2626  0.8432
 2663SOL     OW19621   1.216   1.555   5.978 -0.1288  0.0125  0.0800
 2663SOL    HW119622   1.135   1.506   5.987  0.0947 -0.2595  0.6146
 2663SOL    HW219623   1.179   1.643   5.974 -0.2172  0.0052  0.7521
 2664SOL     OW19624   1.804   1.773   6.549  0.3148 -0.3008  0.7610
 2664SOL    HW119625   1.740   1.720   6.597 -0.9850  2.5008  2.1538
 2664SOL    HW219626   1.791   1.860   6.588  0.8616  0.5001 -0.8634
 2665SOL     OW19627   4.599   2.025  11.414 -0.2190 -0.4858 -0.3762
 2665SOL    HW119628   4.543   1.961  11.458 -0.2185 -1.7948 -2.2434
 2665SOL    HW219629   4.663   2.061  11.475  1.7150 -0.2593 -2.5304
 2666SOL     OW19630   4.020   4.346   0.746  0.2949 -0.1950 -0.3250
 2666SOL    HW119631   3.940   4.344   0.800  1.1153  1.5290  0.9350
 2666SOL    HW219632   4.025   4.436   0.716  2.4705 -0.0541  0.5023
 2667SOL     OW19633   2.852   2.442  13.155 -0.5864  0.1440  0.3937
 2667SOL    HW119634   2.771   2.421  13.201 -1.2439  2.3481  0.2372
 2667SOL    HW219635   2.826   2.509  13.091  0.7514 -0.2899 -0.6161
 2668SOL     OW19636   4.535   1.836   1.316 -0.0736  0.7812  0.1656
 2668SOL    HW119637   4.487   1.774   1.371 -0.3244  1.8735  1.1700
 2668SOL    HW219638   4.623   1.837   1.352 -0.0602 -2.5643  0.1821
 2669SOL     OW19639   0.852   1.577  13.697  0.1830 -0.1560 -0.3819
 2669SOL    HW119640   0.905   1.498  13.688 -1.2519 -1.0996 -0.6311
 2669SOL    HW219641   0.908   1.646  13.662 -0.2281 -0.6718 -2.0814
 2670SOL     OW19642   3.312   3.081   2.562 -0.4780 -0.0632  0.3795
 2670SOL    HW119643   3.358   3.114   2.639 -0.9433 -1.1712  1.1352
 2670SOL    HW219644   3.310   2.989   2.587 -1.6983 -0.3005 -0.5588
 2671SOL     OW19645   3.621   2.005   6.580 -0.4330  0.4298  0.0249
 2671SOL    HW119646   3.587   1.978   6.665  1.1118  0.0976  0.5354
 2671SOL    HW219647   3.599   1.923   6.537 -1.9751  0.9483 -0.1802
 2672SOL     OW19648   3.345   4.577   4.675 -0.0191  0.3268  0.6229
 2672SOL    HW119649   3.325   4.486   4.653 -1.3463  0.4156  1.4860
 2672SOL    HW219650   3.263   4.610   4.710  0.4745  1.2293  0.9344
 2673SOL     OW19651   2.561   4.353  16.367 -0.8779 -0.2742 -0.0465
 2673SOL    HW119652   2.579   4.447  16.364 -1.1572 -0.1912  0.8248
 2673SOL    HW219653   2.625   4.308  16.312  0.0240  2.6238 -1.3948
 2674SOL     OW19654   4.047   1.018  16.116  0.8029 -0.3132  0.2325
 2674SOL    HW119655   4.094   0.934  16.124 -2.1073 -1.8585  1.0010
 2674SOL    HW219656   4.118   1.072  16.151  0.9145  0.5792 -1.3857
 2675SOL     OW19657   2.112   4.436  13.380 -0.5081  0.4164 -0.0347
 2675SOL    HW119658   2.201   4.403  13.391 -0.4985 -0.1853 -1.9987
 2675SOL    HW219659   2.113   4.523  13.419 -0.9046 -0.9494  3.0109
 2676SOL     OW19660   2.675   0.961   1.964  0.8220 -0.3669 -0.5554
 2676SOL    HW119661   2.690   1.049   1.997  2.6008 -0.2184 -1.7716
 2676SOL    HW219662   2.747   0.905   1.994 -0.4502 -1.1717  0.9875
 2677SOL     OW19663   0.340   1.913  15.503  0.8178  0.3034  0.1994
 2677SOL    HW119664   0.316   1.839  15.560  2.4168  0.6762  1.3665
 2677SOL    HW219665   0.393   1.956  15.571  1.0019  1.1370 -0.4875
 2678SOL     OW19666   2.976   2.536   7.856  0.1821  0.3269  0.3797
 2678SOL    HW119667   2.989   2.631   7.856  2.0540  0.0567  2.3499
 2678SOL    HW219668   2.966   2.531   7.951 -0.2791 -0.3176  0.2897
 2679SOL     OW19669   2.927   0.897   6.695  0.2839 -0.1954  0.6114
 2679SOL    HW119670   2.860   0.965   6.704  0.7890  0.1651  1.6286
 2679SOL    HW219671   2.897   0.842   6.768 -0.4984 -1.5838 -0.7365
 2680SOL     OW19672   0.091   1.898  13.047 -0.0859 -0.3831  0.3051
 2680SOL    HW119673   0.109   1.943  12.965  0.6482 -2.0416 -0.4635
 2680SOL    HW219674   0.125   1.966  13.105 -0.0685 -1.5446  1.6654
 2681SOL     OW19675   4.339   1.247   7.091  0.2475 -0.0242 -0.5498
 2681SOL    HW119676   4.298   1.328   7.060  2.5379  1.0970 -0.6281
 2681SOL    HW219677   4.388   1.286   7.163 -1.0335 -0.0290  0.3299
 2682SOL     OW19678   1.461   4.232   2.741  0.0727  0.2161 -0.1736
 2682SOL    HW119679   1.438   4.312   2.693  1.3985  1.6998  1.6201
 2682SOL    HW219680   1.374   4.193   2.753 -1.1107  3.0035  0.2871
 2683SOL     OW19681   2.609   1.166   1.269 -0.2826  0.3474  0.8298
 2683SOL    HW119682   2.573   1.237   1.323  2.0750  0.6023  2.0746
 2683SOL    HW219683   2.595   1.095   1.333  1.1060  0.4422  1.2534
 2684SOL     OW19684   2.029   4.148   8.138  0.0988 -0.4994  0.0367
 2684SOL    HW119685   2.033   4.104   8.223 -0.0658 -1.2881 -0.3672
 2684SOL    HW219686   2.104   4.127   8.083 -0.4602  1.9755 -1.6890
 2685SOL     OW19687   0.201   2.810   4.774 -0.3418  0.3960 -0.1045
 2685SOL    HW119688   0.262   2.882   4.759  1.5666 -1.2209 -0.0247
 2685SOL    HW219689   0.246   2.758   4.841  0.2596 -0.6086 -1.3075
 2686SOL     OW19690   1.075   4.556  11.361  1.1865  0.4045 -0.0534
 2686SOL    HW119691   1.056   4.487  11.423 -1.0495  1.8555  0.8858
 2686SOL    HW219692   0.994   4.607  11.367  1.6967  1.2095  0.0669
 2687SOL     OW19693   1.596   4.722   5.003  0.0432  0.4263  0.6941
 2687SOL    HW119694   1.503   4.702   5.007  0.3703 -0.9153  1.8793
 2687SOL    HW219695   1.606   0.009   4.913  0.4569 -0.3140  0.5074
 2688SOL     OW19696   3.846   2.817   2.459 -0.3564 -0.2356 -0.4322
 2688SOL    HW119697   3.921   2.874   2.472  0.1455 -0.8925 -0.4540
 2688SOL    HW219698   3.888   2.758   2.397  0.9810 -0.2590  0.4975
 2689SOL     OW19699   1.988   1.745   8.444  0.6167  0.5213  0.8200
 2689SOL    HW119700   2.079   1.721   8.425  0.5850  1.5849 -0.6257
 2689SOL    HW219701   1.954   1.740   8.355 -0.3077 -1.1231  1.2606
 2690SOL     OW19702   4.374   2.218   0.194 -0.0311 -0.1323 -0.5843
 2690SOL    HW119703   4.390   2.228   0.100  0.4869 -0.3876 -0.5220
 2690SOL    HW219704   4.461   2.232   0.231  0.0551  3.4934 -2.0917
 2691SOL     OW19705   1.979   1.973   2.739 -0.4413  0.2226 -0.3048
 2691SOL    HW119706   1.909   2.016   2.789 -0.4727  0.1553 -0.2893
 2691SOL    HW219707   1.980   1.897   2.798 -0.6110  0.1532 -0.3915
 2692SOL     OW19708   0.873   3.415   1.570 -0.2158 -0.1710 -0.0647
 2692SOL    HW119709   0.795   3.409   1.516 -1.1424  0.0046  1.2526
 2692SOL    HW219710   0.909   3.492   1.526 -2.2542  0.4643 -0.5892
 2693SOL     OW19711   2.854   0.563   8.552  0.2163 -0.1029 -0.0096
 2693SOL    HW119712   2.831   0.556   8.459 -1.0476  0.6001  0.2556
 2693SOL    HW219713   2.934   0.615   8.542  0.5109 -0.7559 -1.0680
 2694SOL     OW19714   0.509   3.060   2.767 -0.1544 -0.3843  0.1776
 2694SOL    HW119715   0.591   3.105   2.745  0.3670 -1.9970 -1.1757
 2694SOL    HW219716   0.537   2.983   2.815 -3.9133  0.7237  4.0877
 2695SOL     OW19717   3.581   1.844   0.272 -0.4666  0.6783  0.2811
 2695SOL    HW119718   3.511   1.815   0.214  0.0268 -0.5807  0.3073
 2695SOL    HW219719   3.653   1.847   0.209 -0.8604 -0.8633 -0.2398
 2696SOL     OW19720   1.265   2.681   7.226  0.0156  0.1850 -0.4560
 2696SOL    HW119721   1.170   2.684   7.217 -0.1258 -1.3510  0.5732
 2696SOL    HW219722   1.283   2.629   7.148  3.0755 -0.5129  0.7353
 2697SOL     OW19723   1.555   3.358   1.674 -0.1615  0.4004 -0.0904
 2697SOL    HW119724   1.650   3.352   1.662  0.1462  2.5603  1.1306
 2697SOL    HW219725   1.556   3.436   1.729 -0.7136  1.4253 -1.5427
 2698SOL     OW19726   1.673   3.481   5.905 -0.1576 -0.3438  0.0672
 2698SOL    HW119727   1.624   3.563   5.911  0.0664 -0.1436 -0.7982
 2698SOL    HW219728   1.612   3.407   5.913  0.1988 -0.4595  1.6333
 2699SOL     OW19729   0.978   3.705  14.417  0.2977 -0.0678 -0.3072
 2699SOL    HW119730   0.902   3.751  14.381  2.4731  1.1648 -3.2886
 2699SOL    HW219731   1.047   3.771  14.410 -0.0389  0.0388 -2.7743
 2700SOL     OW19732   0.019   4.227  14.346  0.2961 -0.3398  0.2215
 2700SOL    HW119733   0.036   4.300  14.406 -1.4721  2.1644 -2.3481
 2700SOL    HW219734   0.054   4.261  14.264  0.0634  1.4701  0.8726
 2701SOL     OW19735   2.142   0.323   1.665  0.7173 -0.2375  0.0532
 2701SOL    HW119736   2.136   0.363   1.752  0.9981 -1.4487  0.6315
 2701SOL    HW219737   2.163   0.398   1.609  2.0052 -1.4872 -1.1397
 2702SOL     OW19738   0.029   1.193   7.214 -0.2267 -0.3267  0.4351
 2702SOL    HW119739   0.062   1.104   7.224  0.9466 -0.1617 -2.0391
 2702SOL    HW219740   0.031   1.207   7.309 -2.4745  1.3789  0.2310
 2703SOL     OW19741   1.991   3.970   3.262  0.2467 -0.1607  0.2379
 2703SOL    HW119742   2.005   3.942   3.353 -1.8516 -1.2602  0.2153
 2703SOL    HW219743   1.933   3.905   3.223 -0.4215  1.6764 -1.8067
 2704SOL     OW19744   3.569   3.363   7.780  0.1769 -0.3762  0.3077
 2704SOL    HW119745   3.516   3.305   7.724 -1.1602  1.7133 -0.5790
 2704SOL    HW219746   3.538   3.314   7.856  0.2996  0.2795  0.7752
 2705SOL     OW19747   0.424   1.696  16.553  0.2108  0.0871  0.1084
 2705SOL    HW119748   0.346   1.641  16.558  1.3154 -1.4674  0.2212
 2705SOL    HW219749   0.462   1.698  16.641  0.6399  0.4839 -0.0825
 2706SOL     OW19750   3.945   0.161   6.676  0.0427 -0.3991 -0.1035
 2706SOL    HW119751   4.021   0.114   6.640  1.0907  1.9001 -0.9067
 2706SOL    HW219752   3.892   0.087   6.704  0.1411 -0.5736 -0.3745
 2707SOL     OW19753   0.768   2.810  10.155  0.5254  0.0064  0.2277
 2707SOL    HW119754   0.759   2.851  10.069  0.7779 -1.2989 -0.4108
 2707SOL    HW219755   0.807   2.884  10.202 -0.4965  1.1060 -0.6245
 2708SOL     OW19756   3.579   2.157   5.370 -0.0616 -0.1408 -1.1852
 2708SOL    HW119757   3.498   2.155   5.421 -1.4365 -3.7659 -3.5667
 2708SOL    HW219758   3.544   2.108   5.296 -1.2754  0.3480 -0.9399
 2709SOL     OW19759   0.545   3.162   2.366 -0.5334  0.3958 -0.0695
 2709SOL    HW119760   0.515   3.237   2.416 -1.6473 -0.6004  0.7655
 2709SOL    HW219761   0.636   3.160   2.396 -1.0678 -0.2547  1.5047
 2710SOL     OW19762   4.473   3.240   0.911 -0.5805 -0.1265  0.2057
 2710SOL    HW119763   4.392   3.272   0.872 -0.7702 -0.1078  0.6118
 2710SOL    HW219764   4.516   3.186   0.845 -2.0799 -1.9872  0.7490
 2711SOL     OW19765   3.573   1.005  10.017 -0.1022 -0.2201 -0.2833
 2711SOL    HW119766   3.604   1.003   9.927  1.1191 -1.1065  0.1633
 2711SOL    HW219767   3.624   1.076  10.054 -1.7075  0.3004  0.9579
 2712SOL     OW19768   3.819   1.282   1.230 -0.3746  0.2335 -0.4023
 2712SOL    HW119769   3.798   1.363   1.183 -1.3556  0.7582  0.9236
 2712SOL    HW219770   3.855   1.227   1.161 -3.2713 -3.4619  1.0134
 2713SOL     OW19771   3.208   0.298  16.398  0.2651  0.0834  0.6015
 2713SOL    HW119772   3.131   0.345  16.431 -0.9061 -0.7991 -0.8667
 2713SOL    HW219773   3.249   0.361  16.339  1.5682 -0.6366  0.7590
 2714SOL     OW19774   4.529   1.605   8.976  0.1661  0.2456  0.1509
 2714SOL    HW119775   4.590   1.536   8.998  0.9200  1.4900  2.0101
 2714SOL    HW219776   4.472   1.573   8.906  1.2368  1.2372 -1.1764
 2715SOL     OW19777   3.348   3.885   5.077  0.3502  0.8729 -0.6034
 2715SOL    HW119778   3.315   3.964   5.033  1.3898  1.6016 -0.0979
 2715SOL    HW219779   3.297   3.820   5.030 -0.0841  0.7321  0.0682
 2716SOL     OW19780   0.963   1.405   4.091 -0.4906 -0.1990  0.0867
 2716SOL    HW119781   0.971   1.311   4.080  0.4134 -0.1706  0.5246
 2716SOL    HW219782   1.056   1.425   4.089 -0.8713  1.7211  1.7110
 2717SOL     OW19783   1.346   3.825   9.395 -0.1391 -0.6699  0.4560
 2717SOL    HW119784   1.400   3.871   9.458 -1.2242  0.7763  0.3207
 2717SOL    HW219785   1.405   3.753   9.372  1.0008  0.5417 -0.4025
 2718SOL     OW19786   0.769   4.390  14.904 -0.7716  0.5435  0.6492
 2718SOL    HW119787   0.763   4.485  14.890 -0.2164  0.2951 -1.1318
 2718SOL    HW219788   0.739   4.361  14.818  0.1429  0.3220  0.4122
 2719SOL     OW19789   2.961   1.345   5.839  0.3034 -0.5527 -0.0011
 2719SOL    HW119790   2.942   1.438   5.823  1.2569  0.1197  2.7554
 2719SOL    HW219791   2.869   1.327   5.819  0.1286 -0.9351  1.1332
 2720SOL     OW19792   0.600   4.357  10.014 -0.2456 -0.3245 -0.0477
 2720SOL    HW119793   0.558   4.374  10.099  0.8748 -2.7376  0.9661
 2720SOL    HW219794   0.521   4.378   9.964  1.1672  3.0138 -0.9229
 2721SOL     OW19795   3.596   3.264   5.759  0.5087  0.1684 -0.1615
 2721SOL    HW119796   3.637   3.336   5.709  1.7884 -1.0100 -0.8117
 2721SOL    HW219797   3.672   3.223   5.799  1.9237  0.3094 -2.6625
 2722SOL     OW19798   4.395   2.600  15.306  0.6697  0.5399  0.3683
 2722SOL    HW119799   4.422   2.660  15.375 -0.4059  1.3004  0.1250
 2722SOL    HW219800   4.477   2.615  15.260 -1.7220  0.1317 -4.0096
 2723SOL     OW19801   0.305   3.786   7.575 -0.3563 -0.4803 -0.4613
 2723SOL    HW119802   0.289   3.877   7.548 -2.3859 -1.5852 -2.9089
 2723SOL    HW219803   0.304   3.793   7.670  3.0064 -1.8835 -0.3242
 2724SOL     OW19804   2.397   3.583   7.494  0.0663  0.0790  0.1316
 2724SOL    HW119805   2.402   3.636   7.414 -0.8227  1.7250  1.1585
 2724SOL    HW219806   2.424   3.501   7.453  0.0703 -0.8325  1.9906
 2725SOL     OW19807   4.021   2.528   5.380  0.3890 -0.3415  0.3716
 2725SOL    HW119808   4.019   2.538   5.285  2.4721 -2.1119  0.1629
 2725SOL    HW219809   4.081   2.454   5.388  0.0449 -0.7140 -0.4591
 2726SOL     OW19810   0.585   2.418   4.608  0.0514  0.0022  0.4647
 2726SOL    HW119811   0.493   2.411   4.582  0.3342 -1.2063 -0.1644
 2726SOL    HW219812   0.623   2.347   4.557 -0.1572 -0.3463  0.8017
 2727SOL     OW19813   1.088   2.768  13.265 -0.2400 -0.1811  0.0005
 2727SOL    HW119814   1.086   2.766  13.361 -1.5548 -0.0928 -0.0284
 2727SOL    HW219815   1.171   2.722  13.253 -0.2919 -0.5291  0.9632
 2728SOL     OW19816   1.645   0.596   6.026  0.2047 -0.1922  0.0115
 2728SOL    HW119817   1.706   0.581   6.099  0.8025 -1.6890 -0.7866
 2728SOL    HW219818   1.686   0.538   5.962  1.6932 -0.0879  0.8496
 2729SOL     OW19819   3.865   4.326   3.574 -0.7135 -0.5609  0.2760
 2729SOL    HW119820   3.781   4.303   3.533 -1.0920  3.1400 -1.0002
 2729SOL    HW219821   3.859   4.287   3.662  0.8783 -0.4302  0.4349
 2730SOL     OW19822   2.467   3.009   4.610 -0.1641  0.0021 -0.2365
 2730SOL    HW119823   2.380   2.975   4.626  0.0836  0.2158  1.5458
 2730SOL    HW219824   2.521   2.951   4.663  1.8626  2.3469  0.3217
 2731SOL     OW19825   4.422   0.923  12.667 -0.3953  0.3107 -0.1972
 2731SOL    HW119826   4.380   0.841  12.639 -1.1877 -0.8138  4.2427
 2731SOL    HW219827   4.484   0.931  12.594 -0.6833 -0.9908 -0.5939
 2732SOL     OW19828   2.472   3.712   4.250 -0.0657 -0.7455 -0.1890
 2732SOL    HW119829   2.391   3.761   4.233  1.0034  1.8400  2.1197
 2732SOL    HW219830   2.493   3.743   4.338 -0.7181  0.9263 -0.6199
 2733SOL     OW19831   1.908   2.156   3.923  0.2247 -0.7072  0.1305
 2733SOL    HW119832   1.857   2.235   3.908  0.9905 -0.5945 -1.8818
 2733SOL    HW219833   1.839   2.093   3.945  1.8558 -3.3083 -2.2299
 2734SOL     OW19834   3.031   2.228   5.109 -0.3334  0.2963 -0.3364
 2734SOL    HW119835   2.944   2.245   5.073  0.1092  0.0571 -1.5178
 2734SOL    HW219836   3.064   2.317   5.121 -2.4797  0.6449  3.0272
 2735SOL     OW19837   3.431   0.941   0.453 -0.1689  0.5496 -0.0159
 2735SOL    HW119838   3.424   0.907   0.364  2.3657  0.4146 -0.1647
 2735SOL    HW219839   3.443   0.859   0.502 -3.3982  0.5830  0.8273
 2736SOL     OW19840   0.137   2.505  11.875 -0.7338 -0.8748 -0.5296
 2736SOL    HW119841   0.115   2.463  11.958  0.2973 -1.3058 -0.4684
 2736SOL    HW219842   0.097   2.592  11.882  2.1872  0.3755  0.6039
 2737SOL     OW19843   1.133   2.208   3.363 -0.0217 -0.3517 -0.5594
 2737SOL    HW119844   1.220   2.185   3.395  0.0286  0.3415 -0.1887
 2737SOL    HW219845   1.122   2.285   3.419 -2.2825 -0.3549 -1.0368
 2738SOL     OW19846   3.770   1.053   7.232  0.0816 -0.4719  0.6582
 2738SOL    HW119847   3.724   1.090   7.307 -1.3299  2.2745 -1.5637
 2738SOL    HW219848   3.745   1.117   7.165  2.2511 -1.2332 -0.9064
 2739SOL     OW19849   2.984   4.033  13.329  0.1920 -0.0957  0.1492
 2739SOL    HW119850   3.056   4.096  13.325 -1.9716  2.2443 -1.3958
 2739SOL    HW219851   3.035   3.968  13.377  1.3163 -0.2321 -1.2330
 2740SOL     OW19852   3.729   1.259   8.804 -0.1856 -0.3623  0.0146
 2740SOL    HW119853   3.660   1.285   8.864 -1.6815 -1.2441 -1.3121
 2740SOL    HW219854   3.784   1.223   8.873 -1.6670  1.8439  2.3354
 2741SOL     OW19855   2.866   2.662   7.004  0.2233 -0.3079 -0.4264
 2741SOL    HW119856   2.890   2.747   6.968  0.4250  0.1698  0.8700
 2741SOL    HW219857   2.934   2.605   6.968  0.6336 -0.7100  1.0214
 2742SOL     OW19858   3.445   0.463   4.314 -0.2076  0.1218  0.2649
 2742SOL    HW119859   3.358   0.436   4.283 -0.1324  0.4579 -0.2463
 2742SOL    HW219860   3.422   0.470   4.407  0.8225  1.0600  0.4495
 2743SOL     OW19861   4.669   0.428   4.712 -0.8069  0.3333 -0.6313
 2743SOL    HW119862   4.668   0.346   4.662 -0.9405  0.1498 -0.3297
 2743SOL    HW219863   4.655   0.394   4.800 -2.8055 -0.7677 -1.3543
 2744SOL     OW19864   1.860   1.476   3.009  0.6434  0.4584 -0.2519
 2744SOL    HW119865   1.841   1.513   2.923  0.8093 -0.1977 -0.5711
 2744SOL    HW219866   1.815   1.537   3.067  0.4136 -0.1235  0.1785
 2745SOL     OW19867   4.588   0.767   6.370 -0.0234 -0.2970 -0.0743
 2745SOL    HW119868   4.650   0.712   6.418 -0.1878 -0.4111  0.0063
 2745SOL    HW219869   4.550   0.701   6.311 -0.0593  0.0597 -0.4541
 2746SOL     OW19870   1.201   1.803   9.417  0.3498  0.0721 -0.5898
 2746SOL    HW119871   1.269   1.838   9.359  0.6793 -1.0950 -0.9103
 2746SOL    HW219872   1.252   1.786   9.496 -0.8353  0.6544  0.2894
 2747SOL     OW19873   3.884   2.273   8.026 -0.3098  0.4192 -0.7232
 2747SOL    HW119874   3.836   2.190   8.036 -2.2987  1.9045  2.0946
 2747SOL    HW219875   3.971   2.241   8.049 -1.2026 -0.8229  1.0053
 2748SOL     OW19876   2.438   2.496   1.644  0.2350  0.2045  0.1858
 2748SOL    HW119877   2.353   2.519   1.608 -0.7876 -2.8715  0.6365
 2748SOL    HW219878   2.480   2.440   1.579  0.5474 -0.4571  0.9574
 2749SOL     OW19879   2.820   2.374   8.941  0.0278 -0.0552  0.1065
 2749SOL    HW119880   2.848   2.405   9.027  0.3382  0.9621 -0.3634
 2749SOL    HW219881   2.875   2.422   8.879  1.4043 -1.7727 -0.0023
 2750SOL     OW19882   2.454   3.802   5.927 -0.1170 -0.3740  0.1156
 2750SOL    HW119883   2.428   3.766   6.012 -0.1962 -0.1866  0.1681
 2750SOL    HW219884   2.432   3.721   5.880  1.7832  0.0447 -1.5157
 2751SOL     OW19885   2.177   2.909   1.665 -0.2476 -0.0771  0.5634
 2751SOL    HW119886   2.205   2.854   1.739 -1.5783 -0.1517  1.0121
 2751SOL    HW219887   2.162   2.998   1.695  0.2875  0.4920 -0.8668
 2752SOL     OW19888   0.745   3.307   7.167 -0.2555  0.3086  0.2468
 2752SOL    HW119889   0.709   3.264   7.090  0.8649  0.2399 -0.2415
 2752SOL    HW219890   0.838   3.311   7.145  0.1480 -1.2056  1.6380
 2753SOL     OW19891   0.329   1.762  16.267  0.0092  0.1049 -0.4394
 2753SOL    HW119892   0.406   1.812  16.241  0.1922  0.1599  0.1870
 2753SOL    HW219893   0.359   1.747  16.357 -1.9751  0.6438  0.3033
 2754SOL     OW19894   1.494   3.049  12.422  0.5366 -0.2725 -0.3374
 2754SOL    HW119895   1.485   3.013  12.334  2.3422 -0.2332 -0.5418
 2754SOL    HW219896   1.557   2.986  12.457  0.8420  0.9420  1.3187
 2755SOL     OW19897   1.202   1.846   7.724 -0.4814  0.4015 -0.5398
 2755SOL    HW119898   1.175   1.902   7.797  1.9260  0.7284  0.0811
 2755SOL    HW219899   1.265   1.908   7.688  0.7648  0.8805  2.4421
 2756SOL     OW19900   2.226   3.851  13.101 -0.3832  0.3906 -0.0417
 2756SOL    HW119901   2.273   3.789  13.157 -1.2164 -0.3557 -0.1554
 2756SOL    HW219902   2.238   3.931  13.152  1.8028 -0.3264  0.5563
 2757SOL     OW19903   4.293   3.305  12.558 -0.6528 -0.3413  0.2061
 2757SOL    HW119904   4.329   3.217  12.570 -0.9682 -0.9431 -3.3073
 2757SOL    HW219905   4.248   3.300  12.474  2.0998 -0.1027 -1.2825
 2758SOL     OW19906   0.266   1.061   9.545 -0.2362 -0.1461 -0.2297
 2758SOL    HW119907   0.231   0.983   9.590 -0.2076 -0.2377 -0.3657
 2758SOL    HW219908   0.322   1.111   9.605  1.2837 -2.1459  0.0335
 2759SOL     OW19909   3.669   0.972  11.957  0.7634  0.4208  0.6283
 2759SOL    HW119910   3.764   0.962  11.962  0.5911 -1.5293  0.0315
 2759SOL    HW219911   3.644   1.013  12.040 -1.3009 -1.2965  0.8486
 2760SOL     OW19912   3.342   3.560   0.103  0.0482 -0.7115 -0.6273
 2760SOL    HW119913   3.432   3.529   0.110  0.1740 -0.4820 -1.2278
 2760SOL    HW219914   3.356   3.646   0.062 -0.2969  0.3289  1.4507
 2761SOL     OW19915   3.551   1.830   2.635  0.3173  0.0984 -0.8029
 2761SOL    HW119916   3.465   1.791   2.623 -0.5929  1.9125 -0.0793
 2761SOL    HW219917   3.591   1.751   2.674 -0.6715 -0.2405 -0.4884
 2762SOL     OW19918   4.017   1.356   7.441  0.0600 -0.0156  0.5594
 2762SOL    HW119919   4.007   1.407   7.360 -2.9450  2.2471  2.3463
 2762SOL    HW219920   4.106   1.385   7.462 -0.2075  1.5568 -0.4478
 2763SOL     OW19921   2.581   2.962   4.370  0.3747  0.0395 -0.2673
 2763SOL    HW119922   2.530   2.984   4.449 -0.6629  3.2435 -1.8428
 2763SOL    HW219923   2.516   2.984   4.304  2.5857  0.4794 -2.2671
 2764SOL     OW19924   4.444   0.357   7.762 -0.4215 -0.3478  0.0104
 2764SOL    HW119925   4.446   0.452   7.747  0.9486 -0.3369  0.3348
 2764SOL    HW219926   4.393   0.322   7.689 -0.6928 -2.3419  1.1524
 2765SOL     OW19927   2.490   3.609   1.738 -0.2737  0.1696 -0.6104
 2765SOL    HW119928   2.424   3.541   1.725 -0.3082  0.1031 -0.0860
 2765SOL    HW219929   2.544   3.595   1.660 -0.5456  0.9859 -0.9426
 2766SOL     OW19930   3.059   0.163   9.874 -0.1521  0.4613 -0.4325
 2766SOL    HW119931   3.076   0.073   9.902  3.3907  0.6396 -1.9786
 2766SOL    HW219932   3.140   0.174   9.825 -0.0308 -0.7591 -0.5148
 2767SOL     OW19933   1.464   3.824   6.519  0.1232 -0.0321  0.4929
 2767SOL    HW119934   1.462   3.886   6.446 -0.4659  1.2220  1.5746
 2767SOL    HW219935   1.451   3.879   6.597 -1.4787  0.6144 -0.2419
 2768SOL     OW19936   4.011   1.264   6.391  0.3023  0.1210 -0.3236
 2768SOL    HW119937   4.051   1.238   6.308  0.8782  3.7196 -1.1475
 2768SOL    HW219938   3.949   1.332   6.367 -0.3717 -0.3445  0.0951
 2769SOL     OW19939   3.279   1.818   3.650 -0.2073 -0.8675  0.5302
 2769SOL    HW119940   3.358   1.850   3.606  0.1243  1.0963  2.6202
 2769SOL    HW219941   3.293   1.723   3.649  0.4038 -0.7538 -2.6049
 2770SOL     OW19942   3.962   2.639   5.713 -0.3158 -0.2196 -0.2640
 2770SOL    HW119943   4.014   2.619   5.790 -1.6950 -1.3451  0.3801
 2770SOL    HW219944   3.874   2.649   5.751 -0.1681 -1.4369  0.3772
 2771SOL     OW19945   0.736   4.120   8.806 -0.4454  0.0919  0.9573
 2771SOL    HW119946   0.693   4.198   8.841 -1.8600 -0.1732 -0.1969
 2771SOL    HW219947   0.772   4.157   8.726  0.7429  1.3533  2.0750
 2772SOL     OW19948   0.725   0.428   7.534  0.0378  0.0395 -0.1390
 2772SOL    HW119949   0.668   0.453   7.606  1.1243 -2.3371  1.5736
 2772SOL    HW219950   0.771   0.512   7.542 -2.0715  1.3948 -2.2842
 2773SOL     OW19951   0.349   4.517  10.431 -0.4300  0.0592  0.4332
 2773SOL    HW119952   0.333   4.585  10.496  2.2938 -0.6606  1.8494
 2773SOL    HW219953   0.348   4.434  10.479 -2.0411  1.9388  3.6382
 2774SOL     OW19954   2.236   3.702   0.577 -0.2239  0.3931 -0.2467
 2774SOL    HW119955   2.185   3.756   0.638 -0.2752  1.5440 -1.3164
 2774SOL    HW219956   2.166   3.648   0.542 -0.5129  2.3703 -2.7201
 2775SOL     OW19957   1.308   3.802   7.688  0.0535 -0.4128 -0.4338
 2775SOL    HW119958   1.372   3.809   7.760 -1.3330  1.7781  0.5882
 2775SOL    HW219959   1.262   3.886   7.694  1.6298  0.4829 -0.7540
 2776SOL     OW19960   3.503   3.635   5.667 -0.6276  0.6426  0.6206
 2776SOL    HW119961   3.490   3.559   5.609 -2.6799 -0.8407  3.0212
 2776SOL    HW219962   3.412   3.664   5.670 -0.0216  2.4447  0.9895
 2777SOL     OW19963   2.077   2.563   6.212 -0.1559  0.2653 -0.2151
 2777SOL    HW119964   2.073   2.637   6.273 -2.4851 -0.4654  0.5228
 2777SOL    HW219965   2.143   2.508   6.255 -2.2050 -2.1471 -0.1138
 2778SOL     OW19966   2.102   2.686  17.023 -0.3198 -0.0723  0.2912
 2778SOL    HW119967   2.043   2.618  16.989  1.8693 -0.7385 -2.1304
 2778SOL    HW219968   2.035   2.723  17.081 -0.8070 -0.6416  0.0986
 2779SOL     OW19969   4.091   2.390   4.479 -0.1600  0.0701  0.4925
 2779SOL    HW119970   4.028   2.366   4.546  0.2629  1.2295  1.3151
 2779SOL    HW219971   4.044   2.400   4.396 -0.3909 -2.0823  0.3698
 2780SOL     OW19972   4.011   2.095   3.626 -0.2474 -0.5533  0.2991
 2780SOL    HW119973   4.095   2.137   3.641 -1.4363  1.1590  2.2051
 2780SOL    HW219974   3.945   2.164   3.619 -1.0876 -1.1795  1.9042
 2781SOL     OW19975   2.845   1.106   1.177  0.4144  0.1356 -0.3459
 2781SOL    HW119976   2.844   1.184   1.121  1.7650  1.5466  1.5582
 2781SOL    HW219977   2.753   1.115   1.203  0.4555  1.7997 -0.7465
 2782SOL     OW19978   4.527   0.587  16.206 -0.4692  0.2588  0.7001
 2782SOL    HW119979   4.441   0.582  16.249 -1.8457  0.5916 -2.0137
 2782SOL    HW219980   4.587   0.549  16.270  1.0741 -0.1254 -0.9657
 2783SOL     OW19981   3.219   1.088   6.948 -0.3646 -0.3756 -0.0818
 2783SOL    HW119982   3.161   1.161   6.926 -1.5862 -1.0751  0.8272
 2783SOL    HW219983   3.155   1.017   6.946  2.3272 -2.8651  1.0529
 2784SOL     OW19984   1.009   2.357   3.845 -0.0296 -0.6000 -0.1963
 2784SOL    HW119985   0.998   2.407   3.926  1.7000  1.0020 -0.9746
 2784SOL    HW219986   0.992   2.268   3.876  1.8941 -0.1314  2.1576
 2785SOL     OW19987   2.375   3.591   6.116 -0.0003  0.4903 -0.5866
 2785SOL    HW119988   2.448   3.532   6.133  0.6881  0.9379 -2.0229
 2785SOL    HW219989   2.304   3.537   6.081  0.0045 -0.3654  0.7092
 2786SOL     OW19990   4.501   3.529   4.110 -0.5850 -0.6286  0.1577
 2786SOL    HW119991   4.503   3.611   4.060  0.4077 -0.5440  0.3333
 2786SOL    HW219992   4.589   3.521   4.147 -0.0471 -1.1602 -1.2371
 2787SOL     OW19993   3.480   2.988   7.326 -0.3932 -0.4747 -0.5220
 2787SOL    HW119994   3.525   2.925   7.269 -1.2610 -0.3687 -1.3331
 2787SOL    HW219995   3.417   2.933   7.371  0.9704 -3.2163 -1.9497
 2788SOL     OW19996   4.269   2.509   8.462 -0.0266 -0.3705 -0.2886
 2788SOL    HW119997   4.263   2.417   8.488  2.0556 -0.1056  1.1788
 2788SOL    HW219998   4.178   2.538   8.461  0.3094  0.5936 -2.1172
 2789SOL     OW19999   1.358   3.832   8.127  0.0790 -0.3204 -0.0877
 2789SOL    HW120000   1.388   3.757   8.178 -2.4669 -0.6115  0.9750
 2789SOL    HW220001   1.406   3.823   8.044  0.2869  2.5176 -0.2873
 2790SOL     OW20002   0.238   4.177   6.618 -0.1357 -0.0702  0.6015
 2790SOL    HW120003   0.182   4.237   6.569 -0.6222 -1.3782 -0.4492
 2790SOL    HW220004   0.171   4.110   6.629 -0.4387  0.2820  0.8996
 2791SOL     OW20005   4.278   3.079  14.782  0.0550  0.8958 -0.4416
 2791SOL    HW120006   4.196   3.128  14.771  0.3927  1.8601  1.3867
 2791SOL    HW220007   4.321   3.117  14.858 -0.4596 -1.7038  1.1525
 2792SOL     OW20008   2.255   4.460   8.093 -0.0474 -0.0299 -0.6045
 2792SOL    HW120009   2.343   4.431   8.117  0.4486 -0.2278 -2.7045
 2792SOL    HW220010   2.246   4.430   8.003 -0.0076 -0.6210 -0.4125
 2793SOL     OW20011   1.243   1.674   4.019 -0.3656 -0.1009  0.5680
 2793SOL    HW120012   1.201   1.674   4.105 -0.7923  3.6892  0.3501
 2793SOL    HW220013   1.335   1.650   4.035 -0.3179  1.5359  2.6957
 2794SOL     OW20014   2.047   0.280   6.139 -0.0658 -0.2536 -0.0432
 2794SOL    HW120015   2.140   0.303   6.144 -0.4476  0.6055  3.1129
 2794SOL    HW220016   2.013   0.340   6.206  1.7338  0.6855  0.0315
 2795SOL     OW20017   1.973   4.556   9.912 -0.3891  0.1689 -0.0832
 2795SOL    HW120018   2.028   4.479   9.922 -0.8496 -0.1054  0.3016
 2795SOL    HW220019   1.914   4.525   9.843  1.2881  0.2045 -1.5506
 2796SOL     OW20020   1.517   1.421   5.008 -0.1391  0.3942  0.8969
 2796SOL    HW120021   1.604   1.422   5.047  0.5588 -0.5767 -0.6258
 2796SOL    HW220022   1.532   1.369   4.929 -0.4487 -0.0226  1.1074
 2797SOL     OW20023   0.894   2.846   8.653  0.0715  0.7681 -0.2560
 2797SOL    HW120024   0.825   2.808   8.707  0.5503 -1.2043 -1.0484
 2797SOL    HW220025   0.845   2.860   8.573  0.0093  0.1401 -0.3273
 2798SOL     OW20026   4.013   0.541   9.240 -0.4204 -0.2229 -0.2290
 2798SOL    HW120027   4.012   0.470   9.303 -0.9894 -0.9833 -1.0915
 2798SOL    HW220028   4.037   0.618   9.292 -0.2604 -0.3387 -0.1352
 2799SOL     OW20029   3.793   0.952   7.592 -0.7116  0.6520 -0.7796
 2799SOL    HW120030   3.855   0.928   7.523  0.5410 -2.3912  1.3711
 2799SOL    HW220031   3.755   1.032   7.555 -1.5374  0.6197  0.0002
 2800SOL     OW20032   1.479   3.284  13.401 -0.0155  0.1700 -0.8862
 2800SOL    HW120033   1.567   3.316  13.386  0.0100  1.1114  1.2986
 2800SOL    HW220034   1.452   3.360  13.452  3.0785  0.1467  0.7448
 2801SOL     OW20035   0.326   1.397   7.241 -0.1311 -0.3285 -0.1098
 2801SOL    HW120036   0.358   1.419   7.329  2.2523  0.7896 -1.2546
 2801SOL    HW220037   0.385   1.322   7.230 -1.1961 -0.9024 -1.7811
 2802SOL     OW20038   4.615   2.789   5.461  0.4908 -0.3283 -0.2835
 2802SOL    HW120039   4.549   2.830   5.404  1.1302 -0.4864 -1.1301
 2802SOL    HW220040   4.585   2.704   5.493  0.5423 -0.0937  0.3987
 2803SOL     OW20041   1.693   2.360   3.793  0.2794  0.1018 -0.2356
 2803SOL    HW120042   1.688   2.366   3.888 -0.8647  0.8414 -0.3339
 2803SOL    HW220043   1.622   2.296   3.795  1.6019 -1.4062 -2.0584
 2804SOL     OW20044   3.316   3.070  14.558  0.5237  0.3040 -0.2929
 2804SOL    HW120045   3.410   3.074  14.539  0.8497  0.0709  1.2946
 2804SOL    HW220046   3.305   3.134  14.628  0.8447  0.0873 -0.0454
 2805SOL     OW20047   3.413   3.143   5.312  0.0676 -0.1650  0.0563
 2805SOL    HW120048   3.454   3.057   5.324 -1.1845 -0.5362  1.7217
 2805SOL    HW220049   3.324   3.132   5.345 -0.1952  1.0273 -0.2842
 2806SOL     OW20050   0.671   3.255   8.116  0.2750  0.2012  0.1489
 2806SOL    HW120051   0.594   3.278   8.168  0.2366 -1.5468  0.8530
 2806SOL    HW220052   0.642   3.171   8.081  0.8482  0.2045 -0.3368
 2807SOL     OW20053   2.924   1.931   5.577  0.4180 -0.2251 -0.4559
 2807SOL    HW120054   2.907   1.861   5.515  0.9883  1.4029 -2.4458
 2807SOL    HW220055   2.944   2.012   5.530 -0.3362 -0.5740 -1.3515
 2808SOL     OW20056   2.922   4.205   4.133  0.2232 -0.0041 -0.2996
 2808SOL    HW120057   2.957   4.232   4.049  0.7795 -2.7501 -0.9481
 2808SOL    HW220058   2.887   4.285   4.173  0.1750 -0.4704  0.5923
 2809SOL     OW20059   0.789   2.788  11.765  0.0822 -0.1211  0.4022
 2809SOL    HW120060   0.745   2.741  11.835 -1.1538 -0.0787 -0.3345
 2809SOL    HW220061   0.863   2.728  11.755  2.1633  2.5327 -0.3360
 2810SOL     OW20062   1.436   0.184   2.528  0.4375 -0.1882  0.6029
 2810SOL    HW120063   1.411   0.143   2.445 -0.3756  0.1548  0.6822
 2810SOL    HW220064   1.349   0.204   2.563  0.2640  1.4611 -0.7749
 2811SOL     OW20065   2.549   4.134   9.075 -0.6753 -0.2392  0.1714
 2811SOL    HW120066   2.491   4.060   9.093 -0.4335 -0.9765 -2.0160
 2811SOL    HW220067   2.509   4.162   8.993 -2.6561 -0.8687  0.9239
 2812SOL     OW20068   3.060   4.162   9.490 -0.0099  0.5441  0.5969
 2812SOL    HW120069   3.092   4.156   9.580 -1.2644 -1.2833  0.9031
 2812SOL    HW220070   3.123   4.224   9.454 -2.1612  0.9184 -2.5534
 2813SOL     OW20071   3.739   2.599   5.389  0.3763  0.3259  0.2163
 2813SOL    HW120072   3.702   2.591   5.302 -1.3832  0.9734  0.9202
 2813SOL    HW220073   3.834   2.609   5.380  0.3292  1.0965  0.6092
 2814SOL     OW20074   2.218   3.753   1.760 -0.3402  0.7757  0.2432
 2814SOL    HW120075   2.282   3.688   1.790 -1.1443  0.5453  1.4829
 2814SOL    HW220076   2.261   3.812   1.698 -0.9609 -0.5356 -1.4338
 2815SOL     OW20077   2.524   0.193   9.641 -0.8376 -0.6124  0.2036
 2815SOL    HW120078   2.438   0.203   9.683 -0.1423  1.3250  1.1685
 2815SOL    HW220079   2.550   0.124   9.701 -0.8524 -0.8529 -0.0662
 2816SOL     OW20080   0.921   2.126  12.359 -0.0901 -0.1701 -0.3951
 2816SOL    HW120081   0.895   2.199  12.415 -0.7472 -0.0032 -0.9116
 2816SOL    HW220082   0.988   2.086  12.414 -1.0765  0.7364  1.4572
 2817SOL     OW20083   4.005   3.762   8.383 -0.0248 -0.4964 -0.5204
 2817SOL    HW120084   4.074   3.729   8.441  0.8369  1.3460 -0.4749
 2817SOL    HW220085   3.933   3.763   8.446 -0.2856 -1.3063 -0.8047
 2818SOL     OW20086   3.089   1.999   3.610 -0.0609 -0.0072 -0.3889
 2818SOL    HW120087   3.021   1.984   3.676  0.6790 -2.9065 -0.2674
 2818SOL    HW220088   3.156   1.931   3.619  0.2187  0.2558 -0.4833
 2819SOL     OW20089   4.132   1.002   9.085  0.1855 -0.3522  0.0183
 2819SOL    HW120090   4.189   0.930   9.059  1.2768  0.2640  0.6988
 2819SOL    HW220091   4.092   0.971   9.166  1.6480  1.0969  1.3087
 2820SOL     OW20092   0.610   1.628   3.653 -0.4161  0.4320  0.1968
 2820SOL    HW120093   0.675   1.566   3.687  0.1008  1.8850  1.8718
 2820SOL    HW220094   0.537   1.568   3.637 -0.6997  1.0048 -0.6012
 2821SOL     OW20095   2.153   2.045  16.045  0.2349  0.8117  0.1600
 2821SOL    HW120096   2.123   2.090  15.966  1.3542  0.7026 -0.3274
 2821SOL    HW220097   2.228   1.990  16.024 -0.8773 -0.0295 -1.6676
 2822SOL     OW20098   2.726   1.460  13.819  0.3824  0.1851 -0.4843
 2822SOL    HW120099   2.728   1.434  13.911  0.6913 -0.8602 -0.7849
 2822SOL    HW220100   2.680   1.544  13.820  0.1598  0.0949 -2.6599
 2823SOL     OW20101   1.591   3.088   7.273 -0.3898  0.0587  0.0403
 2823SOL    HW120102   1.519   3.130   7.320  0.6450 -0.1597  1.8353
 2823SOL    HW220103   1.662   3.130   7.320 -3.5128  0.9132  4.0155
 2824SOL     OW20104   1.682   4.244   3.193 -0.6373 -0.1613  0.1260
 2824SOL    HW120105   1.775   4.221   3.195 -0.5798 -0.0208 -0.7903
 2824SOL    HW220106   1.664   4.245   3.099 -0.4390 -1.4904  0.0731
 2825SOL     OW20107   0.828   2.104  14.257  0.1549  0.5071 -0.0271
 2825SOL    HW120108   0.753   2.159  14.235 -0.7242 -1.7895 -2.6817
 2825SOL    HW220109   0.798   2.013  14.257  1.3379  0.0972  3.0475
 2826SOL     OW20110   4.078   3.702   8.847  0.0106  0.7781 -0.3612
 2826SOL    HW120111   4.051   3.786   8.884  0.3866  0.4023  0.7638
 2826SOL    HW220112   3.994   3.657   8.856  1.1167 -1.6190 -2.1738
 2827SOL     OW20113   0.780   2.308  13.562 -0.5757 -0.3469  0.0488
 2827SOL    HW120114   0.858   2.353  13.529 -0.1393 -0.7574  0.5339
 2827SOL    HW220115   0.814   2.239  13.619  1.3837  0.0875 -0.5858
 2828SOL     OW20116   3.599   0.849   2.781  0.3412 -0.3990 -0.1867
 2828SOL    HW120117   3.598   0.945   2.781 -1.4642 -0.4160  2.1157
 2828SOL    HW220118   3.676   0.829   2.834  1.4434  0.3623 -1.4895
 2829SOL     OW20119   0.587   3.638  11.801  0.2342 -0.4654  0.0857
 2829SOL    HW120120   0.674   3.615  11.835  0.4871 -1.0659 -0.9964
 2829SOL    HW220121   0.570   3.577  11.730  1.9063  0.4323 -1.0719
 2830SOL     OW20122   1.596   1.153   4.051  0.2852 -0.2422  0.3567
 2830SOL    HW120123   1.621   1.161   3.959 -0.1413  0.4909  0.3039
 2830SOL    HW220124   1.540   1.231   4.060  0.0390 -0.2824 -0.8966
 2831SOL     OW20125   0.524   1.681  15.294 -0.0254 -0.2439  0.7008
 2831SOL    HW120126   0.470   1.661  15.371 -1.3299  2.2669  0.4366
 2831SOL    HW220127   0.462   1.730  15.239 -0.9816 -2.1680  0.0594
 2832SOL     OW20128   1.760   4.580  12.006  0.5168 -0.1690 -0.0512
 2832SOL    HW120129   1.822   4.518  11.967 -1.2628 -0.7628 -1.9196
 2832SOL    HW220130   1.756   4.634  11.927  1.2519 -0.7381 -0.4714
 2833SOL     OW20131   3.909   0.144   3.035  0.1284  0.5740 -0.7153
 2833SOL    HW120132   3.969   0.206   2.994  1.8339 -0.9921 -0.6159
 2833SOL    HW220133   3.939   0.151   3.126  1.2780  1.3260 -1.1611
 2834SOL     OW20134   1.125   1.463   8.161 -0.3588  0.9713  0.0511
 2834SOL    HW120135   1.189   1.515   8.210  0.2020 -0.5582  0.9286
 2834SOL    HW220136   1.054   1.525   8.142 -0.1180  1.1820 -0.1679
 2835SOL     OW20137   3.953   1.055   6.775  0.4552 -0.4598  0.5760
 2835SOL    HW120138   4.028   1.018   6.727 -0.2875  1.8498 -2.3269
 2835SOL    HW220139   3.972   1.148   6.762 -1.4560 -0.2776 -0.9557
 2836SOL     OW20140   2.453   2.197   3.372  0.2459 -0.3722 -0.2746
 2836SOL    HW120141   2.398   2.244   3.434 -0.5222 -0.6251 -0.7601
 2836SOL    HW220142   2.436   2.244   3.291  0.1697  0.0915  0.0112
 2837SOL     OW20143   2.996   2.557   2.759 -0.4484 -0.2421 -0.2269
 2837SOL    HW120144   2.957   2.610   2.829 -0.1281 -0.3005 -0.0085
 2837SOL    HW220145   3.050   2.500   2.814  1.3221  1.5574 -0.0925
 2838SOL     OW20146   1.434   0.937  10.100 -0.4495 -0.1247 -0.0037
 2838SOL    HW120147   1.528   0.949  10.116 -0.4990 -0.6652  0.6580
 2838SOL    HW220148   1.405   0.997  10.168  1.8627  0.4127  0.4985
 2839SOL     OW20149   0.249   4.391   6.111 -0.3900  0.2750 -1.0234
 2839SOL    HW120150   0.319   4.444   6.074  0.1358  0.2016 -0.1406
 2839SOL    HW220151   0.291   4.349   6.186 -0.9577  0.2577 -0.7132
 2840SOL     OW20152   2.595   2.465   3.701  0.0048 -0.0257  0.5997
 2840SOL    HW120153   2.653   2.434   3.770 -0.7057 -0.3353  1.0627
 2840SOL    HW220154   2.577   2.555   3.727  0.4011 -0.1198  1.1985
 2841SOL     OW20155   3.812   2.223   3.295 -0.6507 -0.3062 -0.1638
 2841SOL    HW120156   3.745   2.250   3.231 -0.0547 -0.0893 -0.6951
 2841SOL    HW220157   3.809   2.128   3.288 -1.5186 -0.2258 -1.0010
 2842SOL     OW20158   4.637   2.135  15.105  0.1704  0.4076 -0.3693
 2842SOL    HW120159   4.673   2.091  15.028 -0.7683 -0.6239 -0.2160
 2842SOL    HW220160   4.712   2.123  15.164  0.3733  2.7877 -0.1755
 2843SOL     OW20161   3.157   1.150   5.219  0.5178 -0.2001  0.0566
 2843SOL    HW120162   3.102   1.126   5.293  0.4172 -1.4380 -0.4102
 2843SOL    HW220163   3.174   1.062   5.183 -1.9238  0.6839 -3.2258
 2844SOL     OW20164   2.948   3.688   1.354 -0.2773 -0.1298  0.6264
 2844SOL    HW120165   3.028   3.741   1.344 -2.6325  3.4980  1.0619
 2844SOL    HW220166   2.945   3.623   1.284  0.5235 -1.8599  2.2053
 2845SOL     OW20167   0.037   1.446   5.543  0.2129 -0.5284  0.2138
 2845SOL    HW120168   4.734   1.362   5.531  4.1037 -2.2246 -1.9895
 2845SOL    HW220169   0.128   1.418   5.534  0.7520  1.6949 -1.1751
 2846SOL     OW20170   3.113   0.836   2.740  0.0441 -0.3613 -0.4335
 2846SOL    HW120171   3.021   0.830   2.765  0.0043  1.5088 -0.1191
 2846SOL    HW220172   3.137   0.923   2.771 -1.8367 -0.8410  2.3479
 2847SOL     OW20173   3.427   0.273   7.271 -1.0143 -0.0639 -0.5995
 2847SOL    HW120174   3.379   0.355   7.280  0.4001  0.8094 -1.0277
 2847SOL    HW220175   3.461   0.245   7.357  0.4115  1.1990 -0.7475
 2848SOL     OW20176   4.692   1.673  17.657  0.6699 -0.4618 -0.0249
 2848SOL    HW120177   0.012   1.746  17.657  0.3204 -0.1563  0.9053
 2848SOL    HW220178   4.630   1.686  17.585  0.6307  0.6060  0.2026
 2849SOL     OW20179   3.436   4.175   1.641  0.3155  0.0962 -0.0256
 2849SOL    HW120180   3.515   4.181   1.694 -0.4613  2.4180  0.8725
 2849SOL    HW220181   3.421   4.081   1.644  2.4502 -0.3046 -1.7856
 2850SOL     OW20182   0.855   0.160  11.576  0.3519  0.5502  0.5288
 2850SOL    HW120183   0.772   0.190  11.614  0.0761  1.3475 -0.6986
 2850SOL    HW220184   0.906   0.171  11.656  0.6603 -0.8475  0.5197
 2851SOL     OW20185   3.234   2.156  16.114 -0.2912  0.0363 -0.0307
 2851SOL    HW120186   3.193   2.242  16.122  0.8539  0.7562 -2.2418
 2851SOL    HW220187   3.152   2.110  16.097 -1.6677  2.5893 -0.1580
 2852SOL     OW20188   3.206   2.689   6.034 -0.0553 -0.3205 -0.0316
 2852SOL    HW120189   3.273   2.622   6.022 -0.8268 -0.6627 -2.3854
 2852SOL    HW220190   3.227   2.759   5.973 -4.3808 -0.4212 -1.6193
 2853SOL     OW20191   0.664   4.726   6.211 -0.3333  0.1431  0.3621
 2853SOL    HW120192   0.750   4.701   6.244 -0.2846  1.5397  1.2597
 2853SOL    HW220193   0.648   0.030   6.293  2.6943  1.9370 -0.0549
 2854SOL     OW20194   0.179   4.131  13.330 -0.3508  0.2632 -0.0892
 2854SOL    HW120195   0.168   4.185  13.408  0.1504  0.1565  0.0508
 2854SOL    HW220196   0.110   4.065  13.334  2.4489 -2.6508 -0.2180
 2855SOL     OW20197   2.222   1.882   8.982  0.0890 -0.5429 -0.2088
 2855SOL    HW120198   2.172   1.960   8.958 -0.2329 -0.2761  1.3471
 2855SOL    HW220199   2.165   1.815   8.943 -1.0958 -0.8652  2.1122
 2856SOL     OW20200   3.739   4.299  16.609 -0.0199  0.2189  0.4010
 2856SOL    HW120201   3.697   4.247  16.540  0.0530 -0.4035  0.8298
 2856SOL    HW220202   3.674   4.369  16.622 -0.6356 -0.6455  1.9033
 2857SOL     OW20203   1.093   3.511  16.960  0.0226 -0.4684 -0.1403
 2857SOL    HW120204   1.044   3.523  16.878  1.4613 -0.1754 -0.9466
 2857SOL    HW220205   1.121   3.421  16.944 -0.0706 -0.6645  0.8172
 2858SOL     OW20206   4.533   1.786   5.969  0.1025 -0.2586  0.0500
 2858SOL    HW120207   4.602   1.842   5.932  0.6968 -0.4072  0.9235
 2858SOL    HW220208   4.476   1.790   5.892 -0.0145 -2.8286  0.0085
 2859SOL     OW20209   4.247   1.387  13.465 -0.6289 -0.1767 -0.2037
 2859SOL    HW120210   4.306   1.338  13.407  1.9512  0.4437  1.8548
 2859SOL    HW220211   4.291   1.377  13.550 -1.3746 -0.2006  0.1746
 2860SOL     OW20212   2.142   3.632   7.617  0.3916 -0.4545  0.0468
 2860SOL    HW120213   2.065   3.594   7.575  0.8761  0.4299 -1.6607
 2860SOL    HW220214   2.214   3.609   7.558 -0.2730 -0.8928 -0.5889
 2861SOL     OW20215   0.108   0.068   4.040 -0.0606 -0.0777  0.3771
 2861SOL    HW120216   0.138   0.149   4.080  2.1226 -0.1055 -1.1765
 2861SOL    HW220217   0.190   0.032   4.006  0.6326  0.7355  1.2021
 2862SOL     OW20218   2.070   0.740   6.592  0.2415 -0.3156 -0.2401
 2862SOL    HW120219   2.118   0.787   6.523  1.9446  0.1287  1.2660
 2862SOL    HW220220   1.980   0.761   6.564  0.0044  0.5420  1.1930
 2863SOL     OW20221   0.142   3.610   9.345 -0.0377  0.4909 -0.3417
 2863SOL    HW120222   0.099   3.652   9.419 -1.2621 -1.2653 -0.0435
 2863SOL    HW220223   0.164   3.532   9.397 -1.1806 -0.9165 -1.9483
 2864SOL     OW20224   0.947   1.512   3.520 -0.5482  0.1849  0.3947
 2864SOL    HW120225   1.002   1.439   3.549 -1.0455 -0.6233 -0.7207
 2864SOL    HW220226   0.929   1.545   3.608 -2.2524  0.3982 -0.0303
 2865SOL     OW20227   3.287   3.140   1.630  0.6367 -0.2471  0.7216
 2865SOL    HW120228   3.199   3.141   1.669  0.0620 -0.2143 -0.5805
 2865SOL    HW220229   3.282   3.118   1.538  0.5476  1.1635  0.3854
 2866SOL     OW20230   2.174   1.490  17.386  0.6718 -0.2209  0.3684
 2866SOL    HW120231   2.087   1.458  17.363  0.9439  0.2095 -1.2322
 2866SOL    HW220232   2.218   1.499  17.301  1.6550 -0.2238  0.8781
 2867SOL     OW20233   2.370   3.132   5.792  0.4955  0.2168  0.0911
 2867SOL    HW120234   2.362   3.042   5.824  1.7190  1.0156  2.6621
 2867SOL    HW220235   2.327   3.128   5.707 -0.5863 -0.6166  0.6842
 2868SOL     OW20236   0.675   0.566  15.364 -0.2511  0.8126  0.2008
 2868SOL    HW120237   0.655   0.498  15.300  2.1400  0.1257  0.1959
 2868SOL    HW220238   0.770   0.561  15.374 -0.4278 -1.7225  0.6067
 2869SOL     OW20239   3.647   2.938   9.057 -0.3537  0.3023  0.1502
 2869SOL    HW120240   3.567   2.921   9.007 -1.0450  0.7784  1.1049
 2869SOL    HW220241   3.716   2.972   9.000  0.4234 -4.1668 -1.6103
 2870SOL     OW20242   3.046   1.415  14.397  0.1321  0.1102 -0.1765
 2870SOL    HW120243   2.983   1.364  14.347 -0.3446 -1.3286  1.9015
 2870SOL    HW220244   3.003   1.437  14.479  2.0710  0.7791  0.6708
 2871SOL     OW20245   3.854   2.417   7.531  0.2366  0.1614 -0.2839
 2871SOL    HW120246   3.934   2.430   7.581 -0.2365 -1.2941  0.8194
 2871SOL    HW220247   3.834   2.510   7.519  0.5831  0.1676 -0.8354
 2872SOL     OW20248   1.919   0.696   6.143  0.4012 -0.2072  0.5442
 2872SOL    HW120249   1.901   0.731   6.056  1.5185  0.8018  0.7198
 2872SOL    HW220250   1.900   0.778   6.188 -1.6588 -0.0257 -0.6721
 2873SOL     OW20251   1.843   3.510   4.787 -0.3213 -0.0839  0.4610
 2873SOL    HW120252   1.821   3.546   4.873 -1.6192  0.4726 -0.0981
 2873SOL    HW220253   1.852   3.417   4.806 -0.3836 -0.3374 -0.7528
 2874SOL     OW20254   1.668   2.596  11.817 -0.2445 -0.5850 -0.4031
 2874SOL    HW120255   1.675   2.539  11.741  1.1232 -0.3939 -0.4294
 2874SOL    HW220256   1.740   2.567  11.873 -0.2710  2.5123  1.2361
 2875SOL     OW20257   1.122   1.342  13.064  0.8833 -0.1635 -0.3848
 2875SOL    HW120258   1.078   1.381  12.989 -0.4514  0.5599  0.7945
 2875SOL    HW220259   1.181   1.280  13.020  1.2190 -0.0445 -0.1011
 2876SOL     OW20260   1.786   2.586   3.701 -0.4779  0.3184  0.4303
 2876SOL    HW120261   1.737   2.558   3.623  1.3831 -0.3893 -0.4786
 2876SOL    HW220262   1.760   2.516   3.761  1.8319  0.3143  1.3933
 2877SOL     OW20263   3.758   3.940  16.863 -0.4681 -0.1102  0.4045
 2877SOL    HW120264   3.712   3.949  16.947 -2.9844 -0.0848 -0.9625
 2877SOL    HW220265   3.843   3.906  16.890 -0.2618 -1.1225 -1.5469
 2878SOL     OW20266   0.799   3.567   8.725  0.0862 -0.3337  0.3323
 2878SOL    HW120267   0.735   3.617   8.775  0.2506 -0.3535  0.5601
 2878SOL    HW220268   0.744   3.498   8.687  0.9823 -2.2780  2.5542
 2879SOL     OW20269   4.183   0.711   1.972 -0.0458  0.1663  0.5078
 2879SOL    HW120270   4.174   0.701   1.878 -0.1048  0.4395  0.4846
 2879SOL    HW220271   4.104   0.761   1.994 -0.0706  0.1896  0.3617
 2880SOL     OW20272   0.716   3.445  10.166 -0.2386 -0.6678 -0.0337
 2880SOL    HW120273   0.722   3.462  10.072 -1.1444  0.9066  0.1927
 2880SOL    HW220274   0.721   3.526  10.218  1.0255 -1.2235  0.7137
 2881SOL     OW20275   3.418   0.028   4.495  0.7780  0.2551 -0.1231
 2881SOL    HW120276   3.396   4.721   4.575 -0.9068 -1.0262 -1.3669
 2881SOL    HW220277   3.493   4.720   4.462 -0.3949 -0.1973 -2.0654
 2882SOL     OW20278   1.888   1.367   7.955 -0.4428  0.2809  0.8150
 2882SOL    HW120279   1.830   1.292   7.949 -0.5973  0.3175  1.8342
 2882SOL    HW220280   1.961   1.325   8.002 -0.2631  1.5466  1.6583
 2883SOL     OW20281   3.695   4.731   4.156  0.2056  0.2968  0.1714
 2883SOL    HW120282   3.614   4.729   4.107  0.2289  1.2635  0.0957
 2883SOL    HW220283   3.712   4.644   4.193 -1.0484  1.0804  2.5979
 2884SOL     OW20284   0.413   0.750   5.051 -0.3967 -0.3699  0.2870
 2884SOL    HW120285   0.356   0.700   5.109  1.2925 -2.3441  0.2291
 2884SOL    HW220286   0.436   0.683   4.987  1.1269  1.0335 -0.6282
 2885SOL     OW20287   4.611   0.752   1.939  0.3117  0.3875  0.1262
 2885SOL    HW120288   4.613   0.657   1.932 -0.2542  0.6094 -3.0350
 2885SOL    HW220289   4.663   0.770   2.018  0.8607  3.9045 -1.0506
 2886SOL     OW20290   3.804   0.715   0.404  0.2596  0.1339 -0.2006
 2886SOL    HW120291   3.820   0.626   0.372  1.8296 -0.5784  2.6209
 2886SOL    HW220292   3.755   0.747   0.328  0.9724 -0.0382 -0.7247
 2887SOL     OW20293   1.419   2.337   7.239 -0.1069 -0.3786  0.0803
 2887SOL    HW120294   1.397   2.337   7.332 -1.9152 -2.4587 -0.3245
 2887SOL    HW220295   1.330   2.325   7.204  1.0628 -0.0036 -3.0540
 2888SOL     OW20296   0.473   1.506  12.652 -0.5628  0.0618  0.2000
 2888SOL    HW120297   0.413   1.528  12.580 -1.0035  0.2967  0.6421
 2888SOL    HW220298   0.547   1.565  12.637 -2.3850  2.6304  1.2047
 2889SOL     OW20299   4.120   1.874   1.260  0.5963 -0.2950 -0.4189
 2889SOL    HW120300   4.170   1.798   1.293 -0.4091 -0.0128  1.7436
 2889SOL    HW220301   4.200   1.919   1.234  0.7372  0.9417  2.1494
 2890SOL     OW20302   2.377   1.865   8.501  0.0200 -0.6368 -0.1532
 2890SOL    HW120303   2.397   1.788   8.555 -2.3695 -1.0192  0.1852
 2890SOL    HW220304   2.311   1.838   8.438  2.3336 -2.2454 -1.8942
 2891SOL     OW20305   2.142   1.534   9.185  0.4297 -0.3407  0.9257
 2891SOL    HW120306   2.140   1.500   9.096 -0.6709  1.7075  0.1636
 2891SOL    HW220307   2.146   1.450   9.231 -0.5983 -1.5451 -1.2251
 2892SOL     OW20308   4.438   3.767   6.210 -0.9388  0.2990  0.1077
 2892SOL    HW120309   4.472   3.848   6.171  1.7677  0.6150  3.0855
 2892SOL    HW220310   4.510   3.708   6.191 -0.5757  0.5619  0.6774
 2893SOL     OW20311   2.703   2.946  10.174  0.4874  0.2433 -0.2225
 2893SOL    HW120312   2.751   2.960  10.256  0.5749  0.4234 -0.3069
 2893SOL    HW220313   2.771   2.951  10.108  0.3196 -3.4501 -0.6680
 2894SOL     OW20314   0.147   0.562   9.095 -0.3721  0.0366  0.4582
 2894SOL    HW120315   0.202   0.629   9.135 -0.9231  0.3721  0.6458
 2894SOL    HW220316   0.156   0.596   9.006 -0.3913 -1.3071 -0.0621
 2895SOL     OW20317   0.105   1.163   6.204  0.0751  0.2122  0.6210
 2895SOL    HW120318   0.069   1.144   6.290 -1.4636  1.6812  0.3003
 2895SOL    HW220319   0.048   1.101   6.160  0.0370 -0.4481  1.6021
 2896SOL     OW20320   2.821   4.485   3.352  0.1377  0.2818 -0.0320
 2896SOL    HW120321   2.757   4.415   3.337  0.6016 -0.0853 -0.2753
 2896SOL    HW220322   2.898   4.430   3.347 -0.4538 -0.5759  0.3159
 2897SOL     OW20323   0.010   2.429   5.733 -0.1437 -0.1195 -0.1148
 2897SOL    HW120324   4.704   2.473   5.663  1.3292  1.0029 -0.4244
 2897SOL    HW220325   0.099   2.463   5.722  0.8475 -1.7904  2.6732
 2898SOL     OW20326   4.162   4.487   5.444 -0.3334  0.2587 -0.5541
 2898SOL    HW120327   4.247   4.491   5.488 -2.3492 -0.6331  3.3380
 2898SOL    HW220328   4.152   4.394   5.464 -1.9585  0.6526  0.4600
 2899SOL     OW20329   0.590   2.141   6.492  0.3008  0.3352  1.0679
 2899SOL    HW120330   0.577   2.213   6.555  0.5704  2.1847 -0.9956
 2899SOL    HW220331   0.553   2.174   6.411  0.5770  0.7760  1.1217
 2900SOL     OW20332   3.527   0.772   7.759 -0.4041 -0.0095  0.0233
 2900SOL    HW120333   3.465   0.731   7.699  2.7360 -2.0274 -1.8741
 2900SOL    HW220334   3.596   0.780   7.693 -0.0388 -0.3807  0.3608
 2901SOL     OW20335   3.454   0.641   0.626 -0.0980 -0.7955 -0.2238
 2901SOL    HW120336   3.382   0.604   0.678  0.8550 -0.8217  1.0883
 2901SOL    HW220337   3.507   0.661   0.703 -1.0400  0.3753  0.1268
 2902SOL     OW20338   0.122   2.174   5.790  0.3395 -0.5514 -0.1861
 2902SOL    HW120339   0.158   2.157   5.703 -0.2667  2.1840 -0.9727
 2902SOL    HW220340   0.045   2.224   5.763  1.0389  0.0475 -1.0711
 2903SOL     OW20341   3.091   1.259   4.039 -0.3156 -0.4081  0.2606
 2903SOL    HW120342   3.034   1.289   4.109  1.6322  0.3057  1.5377
 2903SOL    HW220343   3.168   1.315   4.051 -0.6254  0.0693 -0.0142
 2904SOL     OW20344   0.304   1.866   8.233 -0.3775  0.1039  0.3319
 2904SOL    HW120345   0.225   1.812   8.238 -2.6916  3.3669 -1.4235
 2904SOL    HW220346   0.361   1.826   8.167  0.1459 -0.7551  1.2976
 2905SOL     OW20347   4.467   0.289   7.352 -0.3389  0.7833  0.1423
 2905SOL    HW120348   4.452   0.374   7.311 -0.3438 -0.1502 -1.7737
 2905SOL    HW220349   4.562   0.295   7.362 -0.0720 -0.0329 -1.9410
 2906SOL     OW20350   0.737   0.469   9.236 -0.2594 -0.1585  0.7785
 2906SOL    HW120351   0.726   0.385   9.191 -0.8242  0.8180 -0.9098
 2906SOL    HW220352   0.761   0.422   9.316 -2.4933  0.1387  1.6010
 2907SOL     OW20353   4.553   3.664   4.577  0.0301 -0.1297 -0.1790
 2907SOL    HW120354   4.469   3.642   4.537  0.5531 -0.7280 -0.9492
 2907SOL    HW220355   4.611   3.703   4.511  2.8360  0.3570  2.5239
 2908SOL     OW20356   3.450   0.472   0.162  0.5894 -0.2331 -0.0442
 2908SOL    HW120357   3.499   0.547   0.126 -0.8176  0.7127  0.0381
 2908SOL    HW220358   3.426   0.494   0.252 -1.4343  2.7384 -1.3161
 2909SOL     OW20359   4.511   4.254   1.765 -0.0573 -0.4210  0.0128
 2909SOL    HW120360   4.494   4.281   1.675  1.0479 -1.2493 -0.4581
 2909SOL    HW220361   4.428   4.284   1.801  0.9493  2.1614  0.1862
 2910SOL     OW20362   1.619   4.005   0.218  0.0301 -0.4902  0.1498
 2910SOL    HW120363   1.539   4.020   0.166  1.2364 -0.6075 -1.7423
 2910SOL    HW220364   1.677   3.969   0.151  1.0204  0.9014  0.2575
 2911SOL     OW20365   0.608   2.925  15.609 -0.0637  0.1258 -0.0678
 2911SOL    HW120366   0.642   2.984  15.676  1.9570  0.7948 -1.6652
 2911SOL    HW220367   0.619   2.972  15.526  2.4767  0.3921  0.4190
 2912SOL     OW20368   0.138   1.206  15.708 -0.0522 -0.4914 -1.0778
 2912SOL    HW120369   0.051   1.169  15.694 -1.0684  2.0826 -1.5540
 2912SOL    HW220370   0.185   1.123  15.717 -0.1799 -0.2483  1.7787
 2913SOL     OW20371   2.491   1.233   1.044 -0.5158  0.1707  0.5684
 2913SOL    HW120372   2.470   1.326   1.055  0.6279  0.4112  0.7105
 2913SOL    HW220373   2.528   1.219   1.131 -1.5612 -0.0575  0.9736
 2914SOL     OW20374   3.338   1.025   2.723 -0.1968  0.6423 -0.1956
 2914SOL    HW120375   3.360   0.949   2.668 -1.6825  0.5635 -0.6864
 2914SOL    HW220376   3.421   1.065   2.749 -0.3623  0.5467  0.4569
 2915SOL     OW20377   1.673   1.460   4.439  0.6349  0.1313 -0.5498
 2915SOL    HW120378   1.598   1.402   4.426  0.2857  0.1984  1.2847
 2915SOL    HW220379   1.712   1.398   4.501  1.6536 -1.8061 -3.1029
 2916SOL     OW20380   3.551   2.829   1.007  0.1997 -0.3871  0.7205
 2916SOL    HW120381   3.582   2.777   0.933 -0.7231  1.1256 -0.7533
 2916SOL    HW220382   3.622   2.806   1.066  0.2528  1.1779  1.2791
 2917SOL     OW20383   0.603   0.346  10.570  0.0866  0.2524 -0.4250
 2917SOL    HW120384   0.672   0.328  10.633 -1.2304  0.0409  0.9776
 2917SOL    HW220385   0.538   0.281  10.598  0.1984 -0.0876 -0.9716
 2918SOL     OW20386   2.545   4.073  10.188 -0.1712 -0.0949 -0.5767
 2918SOL    HW120387   2.454   4.072  10.217 -0.4982 -1.3648 -1.6034
 2918SOL    HW220388   2.548   3.999  10.127 -1.3424 -0.4765 -0.1778
 2919SOL     OW20389   3.301   3.003   7.915 -0.2364 -0.3811 -0.4183
 2919SOL    HW120390   3.365   3.073   7.908  0.2271 -0.7435  0.2133
 2919SOL    HW220391   3.309   2.961   7.830  0.0979 -0.7193 -0.2169
 2920SOL     OW20392   0.102   1.952   3.819 -0.7342 -0.2968  0.2015
 2920SOL    HW120393   0.029   2.013   3.820 -0.2025  0.3387  0.2347
 2920SOL    HW220394   0.176   2.004   3.787 -0.7596 -1.7878 -2.2873
 2921SOL     OW20395   0.500   2.142   4.851  0.3188  0.5305  0.0689
 2921SOL    HW120396   0.555   2.121   4.927 -1.5950  1.5838  1.7520
 2921SOL    HW220397   0.562   2.185   4.791 -1.2340  1.3783 -0.9082
 2922SOL     OW20398   4.729   0.693   5.947  0.2830 -0.3409 -0.2436
 2922SOL    HW120399   4.682   0.634   6.006  0.3129  1.3675  1.5042
 2922SOL    HW220400   4.718   0.649   5.863 -0.0232  1.0798 -0.9433
 2923SOL     OW20401   4.198   3.782   5.344 -0.1838  0.7452  0.5553
 2923SOL    HW120402   4.146   3.726   5.403  1.1965 -0.6620  0.4298
 2923SOL    HW220403   4.281   3.775   5.392  0.2771 -0.0086 -0.3423
 2924SOL     OW20404   1.780   1.257   9.990  0.7599  0.4928 -0.2030
 2924SOL    HW120405   1.845   1.295   9.932  1.1649 -0.0139 -0.0758
 2924SOL    HW220406   1.709   1.320   9.978  0.4203  0.8173  3.4957
 2925SOL     OW20407   2.461   2.859   8.240  0.5741 -0.5355  0.6280
 2925SOL    HW120408   2.538   2.908   8.211 -0.2010  0.4569  0.2313
 2925SOL    HW220409   2.390   2.896   8.188 -1.0940 -2.6944  1.3867
 2926SOL     OW20410   4.672   4.408   5.698  0.1227 -0.0863 -0.0305
 2926SOL    HW120411   4.616   4.378   5.770  0.3006 -0.3352 -0.0000
 2926SOL    HW220412   4.734   4.336   5.697  0.8517  0.5441 -0.0195
 2927SOL     OW20413   2.245   0.117  10.508  0.4368  0.2643 -0.7228
 2927SOL    HW120414   2.310   0.174  10.468  0.4174 -0.4348 -1.7539
 2927SOL    HW220415   2.284   0.130  10.595 -2.5580  0.5386  0.5872
 2928SOL     OW20416   1.715   3.151   8.309 -0.1539 -0.4022  0.0349
 2928SOL    HW120417   1.630   3.173   8.347 -0.5065  0.7338 -1.3852
 2928SOL    HW220418   1.695   3.078   8.250  0.2403 -0.8692  0.4810
 2929SOL     OW20419   2.380   0.418   4.274  0.0355  0.7939  0.3663
 2929SOL    HW120420   2.458   0.463   4.242  0.2015 -0.4668 -0.9994
 2929SOL    HW220421   2.413   0.376   4.353  1.9084  0.2662 -0.6901
 2930SOL     OW20422   0.026   4.688  10.753 -0.1074  0.0430  0.5289
 2930SOL    HW120423   4.740   4.722  10.838 -3.0209  0.7504 -0.6924
 2930SOL    HW220424   4.719   4.607  10.735 -0.0493 -0.1378  1.1941
 2931SOL     OW20425   2.354   2.772   9.705 -0.4917 -0.7420 -0.4025
 2931SOL    HW120426   2.335   2.740   9.617  2.1065  1.3629 -1.7106
 2931SOL    HW220427   2.449   2.756   9.706 -0.4145 -0.1462  1.9741
 2932SOL     OW20428   3.721   2.432   3.130  0.0870 -0.7578 -0.5535
 2932SOL    HW120429   3.808   2.433   3.092  0.6361  0.1472  0.7281
 2932SOL    HW220430   3.726   2.510   3.185  0.6925 -0.6471 -0.7766
 2933SOL     OW20431   2.295   2.732   4.471  0.4795  0.3627  0.2312
 2933SOL    HW120432   2.260   2.789   4.540  1.3252  0.3675  0.6484
 2933SOL    HW220433   2.217   2.713   4.418  2.2243 -2.5156 -1.2975
 2934SOL     OW20434   3.354   4.263   4.622 -0.2151  0.1932  0.0191
 2934SOL    HW120435   3.372   4.170   4.605 -2.4822 -0.2994  0.3613
 2934SOL    HW220436   3.405   4.263   4.703 -0.2094 -1.2217  0.0188
 2935SOL     OW20437   1.594   0.263   0.668  0.2578  0.8454  0.1150
 2935SOL    HW120438   1.653   0.239   0.739  0.7611 -0.0009 -0.5920
 2935SOL    HW220439   1.605   0.190   0.607  2.7482 -0.9237  2.6699
 2936SOL     OW20440   1.476   0.776   9.075 -0.1835 -0.7572  0.1159
 2936SOL    HW120441   1.419   0.756   9.149  2.0287 -2.0762  1.4845
 2936SOL    HW220442   1.423   0.730   9.010  1.1943  0.3017 -1.7776
 2937SOL     OW20443   2.324   3.881  15.759  0.1492 -0.6038 -0.6033
 2937SOL    HW120444   2.418   3.860  15.752  0.2960  0.6270 -2.2129
 2937SOL    HW220445   2.325   3.966  15.716 -1.9362  0.4554  1.4530
 2938SOL     OW20446   1.367   4.132   4.595 -0.0460 -0.2814 -0.1015
 2938SOL    HW120447   1.300   4.109   4.530 -2.0405  0.1314  1.8174
 2938SOL    HW220448   1.333   4.215   4.629  3.1231  0.6937  0.7310
 2939SOL     OW20449   2.871   2.774   9.271 -0.0648 -1.0002  0.3827
 2939SOL    HW120450   2.826   2.694   9.246 -0.2164 -0.3263 -1.4718
 2939SOL    HW220451   2.848   2.789   9.363  2.1686  1.4588  0.5459
 2940SOL     OW20452   3.867   0.990  15.665  0.0396  0.5886 -0.4598
 2940SOL    HW120453   3.821   1.073  15.655 -0.0447  0.6287  0.2617
 2940SOL    HW220454   3.921   0.993  15.586 -0.0645  1.3255 -0.5010
 2941SOL     OW20455   4.675   2.147   5.356  0.0523  0.0490 -0.1625
 2941SOL    HW120456   4.716   2.093   5.424  0.9207 -0.1496 -0.8452
 2941SOL    HW220457   4.720   2.109   5.281  0.0562 -1.7949  0.7783
 2942SOL     OW20458   1.726   3.958  12.156 -0.1641 -0.0491 -0.7683
 2942SOL    HW120459   1.770   4.041  12.172 -2.0666  0.4745  1.7771
 2942SOL    HW220460   1.644   3.981  12.112 -0.3880  0.7410  0.0740
 2943SOL     OW20461   4.025   1.133   5.187 -0.0891  0.5444 -0.2769
 2943SOL    HW120462   3.950   1.074   5.191  1.0729 -0.8412  1.0848
 2943SOL    HW220463   4.082   1.096   5.120 -0.5237 -0.6319  0.0071
 2944SOL     OW20464   2.361   4.128   8.570  0.0016  0.6843  0.0414
 2944SOL    HW120465   2.299   4.185   8.616  0.4314  1.6410 -0.5672
 2944SOL    HW220466   2.310   4.107   8.491  1.0423 -0.7971 -0.2539
 2945SOL     OW20467   3.037   0.566   4.216  0.5867  0.2289 -0.3522
 2945SOL    HW120468   2.977   0.531   4.282 -1.1479 -0.3493 -2.2467
 2945SOL    HW220469   3.103   0.497   4.224 -0.7585 -1.1785 -1.3391
 2946SOL     OW20470   4.053   0.126  11.992 -0.2153 -0.7008  0.0861
 2946SOL    HW120471   4.142   0.098  12.014 -0.3254  0.2175  1.7215
 2946SOL    HW220472   4.014   0.149  12.076 -0.3073 -2.5071  0.5395
 2947SOL     OW20473   3.442   0.011   9.632 -0.2339  0.1024 -0.4405
 2947SOL    HW120474   3.497   0.007   9.553 -1.1435 -1.1442 -1.0103
 2947SOL    HW220475   3.353   0.011   9.596 -0.4436  0.3174  0.0856
 2948SOL     OW20476   1.546   1.907   9.516  0.0495  0.0230 -0.2725
 2948SOL    HW120477   1.517   1.893   9.426  2.0615 -0.6959 -0.7989
 2948SOL    HW220478   1.475   1.863   9.562  0.1187 -0.7792 -0.9275
 2949SOL     OW20479   3.079   1.297   7.952 -0.2591  0.2019 -0.2980
 2949SOL    HW120480   3.169   1.311   7.923 -0.9106 -0.2856 -2.5950
 2949SOL    HW220481   3.054   1.254   7.870 -1.6515  0.4327  0.0043
 2950SOL     OW20482   3.194   3.371   7.794  0.1514 -0.0025 -0.1536
 2950SOL    HW120483   3.101   3.353   7.777 -0.2275  1.6233  0.2065
 2950SOL    HW220484   3.229   3.362   7.706  0.8362 -0.5599  0.1815
 2951SOL     OW20485   1.912   3.050   5.994 -0.5199  0.0975  0.0983
 2951SOL    HW120486   1.958   2.968   6.014  1.3762  1.2498  0.4707
 2951SOL    HW220487   1.930   3.052   5.900  2.6009 -0.6883  0.6901
 2952SOL     OW20488   1.871   3.102   5.288  0.2689 -0.1653 -0.6113
 2952SOL    HW120489   1.855   3.158   5.364  0.2753 -0.1226 -0.6420
 2952SOL    HW220490   1.840   3.152   5.213  1.8739 -1.8124 -2.3531
 2953SOL     OW20491   3.299   1.751   9.104  0.4311 -0.1973 -0.0920
 2953SOL    HW120492   3.299   1.703   9.186  2.5630  1.0761  0.6607
 2953SOL    HW220493   3.246   1.694   9.049  0.6583 -0.1351 -0.3772
 2954SOL     OW20494   3.448   1.973   2.358  0.1439 -0.0046  0.0771
 2954SOL    HW120495   3.376   1.913   2.341 -0.6227  1.4088 -1.7428
 2954SOL    HW220496   3.521   1.923   2.322 -0.0808 -0.8979  0.8856
 2955SOL     OW20497   1.611   2.085   7.388 -0.5211  0.4155 -0.2057
 2955SOL    HW120498   1.592   2.147   7.458 -0.4082 -0.1111  0.2824
 2955SOL    HW220499   1.604   2.001   7.433  2.7687 -0.5903 -1.4977
 2956SOL     OW20500   2.354   1.363   6.127  0.1424 -0.2468 -0.3173
 2956SOL    HW120501   2.369   1.304   6.201 -2.5835 -0.8258 -0.2537
 2956SOL    HW220502   2.270   1.408   6.138  0.5340  0.2452  0.7200
 2957SOL     OW20503   1.047   2.466   2.132 -0.3623  0.3748 -0.4460
 2957SOL    HW120504   0.987   2.417   2.076 -0.7122 -0.2168  0.4329
 2957SOL    HW220505   1.076   2.404   2.200 -1.4755  0.3434  0.0009
 2958SOL     OW20506   3.377   0.112   3.218 -0.3578 -0.0033  0.4060
 2958SOL    HW120507   3.413   0.180   3.274  0.4022  0.7816 -1.0703
 2958SOL    HW220508   3.443   0.098   3.150 -1.4311  2.2112 -1.0636
 2959SOL     OW20509   1.474   0.402   7.616  0.2282  0.3810 -0.0394
 2959SOL    HW120510   1.518   0.436   7.538 -0.6643 -1.2674 -1.2512
 2959SOL    HW220511   1.509   0.457   7.687  0.3949  0.5481 -0.2507
 2960SOL     OW20512   0.167   2.537   7.807 -0.1138  0.0768  0.2160
 2960SOL    HW120513   0.106   2.597   7.849 -0.5250  0.0725 -0.3705
 2960SOL    HW220514   0.231   2.597   7.770 -2.7706  2.0235 -1.2021
 2961SOL     OW20515   4.219   4.535  13.581 -0.0869 -0.1091  0.1387
 2961SOL    HW120516   4.250   4.564  13.496 -1.9606  0.3450 -0.3742
 2961SOL    HW220517   4.239   4.441  13.582 -0.2530 -0.1598 -2.4255
 2962SOL     OW20518   2.108   3.031   1.927 -0.2487  0.1228 -0.0149
 2962SOL    HW120519   2.071   2.943   1.926 -0.8613  0.3645  1.3069
 2962SOL    HW220520   2.041   3.077   1.979  0.6823  0.3968  0.9449
 2963SOL     OW20521   2.289   4.103  13.241 -0.1478  0.1117  0.0890
 2963SOL    HW120522   2.287   4.189  13.283 -1.9499 -0.0311  0.2717
 2963SOL    HW220523   2.340   4.136  13.167 -0.5397 -0.6973 -0.5434
 2964SOL     OW20524   4.078   4.483   4.615  0.3706  0.1088  0.4549
 2964SOL    HW120525   4.124   4.400   4.607 -0.4202 -0.3520  0.6802
 2964SOL    HW220526   4.035   4.497   4.530 -0.1705 -2.7634  0.2843
 2965SOL     OW20527   1.918   4.347   1.255 -0.1664  0.0864  0.5121
 2965SOL    HW120528   1.982   4.408   1.290 -1.0634  0.6421  1.2018
 2965SOL    HW220529   1.951   4.350   1.166 -0.6701  1.4773  0.3759
 2966SOL     OW20530   2.450   4.381   3.112  0.2428  0.2341 -0.1966
 2966SOL    HW120531   2.540   4.415   3.113 -0.3163  1.7572 -1.2043
 2966SOL    HW220532   2.471   4.290   3.130  0.1760  0.2917  0.1651
 2967SOL     OW20533   2.333   3.911   6.982 -0.7968 -0.2300  0.3514
 2967SOL    HW120534   2.334   3.832   6.928  1.0934 -1.7026  2.5370
 2967SOL    HW220535   2.345   3.971   6.908 -1.4897  0.9306  1.1855
 2968SOL     OW20536   3.612   1.856   1.361 -0.6745  0.1708 -0.1805
 2968SOL    HW120537   3.694   1.895   1.331 -1.1523  0.9078 -0.5490
 2968SOL    HW220538   3.548   1.909   1.313 -0.1807 -0.4988 -1.5964
 2969SOL     OW20539   0.169   1.866   4.369  0.0974 -0.3724  0.2449
 2969SOL    HW120540   0.132   1.923   4.436 -0.4397 -1.0690  0.5322
 2969SOL    HW220541   0.155   1.781   4.410  2.1338 -0.9703 -0.3129
 2970SOL     OW20542   1.289   3.778   3.840  0.2293  0.1406  0.2852
 2970SOL    HW120543   1.366   3.725   3.858 -0.0007  0.1484  1.2794
 2970SOL    HW220544   1.277   3.828   3.921 -0.6446  1.1321 -0.4529
 2971SOL     OW20545   1.498   4.587  10.118 -0.3692  0.1122  0.8591
 2971SOL    HW120546   1.499   4.670  10.070 -0.2937 -0.2882  0.1713
 2971SOL    HW220547   1.412   4.586  10.160 -1.4958 -0.2538 -1.4535
 2972SOL     OW20548   2.126   0.571   4.346  0.4914 -0.6566  0.3333
 2972SOL    HW120549   2.179   0.492   4.335  1.8543  0.0023  2.4073
 2972SOL    HW220550   2.056   0.548   4.407  0.4049  1.8216  1.1369
 2973SOL     OW20551   0.416   3.959   8.397  0.2098 -0.4116  0.8349
 2973SOL    HW120552   0.377   3.935   8.481 -2.0800  3.3390  0.8311
 2973SOL    HW220553   0.334   3.983   8.354 -0.3416 -0.7349  1.7045
 2974SOL     OW20554   0.233   0.987   2.309  0.2538  0.7529 -0.4698
 2974SOL    HW120555   0.323   1.018   2.311  1.4970 -2.8441 -0.0241
 2974SOL    HW220556   0.246   0.901   2.269  1.1898  0.5251  0.3119
 2975SOL     OW20557   3.879   1.122   5.683 -0.3950  0.6777 -0.1313
 2975SOL    HW120558   3.840   1.184   5.622  0.6540 -0.5948 -2.0812
 2975SOL    HW220559   3.962   1.169   5.693 -0.7131  0.7715  2.2174
 2976SOL     OW20560   1.664   0.244  13.285  0.4184  0.3102  0.6146
 2976SOL    HW120561   1.658   0.149  13.281  1.7434  0.1875  1.6772
 2976SOL    HW220562   1.688   0.261  13.194 -1.9987 -0.7994 -0.2307
 2977SOL     OW20563   0.916   2.051   8.731  0.1074 -0.0802  0.1106
 2977SOL    HW120564   0.870   2.085   8.807  0.7309 -0.3615  0.6123
 2977SOL    HW220565   0.891   2.111   8.661  1.5536  1.7298  1.1362
 2978SOL     OW20566   1.557   2.788   2.125  0.6449 -0.2195  0.3766
 2978SOL    HW120567   1.555   2.808   2.031  2.3512  0.6958  0.5270
 2978SOL    HW220568   1.650   2.794   2.146  0.8269 -1.4278 -0.1320
 2979SOL     OW20569   1.160   1.005   0.144 -0.1732 -0.6433 -0.1817
 2979SOL    HW120570   1.117   1.038   0.065  1.3880 -1.1367 -1.2230
 2979SOL    HW220571   1.122   1.076   0.196  1.4861 -0.9728  1.5037
 2980SOL     OW20572   4.411   0.199   4.613 -0.1104  0.5966 -0.1138
 2980SOL    HW120573   4.363   0.119   4.594 -0.7139  1.1913 -1.0964
 2980SOL    HW220574   4.484   0.179   4.555  0.2527 -0.2615  0.6302
 2981SOL     OW20575   2.892   0.348   5.357  0.5877 -0.5457 -0.2289
 2981SOL    HW120576   2.846   0.410   5.300  2.6927  0.0174 -1.3187
 2981SOL    HW220577   2.977   0.358   5.315 -0.2574  2.4407 -1.2603
 2982SOL     OW20578   4.123   2.413  12.063 -0.1216 -0.4008  0.2477
 2982SOL    HW120579   4.056   2.370  12.117  0.1030 -1.0419  0.0202
 2982SOL    HW220580   4.190   2.345  12.071 -2.0664 -2.3323  0.4198
 2983SOL     OW20581   3.047   2.737   0.167 -0.0861  0.1570  0.1160
 2983SOL    HW120582   2.968   2.791   0.156  1.6117  1.9370 -3.1270
 2983SOL    HW220583   3.087   2.734   0.081 -0.0319  1.2335  0.1000
 2984SOL     OW20584   0.007   4.336   5.978 -0.4153 -0.3469  0.4631
 2984SOL    HW120585   0.062   4.400   6.024  0.5818  0.6043 -2.0274
 2984SOL    HW220586   0.066   4.261   5.967 -1.8573 -1.5793  1.2078
 2985SOL     OW20587   4.560   2.950   2.711 -0.1465  0.0749 -0.9882
 2985SOL    HW120588   4.621   3.023   2.698 -0.6925  0.3218 -2.1286
 2985SOL    HW220589   4.494   2.992   2.767  1.6633  1.1349  0.3602
 2986SOL     OW20590   2.580   2.167   7.068 -0.2616  0.5245  0.0567
 2986SOL    HW120591   2.663   2.188   7.025 -0.5466  0.5269 -0.4949
 2986SOL    HW220592   2.516   2.215   7.015 -1.2375 -0.1994  0.5828
 2987SOL     OW20593   2.241   4.169   7.364  0.3101  0.2570  0.4730
 2987SOL    HW120594   2.159   4.148   7.318  0.9788 -1.3820  0.0246
 2987SOL    HW220595   2.306   4.170   7.294  1.9571 -0.2817  1.9807
 2988SOL     OW20596   0.657   3.924   5.638 -1.4079  0.3381  0.3577
 2988SOL    HW120597   0.595   3.996   5.632  0.2044  1.5913 -1.1083
 2988SOL    HW220598   0.632   3.893   5.725  1.2290 -2.0850  0.2790
 2989SOL     OW20599   3.049   2.733   8.562  0.6861 -0.0538 -1.0801
 2989SOL    HW120600   3.118   2.668   8.576  1.1535  0.6805  0.0344
 2989SOL    HW220601   3.100   2.786   8.501 -0.2007  0.2596 -1.5478
 2990SOL     OW20602   1.592   2.595   3.515 -0.3219 -0.3126 -0.0004
 2990SOL    HW120603   1.568   2.687   3.506  0.0761 -0.0263  1.8929
 2990SOL    HW220604   1.525   2.576   3.581 -1.1771  0.5860 -0.6021
 2991SOL     OW20605   2.537   2.592  10.708  0.3394  0.2764  0.3565
 2991SOL    HW120606   2.570   2.582  10.797  2.0150 -0.4714 -0.3430
 2991SOL    HW220607   2.449   2.554  10.712 -0.3435  1.8278  0.1944
 2992SOL     OW20608   3.394   3.898   6.528  0.1367 -0.1820 -0.2699
 2992SOL    HW120609   3.358   3.887   6.616 -0.2929 -1.2805 -0.5811
 2992SOL    HW220610   3.380   3.811   6.490 -0.2602  1.0347 -2.9290
 2993SOL     OW20611   1.038   3.023   5.363 -0.5289 -0.1934 -0.1175
 2993SOL    HW120612   1.080   3.091   5.311  1.8165 -1.5965 -0.0380
 2993SOL    HW220613   1.104   2.984   5.419 -0.5761 -0.9543 -0.5901
 2994SOL     OW20614   0.377   4.669  17.738  0.0824  0.3619 -0.3723
 2994SOL    HW120615   0.409   4.730   0.040 -1.6669 -0.1247  0.9101
 2994SOL    HW220616   0.375   4.733  17.667 -0.9155  1.4051  0.5979
 2995SOL     OW20617   1.258   1.435   9.962  0.0584 -0.2167 -0.5425
 2995SOL    HW120618   1.303   1.392  10.035  0.1862 -1.6998 -1.4963
 2995SOL    HW220619   1.298   1.522   9.966 -1.3376  0.3742  0.5480
 2996SOL     OW20620   3.418   4.172  16.659 -0.2872 -0.7555  0.6779
 2996SOL    HW120621   3.401   4.245  16.718 -1.8199 -0.6707  0.1243
 2996SOL    HW220622   3.354   4.188  16.590 -0.1007 -1.4044  0.3495
 2997SOL     OW20623   3.235   2.888   4.073 -0.6177  0.0495  0.5867
 2997SOL    HW120624   3.228   2.799   4.110  0.4855 -1.3598 -2.5840
 2997SOL    HW220625   3.153   2.906   4.029 -1.3911 -0.6907  1.7130
 2998SOL     OW20626   0.844   0.552  13.866 -0.3401  0.3685  0.0784
 2998SOL    HW120627   0.866   0.508  13.948 -0.4441 -1.0841 -0.6860
 2998SOL    HW220628   0.900   0.629  13.882  1.1761 -0.7244  0.0512
 2999SOL     OW20629   1.640   3.164  15.945  0.6474  0.1967 -0.4763
 2999SOL    HW120630   1.680   3.216  16.015 -0.9464  0.2250  0.4259
 2999SOL    HW220631   1.663   3.075  15.970  0.4175  0.0325 -0.8519
 3000SOL     OW20632   4.657   1.280  10.681  0.5199  0.0525  0.3327
 3000SOL    HW120633   4.661   1.310  10.771 -1.1795  0.9236  0.1251
 3000SOL    HW220634   4.628   1.190  10.700  2.0178 -0.4037  0.4253
 3001SOL     OW20635   4.487   3.222  17.698 -0.9184 -0.4406  0.4651
 3001SOL    HW120636   4.528   3.207   0.019  0.3117  0.2636  0.0082
 3001SOL    HW220637   4.497   3.317  17.696  0.2861 -0.5939 -0.9470
 3002SOL     OW20638   4.287   2.711  16.519  0.8837  0.1516 -0.0108
 3002SOL    HW120639   4.382   2.707  16.529  0.7445 -1.0215  0.8459
 3002SOL    HW220640   4.261   2.629  16.561 -2.0604  1.6818  1.1494
 3003SOL     OW20641   4.555   4.256   3.823 -0.6560  0.1751 -0.0365
 3003SOL    HW120642   4.531   4.209   3.903 -2.1218  2.5613  0.9203
 3003SOL    HW220643   4.499   4.209   3.761  3.6761 -2.7691 -1.6575
 3004SOL     OW20644   4.529   1.531  14.209 -0.2106  0.3802 -0.3475
 3004SOL    HW120645   4.601   1.474  14.184 -0.2170 -0.4991  1.5909
 3004SOL    HW220646   4.564   1.606  14.160 -0.1238 -0.3735 -1.4336
 3005SOL     OW20647   1.377   3.427  15.378 -0.8336  0.2509  0.5198
 3005SOL    HW120648   1.390   3.343  15.334  0.3862  1.0506 -0.6519
 3005SOL    HW220649   1.439   3.430  15.451 -0.0943 -0.3919 -0.0871
 3006SOL     OW20650   2.413   1.275  16.539  0.0138  0.2917  0.3196
 3006SOL    HW120651   2.318   1.270  16.532 -0.1260  2.8663  0.4752
 3006SOL    HW220652   2.432   1.265  16.632 -1.8502 -0.1824  0.6462
 3007SOL     OW20653   2.785   3.299  14.067  0.6114 -0.3684 -0.4340
 3007SOL    HW120654   2.871   3.310  14.109 -0.0098 -0.0970  0.7555
 3007SOL    HW220655   2.797   3.225  14.007 -0.4973 -0.5095 -0.4806
 3008SOL     OW20656   4.103   3.129   4.222 -0.0267  0.0007  0.1908
 3008SOL    HW120657   4.033   3.063   4.225 -0.2448  0.2287  0.0832
 3008SOL    HW220658   4.069   3.209   4.262 -0.4270  0.2942 -0.7410
 3009SOL     OW20659   1.822   4.120   9.477  0.1326  0.0947  0.0672
 3009SOL    HW120660   1.882   4.048   9.459  0.6023  0.4077  0.4006
 3009SOL    HW220661   1.845   4.150   9.564 -1.2938  3.9904 -0.8578
 3010SOL     OW20662   3.601   2.193   8.441 -0.5022 -0.2346 -0.0043
 3010SOL    HW120663   3.630   2.111   8.401 -0.2189 -0.1865  0.0992
 3010SOL    HW220664   3.618   2.179   8.534  0.8901 -0.5663 -0.3106
 3011SOL     OW20665   3.042   0.823  13.021 -0.5575  0.5570 -0.5362
 3011SOL    HW120666   3.129   0.823  13.061 -1.5281  2.2491  1.5670
 3011SOL    HW220667   3.062   0.767  12.946  3.4233 -0.6756  1.4481
 3012SOL     OW20668   1.488   3.615  15.180  0.2758  0.3721 -0.1746
 3012SOL    HW120669   1.428   3.542  15.198 -0.1238  0.4805 -1.0822
 3012SOL    HW220670   1.471   3.633  15.088 -0.2501  3.6485  0.5853
 3013SOL     OW20671   3.889   0.669   5.119  0.2808  0.5949  0.9392
 3013SOL    HW120672   3.918   0.662   5.028 -3.4900 -1.2807 -0.1040
 3013SOL    HW220673   3.911   0.580   5.146  0.2597  0.9493  2.1285
 3014SOL     OW20674   3.204   0.001   9.520 -0.3886  0.6145  0.2230
 3014SOL    HW120675   3.209   4.725   9.426  0.8335  3.5181 -0.2846
 3014SOL    HW220676   3.231   0.093   9.521 -2.0964  1.1334 -1.0148
 3015SOL     OW20677   0.762   3.436   5.402 -0.4737 -0.2976  0.3494
 3015SOL    HW120678   0.747   3.398   5.315 -1.6462 -0.0814  0.4539
 3015SOL    HW220679   0.689   3.393   5.448 -1.5415 -0.5865 -1.5922
 3016SOL     OW20680   0.157   3.822   6.859 -0.2834 -0.4012 -0.4159
 3016SOL    HW120681   0.123   3.891   6.802 -0.4788  0.4105  0.6660
 3016SOL    HW220682   0.137   3.863   6.943 -0.3366 -0.7448 -0.2602
 3017SOL     OW20683   1.650   2.087   4.072  0.0702  0.5143  0.2389
 3017SOL    HW120684   1.724   2.074   4.132 -0.3722  1.1389  0.9204
 3017SOL    HW220685   1.588   2.145   4.117  0.1041  1.5464 -1.0618
 3018SOL     OW20686   4.358   1.170   5.686 -0.3575  0.0486  0.3308
 3018SOL    HW120687   4.321   1.107   5.748 -2.9396  2.1153  0.8914
 3018SOL    HW220688   4.339   1.113   5.611  1.8302  0.6048 -0.6625
 3019SOL     OW20689   0.658   0.731   7.831 -0.0280 -0.0918 -0.1082
 3019SOL    HW120690   0.672   0.819   7.797 -0.4004  0.3427  0.8424
 3019SOL    HW220691   0.620   0.693   7.752 -0.5618 -1.0129  0.5998
 3020SOL     OW20692   3.403   0.718  11.370 -0.4434  0.4308  0.0132
 3020SOL    HW120693   3.416   0.782  11.300 -0.8074 -0.1808 -0.6082
 3020SOL    HW220694   3.311   0.699  11.352 -0.1256 -0.7782 -0.2993
 3021SOL     OW20695   3.359   1.131   6.682 -0.1897  0.1860  0.6036
 3021SOL    HW120696   3.343   1.197   6.614  1.3903  0.6835  0.7151
 3021SOL    HW220697   3.292   1.064   6.665 -1.0747  0.2399  3.9665
 3022SOL     OW20698   2.139   0.195   2.288  0.2339  0.2117  0.3962
 3022SOL    HW120699   2.169   0.249   2.361  0.7259  2.8114 -1.6969
 3022SOL    HW220700   2.219   0.172   2.240 -1.4340 -0.9899 -1.8181
 3023SOL     OW20701   4.356   1.628  12.156 -0.0366  0.0083 -0.4080
 3023SOL    HW120702   4.433   1.663  12.113  1.0327 -0.6356  0.9871
 3023SOL    HW220703   4.295   1.682  12.105  1.2440 -1.5479 -3.5464
 3024SOL     OW20704   3.847   1.316   9.220  0.3170 -0.1331  0.2322
 3024SOL    HW120705   3.938   1.318   9.251  0.5410 -0.0009 -0.4242
 3024SOL    HW220706   3.861   1.269   9.138  0.5397 -0.9590  0.7379
 3025SOL     OW20707   1.050   3.546   5.290 -0.1430 -0.3587  0.0494
 3025SOL    HW120708   0.977   3.580   5.238  1.4230 -0.4246 -2.2036
 3025SOL    HW220709   1.047   3.595   5.373 -1.3030 -0.6117  0.1427
 3026SOL     OW20710   2.797   1.783   6.721  0.2874  0.7977  0.2987
 3026SOL    HW120711   2.844   1.700   6.725  0.8794  1.0301 -1.6276
 3026SOL    HW220712   2.774   1.801   6.812  1.5505 -0.0559  0.7887
 3027SOL     OW20713   0.967   1.219  16.276  0.4550  0.7127 -0.1779
 3027SOL    HW120714   0.921   1.288  16.324 -0.4351 -0.0613  0.0844
 3027SOL    HW220715   0.988   1.168  16.354 -0.3907  3.3627  1.8052
 3028SOL     OW20716   0.192   3.301   6.798 -0.0272  0.9085 -0.5593
 3028SOL    HW120717   0.193   3.277   6.891  1.1108  0.1594 -0.7636
 3028SOL    HW220718   0.278   3.343   6.802 -0.2810  1.5572 -2.1623
 3029SOL     OW20719   1.223   1.855  17.630  0.5189  0.1902  0.0658
 3029SOL    HW120720   1.268   1.789  17.683  0.0903  0.2267  0.4764
 3029SOL    HW220721   1.196   1.800  17.556 -0.8650  1.7839 -0.6239
 3030SOL     OW20722   3.545   4.282   2.790  0.5874 -0.2839 -0.2079
 3030SOL    HW120723   3.584   4.245   2.712  2.3327 -0.6583  0.8500
 3030SOL    HW220724   3.575   4.372   2.779  0.4341 -0.2661 -0.4923
 3031SOL     OW20725   0.931   1.216   2.683  0.0023 -0.2021 -0.0832
 3031SOL    HW120726   0.984   1.259   2.750 -1.5704  0.3518  0.8108
 3031SOL    HW220727   1.004   1.227   2.622 -0.2488 -4.4965 -1.1752
 3032SOL     OW20728   0.781   2.018  10.218  0.0333  0.2633  0.2375
 3032SOL    HW120729   0.765   1.966  10.296  2.2579  1.1234  1.2520
 3032SOL    HW220730   0.757   2.106  10.246 -2.4869  0.1087 -1.3984
 3033SOL     OW20731   2.470   0.160   1.518 -0.5087  0.5123 -0.3135
 3033SOL    HW120732   2.446   0.226   1.583 -1.6224  1.8681 -2.0862
 3033SOL    HW220733   2.553   0.131   1.557 -1.7761 -0.5756  1.5170
 3034SOL     OW20734   4.197   2.278   3.423 -0.2690  0.5240 -0.0616
 3034SOL    HW120735   4.246   2.286   3.341  1.1014  0.7928  0.7777
 3034SOL    HW220736   4.116   2.316   3.388 -0.5226 -0.0633 -0.1181
 3035SOL     OW20737   0.956   4.298   3.469  0.0857  0.1681 -0.2882
 3035SOL    HW120738   0.975   4.250   3.549  1.5548  3.1801  1.1425
 3035SOL    HW220739   1.011   4.261   3.400  1.7837  2.6635 -0.2767
 3036SOL     OW20740   0.326   1.731   7.281 -0.0307 -0.0589 -0.1063
 3036SOL    HW120741   0.303   1.787   7.356  1.0996  0.8091 -0.4075
 3036SOL    HW220742   0.401   1.689   7.323 -1.2624 -1.7135  0.4306
 3037SOL     OW20743   2.627   1.407  10.038 -0.2568  0.2435 -0.0489
 3037SOL    HW120744   2.633   1.384   9.945 -2.4159 -3.4826  0.7546
 3037SOL    HW220745   2.556   1.347  10.063  0.1503  0.0906  0.7365
 3038SOL     OW20746   2.411   3.958  13.455  0.3861 -0.5468 -0.6908
 3038SOL    HW120747   2.429   3.904  13.378 -1.0704 -1.0864 -0.6598
 3038SOL    HW220748   2.363   4.034  13.420  1.3353 -0.2151 -1.2730
 3039SOL     OW20749   0.217   1.221  14.183  0.2879  0.5473 -0.1905
 3039SOL    HW120750   0.123   1.207  14.195  0.7271 -1.9291  0.4635
 3039SOL    HW220751   0.228   1.167  14.105  0.9804  1.5171 -0.7680
 3040SOL     OW20752   4.701   3.727   6.510 -0.5793  0.0737 -0.3489
 3040SOL    HW120753   4.702   3.706   6.603 -1.6431 -0.4620 -0.4511
 3040SOL    HW220754   4.721   3.645   6.467  0.0950 -0.2502  0.5866
 3041SOL     OW20755   1.063   0.619   5.298 -0.4910 -0.0738 -0.2460
 3041SOL    HW120756   1.008   0.641   5.373  0.0142 -2.6831  0.8734
 3041SOL    HW220757   1.021   0.534   5.291 -0.9921  0.1829 -0.3158
 3042SOL     OW20758   3.821   1.405  16.236 -0.1489 -0.5843  0.4188
 3042SOL    HW120759   3.818   1.452  16.153  0.0607  0.3122  0.9237
 3042SOL    HW220760   3.864   1.472  16.289  1.5718 -0.9737 -0.4649
 3043SOL     OW20761   4.246   1.741   4.092  0.1013 -0.5905  0.2204
 3043SOL    HW120762   4.218   1.820   4.046  2.2240  0.5822  0.9686
 3043SOL    HW220763   4.290   1.772   4.172 -1.6832  0.6669  0.7276
 3044SOL     OW20764   0.854   3.965  16.427 -0.0122  1.0602  0.0272
 3044SOL    HW120765   0.857   3.993  16.518  1.4843 -0.6991  0.5038
 3044SOL    HW220766   0.841   4.050  16.383  0.9268  1.0987 -0.1803
 3045SOL     OW20767   3.199   4.513  12.296  0.1978  0.2932  0.4827
 3045SOL    HW120768   3.293   4.515  12.318  0.6179 -1.4481 -1.1729
 3045SOL    HW220769   3.205   4.552  12.209  2.8743  0.7597  0.8605
 3046SOL     OW20770   0.054   1.873   2.915  0.1553  0.1188 -0.2263
 3046SOL    HW120771   4.737   1.801   2.892 -0.0260 -0.1246  0.9854
 3046SOL    HW220772   4.740   1.943   2.950  0.5064 -0.8033  2.1443
 3047SOL     OW20773   2.389   1.209   9.179 -0.3473  0.0586 -0.2080
 3047SOL    HW120774   2.458   1.272   9.157  1.8430 -2.4751 -0.5294
 3047SOL    HW220775   2.422   1.181   9.264 -1.4994 -1.0028 -0.1110
 3048SOL     OW20776   3.000   4.739   4.173 -0.3013 -0.0584 -0.2069
 3048SOL    HW120777   3.039   0.035   4.252  1.9322 -1.9126 -0.4330
 3048SOL    HW220778   3.038   0.053   4.105  1.8534  2.2468  2.8808
 3049SOL     OW20779   2.996   0.262   1.897 -0.3175 -0.9266 -0.0528
 3049SOL    HW120780   3.063   0.194   1.887 -1.0620 -1.5318 -0.8995
 3049SOL    HW220781   2.965   0.235   1.983  0.0590  1.7127  0.9264
 3050SOL     OW20782   1.783   3.434   2.905  0.2262  0.0118 -0.5928
 3050SOL    HW120783   1.723   3.373   2.948  0.6706  0.8356  1.1595
 3050SOL    HW220784   1.796   3.388   2.821 -1.2099  1.1499 -1.4407
 3051SOL     OW20785   3.883   4.503  13.207 -0.3505  0.5680  0.1784
 3051SOL    HW120786   3.891   4.530  13.298 -0.8980  0.9085  0.1205
 3051SOL    HW220787   3.950   4.434  13.208 -0.3511  0.6086  2.6805
 3052SOL     OW20788   2.649   3.434   0.359 -0.0682 -0.6074 -0.6814
 3052SOL    HW120789   2.601   3.461   0.282  2.5346 -0.0551 -2.1048
 3052SOL    HW220790   2.680   3.519   0.390 -2.3330  0.2748 -0.8546
 3053SOL     OW20791   4.651   1.692   4.072  0.0800 -0.0343 -0.5686
 3053SOL    HW120792   4.588   1.672   4.004 -0.4522 -1.2231  0.2877
 3053SOL    HW220793   4.730   1.668   4.023  2.2305  1.1943  2.2734
 3054SOL     OW20794   1.183   0.965   9.676 -0.4664 -0.1251  0.6857
 3054SOL    HW120795   1.232   1.033   9.722  1.7228 -1.0116 -0.2985
 3054SOL    HW220796   1.095   0.992   9.700  0.5785  2.2411  1.8538
 3055SOL     OW20797   0.001   1.746   6.750 -0.3654 -0.8160 -0.1023
 3055SOL    HW120798   4.647   1.756   6.744 -0.1653  1.0868 -0.1675
 3055SOL    HW220799   0.015   1.802   6.827 -0.8936 -0.5262 -0.2114
 3056SOL     OW20800   2.212   3.588   3.703 -0.5380 -0.2849  0.1213
 3056SOL    HW120801   2.298   3.619   3.673 -0.3337  0.6270  1.6635
 3056SOL    HW220802   2.228   3.560   3.793  1.4171 -0.9127 -0.4159
 3057SOL     OW20803   1.682   2.817  10.993 -0.5190  0.1494  0.0605
 3057SOL    HW120804   1.731   2.792  11.072 -0.3150 -1.6158 -0.6116
 3057SOL    HW220805   1.667   2.911  10.999  1.0195  0.3029  1.3678
 3058SOL     OW20806   0.671   0.797   5.415 -0.5907  0.0707 -0.0395
 3058SOL    HW120807   0.751   0.785   5.466 -0.2028  0.7190 -0.5003
 3058SOL    HW220808   0.709   0.834   5.336 -1.6731  0.6331 -0.3051
 3059SOL     OW20809   2.345   1.780   2.122  0.3261  0.2520  1.1672
 3059SOL    HW120810   2.421   1.772   2.180  2.6962  2.2398 -1.6359
 3059SOL    HW220811   2.300   1.696   2.128 -0.6890  0.6856 -0.2358
 3060SOL     OW20812   4.335   4.010   2.281  0.3371  0.3839  0.5143
 3060SOL    HW120813   4.415   3.985   2.327 -0.5077 -4.2249 -0.5972
 3060SOL    HW220814   4.279   4.055   2.344 -2.0270  0.9729 -2.0224
 3061SOL     OW20815   2.947   0.762   4.834  0.0744  0.4505  0.1234
 3061SOL    HW120816   3.031   0.726   4.806 -0.1049 -1.0749  1.5370
 3061SOL    HW220817   2.887   0.749   4.760  0.0182  3.0550 -0.3040
 3062SOL     OW20818   0.113   3.392   4.529  0.3288 -0.0885 -0.7296
 3062SOL    HW120819   0.080   3.389   4.619 -0.5738 -1.4594 -1.1123
 3062SOL    HW220820   0.037   3.365   4.477 -1.0600  0.6020  0.9511
 3063SOL     OW20821   1.537   3.675   3.853  0.2836  0.4158  0.7354
 3063SOL    HW120822   1.590   3.615   3.906 -1.5994 -0.6622  1.3887
 3063SOL    HW220823   1.606   3.699   3.791  2.2213 -2.1272  1.8932
 3064SOL     OW20824   3.827   0.354   9.403 -0.1473  0.3470 -0.2382
 3064SOL    HW120825   3.761   0.417   9.429 -0.0400  1.0117 -1.5495
 3064SOL    HW220826   3.877   0.352   9.484 -1.8154  0.1500  0.7740
 3065SOL     OW20827   3.572   0.253   4.546  0.2462  0.1820  0.4046
 3065SOL    HW120828   3.489   0.296   4.565 -0.5554 -1.4401  0.5942
 3065SOL    HW220829   3.530   0.177   4.505  0.4420 -0.7991  2.0067
 3066SOL     OW20830   2.326   0.868  13.838  0.0569  0.3316 -0.0049
 3066SOL    HW120831   2.280   0.930  13.782 -0.3682  1.8890  2.0981
 3066SOL    HW220832   2.254   0.832  13.891  1.3099 -0.5944  1.0702
 3067SOL     OW20833   4.399   2.998  14.545  0.3243 -0.3369  0.0263
 3067SOL    HW120834   4.378   3.061  14.614 -0.4063  1.3258 -1.6922
 3067SOL    HW220835   4.370   2.915  14.582  0.7669 -0.3923  0.2410
 3068SOL     OW20836   0.321   2.155   8.685  0.0612  0.5611  0.0807
 3068SOL    HW120837   0.372   2.175   8.764  1.4523 -0.7133 -0.5002
 3068SOL    HW220838   0.369   2.081   8.648  0.4815 -0.5256  2.7524
 3069SOL     OW20839   0.259   3.109   9.325  0.2027 -0.1000  0.7398
 3069SOL    HW120840   0.288   3.138   9.238 -1.5867 -0.7122 -0.0788
 3069SOL    HW220841   0.166   3.088   9.311 -0.1995  2.8497 -0.8852
 3070SOL     OW20842   0.603   2.944   9.140 -0.1849  0.6218 -0.1823
 3070SOL    HW120843   0.587   3.033   9.171 -0.8878 -0.1455  1.6429
 3070SOL    HW220844   0.697   2.932   9.124 -0.9204 -2.3448 -2.3138
 3071SOL     OW20845   3.503   3.805   6.166 -0.4317 -0.3886  0.0266
 3071SOL    HW120846   3.560   3.805   6.243  1.5134  0.2193 -1.4147
 3071SOL    HW220847   3.561   3.807   6.090  2.2928 -1.5713  2.0993
 3072SOL     OW20848   2.914   1.252   7.733  0.1772 -0.9997 -0.7215
 3072SOL    HW120849   2.959   1.172   7.705  1.4490 -0.4673 -0.2053
 3072SOL    HW220850   2.822   1.228   7.720 -0.0223  0.3489 -1.7717
 3073SOL     OW20851   4.134   3.383   6.917  0.0070  0.1939  0.4505
 3073SOL    HW120852   4.049   3.414   6.885 -0.8209 -1.5683  0.9088
 3073SOL    HW220853   4.190   3.461   6.921 -0.5615  0.5870  0.7166
 3074SOL     OW20854   4.382   2.476   7.737 -0.6142  0.6394 -0.6752
 3074SOL    HW120855   4.355   2.416   7.807  3.0404  0.4133  0.5997
 3074SOL    HW220856   4.476   2.470   7.758 -0.9958 -0.2885  0.7708
 3075SOL     OW20857   3.900   3.334   3.104  0.0180 -0.1089  0.3156
 3075SOL    HW120858   3.986   3.376   3.111  1.0586 -2.0267 -1.3569
 3075SOL    HW220859   3.918   3.249   3.145 -0.6121 -1.5809 -2.5210
 3076SOL     OW20860   2.958   4.673   5.643  0.4510  0.2034 -0.5955
 3076SOL    HW120861   3.017   4.705   5.711  0.0401  1.7360 -0.9514
 3076SOL    HW220862   2.945   4.585   5.677  2.7901  0.2194  0.3235
 3077SOL     OW20863   2.653   3.335   2.897  0.4039  0.1467  0.1736
 3077SOL    HW120864   2.663   3.390   2.819  3.5004 -0.6664  0.0303
 3077SOL    HW220865   2.711   3.262   2.876 -0.4955  0.2623 -2.7391
 3078SOL     OW20866   1.223   3.222  17.429 -0.0239 -0.6564  0.1840
 3078SOL    HW120867   1.227   3.295  17.367  0.2369 -0.8705 -0.0529
 3078SOL    HW220868   1.272   3.159  17.376  0.0126 -1.2071  0.8731
 3079SOL     OW20869   1.708   0.952  13.489 -0.9511 -0.3223 -0.3235
 3079SOL    HW120870   1.735   1.017  13.424 -0.3256 -0.7310 -0.4758
 3079SOL    HW220871   1.681   0.881  13.430  2.2985 -1.3066 -0.6481
 3080SOL     OW20872   2.402   4.303   4.404 -0.4384  0.1191 -0.4135
 3080SOL    HW120873   2.454   4.306   4.323  0.8413 -2.6687  0.3265
 3080SOL    HW220874   2.456   4.237   4.447 -0.3478  0.6513  0.2859
 3081SOL     OW20875   2.499   4.393  11.152  0.2684  0.4532 -0.1089
 3081SOL    HW120876   2.562   4.321  11.150 -0.5196 -0.2916  1.3339
 3081SOL    HW220877   2.492   4.408  11.058  1.8698 -2.0342 -0.6105
 3082SOL     OW20878   2.223   3.213   1.585  0.3806 -0.0557 -0.5681
 3082SOL    HW120879   2.220   3.299   1.627 -1.2089  1.0071 -2.8978
 3082SOL    HW220880   2.318   3.202   1.589  0.4044  0.2584 -0.3485
 3083SOL     OW20881   2.753   3.084  10.965 -0.0230  0.3524  0.7227
 3083SOL    HW120882   2.812   3.111  10.894 -0.8976  1.2615  0.3292
 3083SOL    HW220883   2.692   3.158  10.962 -0.8853 -0.2998  2.1433
 3084SOL     OW20884   2.703   1.262   2.100 -0.2548  0.4363 -0.1440
 3084SOL    HW120885   2.687   1.275   2.194 -4.0343 -0.0861 -0.7167
 3084SOL    HW220886   2.708   1.353   2.071  1.7095  0.5454  0.5476
 3085SOL     OW20887   2.367   1.673  12.560  0.5036 -0.3703 -0.4431
 3085SOL    HW120888   2.441   1.674  12.621 -0.3168 -0.8963  0.5632
 3085SOL    HW220889   2.383   1.590  12.516 -1.6238 -1.1901  0.3554
 3086SOL     OW20890   2.727   1.275   5.307 -0.2326 -0.4462 -0.3197
 3086SOL    HW120891   2.810   1.324   5.298 -0.7132  0.7018  1.3571
 3086SOL    HW220892   2.754   1.214   5.239  0.0146 -0.5910 -0.0932
 3087SOL     OW20893   3.366   0.040   5.163 -0.0163 -0.1475 -1.2880
 3087SOL    HW120894   3.343   0.006   5.249  0.3722 -3.5083 -2.5061
 3087SOL    HW220895   3.407   0.122   5.189 -1.4206 -0.5800  2.2277
 3088SOL     OW20896   3.319   3.666   5.304 -0.7481 -0.2435 -0.6448
 3088SOL    HW120897   3.414   3.663   5.296 -0.6089  0.7564  0.6522
 3088SOL    HW220898   3.293   3.685   5.214 -0.3392 -0.4438 -0.8011
 3089SOL     OW20899   0.718   0.451   0.195 -0.4014 -0.4325 -0.1212
 3089SOL    HW120900   0.658   0.487   0.261  1.4791  1.1799  0.7074
 3089SOL    HW220901   0.802   0.491   0.218 -0.0209 -1.0711 -0.3858
 3090SOL     OW20902   1.774   1.186   7.439  0.1670 -0.8708  0.1099
 3090SOL    HW120903   1.779   1.104   7.488  2.0947 -0.4434  0.6324
 3090SOL    HW220904   1.836   1.156   7.372  1.0768  2.1357 -0.3903
 3091SOL     OW20905   0.524   2.496   9.820 -0.1519 -0.4230  0.2621
 3091SOL    HW120906   0.471   2.544   9.884  0.2526  1.1591 -0.5795
 3091SOL    HW220907   0.476   2.512   9.739 -0.4454  1.3262  0.7656
 3092SOL     OW20908   3.840   0.522  13.220  0.4548 -0.1859 -0.0216
 3092SOL    HW120909   3.833   0.612  13.188 -0.9965 -1.1634 -2.3718
 3092SOL    HW220910   3.845   0.534  13.315 -3.0553 -0.3913  0.1961
 3093SOL     OW20911   3.702   1.205  15.608 -0.1649  0.3662 -0.1552
 3093SOL    HW120912   3.696   1.299  15.596 -0.5888  0.5629  1.4889
 3093SOL    HW220913   3.672   1.198  15.699 -0.6562 -1.5588 -0.4579
 3094SOL     OW20914   0.452   4.399   8.157  0.1958 -0.1475  0.3604
 3094SOL    HW120915   0.476   4.475   8.210 -0.8811 -0.8533  1.8543
 3094SOL    HW220916   0.531   4.347   8.172 -0.1971 -0.4323  1.4377
 3095SOL     OW20917   2.327   1.171   8.898 -0.1765  0.0974 -0.8002
 3095SOL    HW120918   2.337   1.150   8.991 -0.0770 -2.5184 -1.3853
 3095SOL    HW220919   2.417   1.168   8.867  1.0933  0.0375  2.8981
 3096SOL     OW20920   1.052   2.704   4.249  0.1351 -0.0785 -0.1778
 3096SOL    HW120921   1.071   2.793   4.280  3.8835 -0.4072 -1.5812
 3096SOL    HW220922   1.134   2.686   4.204 -0.4224 -2.7013 -0.1266
 3097SOL     OW20923   2.618   0.474   4.157 -0.3547 -0.3534 -0.1403
 3097SOL    HW120924   2.563   0.488   4.080  0.5558 -0.4266 -0.8035
 3097SOL    HW220925   2.670   0.399   4.128 -1.2959 -1.0556 -0.0034
 3098SOL     OW20926   1.482   0.936   9.660  0.2736 -0.1267  0.0231
 3098SOL    HW120927   1.493   0.921   9.566  2.0793  0.7604  0.0917
 3098SOL    HW220928   1.575   0.931   9.681 -0.3236 -0.2623  2.6235
 3099SOL     OW20929   3.250   3.816  13.831  0.0591 -0.2080 -0.0192
 3099SOL    HW120930   3.235   3.777  13.745 -0.8456  1.3783 -0.5663
 3099SOL    HW220931   3.269   3.736  13.881  0.9385  0.6731  1.0583
 3100SOL     OW20932   3.520   4.584   4.341  0.1039  0.7250 -0.1724
 3100SOL    HW120933   3.446   4.575   4.280 -1.6202  0.7606  1.9157
 3100SOL    HW220934   3.575   4.513   4.308 -2.4145 -1.0536 -0.5718
 3101SOL     OW20935   3.224   4.110   7.327  0.8013 -0.8018 -0.1843
 3101SOL    HW120936   3.131   4.087   7.330  1.2488 -2.7459 -1.1291
 3101SOL    HW220937   3.247   4.105   7.420  0.5944 -1.1456 -0.1525
 3102SOL     OW20938   1.347   3.500   6.505  0.2041  0.0622  0.7310
 3102SOL    HW120939   1.319   3.573   6.560 -1.8055 -0.4189  0.3668
 3102SOL    HW220940   1.429   3.521   6.461 -2.1082 -0.5526 -3.8596
 3103SOL     OW20941   4.320   2.924  16.924  0.0560  0.4863 -0.3548
 3103SOL    HW120942   4.256   2.882  16.866  1.0506  0.1222 -1.1936
 3103SOL    HW220943   4.266   3.003  16.935  1.3044  1.5886 -2.1263
 3104SOL     OW20944   0.310   4.305   2.108 -0.5816  0.2096 -0.3852
 3104SOL    HW120945   0.215   4.296   2.112 -0.3149 -1.9872  1.0030
 3104SOL    HW220946   0.335   4.230   2.055 -0.2495 -1.0377  1.5440
 3105SOL     OW20947   0.415   4.467   2.904  0.0200 -0.3231 -0.4098
 3105SOL    HW120948   0.375   4.385   2.935 -1.0172  0.0112 -0.8518
 3105SOL    HW220949   0.389   4.529   2.971  3.4433 -0.8178  1.3794
 3106SOL     OW20950   4.641   0.204   3.929 -0.3373 -0.3994  0.3511
 3106SOL    HW120951   4.714   0.152   3.963 -1.4921 -2.5594 -0.5283
 3106SOL    HW220952   4.663   0.203   3.836  1.2870 -1.4090  0.7432
 3107SOL     OW20953   4.593   2.796   3.598 -0.4143  0.2349  0.3246
 3107SOL    HW120954   4.502   2.767   3.598  0.8543 -3.7385 -0.1610
 3107SOL    HW220955   4.589   2.873   3.654 -2.4315  1.5084 -1.5921
 3108SOL     OW20956   2.200   1.409  14.613 -0.3715 -0.3084 -0.8599
 3108SOL    HW120957   2.141   1.391  14.539 -1.1238  1.5811 -0.7059
 3108SOL    HW220958   2.143   1.398  14.689 -0.2303  1.0614 -0.5601
 3109SOL     OW20959   0.440   2.835   6.857  0.2542 -0.5191 -0.0068
 3109SOL    HW120960   0.504   2.855   6.789  0.4599 -0.5029  0.1937
 3109SOL    HW220961   0.379   2.908   6.851  1.9889  0.8434 -0.7811
 3110SOL     OW20962   3.190   2.647  15.130 -0.1553 -0.1508  0.4178
 3110SOL    HW120963   3.252   2.648  15.057 -0.0792  1.0486  0.4961
 3110SOL    HW220964   3.256   2.627  15.196  1.4401  1.8991 -0.5686
 3111SOL     OW20965   0.377   3.793   6.126  0.1763  0.0934  0.4731
 3111SOL    HW120966   0.408   3.847   6.054  2.0891 -1.2072  0.3219
 3111SOL    HW220967   0.330   3.856   6.180  1.5649  2.5087 -1.1232
 3112SOL     OW20968   2.811   3.084   3.141 -0.5579 -0.3130  0.1522
 3112SOL    HW120969   2.820   3.062   3.234 -3.1110 -0.5623  0.3436
 3112SOL    HW220970   2.899   3.108   3.110 -1.2819 -0.2894 -1.8784
 3113SOL     OW20971   3.196   3.999   3.110 -0.1645  0.1468  0.3378
 3113SOL    HW120972   3.111   3.995   3.067  0.1045  0.6249 -0.2393
 3113SOL    HW220973   3.260   3.963   3.049  0.3618 -0.2256  1.1086
 3114SOL     OW20974   2.993   1.307   9.431 -0.3225 -0.1323  0.3175
 3114SOL    HW120975   3.001   1.343   9.519  0.3676  1.7617 -0.5075
 3114SOL    HW220976   3.054   1.360   9.379 -2.7656 -1.2426 -3.6684
 3115SOL     OW20977   3.684   0.032   9.036 -0.9215 -0.0581 -0.1651
 3115SOL    HW120978   3.627   0.104   9.008  0.3268  0.5461 -1.1432
 3115SOL    HW220979   3.750   0.092   9.073 -2.5774  0.7350  1.5223
 3116SOL     OW20980   2.247   4.316   8.706 -0.4117 -0.1633 -0.0444
 3116SOL    HW120981   2.234   4.351   8.794  0.1917  0.3968 -0.1806
 3116SOL    HW220982   2.316   4.380   8.686  1.4560 -2.3468 -0.5756
 3117SOL     OW20983   3.297   3.147   0.160 -0.8911 -0.3352  0.0722
 3117SOL    HW120984   3.351   3.183   0.230 -1.4471  1.9963 -0.7077
 3117SOL    HW220985   3.254   3.225   0.125 -0.6356  0.2880  1.1305
 3118SOL     OW20986   1.173   2.059  13.616  0.4449  0.3288 -0.4711
 3118SOL    HW120987   1.157   1.991  13.551 -0.4304 -1.0982  1.2399
 3118SOL    HW220988   1.175   2.015  13.701 -1.8016  0.0476 -0.5601
 3119SOL     OW20989   2.837   4.287   0.736  0.0111 -0.0684 -0.4820
 3119SOL    HW120990   2.795   4.227   0.674 -1.1530  0.0275  0.2123
 3119SOL    HW220991   2.928   4.293   0.706 -0.3202  1.1212 -1.2500
 3120SOL     OW20992   4.125   1.303   0.064 -0.8607  0.0831  0.0165
 3120SOL    HW120993   4.193   1.339   0.120 -2.4447 -2.7040  3.7489
 3120SOL    HW220994   4.089   1.228   0.111 -1.6657  0.8196  0.5955
 3121SOL     OW20995   0.026   3.540   8.307 -0.3755  0.0736 -0.5511
 3121SOL    HW120996   0.107   3.591   8.305 -1.2053  1.3867 -1.3206
 3121SOL    HW220997   4.716   3.595   8.247 -3.1039  0.1240  1.8371
 3122SOL     OW20998   2.642   2.268   7.999  0.5995  0.0150  0.1868
 3122SOL    HW120999   2.702   2.284   8.071 -1.7852  0.4168  2.0829
 3122SOL    HW221000   2.677   2.327   7.932  1.0513 -0.5607 -0.0791
 3123SOL     OW21001   3.415   0.342   6.467  0.0836 -0.3525 -0.1237
 3123SOL    HW121002   3.484   0.409   6.464 -1.7985  1.5857  0.0963
 3123SOL    HW221003   3.399   0.350   6.561  0.6533 -0.0422 -0.0492
 3124SOL     OW21004   4.213   4.243   2.421  0.0884 -0.0680  0.4971
 3124SOL    HW121005   4.128   4.231   2.379 -0.1252  2.6993  0.0844
 3124SOL    HW221006   4.245   4.323   2.378 -1.4669  1.6532  2.4997
 3125SOL     OW21007   2.825   0.807  12.680  0.2370  0.3819 -0.0646
 3125SOL    HW121008   2.907   0.837  12.642  1.2514 -0.5815  1.3677
 3125SOL    HW221009   2.765   0.815  12.606  0.4362  0.9533 -0.1606
 3126SOL     OW21010   4.145   1.670   6.260 -0.1640 -0.1075 -0.0351
 3126SOL    HW121011   4.222   1.616   6.278  0.6786  0.9388 -0.4870
 3126SOL    HW221012   4.184   1.724   6.191  1.5481 -1.8685 -0.4610
 3127SOL     OW21013   2.377   3.162  11.232 -0.1643 -0.6851 -0.2175
 3127SOL    HW121014   2.405   3.177  11.323  0.7757 -3.0979 -0.1061
 3127SOL    HW221015   2.366   3.250  11.196  0.5578  0.4427  2.3173
 3128SOL     OW21016   3.355   1.261   4.697 -0.2263  0.4449 -0.7479
 3128SOL    HW121017   3.437   1.272   4.650 -2.0919  1.7814 -3.6891
 3128SOL    HW221018   3.372   1.219   4.781  0.5725  0.6195 -0.8222
 3129SOL     OW21019   3.973   4.587   7.953 -0.8519  0.2404 -0.0320
 3129SOL    HW121020   3.901   4.527   7.937 -0.3210 -0.6150  0.8454
 3129SOL    HW221021   3.963   4.599   8.047 -0.2333  1.0702 -0.0710
 3130SOL     OW21022   3.519   0.943  11.740  0.0753 -0.0057 -0.0929
 3130SOL    HW121023   3.584   0.978  11.801  0.3296  0.5738 -0.6995
 3130SOL    HW221024   3.536   0.849  11.734  1.2367  0.1912  0.0890
 3131SOL     OW21025   0.523   0.437  16.767  0.1518  0.4555 -0.3430
 3131SOL    HW121026   0.474   0.505  16.814  2.2663  0.4677  1.8435
 3131SOL    HW221027   0.554   0.486  16.690  2.1034  1.7772  1.2724
 3132SOL     OW21028   2.784   4.183   4.799 -0.5821 -0.0525 -0.0089
 3132SOL    HW121029   2.723   4.155   4.867 -1.8211 -0.0101 -1.1152
 3132SOL    HW221030   2.855   4.119   4.801 -0.3435  0.2435  0.9712
 3133SOL     OW21031   1.669   0.753   4.324 -0.6755  0.0278 -0.2339
 3133SOL    HW121032   1.626   0.753   4.239  1.9947 -0.7758 -1.5784
 3133SOL    HW221033   1.646   0.835   4.369 -2.9244  0.3867 -2.0696
 3134SOL     OW21034   1.080   3.426   3.175 -0.1025 -0.1185  0.3349
 3134SOL    HW121035   1.108   3.399   3.263  1.8263 -2.0358 -0.8743
 3134SOL    HW221036   1.092   3.348   3.120  3.5053  0.9906 -0.4052
 3135SOL     OW21037   2.080   0.216   9.014 -0.3512  0.0976  0.4095
 3135SOL    HW121038   2.033   0.280   9.067 -2.1876  0.5036 -1.6940
 3135SOL    HW221039   2.159   0.219   9.068  0.3908  2.6110 -0.7961
 3136SOL     OW21040   2.754   4.279   5.930  0.3693 -0.1404  0.1537
 3136SOL    HW121041   2.681   4.218   5.941 -0.0551  0.1495 -1.0455
 3136SOL    HW221042   2.777   4.293   6.021  0.9102  1.1166 -0.1818
 3137SOL     OW21043   0.730   4.598   3.709  0.4269  0.0372 -0.4910
 3137SOL    HW121044   0.746   4.644   3.627 -2.6602 -1.2150 -1.7790
 3137SOL    HW221045   0.645   4.558   3.691 -0.2989  1.5195 -0.4155
 3138SOL     OW21046   1.988   1.566   2.500  0.5075 -0.1334 -0.1190
 3138SOL    HW121047   1.960   1.648   2.460 -1.1172 -1.7552 -2.2365
 3138SOL    HW221048   2.021   1.514   2.427 -0.8406 -2.6181  1.0440
 3139SOL     OW21049   1.079   1.903   5.742 -0.0993 -0.0190  0.6867
 3139SOL    HW121050   1.093   1.820   5.697 -2.4490  0.0996 -0.2819
 3139SOL    HW221051   0.983   1.907   5.743  0.0263  2.8767  1.2334
 3140SOL     OW21052   1.866   2.883   9.041  0.2616 -0.1512  0.1359
 3140SOL    HW121053   1.896   2.816   9.102 -2.4571 -2.3625 -0.9942
 3140SOL    HW221054   1.915   2.856   8.964 -0.4792 -1.7960  0.2388
 3141SOL     OW21055   2.025   2.193   2.308 -0.4888  0.0228  0.3523
 3141SOL    HW121056   1.948   2.230   2.352 -1.8030  0.1814 -2.1243
 3141SOL    HW221057   2.066   2.154   2.386 -1.1860 -0.5486  0.4318
 3142SOL     OW21058   4.224   3.279   0.782 -0.6673 -0.7060  0.4225
 3142SOL    HW121059   4.190   3.358   0.824 -0.1525  0.9319 -2.2103
 3142SOL    HW221060   4.144   3.257   0.734 -1.9204  0.5739  1.9580
 3143SOL     OW21061   3.822   3.724   8.566  0.1916 -0.3739 -0.4584
 3143SOL    HW121062   3.742   3.713   8.514  0.6308  0.4390 -1.2874
 3143SOL    HW221063   3.845   3.632   8.579  0.0239 -0.4744 -0.8689
 3144SOL     OW21064   3.588   3.258   3.290  0.0781 -0.2947  0.4804
 3144SOL    HW121065   3.602   3.350   3.267 -1.0851  0.0756  1.2777
 3144SOL    HW221066   3.676   3.226   3.314  0.0729 -0.8040 -0.1960
 3145SOL     OW21067   3.996   4.531   9.653 -0.5111 -0.0511  0.2211
 3145SOL    HW121068   4.059   4.488   9.711  0.7161  0.3694 -0.7800
 3145SOL    HW221069   3.931   4.467   9.625  0.2352 -0.5762 -0.3340
 3146SOL     OW21070   2.839   4.432   2.192  0.0852  0.1677 -0.3760
 3146SOL    HW121071   2.834   4.338   2.211 -1.3755  0.0808 -1.1505
 3146SOL    HW221072   2.769   4.436   2.127  0.0422  0.5207 -0.3095
 3147SOL     OW21073   2.311   1.049  11.027 -0.4180 -0.2648  0.2362
 3147SOL    HW121074   2.244   1.110  11.059  1.2714  1.9989 -0.6057
 3147SOL    HW221075   2.386   1.106  11.012 -0.9420  0.9545  2.2474
 3148SOL     OW21076   4.623   1.362   9.067 -0.2533  0.4482 -0.2927
 3148SOL    HW121077   4.565   1.396   9.135  1.0564  0.6557  0.7026
 3148SOL    HW221078   4.555   1.308   9.025 -0.2186  0.2538 -0.0954
 3149SOL     OW21079   2.651   4.269   9.625 -0.5213 -0.5745 -0.1458
 3149SOL    HW121080   2.686   4.255   9.713  0.8629  1.4003 -0.3807
 3149SOL    HW221081   2.712   4.337   9.596 -1.9769  1.2250  0.9167
 3150SOL     OW21082   3.337   1.925   5.693 -0.0306 -0.4468 -0.1581
 3150SOL    HW121083   3.401   1.931   5.764 -1.2826  0.7808  0.8818
 3150SOL    HW221084   3.258   1.896   5.738 -0.1204  0.8194  0.5030
 3151SOL     OW21085   0.209   0.776   7.695  0.9649 -0.2364 -0.3808
 3151SOL    HW121086   0.120   0.766   7.660  0.0006  0.6334  1.7904
 3151SOL    HW221087   0.254   0.703   7.654 -1.0564 -1.5542 -0.2902
 3152SOL     OW21088   4.094   0.300  16.038  0.2232  0.5435 -0.0910
 3152SOL    HW121089   4.116   0.260  15.954  0.6436  0.8637 -0.1323
 3152SOL    HW221090   4.000   0.312  16.028  0.6259  1.6078 -2.6078
 3153SOL     OW21091   1.796   0.349  14.664  0.3546  0.1008  0.1679
 3153SOL    HW121092   1.808   0.317  14.575 -2.6458  0.0177 -0.2041
 3153SOL    HW221093   1.786   0.441  14.641  0.3187  0.1961  0.5679
 3154SOL     OW21094   4.437   2.421   1.627  0.2126 -0.8743  0.2692
 3154SOL    HW121095   4.438   2.427   1.722 -2.9574 -1.1547  0.3416
 3154SOL    HW221096   4.422   2.328   1.609 -1.1651 -0.7154  0.5748
 3155SOL     OW21097   4.349   4.180   3.663  0.1177  0.0710 -0.2849
 3155SOL    HW121098   4.319   4.190   3.573  2.3209 -0.6560 -1.1095
 3155SOL    HW221099   4.281   4.127   3.705  1.1299 -1.6394 -0.7646
 3156SOL     OW21100   4.410   0.467   4.685 -0.1105 -0.6082 -0.2069
 3156SOL    HW121101   4.364   0.384   4.695 -0.9683  0.2898  3.3143
 3156SOL    HW221102   4.497   0.446   4.718  0.4550  0.4482 -1.0345
 3157SOL     OW21103   2.490   2.729   1.748 -0.4454 -0.4932 -0.2693
 3157SOL    HW121104   2.418   2.774   1.704 -0.1735  0.3606  0.1528
 3157SOL    HW221105   2.479   2.639   1.719 -1.4943 -0.9784  1.6366
 3158SOL     OW21106   3.449   3.185   6.109  0.1383  0.2168  0.3441
 3158SOL    HW121107   3.530   3.198   6.159  0.0745  1.0432  0.2295
 3158SOL    HW221108   3.446   3.260   6.049 -1.2934 -0.9121 -1.0113
 3159SOL     OW21109   4.328   4.609   9.868 -0.0477 -0.2838  0.1928
 3159SOL    HW121110   4.340   4.680   9.931 -2.0066  0.0388  0.2196
 3159SOL    HW221111   4.318   4.538   9.932  2.1013 -0.3730  0.4211
 3160SOL     OW21112   1.329   3.757  13.501  0.1206  0.2175  0.5551
 3160SOL    HW121113   1.393   3.827  13.491 -0.9376  1.1078  0.0443
 3160SOL    HW221114   1.369   3.673  13.480 -0.0827 -0.2294  1.9552
 3161SOL     OW21115   2.693   4.139   1.767 -0.5705 -0.2867  0.0310
 3161SOL    HW121116   2.745   4.184   1.834 -0.3833 -1.9593  1.0088
 3161SOL    HW221117   2.678   4.203   1.698  0.4311 -0.0179  0.0533
 3162SOL     OW21118   3.229   4.025   2.753  0.1941  0.6271 -0.9165
 3162SOL    HW121119   3.222   4.114   2.789 -0.0761 -0.0371  0.6552
 3162SOL    HW221120   3.262   4.053   2.668  1.6889  1.1210 -0.1687
 3163SOL     OW21121   0.981   4.410   8.150 -0.1312 -0.1721  0.2898
 3163SOL    HW121122   1.000   4.415   8.244  1.3021  2.1546 -0.1162
 3163SOL    HW221123   0.997   4.318   8.131  1.2952  0.3759 -1.1140
 3164SOL     OW21124   1.360   1.316  12.830 -0.7180  0.2310  0.1760
 3164SOL    HW121125   1.293   1.248  12.832  1.0608 -1.4956  0.6364
 3164SOL    HW221126   1.366   1.343  12.738 -0.5090 -0.2353  0.0529
 3165SOL     OW21127   1.212   4.446   8.398 -0.6102 -0.6266  0.9846
 3165SOL    HW121128   1.160   4.392   8.458 -1.0124 -1.2845  0.0425
 3165SOL    HW221129   1.285   4.475   8.453  1.3726 -0.4969 -1.7184
 3166SOL     OW21130   1.233   4.328   7.350  0.4146 -0.2338 -0.0534
 3166SOL    HW121131   1.153   4.284   7.380 -0.5915  0.0995 -2.1997
 3166SOL    HW221132   1.248   4.383   7.426  2.7364 -0.5726 -0.2875
 3167SOL     OW21133   4.316   2.905  15.243  0.1265  1.1016 -0.2142
 3167SOL    HW121134   4.403   2.867  15.238 -0.6299 -0.4319 -1.8010
 3167SOL    HW221135   4.315   2.944  15.330 -4.4024 -3.9773  2.0241
 3168SOL     OW21136   0.433   1.970   3.738 -0.6136  0.2729  0.0583
 3168SOL    HW121137   0.472   1.940   3.656  1.3897  1.2189  0.6673
 3168SOL    HW221138   0.438   2.065   3.734  0.1618  0.2840  1.5301
 3169SOL     OW21139   4.506   2.173   6.834 -0.3715 -0.0655 -0.3795
 3169SOL    HW121140   4.446   2.171   6.909  0.2643  0.5627  0.1356
 3169SOL    HW221141   4.554   2.247   6.871  0.8256 -0.2677 -1.5251
 3170SOL     OW21142   4.109   3.250   0.004 -0.0576  0.1324  0.0604
 3170SOL    HW121143   4.115   3.310   0.079 -0.7076 -0.4274  0.5662
 3170SOL    HW221144   4.183   3.286  17.718  0.7222 -2.2700 -0.5219
 3171SOL     OW21145   1.525   2.435  15.478  0.3199 -0.0139 -0.5097
 3171SOL    HW121146   1.443   2.439  15.427 -0.4763 -0.4392  0.7424
 3171SOL    HW221147   1.573   2.511  15.444  2.5594 -1.3380 -0.2558
 3172SOL     OW21148   0.309   4.318   4.307 -0.3746  0.3008 -0.0299
 3172SOL    HW121149   0.384   4.268   4.336 -1.7564 -0.1965  2.6363
 3172SOL    HW221150   0.233   4.298   4.362 -0.7395 -1.9135 -1.3159
 3173SOL     OW21151   2.741   0.422   3.744 -0.0208  0.0798 -0.3367
 3173SOL    HW121152   2.758   0.328   3.756  1.8682  0.3277 -1.0558
 3173SOL    HW221153   2.814   0.442   3.686 -1.4936  0.8954 -1.9031
 3174SOL     OW21154   1.986   1.891   6.784  0.0996  0.1085  0.1190
 3174SOL    HW121155   1.920   1.896   6.852 -1.6335  3.0207 -1.7892
 3174SOL    HW221156   2.053   1.846   6.836 -1.3810 -1.9144  0.2888
 3175SOL     OW21157   2.795   0.574   6.030  0.5765 -0.0735 -0.0934
 3175SOL    HW121158   2.880   0.573   6.073  0.0080 -1.4927  1.0012
 3175SOL    HW221159   2.828   0.614   5.950  1.5147  0.2112  0.4396
 3176SOL     OW21160   3.488   3.542   8.125  0.2087 -0.1251  0.1736
 3176SOL    HW121161   3.427   3.564   8.055  0.5850  0.2925 -0.0227
 3176SOL    HW221162   3.492   3.448   8.112  0.7365 -0.5288  3.3470
 3177SOL     OW21163   1.055   4.429   0.584  0.4902  0.0799 -0.2982
 3177SOL    HW121164   1.099   4.510   0.558 -0.5510  0.1361 -1.9272
 3177SOL    HW221165   1.130   4.375   0.610  0.1516  1.0025  2.5467
 3178SOL     OW21166   4.429   1.819   1.808 -0.1460  0.2415  0.1123
 3178SOL    HW121167   4.467   1.904   1.784 -1.5006  1.0041  0.6950
 3178SOL    HW221168   4.358   1.809   1.745 -0.7186 -1.4531  1.0351
 3179SOL     OW21169   2.936   3.811   3.005 -0.6205  0.7111 -0.2283
 3179SOL    HW121170   2.952   3.833   2.913  0.8929  1.1794  0.1453
 3179SOL    HW221171   2.841   3.823   3.000 -0.5159  1.7955  0.5340
 3180SOL     OW21172   2.669   3.141   7.852  0.9297 -0.0485 -0.1421
 3180SOL    HW121173   2.656   3.235   7.866 -2.1274 -0.5847  0.5431
 3180SOL    HW221174   2.670   3.142   7.756  1.7890  4.5391 -0.1100
 3181SOL     OW21175   0.065   1.364   7.023 -0.1662 -0.0216 -0.2475
 3181SOL    HW121176   0.051   1.301   7.093  1.0142  0.5786  0.5236
 3181SOL    HW221177   0.144   1.320   6.991  0.2974 -0.2505  1.2126
 3182SOL     OW21178   0.762   4.601   8.978 -0.5349  0.0223  0.6786
 3182SOL    HW121179   0.769   4.529   9.041 -0.3279 -1.4704 -1.0306
 3182SOL    HW221180   0.704   4.660   9.026 -0.9540 -0.5799  0.9196
 3183SOL     OW21181   4.498   3.500  13.643 -0.4693 -0.9261 -0.5722
 3183SOL    HW121182   4.417   3.485  13.691  1.3098 -1.3044  2.3144
 3183SOL    HW221183   4.508   3.420  13.591 -1.1426 -0.4809 -1.3674
 3184SOL     OW21184   0.027   4.649   5.377 -0.4204 -0.2879  0.1169
 3184SOL    HW121185   0.121   4.661   5.391 -0.4959  2.6077 -1.7257
 3184SOL    HW221186   0.009   4.719   5.314 -0.5666 -0.0331  0.4425
 3185SOL     OW21187   0.744   1.357   2.991 -0.0668  0.2581  0.1671
 3185SOL    HW121188   0.825   1.384   3.034  0.8184 -0.9966 -0.7155
 3185SOL    HW221189   0.739   1.410   2.911 -2.2651 -2.2111 -1.3420
 3186SOL     OW21190   1.443   2.202   1.692  0.1554  0.3359  0.6627
 3186SOL    HW121191   1.356   2.169   1.713 -1.0082  1.4694 -2.5041
 3186SOL    HW221192   1.422   2.295   1.681  1.7527  0.6260  0.0751
 3187SOL     OW21193   2.484   4.297   4.067 -0.5172 -0.2433 -0.5886
 3187SOL    HW121194   2.535   4.378   4.060  0.3262 -1.0556 -3.8018
 3187SOL    HW221195   2.539   4.246   4.008  0.4733  0.0835  0.0388
 3188SOL     OW21196   1.038   3.786   9.053  0.1856  0.6013  0.3970
 3188SOL    HW121197   0.954   3.822   9.024  0.7797  1.8225  0.1707
 3188SOL    HW221198   1.029   3.810   9.145  1.4560  0.9777  0.4255
 3189SOL     OW21199   3.449   1.115  17.331 -0.0940  0.0030  0.2800
 3189SOL    HW121200   3.377   1.150  17.279 -0.5294 -1.3146 -0.0040
 3189SOL    HW221201   3.472   1.197  17.375  0.2792  0.4469 -0.7346
 3190SOL     OW21202   2.875   1.001   3.783  0.3684  0.9678 -0.1472
 3190SOL    HW121203   2.831   1.012   3.867  0.2069  2.1568 -0.3810
 3190SOL    HW221204   2.963   1.036   3.797  0.8875  0.2367 -1.5255
 3191SOL     OW21205   0.253   3.571   7.414 -0.0015 -0.0520  0.4314
 3191SOL    HW121206   0.242   3.605   7.325  1.2778 -1.9084 -0.4396
 3191SOL    HW221207   0.260   3.654   7.461  1.3125 -0.2415  0.5756
 3192SOL     OW21208   0.016   0.855  10.814  0.8879 -0.4507 -0.4789
 3192SOL    HW121209   4.682   0.903  10.782  0.5545 -0.2859  0.5428
 3192SOL    HW221210   0.015   0.770  10.770 -0.0364  0.1306 -1.5731
 3193SOL     OW21211   4.711   1.273  11.005 -1.0328  0.8126 -0.4577
 3193SOL    HW121212   0.039   1.218  10.970 -0.9535  0.6892 -0.1027
 3193SOL    HW221213   4.651   1.198  11.012  0.3394 -0.1369  1.0522
 3194SOL     OW21214   0.689   1.354   9.723 -0.0765  0.0862  0.1317
 3194SOL    HW121215   0.651   1.418   9.663  1.9557  0.2970 -0.9185
 3194SOL    HW221216   0.768   1.329   9.675 -0.0094  1.9363 -0.6935
 3195SOL     OW21217   2.001   0.302   3.223  0.3334  0.1833 -0.5452
 3195SOL    HW121218   1.929   0.262   3.175 -2.0875  3.2061  0.5808
 3195SOL    HW221219   1.960   0.386   3.246 -3.2479 -1.1387 -2.1216
 3196SOL     OW21220   4.268   1.862   8.805  0.2671 -0.0912 -0.2699
 3196SOL    HW121221   4.184   1.850   8.762  0.4157  1.6436 -1.0456
 3196SOL    HW221222   4.261   1.816   8.889 -3.1580 -1.8749 -1.5555
 3197SOL     OW21223   3.142   4.082   3.960 -0.1013 -0.0949  0.6480
 3197SOL    HW121224   3.227   4.124   3.974 -0.5620  1.9780 -2.8029
 3197SOL    HW221225   3.112   4.051   4.045  2.2700 -2.0503  0.7659
 3198SOL     OW21226   2.551   2.528   6.779  0.1371 -0.7767  0.1721
 3198SOL    HW121227   2.504   2.611   6.767  1.6387 -0.0508 -0.7594
 3198SOL    HW221228   2.642   2.556   6.778 -1.0130  2.9552  0.2235
 3199SOL     OW21229   3.856   3.565   3.457 -0.3523 -0.0647  0.1184
 3199SOL    HW121230   3.931   3.513   3.485  0.8241  1.2958 -0.5679
 3199SOL    HW221231   3.790   3.513   3.503 -0.1256 -2.1112 -1.8435
 3200SOL     OW21232   1.998   1.842  14.738  0.7425  0.8114 -0.3658
 3200SOL    HW121233   2.087   1.818  14.712  0.1701 -1.5763 -0.1831
 3200SOL    HW221234   1.975   1.898  14.664  0.4045  2.5758  1.0825
 3201SOL     OW21235   1.879   4.460   4.703 -0.3643  0.0835 -0.2284
 3201SOL    HW121236   1.856   4.459   4.610 -0.3520 -0.8503 -0.2258
 3201SOL    HW221237   1.947   4.393   4.709 -0.7629 -0.2638  0.4533
 3202SOL     OW21238   1.031   2.703  16.184  0.4856 -0.4590 -0.0719
 3202SOL    HW121239   1.003   2.791  16.159  1.9274 -0.0588 -0.3306
 3202SOL    HW221240   1.004   2.700  16.276 -0.5433 -1.5730 -0.4124
 3203SOL     OW21241   0.675   0.361   4.867 -0.9865 -0.4511 -0.1901
 3203SOL    HW121242   0.705   0.308   4.793 -0.0937  0.6174 -0.6050
 3203SOL    HW221243   0.754   0.404   4.901 -1.4759  0.1270  0.2166
 3204SOL     OW21244   2.610   1.695   5.433  0.0891  0.0376  0.4434
 3204SOL    HW121245   2.650   1.671   5.350  1.3104  0.1222  1.0097
 3204SOL    HW221246   2.597   1.604   5.460 -3.2482  0.6605  1.0289
 3205SOL     OW21247   3.113   2.317   5.502  0.2677 -0.0831 -0.0663
 3205SOL    HW121248   3.138   2.240   5.452  1.2789 -0.3283  0.8060
 3205SOL    HW221249   3.098   2.276   5.588  1.0404 -1.2667 -0.5016
 3206SOL     OW21250   3.205   3.479   5.506  0.2941  0.3052 -0.0572
 3206SOL    HW121251   3.277   3.422   5.532  0.1009 -0.4226 -1.1305
 3206SOL    HW221252   3.253   3.536   5.446  0.0127  2.2185  1.5448
 3207SOL     OW21253   1.114   3.528   9.185 -0.3721 -0.5437  0.1211
 3207SOL    HW121254   1.125   3.569   9.099 -0.0854 -2.8247 -0.9349
 3207SOL    HW221255   1.020   3.509   9.179 -0.1858 -1.6238  0.5690
 3208SOL     OW21256   0.654   4.210   4.139 -0.4042  0.1417 -0.3710
 3208SOL    HW121257   0.702   4.130   4.118  0.1283  1.3430 -3.6760
 3208SOL    HW221258   0.692   4.227   4.225  0.4982  3.6207 -1.4571
 3209SOL     OW21259   1.507   2.552   2.339  0.1698  0.1056 -0.0419
 3209SOL    HW121260   1.590   2.544   2.386 -1.0087  0.6617  2.1200
 3209SOL    HW221261   1.512   2.639   2.300 -0.7859 -0.1874 -0.8446
 3210SOL     OW21262   4.223   3.477  15.864  0.0851 -0.2305 -0.2202
 3210SOL    HW121263   4.226   3.509  15.954  1.3958  0.2693 -0.4500
 3210SOL    HW221264   4.199   3.558  15.819  1.0573  1.0249  1.5065
 3211SOL     OW21265   1.042   4.655  12.881  0.2574 -0.1684  0.3459
 3211SOL    HW121266   1.037   4.571  12.836  0.8235  0.2260 -0.4605
 3211SOL    HW221267   0.974   4.707  12.840  1.0761  0.0421 -0.7409
 3212SOL     OW21268   4.695   0.496   5.755  0.1705 -0.4381  0.2967
 3212SOL    HW121269   4.704   0.563   5.687 -0.0875  1.2191  1.9047
 3212SOL    HW221270   0.041   0.468   5.781  0.2398 -0.9711 -0.5048
 3213SOL     OW21271   2.354   3.652  15.411 -0.4590 -0.0326 -0.0403
 3213SOL    HW121272   2.282   3.629  15.470 -0.4143 -0.6841 -0.2402
 3213SOL    HW221273   2.317   3.648  15.323 -1.1939  0.2283  0.2594
 3214SOL     OW21274   0.922   3.727   4.367 -0.0263 -0.3873  0.3521
 3214SOL    HW121275   0.955   3.813   4.394  0.9193 -0.6234 -0.0479
 3214SOL    HW221276   0.839   3.726   4.415 -1.1526 -1.8586 -1.6696
 3215SOL     OW21277   0.563   4.139   9.652 -0.0527  0.6254 -0.0844
 3215SOL    HW121278   0.603   4.054   9.633  1.5756  1.3735  0.0106
 3215SOL    HW221279   0.596   4.184   9.574  1.0684 -0.4893 -0.2656
 3216SOL     OW21280   0.967   3.747   7.315 -0.5707  0.1283 -0.8569
 3216SOL    HW121281   0.924   3.832   7.316 -0.5600  0.1397 -1.3639
 3216SOL    HW221282   0.993   3.742   7.407 -1.6813  3.3096 -0.3912
 3217SOL     OW21283   2.017   0.373   4.533  0.5467 -0.0213  0.1404
 3217SOL    HW121284   2.103   0.357   4.571  0.6496  3.1877  1.2183
 3217SOL    HW221285   1.960   0.411   4.599  1.7337  1.4786  0.2909
 3218SOL     OW21286   3.071   4.321  10.000 -0.0182 -0.0570  0.9359
 3218SOL    HW121287   3.016   4.397  10.019 -0.3328  0.3843 -1.7393
 3218SOL    HW221288   3.111   4.305  10.086 -1.6685 -0.0317  1.7150
 3219SOL     OW21289   0.222   4.054   4.932 -0.3314 -0.0489  0.9001
 3219SOL    HW121290   0.306   4.061   4.977  0.7123 -0.7752 -0.9157
 3219SOL    HW221291   0.233   4.124   4.868  0.7981 -0.8958  0.1727
 3220SOL     OW21292   0.943   0.691   8.559  0.2370 -0.9299  0.1927
 3220SOL    HW121293   0.985   0.610   8.530 -0.2952 -1.6429  1.4301
 3220SOL    HW221294   0.882   0.666   8.628  0.0529  0.5703  0.5722
 3221SOL     OW21295   4.124   0.894   3.926 -0.3785  0.3063  0.0782
 3221SOL    HW121296   4.119   0.840   3.847  0.8818 -1.4404  1.2084
 3221SOL    HW221297   4.032   0.885   3.950  0.5978  1.1117  4.0920
 3222SOL     OW21298   3.748   1.598   8.671 -0.1673 -0.7241 -0.2335
 3222SOL    HW121299   3.815   1.537   8.700 -0.7908 -1.4189 -0.2589
 3222SOL    HW221300   3.675   1.541   8.695  0.3001 -1.3883 -0.3862
 3223SOL     OW21301   2.058   0.622   3.601  0.4578 -0.2850  0.5733
 3223SOL    HW121302   2.110   0.545   3.579  0.9451  0.3482 -0.4702
 3223SOL    HW221303   2.025   0.607   3.690 -0.0242  0.2076  0.4753
 3224SOL     OW21304   0.123   1.061   3.248 -0.0536 -0.1977 -0.1709
 3224SOL    HW121305   0.151   0.984   3.199  1.3393 -1.0834  1.9916
 3224SOL    HW221306   0.209   1.102   3.262 -0.8971  1.8100 -0.9803
 3225SOL     OW21307   0.195   3.440   8.805 -0.4774 -0.1178 -0.1816
 3225SOL    HW121308   0.279   3.393   8.809 -1.5702 -1.8476  1.9690
 3225SOL    HW221309   0.161   3.418   8.718  0.1222  2.4990 -1.0888
 3226SOL     OW21310   3.148   0.456  11.244  0.3273  0.3119 -0.1633
 3226SOL    HW121311   3.125   0.475  11.153  1.9085  1.7425 -0.2607
 3226SOL    HW221312   3.143   0.547  11.273 -1.3342  0.1425  0.0901
 3227SOL     OW21313   0.651   3.533   0.272  0.2550 -0.4561 -0.1033
 3227SOL    HW121314   0.630   3.507   0.361 -0.8099  1.3822  0.1791
 3227SOL    HW221315   0.730   3.585   0.289 -0.2208  0.4182 -0.5477
 3228SOL     OW21316   2.284   1.075   4.339  0.5466  0.6193  0.3301
 3228SOL    HW121317   2.267   1.118   4.255  1.8920 -1.7368 -1.1469
 3228SOL    HW221318   2.281   0.982   4.319 -1.3991 -0.0974  3.9176
 3229SOL     OW21319   3.997   0.570   2.860  0.3230  0.0934  0.2561
 3229SOL    HW121320   3.959   0.525   2.784 -2.3602  2.0249  0.4373
 3229SOL    HW221321   3.924   0.631   2.874 -1.4409 -1.5782 -1.5289
 3230SOL     OW21322   2.550   2.134   7.385  0.2921  0.0138 -0.1347
 3230SOL    HW121323   2.618   2.195   7.413 -1.2521 -0.1700  4.0186
 3230SOL    HW221324   2.554   2.135   7.289 -0.7154 -1.4021 -0.1920
 3231SOL     OW21325   0.182   2.651   8.116  0.2394  0.2854 -0.1409
 3231SOL    HW121326   0.138   2.652   8.031 -1.0679  2.3584  0.5630
 3231SOL    HW221327   0.105   2.626   8.168  0.2564 -0.3732 -0.4302
 3232SOL     OW21328   1.920   1.451  17.334 -0.5723 -0.4265 -0.3520
 3232SOL    HW121329   1.876   1.536  17.321  0.8139  0.7682  2.6301
 3232SOL    HW221330   1.873   1.407  17.405 -0.0063  0.8613  0.8391
 3233SOL     OW21331   4.053   3.464   4.339 -0.3125 -0.5088  0.2933
 3233SOL    HW121332   4.125   3.502   4.287 -2.7315  0.2151 -2.5389
 3233SOL    HW221333   3.998   3.422   4.273  1.6967  0.3153 -1.9135
 3234SOL     OW21334   4.701   3.655   6.769  0.7312  0.4033  0.7525
 3234SOL    HW121335   0.042   3.679   6.812  0.2769  1.9396  0.7956
 3234SOL    HW221336   4.644   3.621   6.838  0.0589 -0.5866 -0.3074
 3235SOL     OW21337   3.993   0.238   2.574 -0.3276  0.1279  0.2640
 3235SOL    HW121338   4.002   0.331   2.595 -0.6706  0.2502 -0.1299
 3235SOL    HW221339   3.908   0.229   2.532  0.1899  3.6767 -1.6019
 3236SOL     OW21340   0.854   4.344   9.916  0.3202  0.2617 -0.0671
 3236SOL    HW121341   0.856   4.250   9.934  0.2303  0.7681  2.6148
 3236SOL    HW221342   0.771   4.371   9.956  1.0476 -0.9029  2.2753
 3237SOL     OW21343   2.821   2.955   5.494  0.5191  0.0628 -0.3041
 3237SOL    HW121344   2.846   2.977   5.404  0.0462  3.2822  0.3717
 3237SOL    HW221345   2.901   2.917   5.530 -0.1574 -1.6360 -0.5434
 3238SOL     OW21346   3.949   1.585  17.069  0.4107 -0.7022 -0.1754
 3238SOL    HW121347   3.926   1.531  17.145 -5.2029  0.7504 -0.8257
 3238SOL    HW221348   3.900   1.663  17.093 -1.1853 -1.8580  0.2916
 3239SOL     OW21349   1.564   4.174   5.038  0.4188 -0.6601 -0.0593
 3239SOL    HW121350   1.650   4.211   5.021  1.0438 -1.6317  0.9624
 3239SOL    HW221351   1.532   4.166   4.949  0.9575  1.5121 -0.4478
 3240SOL     OW21352   2.816   4.634   1.830 -0.2563  0.2625 -0.3876
 3240SOL    HW121353   2.799   4.585   1.750 -2.3027 -1.2286  0.9513
 3240SOL    HW221354   2.897   4.589   1.855 -1.2618 -2.1993 -1.5937
 3241SOL     OW21355   1.568   2.315   4.316 -0.0431  0.1350 -0.0990
 3241SOL    HW121356   1.618   2.365   4.381 -0.0016  0.6977 -0.5589
 3241SOL    HW221357   1.562   2.231   4.361 -1.4346  0.9919  1.3356
 3242SOL     OW21358   1.665   1.731  15.946  0.2915  0.1094 -0.0091
 3242SOL    HW121359   1.681   1.722  16.040  1.6201 -1.2798 -0.3736
 3242SOL    HW221360   1.713   1.653  15.917 -0.0592  0.1178 -0.6080
 3243SOL     OW21361   3.469   3.505   8.815  0.3588 -0.4738 -0.0138
 3243SOL    HW121362   3.474   3.475   8.724 -2.0331 -0.7234 -0.0665
 3243SOL    HW221363   3.464   3.423   8.864 -0.1326 -0.4910 -0.0853
 3244SOL     OW21364   3.551   0.346   2.943  0.1115 -0.4697  0.1886
 3244SOL    HW121365   3.476   0.362   3.000 -1.8697 -1.5114 -2.1440
 3244SOL    HW221366   3.560   0.431   2.900 -2.1714 -0.5270 -0.3915
 3245SOL     OW21367   2.522   3.826  10.033  0.2604 -0.1489 -0.0619
 3245SOL    HW121368   2.478   3.764  10.091 -3.7576  0.7757 -2.1759
 3245SOL    HW221369   2.486   3.803   9.948 -1.0661  0.2733  0.3896
 3246SOL     OW21370   2.855   1.275   9.096  0.3216 -0.2102  0.1048
 3246SOL    HW121371   2.837   1.354   9.146  0.5726  0.0355 -0.1916
 3246SOL    HW221372   2.868   1.320   9.012  0.5678  1.9378  1.2851
 3247SOL     OW21373   3.627   4.027  17.094 -0.5576 -0.2431  0.2578
 3247SOL    HW121374   3.549   4.055  17.143 -0.8993 -0.2361 -0.2921
 3247SOL    HW221375   3.671   4.108  17.071 -2.1051  0.4201 -0.4097
 3248SOL     OW21376   2.529   0.029  10.315  0.0922  0.4044  0.3177
 3248SOL    HW121377   2.471   0.035  10.391 -2.1594 -0.8793 -1.2934
 3248SOL    HW221378   2.511   4.690  10.267 -2.0631  0.9047  0.2829
 3249SOL     OW21379   3.763   4.375   6.363  0.2982  0.4798  0.3031
 3249SOL    HW121380   3.845   4.414   6.333  0.1261  0.8914  0.3703
 3249SOL    HW221381   3.750   4.291   6.317  0.6468  0.5169  0.1431
 3250SOL     OW21382   3.521   1.230  14.547 -0.3693  0.0317 -0.1046
 3250SOL    HW121383   3.453   1.168  14.522 -1.3856  1.8659 -1.9279
 3250SOL    HW221384   3.549   1.282  14.472  0.4001 -1.7034 -1.0098
 3251SOL     OW21385   2.512   3.523   3.959 -0.0525  0.1769  0.1540
 3251SOL    HW121386   2.523   3.465   3.884 -1.1634  0.4527 -0.2175
 3251SOL    HW221387   2.548   3.605   3.923 -0.0345 -0.5436 -1.4708
 3252SOL     OW21388   2.016   3.907   8.572  0.0847  0.4278  0.2001
 3252SOL    HW121389   1.926   3.929   8.598  0.8311  1.4810  1.9346
 3252SOL    HW221390   2.047   3.854   8.646  4.4117  0.2539 -1.7791
 3253SOL     OW21391   3.515   0.885   8.894 -0.0970 -0.1252  0.2519
 3253SOL    HW121392   3.476   0.798   8.904 -0.2692  0.0030  0.6542
 3253SOL    HW221393   3.499   0.893   8.800  0.1188  1.8672  0.3798
 3254SOL     OW21394   0.050   0.161   9.208 -0.3457  0.5792  0.4369
 3254SOL    HW121395   0.126   0.214   9.181 -0.4391 -0.2739 -1.4849
 3254SOL    HW221396   0.054   0.187   9.300 -2.8343 -0.9157  0.9527
 3255SOL     OW21397   3.047   1.005  17.285  0.3515  0.4968  0.5104
 3255SOL    HW121398   2.978   1.021  17.349  1.2324 -0.8795  1.8015
 3255SOL    HW221399   3.102   1.082  17.276  0.3000  0.3050 -1.4972
 3256SOL     OW21400   0.502   2.402   1.758  0.0475 -0.3793  0.4742
 3256SOL    HW121401   0.549   2.410   1.841 -2.0519  0.4893  1.5627
 3256SOL    HW221402   0.539   2.481   1.718 -0.2134  0.2517  1.4762
 3257SOL     OW21403   1.692   3.297  14.368  0.7291  0.1033  0.1388
 3257SOL    HW121404   1.691   3.243  14.289  0.2800 -0.1832  0.3395
 3257SOL    HW221405   1.784   3.274  14.377  1.1228  1.3794 -0.6156
 3258SOL     OW21406   1.099   1.315  10.682  0.6958 -0.0367 -0.2725
 3258SOL    HW121407   1.183   1.322  10.727  1.6593  2.0767 -2.3690
 3258SOL    HW221408   1.083   1.220  10.683 -0.3882  0.1489  0.4880
 3259SOL     OW21409   3.976   3.142   0.352  0.1283  0.3027 -0.3732
 3259SOL    HW121410   3.982   3.197   0.273  1.7797  2.1951  1.0478
 3259SOL    HW221411   3.973   3.054   0.314  1.7562  0.3725 -0.6869
 3260SOL     OW21412   1.437   3.690   2.155  0.2285 -0.1183  0.3927
 3260SOL    HW121413   1.370   3.665   2.218 -0.5707  1.6343  0.2615
 3260SOL    HW221414   1.432   3.785   2.145  1.7167 -0.0994 -0.1936
 3261SOL     OW21415   4.084   4.434   0.343  0.4425  0.3546  0.2798
 3261SOL    HW121416   4.091   4.509   0.401  0.0723 -1.0653  2.1640
 3261SOL    HW221417   4.048   4.478   0.266  1.2742 -0.0205 -0.3166
 3262SOL     OW21418   3.045   4.047   1.362  0.8065 -0.2216 -0.5913
 3262SOL    HW121419   3.032   4.052   1.267 -2.1657  0.1726 -0.1604
 3262SOL    HW221420   3.006   4.133   1.378  3.4505  0.6412  1.1862
 3263SOL     OW21421   1.355   3.318   6.244 -0.4369 -0.0608  0.1246
 3263SOL    HW121422   1.405   3.253   6.293 -1.3509  1.9165  3.7253
 3263SOL    HW221423   1.272   3.270   6.251  0.7353 -2.1818 -0.5551
 3264SOL     OW21424   0.824   1.544   4.641 -0.0556  0.2239  0.1618
 3264SOL    HW121425   0.839   1.477   4.707 -0.5807 -0.8298 -0.7860
 3264SOL    HW221426   0.833   1.488   4.565 -0.8606 -0.8275  0.8376
 3265SOL     OW21427   2.284   2.832   0.379 -0.0348  0.1047  0.1024
 3265SOL    HW121428   2.356   2.783   0.341 -1.2745 -1.3226 -0.4341
 3265SOL    HW221429   2.210   2.785   0.339 -0.3949  1.1886 -0.5164
 3266SOL     OW21430   4.367   0.712   3.998  0.3169  0.3095 -0.3720
 3266SOL    HW121431   4.398   0.675   3.915  1.7993  0.7363  0.0034
 3266SOL    HW221432   4.345   0.800   3.968  2.9790  0.9011 -0.5835
 3267SOL     OW21433   3.786   0.290   4.701 -0.4535 -0.3321  0.4720
 3267SOL    HW121434   3.764   0.366   4.754  1.5925 -0.1347  1.0258
 3267SOL    HW221435   3.708   0.288   4.646 -0.8170  3.0044  0.8808
 3268SOL     OW21436   3.501   3.172   2.196  0.2538 -0.3092 -0.4795
 3268SOL    HW121437   3.590   3.187   2.165 -0.6711  1.4906 -2.2993
 3268SOL    HW221438   3.518   3.082   2.225 -1.5662 -0.2291  0.8752
 3269SOL     OW21439   3.921   2.965   5.372 -0.0791  0.0922  0.2520
 3269SOL    HW121440   3.979   2.899   5.411 -0.8771  0.2415  1.6874
 3269SOL    HW221441   3.878   2.920   5.299  0.8912 -1.4093  0.5837
 3270SOL     OW21442   4.148   2.614   6.916  0.2498 -0.2521 -0.3207
 3270SOL    HW121443   4.170   2.536   6.866  3.0033  0.5711 -0.3571
 3270SOL    HW221444   4.213   2.677   6.884 -0.1994 -0.7313 -2.1945
 3271SOL     OW21445   0.781   3.707   5.103  0.6272  0.3477  0.3636
 3271SOL    HW121446   0.751   3.740   5.188  2.8246  1.1606  0.8266
 3271SOL    HW221447   0.863   3.753   5.086  1.3056 -0.4304  1.5505
 3272SOL     OW21448   2.037   2.899   6.545 -0.0582 -0.5473 -0.2707
 3272SOL    HW121449   1.989   2.836   6.599  1.4583 -1.4816 -0.0062
 3272SOL    HW221450   2.099   2.836   6.508 -1.2287 -1.7796 -0.1369
 3273SOL     OW21451   3.691   3.187   7.108 -0.0718  0.1033 -0.4844
 3273SOL    HW121452   3.748   3.184   7.031 -0.0466  1.5812 -0.5256
 3273SOL    HW221453   3.601   3.197   7.077 -0.3410 -1.5871 -0.2784
 3274SOL     OW21454   0.063   3.413   8.554 -0.3836  0.3028  0.2019
 3274SOL    HW121455   0.049   3.324   8.522 -0.5198  0.6229 -0.6333
 3274SOL    HW221456   0.048   3.460   8.472  1.3899  1.6395  0.6472
 3275SOL     OW21457   0.018   0.484   5.226  0.0989 -0.1791 -0.5257
 3275SOL    HW121458   4.741   0.544   5.154 -2.3738 -0.9838 -0.5629
 3275SOL    HW221459   0.111   0.472   5.209 -0.2745 -1.7103 -1.4667
 3276SOL     OW21460   2.400   0.306   6.452  0.3412 -0.6361 -0.2158
 3276SOL    HW121461   2.314   0.289   6.491  0.9298 -0.6643  1.0718
 3276SOL    HW221462   2.412   0.230   6.395 -0.5223  0.3275 -1.6796
 3277SOL     OW21463   1.396   0.200   5.229  0.4200  0.0905 -0.4748
 3277SOL    HW121464   1.459   0.168   5.293 -0.1757  0.2756  0.1934
 3277SOL    HW221465   1.365   0.284   5.263  2.1094 -0.2862  1.9534
 3278SOL     OW21466   1.972   3.095   6.345 -0.0060  0.2949 -0.1294
 3278SOL    HW121467   1.967   3.045   6.263  0.5715 -1.4052  0.8641
 3278SOL    HW221468   1.996   3.025   6.406 -0.9247 -0.4771 -0.6439
 3279SOL     OW21469   3.972   3.813   3.668  0.6449 -0.3532  0.3355
 3279SOL    HW121470   3.880   3.807   3.696  0.9050  0.3651  1.3474
 3279SOL    HW221471   3.969   3.766   3.585 -1.7973 -0.1375  0.2841
 3280SOL     OW21472   1.026   2.758   0.273  0.1029 -0.1916 -0.6223
 3280SOL    HW121473   1.100   2.771   0.333 -1.6400 -1.1979  1.7504
 3280SOL    HW221474   1.057   2.682   0.225  0.7593 -1.4980  1.8956
 3281SOL     OW21475   3.713   0.202   7.757  0.2635 -0.1247  0.2387
 3281SOL    HW121476   3.759   0.279   7.723 -2.4991  0.4508 -2.2268
 3281SOL    HW221477   3.701   0.224   7.850 -2.7672 -2.2176  0.3611
 3282SOL     OW21478   1.432   2.741   9.373  1.2715 -0.3853  0.2949
 3282SOL    HW121479   1.528   2.743   9.371  1.3310  1.4496  4.1732
 3282SOL    HW221480   1.418   2.828   9.336  0.0408 -0.0725  1.5135
 3283SOL     OW21481   0.345   1.858  15.222  0.0126 -0.2034  0.9340
 3283SOL    HW121482   0.332   1.875  15.315 -0.7788  3.0056  0.2584
 3283SOL    HW221483   0.375   1.938  15.178  3.4594 -1.2739  1.3652
 3284SOL     OW21484   4.561   1.554   5.387  0.5701 -0.1855 -0.0803
 3284SOL    HW121485   4.619   1.487   5.423  0.2887 -0.6520 -0.5058
 3284SOL    HW221486   4.605   1.567   5.303  0.6154  0.7559  0.0879
 3285SOL     OW21487   4.281   1.334   6.514 -0.4802 -0.1268 -0.2574
 3285SOL    HW121488   4.290   1.378   6.599  1.2265 -0.3446 -0.3301
 3285SOL    HW221489   4.213   1.269   6.536  0.7750 -1.3654 -0.0401
 3286SOL     OW21490   1.701   3.238  16.595  0.5273  0.3946  0.1434
 3286SOL    HW121491   1.644   3.261  16.521 -0.0286  2.0797  1.0893
 3286SOL    HW221492   1.725   3.146  16.586 -0.0367  0.1393  1.1485
 3287SOL     OW21493   0.107   3.436   7.138 -0.1387 -0.3440  0.0160
 3287SOL    HW121494   0.102   3.369   7.206  0.7552 -2.1328 -1.6610
 3287SOL    HW221495   0.051   3.402   7.068  0.8452 -0.3575 -0.7793
 3288SOL     OW21496   0.115   0.068   9.733  0.7302 -0.3070  0.6939
 3288SOL    HW121497   0.041   0.010   9.750  0.1332 -0.4046 -2.2780
 3288SOL    HW221498   0.145   0.087   9.822  1.3240 -1.8458  0.8116
 3289SOL     OW21499   2.199   3.441   1.097 -0.1830 -0.4691  0.4346
 3289SOL    HW121500   2.159   3.418   1.181 -1.8955  0.9827  0.0186
 3289SOL    HW221501   2.142   3.395   1.036  1.2451  0.6118 -1.7122
 3290SOL     OW21502   1.286   1.671   1.485 -0.0310  0.2096  0.3658
 3290SOL    HW121503   1.300   1.623   1.566 -2.7950  0.6570  1.1287
 3290SOL    HW221504   1.285   1.759   1.522  1.1706  1.0394 -1.5652
 3291SOL     OW21505   1.073   3.357   3.930 -0.0544 -0.3763 -0.2065
 3291SOL    HW121506   1.145   3.373   3.868 -0.0852 -0.8188 -0.3607
 3291SOL    HW221507   1.106   3.411   4.001  0.7599 -0.2703 -0.6524
 3292SOL     OW21508   1.094   1.514   1.382  0.6100 -0.0313  0.1181
 3292SOL    HW121509   1.137   1.439   1.424 -0.6898 -0.6954  0.2653
 3292SOL    HW221510   1.161   1.576   1.411 -0.0920  1.1762 -0.8621
 3293SOL     OW21511   4.108   0.432  14.039  0.8788 -0.2221 -0.1402
 3293SOL    HW121512   4.100   0.340  14.015 -1.6069 -0.0603  0.0319
 3293SOL    HW221513   4.019   0.449  14.068 -0.2185 -0.5598 -3.2889
 3294SOL     OW21514   2.714   3.637  10.211 -0.8338 -0.0976  0.4039
 3294SOL    HW121515   2.725   3.548  10.179  1.4183 -0.1461  1.2525
 3294SOL    HW221516   2.680   3.688  10.138  0.2404  0.1157  0.0446
 3295SOL     OW21517   4.732   0.379   2.362  0.5068  0.0955 -0.4354
 3295SOL    HW121518   0.006   0.299   2.413 -2.2165 -1.0317 -1.3462
 3295SOL    HW221519   0.066   0.373   2.303  0.7555 -1.1369  0.0082
 3296SOL     OW21520   1.332   0.150   5.827 -0.0461  0.1250  0.3160
 3296SOL    HW121521   1.323   0.208   5.903  0.6497  2.1981 -1.1917
 3296SOL    HW221522   1.248   0.104   5.832 -1.7956  3.4980  2.3224
 3297SOL     OW21523   2.236   2.182  15.243 -0.0378 -0.3018 -0.1165
 3297SOL    HW121524   2.262   2.213  15.157  1.0624 -0.7733  0.0462
 3297SOL    HW221525   2.210   2.266  15.281 -2.5203 -1.5979  1.0923
 3298SOL     OW21526   2.703   0.400   2.564  0.0987 -0.2422  0.6176
 3298SOL    HW121527   2.752   0.326   2.530 -2.0595 -0.6444 -1.6364
 3298SOL    HW221528   2.678   0.441   2.481  1.1912 -1.3541 -0.2501
 3299SOL     OW21529   4.563   0.085   8.321 -0.3765 -0.5670 -0.2185
 3299SOL    HW121530   4.556   0.008   8.265  1.3720  1.1914 -2.8209
 3299SOL    HW221531   4.646   0.067   8.365 -0.4117 -0.0657  0.0552
 3300SOL     OW21532   3.371   2.043   7.272  0.4567  0.4665  0.3376
 3300SOL    HW121533   3.375   2.139   7.279 -0.4640  0.4639  0.8063
 3300SOL    HW221534   3.384   2.010   7.360 -1.4984 -0.8901  0.1004
 3301SOL     OW21535   1.249   2.774   9.654 -0.4197 -0.1072  0.0226
 3301SOL    HW121536   1.166   2.786   9.608  0.8209 -1.5601 -2.6789
 3301SOL    HW221537   1.310   2.773   9.580  1.3179  1.5848  1.4324
 3302SOL     OW21538   0.488   0.459   8.302  0.0634 -0.2222  0.0028
 3302SOL    HW121539   0.574   0.431   8.334 -0.3447 -1.0760  0.3462
 3302SOL    HW221540   0.509   0.550   8.279  0.5167 -0.1960  0.5202
 3303SOL     OW21541   0.895   4.266   3.934 -0.4797  0.3384  0.5998
 3303SOL    HW121542   0.947   4.236   4.009  0.4080 -1.4286 -0.6988
 3303SOL    HW221543   0.914   4.359   3.938  0.1172  0.3393 -1.6855
 3304SOL     OW21544   4.215   4.637   7.714 -0.1540 -0.1679 -0.5522
 3304SOL    HW121545   4.180   4.582   7.784  1.9637 -0.4457  0.2802
 3304SOL    HW221546   4.138   4.692   7.703  0.4134 -0.1131 -4.1564
 3305SOL     OW21547   0.438   3.099   6.479 -0.1539 -0.4620 -0.3887
 3305SOL    HW121548   0.440   3.010   6.442  1.1309 -1.8888  3.0773
 3305SOL    HW221549   0.435   3.073   6.571  2.3637 -0.1826 -0.2273
 3306SOL     OW21550   0.489   3.285  10.248  0.4457 -0.7757 -0.2580
 3306SOL    HW121551   0.576   3.322  10.237 -0.4026  0.8440 -1.5676
 3306SOL    HW221552   0.493   3.192  10.225 -1.1973 -0.3204 -2.3677
 3307SOL     OW21553   1.389   0.965   6.238  0.0039  0.5389  0.4120
 3307SOL    HW121554   1.341   0.885   6.261 -0.4609  1.4698  2.6582
 3307SOL    HW221555   1.431   0.930   6.159 -0.6885 -2.3288  1.3323
 3308SOL     OW21556   2.895   1.985   1.661 -0.1222 -0.2599  0.0918
 3308SOL    HW121557   2.940   2.051   1.714 -0.3248 -1.4477  1.7631
 3308SOL    HW221558   2.966   1.975   1.598 -0.4972  0.2848 -0.4128
 3309SOL     OW21559   4.623   3.223   2.252 -0.1802  0.4782 -0.5631
 3309SOL    HW121560   4.562   3.268   2.193 -1.9409  2.7213  2.9315
 3309SOL    HW221561   4.663   3.300   2.293  1.1138 -0.1600 -0.6278
 3310SOL     OW21562   3.107   0.450   8.348  0.4203 -0.1641 -0.0460
 3310SOL    HW121563   3.195   0.487   8.351  0.0847  0.7974 -1.8038
 3310SOL    HW221564   3.049   0.514   8.306  0.2920 -1.3818 -1.7169
 3311SOL     OW21565   0.821   3.602   4.131 -0.3007  0.2200  0.2987
 3311SOL    HW121566   0.814   3.515   4.169  0.0732  0.8743  1.8720
 3311SOL    HW221567   0.849   3.651   4.209 -1.4204  1.0113  0.2061
 3312SOL     OW21568   0.653   3.659  14.148  0.3761 -0.3135 -0.6421
 3312SOL    HW121569   0.563   3.670  14.178  1.3559  2.3091  1.4455
 3312SOL    HW221570   0.647   3.610  14.066  0.3331 -0.9324 -0.2687
 3313SOL     OW21571   2.159   2.301   2.911  0.0652 -0.0060  0.6517
 3313SOL    HW121572   2.214   2.261   2.843 -1.3220  0.5646 -0.8124
 3313SOL    HW221573   2.077   2.319   2.864 -0.1556  0.7292  1.3275
 3314SOL     OW21574   1.688   3.162   6.683  0.2265 -0.2537  0.3094
 3314SOL    HW121575   1.615   3.200   6.732  0.1071  0.1433 -0.1836
 3314SOL    HW221576   1.688   3.213   6.602  0.7246 -2.3603 -1.0371
 3315SOL     OW21577   3.991   2.339   3.911  0.0460 -0.1216  0.3748
 3315SOL    HW121578   3.949   2.413   3.866 -0.3925 -1.0905 -0.7969
 3315SOL    HW221579   4.078   2.354   3.875 -0.3667 -0.3812 -0.7432
 3316SOL     OW21580   2.554   2.908  16.149  0.0603 -0.0032 -0.1807
 3316SOL    HW121581   2.540   2.816  16.125  3.4874 -1.3195  2.7959
 3316SOL    HW221582   2.528   2.954  16.069  0.3977  1.7258  0.7056
 3317SOL     OW21583   3.963   2.600  16.588  0.2158  0.2320  0.4400
 3317SOL    HW121584   4.037   2.548  16.617  2.1015  2.7007  0.0252
 3317SOL    HW221585   3.924   2.544  16.520  0.7956 -0.4520  0.6723
 3318SOL     OW21586   4.049   2.327   4.918 -0.6222  0.0466 -0.3737
 3318SOL    HW121587   4.135   2.287   4.915 -1.1597 -1.2420  0.9838
 3318SOL    HW221588   4.016   2.295   4.834  1.4096 -1.8002 -0.4751
 3319SOL     OW21589   0.891   2.906  16.335 -0.0190 -0.3695 -0.3725
 3319SOL    HW121590   0.805   2.944  16.353  0.5475  0.7486 -0.0491
 3319SOL    HW221591   0.934   2.990  16.317 -2.2589  0.8560  0.0140
 3320SOL     OW21592   1.516   2.250   9.956  0.3687 -0.4479  0.5001
 3320SOL    HW121593   1.456   2.216  10.022 -1.0448 -0.7092 -0.9027
 3320SOL    HW221594   1.514   2.189   9.881 -2.9246  1.2354 -0.7511
 3321SOL     OW21595   1.674   1.031  10.123 -0.0568 -0.0761 -0.5356
 3321SOL    HW121596   1.743   0.967  10.107  0.4323  0.0181  1.1650
 3321SOL    HW221597   1.688   1.095  10.053 -0.8445 -0.6569 -1.2217
 3322SOL     OW21598   2.742   0.387  15.732  0.1179  0.4278 -0.0547
 3322SOL    HW121599   2.736   0.318  15.666  0.3403  2.1551 -1.8878
 3322SOL    HW221600   2.689   0.346  15.800  2.2495 -1.0677  0.7138
 3323SOL     OW21601   3.584   0.268   5.393  0.2840  0.0346  0.7712
 3323SOL    HW121602   3.670   0.251   5.356 -1.2725 -1.5515 -2.1698
 3323SOL    HW221603   3.598   0.358   5.420  1.3831  0.1965 -0.3669
 3324SOL     OW21604   1.548   4.477   6.126 -0.7018 -0.0041  1.0856
 3324SOL    HW121605   1.588   4.495   6.041  1.5750 -2.5105  1.6175
 3324SOL    HW221606   1.620   4.506   6.182  1.1193 -1.6233 -0.3918
 3325SOL     OW21607   1.062   0.429   1.868 -0.6501 -0.2585  0.1447
 3325SOL    HW121608   1.077   0.355   1.809 -0.8734 -1.4201  1.5457
 3325SOL    HW221609   0.967   0.422   1.878 -0.4615 -0.3293  1.8915
 3326SOL     OW21610   3.346   1.654   2.634  0.1648 -0.3981  0.1112
 3326SOL    HW121611   3.332   1.585   2.699  0.4015  1.5644  2.2206
 3326SOL    HW221612   3.276   1.635   2.571  1.3202 -1.4089 -0.8737
 3327SOL     OW21613   0.485   4.269  16.932  0.7046 -0.3881 -0.7381
 3327SOL    HW121614   0.474   4.358  16.966 -0.3446 -0.7383 -0.1554
 3327SOL    HW221615   0.578   4.268  16.911  0.5108 -2.1487 -1.5125
 3328SOL     OW21616   0.627   0.269  13.346 -0.4191 -0.2723  0.0102
 3328SOL    HW121617   0.572   0.344  13.368  1.0994  0.6457  0.6368
 3328SOL    HW221618   0.557   0.211  13.316 -0.4231 -0.6459  0.7419
 3329SOL     OW21619   1.952   2.138  17.050  0.2716  0.4629  0.2504
 3329SOL    HW121620   1.903   2.187  16.984 -1.2045  0.3714  1.2807
 3329SOL    HW221621   1.979   2.201  17.116  1.1129 -0.5332  0.8541
 3330SOL     OW21622   0.900   0.690   4.914  0.2843 -0.4508  0.0924
 3330SOL    HW121623   0.970   0.731   4.966 -0.2816  0.4050  0.1714
 3330SOL    HW221624   0.835   0.674   4.982 -0.2578 -0.8372 -0.5233
 3331SOL     OW21625   0.976   4.117   8.099  0.0105 -0.1304  0.2404
 3331SOL    HW121626   1.004   4.089   8.012 -1.7834  0.5544 -0.5593
 3331SOL    HW221627   1.042   4.083   8.159 -0.1575 -1.1457 -0.1643
 3332SOL     OW21628   0.714   0.769  16.680  0.5600 -0.4701  0.1003
 3332SOL    HW121629   0.769   0.728  16.747 -0.6929  0.0297  1.4367
 3332SOL    HW221630   0.644   0.808  16.732  0.6109  2.3188 -1.9084
 3333SOL     OW21631   1.546   1.070   0.669 -0.7902  0.1296 -0.5247
 3333SOL    HW121632   1.455   1.043   0.656 -0.3316 -1.3777 -0.5765
 3333SOL    HW221633   1.575   1.116   0.590  0.0381 -0.0248 -0.3098
 3334SOL     OW21634   4.449   4.220  13.584 -0.5846  0.0505  0.8397
 3334SOL    HW121635   4.359   4.190  13.599 -0.3422 -2.5902 -2.7302
 3334SOL    HW221636   4.440   4.247  13.492 -0.7309  1.6883  1.3284
 3335SOL     OW21637   3.009   4.633  17.739  0.2681 -0.3762 -0.1618
 3335SOL    HW121638   3.074   4.631   0.046 -0.4582  2.3252  0.5873
 3335SOL    HW221639   3.000   4.727  17.720 -0.0524 -0.3886 -0.0634
 3336SOL     OW21640   1.508   1.356   8.575  1.1055 -0.0232  0.4385
 3336SOL    HW121641   1.440   1.294   8.551  0.9908  0.6013 -0.8661
 3336SOL    HW221642   1.474   1.445   8.562  1.6639 -0.0042 -0.8441
 3337SOL     OW21643   4.395   0.144  14.077  0.4143  0.0880 -0.5867
 3337SOL    HW121644   4.466   0.148  14.013  0.1104 -0.2190 -0.9447
 3337SOL    HW221645   4.424   0.068  14.129 -0.6970  0.1953  0.2007
 3338SOL     OW21646   2.076   1.166   7.638  1.1849  0.4376 -0.2313
 3338SOL    HW121647   2.058   1.247   7.589 -0.5410 -0.2760 -0.7617
 3338SOL    HW221648   2.016   1.103   7.598  0.9561  0.3563  0.2508
 3339SOL     OW21649   0.404   3.667   9.265 -0.8651 -0.2408 -0.5995
 3339SOL    HW121650   0.411   3.686   9.358 -0.2887 -1.8366 -0.3149
 3339SOL    HW221651   0.309   3.656   9.256 -1.1050  2.2973 -1.1688
 3340SOL     OW21652   0.474   3.379   7.414 -0.2196 -0.0731 -0.4374
 3340SOL    HW121653   0.511   3.391   7.327 -1.4708  1.2315 -0.7964
 3340SOL    HW221654   0.405   3.446   7.414 -0.3687 -0.2272  0.0112
 3341SOL     OW21655   0.491   0.976   9.866  0.2988 -0.2433  0.8738
 3341SOL    HW121656   0.566   0.971   9.806  0.0227  2.2301  0.3274
 3341SOL    HW221657   0.426   0.923   9.820 -0.2922  0.6777  0.6442
 3342SOL     OW21658   2.518   3.129   9.137  0.2480  0.0583  0.5438
 3342SOL    HW121659   2.588   3.069   9.109 -0.3300 -0.3946  0.0828
 3342SOL    HW221660   2.459   3.139   9.063 -0.5920 -1.4805  1.0010
 3343SOL     OW21661   4.315   3.984   8.080 -0.4538  0.3201  0.3553
 3343SOL    HW121662   4.226   3.976   8.046 -0.6524  0.5352  0.8198
 3343SOL    HW221663   4.308   3.962   8.172  0.3472  1.3490  0.6620
 3344SOL     OW21664   4.416   1.058   6.268 -0.7498 -0.2021  0.5475
 3344SOL    HW121665   4.504   1.088   6.244 -1.5195  0.6805 -1.1557
 3344SOL    HW221666   4.355   1.122   6.233 -0.2411 -0.4611 -0.7965
 3345SOL     OW21667   2.248   0.218   9.733 -0.3578 -0.5185  0.4051
 3345SOL    HW121668   2.215   0.269   9.658  2.1861 -1.3742 -1.2946
 3345SOL    HW221669   2.191   0.143   9.751  0.1582 -0.6472  1.5174
 3346SOL     OW21670   3.695   0.940  10.854  0.0560 -1.0737  0.5042
 3346SOL    HW121671   3.696   0.867  10.915  0.2350 -0.2819  1.4489
 3346SOL    HW221672   3.601   0.960  10.855  0.2206 -0.4544  2.3788
 3347SOL     OW21673   1.242   0.732   6.302 -0.0188 -0.3838 -0.1042
 3347SOL    HW121674   1.158   0.763   6.267 -1.1134 -0.4724  2.4307
 3347SOL    HW221675   1.234   0.638   6.318  0.3004 -0.2089  1.0480
 3348SOL     OW21676   2.284   3.536   4.106 -0.2879  0.1258  0.0400
 3348SOL    HW121677   2.346   3.564   4.173  1.2329  0.0570 -1.3310
 3348SOL    HW221678   2.361   3.544   4.049  0.7306  0.3659  1.4535
 3349SOL     OW21679   0.956   3.862   2.008 -0.3921 -0.2780 -0.2904
 3349SOL    HW121680   0.954   3.825   1.920 -2.8532  1.4597 -0.9397
 3349SOL    HW221681   0.904   3.794   2.050 -1.0499  0.5668  0.2653
 3350SOL     OW21682   0.007   2.794   3.371 -0.2145 -0.1517 -0.1899
 3350SOL    HW121683   0.083   2.820   3.423 -0.6560  1.0355 -0.1301
 3350SOL    HW221684   4.680   2.820   3.433  0.9055  0.3849  0.8259
 3351SOL     OW21685   0.198   1.129   8.646  0.2002 -0.4091  0.8180
 3351SOL    HW121686   0.127   1.186   8.675 -0.6284 -1.5578  1.0726
 3351SOL    HW221687   0.164   1.094   8.564  1.4973  2.5888 -0.9693
 3352SOL     OW21688   0.863   3.951  15.499  0.3105 -0.3061  0.1869
 3352SOL    HW121689   0.926   4.021  15.514  0.2086  0.0356 -1.0243
 3352SOL    HW221690   0.787   3.997  15.535  0.3192 -0.4302  0.3673
 3353SOL     OW21691   3.187   4.023   4.884  0.1298 -0.3229 -0.0587
 3353SOL    HW121692   3.198   3.953   4.819 -1.9834  0.5503 -1.3449
 3353SOL    HW221693   3.135   4.093   4.844  1.1387 -0.8300 -2.2722
 3354SOL     OW21694   4.248   0.241  12.504  0.3668 -0.5294  0.8715
 3354SOL    HW121695   4.184   0.183  12.544 -0.0150 -0.8746 -0.2470
 3354SOL    HW221696   4.192   0.318  12.498 -0.0097 -0.7680  1.2866
 3355SOL     OW21697   2.435   0.649   6.094  0.2533  0.0108 -0.6315
 3355SOL    HW121698   2.366   0.648   6.027 -0.8996  0.5666  0.5487
 3355SOL    HW221699   2.427   0.557   6.118 -0.6333  0.6005  1.3177
 3356SOL     OW21700   4.019   2.023   5.541  0.2850  0.2857 -0.1330
 3356SOL    HW121701   3.974   2.083   5.482 -2.0918 -1.7133 -0.3514
 3356SOL    HW221702   4.012   2.058   5.629 -1.6237  1.5455 -0.7820
 3357SOL     OW21703   1.239   2.734   8.779  0.4121  0.5927 -0.9063
 3357SOL    HW121704   1.255   2.810   8.723  3.2553  0.5134 -0.1738
 3357SOL    HW221705   1.289   2.751   8.859 -0.7645 -0.2281  0.0095
 3358SOL     OW21706   0.411   1.509   6.963  0.2936 -0.0408  0.4089
 3358SOL    HW121707   0.389   1.450   7.035  0.4974 -1.6049 -0.8042
 3358SOL    HW221708   0.352   1.583   6.976  0.6814  0.4030 -0.3696
 3359SOL     OW21709   3.868   2.656   6.684 -0.4145 -0.3224  0.1669
 3359SOL    HW121710   3.924   2.590   6.643 -0.3729  0.3730 -0.9188
 3359SOL    HW221711   3.916   2.658   6.767 -0.0773 -2.6885  0.0339
 3360SOL     OW21712   2.228   0.849   3.577 -0.1735 -0.2350  0.7726
 3360SOL    HW121713   2.185   0.763   3.585  1.8803 -1.2334  1.0524
 3360SOL    HW221714   2.151   0.905   3.586  0.7994  0.9253  1.8864
 3361SOL     OW21715   0.801   1.354  15.090  0.0258 -0.1742 -0.8287
 3361SOL    HW121716   0.717   1.345  15.135  1.1966  1.1491  1.6625
 3361SOL    HW221717   0.860   1.330  15.162 -1.8009  2.0443  1.4138
 3362SOL     OW21718   3.916   4.719   5.711  0.1689 -0.3538 -0.0662
 3362SOL    HW121719   3.931   4.670   5.631  0.7415  1.3873 -1.0216
 3362SOL    HW221720   4.004   4.705   5.748  0.5438  1.6079 -0.1918
 3363SOL     OW21721   1.360   2.887   1.696  0.1181  0.2427 -0.6075
 3363SOL    HW121722   1.361   2.977   1.727  2.8014  0.9701 -2.8229
 3363SOL    HW221723   1.282   2.892   1.640 -1.4439 -3.2303  1.2523
 3364SOL     OW21724   2.596   2.347   1.460 -0.1290  0.3178  0.4843
 3364SOL    HW121725   2.650   2.358   1.382  0.9783  1.3313  1.3884
 3364SOL    HW221726   2.617   2.255   1.475 -2.4496 -0.0713  1.3733
 3365SOL     OW21727   2.772   2.281   4.890  0.0379 -0.1579  0.2680
 3365SOL    HW121728   2.778   2.366   4.847  0.1416 -1.2170 -1.7785
 3365SOL    HW221729   2.764   2.314   4.980 -0.9976 -0.8229  0.4174
 3366SOL     OW21730   0.196   0.243   8.281 -0.0226 -0.1090 -0.8870
 3366SOL    HW121731   0.121   0.202   8.238 -1.4054  2.5169 -0.9906
 3366SOL    HW221732   0.210   0.178   8.349 -1.7474 -0.3756 -0.8045
 3367SOL     OW21733   4.519   0.774  15.271 -0.0571 -0.1151 -0.2188
 3367SOL    HW121734   4.562   0.841  15.324 -1.0294  0.7791 -0.5604
 3367SOL    HW221735   4.505   0.705  15.336 -2.1619  1.7732  1.3371
 3368SOL     OW21736   4.302   3.957   4.221 -0.2019 -0.0328  0.0517
 3368SOL    HW121737   4.253   3.876   4.231 -3.8293  1.9106 -1.9740
 3368SOL    HW221738   4.306   3.992   4.310  2.1155  1.3052 -0.5561
 3369SOL     OW21739   4.020   3.584   0.063  0.1479  0.3299 -0.0841
 3369SOL    HW121740   4.047   3.675   0.049 -0.6112  0.6780  0.6812
 3369SOL    HW221741   4.094   3.543   0.018 -0.9685 -1.3073 -0.4174
 3370SOL     OW21742   1.802   0.508  16.893 -0.6131 -0.0476 -0.2301
 3370SOL    HW121743   1.710   0.536  16.893 -0.1382  1.4996 -1.8058
 3370SOL    HW221744   1.848   0.560  16.828  2.9947 -2.4383  0.4113
 3371SOL     OW21745   3.723   3.228   0.508  0.3476 -0.4025  0.0531
 3371SOL    HW121746   3.789   3.210   0.442  0.2414  0.7134 -0.3710
 3371SOL    HW221747   3.716   3.323   0.497  1.4322 -0.4999 -1.4048
 3372SOL     OW21748   0.245   1.580   3.496 -0.0699  0.0542 -0.0636
 3372SOL    HW121749   0.298   1.501   3.502  0.7755  0.6341  0.0518
 3372SOL    HW221750   0.246   1.613   3.586  0.4030  1.4823 -0.5941
 3373SOL     OW21751   4.467   2.729   8.307  0.2238 -0.3664  0.0029
 3373SOL    HW121752   4.404   2.801   8.314  1.2568  0.7080 -2.1055
 3373SOL    HW221753   4.543   2.778   8.337  0.2429  1.0754 -2.4123
 3374SOL     OW21754   3.797   0.928   6.316 -0.0900 -0.0454 -0.3977
 3374SOL    HW121755   3.777   0.998   6.378  0.3517 -0.1212 -0.1719
 3374SOL    HW221756   3.836   0.867   6.377  0.6088 -0.0089 -0.8092
 3375SOL     OW21757   3.392   2.540  12.621  0.0695  0.2520  0.1399
 3375SOL    HW121758   3.306   2.515  12.655  0.0154  1.4582  0.9055
 3375SOL    HW221759   3.363   2.586  12.541  1.2426  0.5841 -0.0939
 3376SOL     OW21760   2.878   3.246   7.047 -0.2816 -0.7304 -0.1632
 3376SOL    HW121761   2.826   3.278   6.973  0.5109  0.4763 -0.1837
 3376SOL    HW221762   2.947   3.186   7.020  1.5485  1.9903 -1.3944
 3377SOL     OW21763   3.980   0.991  10.814  0.2044  0.1630 -0.2641
 3377SOL    HW121764   4.017   0.905  10.798 -1.9291 -0.5039 -1.6325
 3377SOL    HW221765   3.886   0.972  10.812 -0.1290  1.9071 -1.5856
 3378SOL     OW21766   3.068   1.387   5.601 -0.5944  0.0624 -0.2139
 3378SOL    HW121767   3.058   1.356   5.691  0.1635  2.2141  0.6052
 3378SOL    HW221768   3.042   1.313   5.546  1.5539 -0.7866 -0.0798
 3379SOL     OW21769   4.605   0.048  11.202  0.8041  0.4595 -0.0485
 3379SOL    HW121770   4.590   4.704  11.241 -0.8137  0.4605 -0.6809
 3379SOL    HW221771   4.517   0.086  11.193  0.4777 -0.2305  0.2675
 3380SOL     OW21772   2.416   1.483   1.146  0.7018 -0.6289  0.3888
 3380SOL    HW121773   2.322   1.498   1.142  0.3056 -3.2492  0.2932
 3380SOL    HW221774   2.428   1.462   1.239 -1.1128 -0.0034  0.7625
 3381SOL     OW21775   0.063   0.777   2.232 -0.1882 -0.7838 -0.3198
 3381SOL    HW121776   0.133   0.769   2.168 -0.4710  1.8440 -0.9639
 3381SOL    HW221777   0.086   0.704   2.290  1.7216  0.5943  0.6613
 3382SOL     OW21778   2.149   3.217   1.319 -0.4970 -0.5439  0.2111
 3382SOL    HW121779   2.207   3.156   1.274  1.1269 -0.1462  1.7889
 3382SOL    HW221780   2.187   3.211   1.406  0.4847 -0.9948 -0.2614
 3383SOL     OW21781   1.515   4.248   3.602  0.2176  0.2938 -0.1928
 3383SOL    HW121782   1.429   4.280   3.629  0.0185  0.8195 -1.4454
 3383SOL    HW221783   1.572   4.293   3.665  1.0364  0.0133 -0.7263
 3384SOL     OW21784   2.212   4.467   5.156 -0.1824 -0.5498 -0.2048
 3384SOL    HW121785   2.159   4.544   5.180 -1.0576 -1.0440 -0.5646
 3384SOL    HW221786   2.144   4.400   5.165 -0.1629 -0.4175  0.9262
 3385SOL     OW21787   1.805   2.404   4.451  0.0589  0.4977 -0.5416
 3385SOL    HW121788   1.878   2.376   4.396 -0.6822 -0.4635 -1.0369
 3385SOL    HW221789   1.773   2.473   4.392  1.0008  1.9515  0.6458
 3386SOL     OW21790   0.261   1.562  17.605 -0.2289  0.0431 -0.7044
 3386SOL    HW121791   0.350   1.563  17.569  1.1479 -1.8022  2.6494
 3386SOL    HW221792   0.228   1.643  17.567 -0.0105  1.0692  1.3050
 3387SOL     OW21793   4.670   1.664   3.532  0.3187  0.6279 -0.3033
 3387SOL    HW121794   4.639   1.716   3.458  0.3909 -0.2383 -0.9419
 3387SOL    HW221795   4.726   1.607   3.480  1.7177 -1.5399  3.5828
 3388SOL     OW21796   2.502   3.438   5.197  0.0761 -0.4068  0.5189
 3388SOL    HW121797   2.444   3.387   5.253 -0.8388  1.0968  0.9288
 3388SOL    HW221798   2.561   3.452   5.271 -0.8606 -0.8155  1.3332
 3389SOL     OW21799   1.861   0.929   6.249 -0.1956 -0.2992 -0.0038
 3389SOL    HW121800   1.903   1.013   6.236 -0.1728 -0.2321  0.4880
 3389SOL    HW221801   1.853   0.932   6.344  2.4810  0.3248  0.1930
 3390SOL     OW21802   0.612   0.543   6.996 -0.0550  0.1347  0.1778
 3390SOL    HW121803   0.630   0.581   6.910 -1.1797  1.0803  0.3485
 3390SOL    HW221804   0.645   0.608   7.059  3.0496 -0.3675 -0.9407
 3391SOL     OW21805   3.561   4.020   1.277 -0.6618  0.0471 -0.3619
 3391SOL    HW121806   3.514   3.990   1.199  0.9820  0.2976 -1.4516
 3391SOL    HW221807   3.526   4.108   1.290 -0.2016  0.3078 -0.9091
 3392SOL     OW21808   0.133   1.319   7.972 -0.2622  0.3247 -0.7186
 3392SOL    HW121809   0.224   1.336   7.996 -0.9922  0.9758  1.5636
 3392SOL    HW221810   0.098   1.406   7.989  2.0940  1.4232 -1.4956
 3393SOL     OW21811   2.062   1.655   6.641 -0.0833  0.2805 -0.8391
 3393SOL    HW121812   1.995   1.619   6.584 -0.6390  0.8016 -0.5136
 3393SOL    HW221813   2.021   1.729   6.685 -0.4515  0.7575 -1.9982
 3394SOL     OW21814   2.293   3.366   8.291 -0.2117 -0.4424 -0.4616
 3394SOL    HW121815   2.236   3.293   8.313 -0.4308  0.4680  1.9951
 3394SOL    HW221816   2.292   3.363   8.195 -0.1811 -0.2920 -0.4669
 3395SOL     OW21817   4.734   1.898  15.423 -0.1515  0.4372 -0.1240
 3395SOL    HW121818   0.016   1.904  15.516 -1.7325 -0.5788  0.3403
 3395SOL    HW221819   4.692   1.984  15.419 -0.1164  0.4072 -1.0744
 3396SOL     OW21820   0.119   2.389   4.735  0.3161 -0.2304 -0.0865
 3396SOL    HW121821   0.182   2.387   4.807 -1.8229  1.8010  1.8348
 3396SOL    HW221822   0.034   2.404   4.776 -0.1556 -0.7610 -0.8719
 3397SOL     OW21823   3.653   0.141   5.870  0.9171  0.8084  0.1551
 3397SOL    HW121824   3.646   0.114   5.779  1.7184  1.6632 -0.1524
 3397SOL    HW221825   3.563   0.160   5.898  1.2779  2.1317  0.4417
 3398SOL     OW21826   3.703   1.343   4.362  0.0923 -0.1548  0.5952
 3398SOL    HW121827   3.657   1.262   4.382 -0.1730  0.2020  1.4043
 3398SOL    HW221828   3.682   1.408   4.428 -1.3525  1.0956 -1.1110
 3399SOL     OW21829   0.142   3.594   9.082 -0.2772 -0.2518  0.4958
 3399SOL    HW121830   0.086   3.519   9.061 -0.6972  0.5566 -1.2575
 3399SOL    HW221831   0.140   3.595   9.178  2.5694  1.9405  0.5048
 3400SOL     OW21832   2.243   1.818   1.482 -0.0090  0.7312 -0.6939
 3400SOL    HW121833   2.300   1.868   1.540 -1.7965  2.6549 -0.6327
 3400SOL    HW221834   2.196   1.760   1.541 -0.7944 -1.0378 -3.0285
 3401SOL     OW21835   0.353   4.572  16.762  0.6589  0.4789  0.2207
 3401SOL    HW121836   0.313   4.657  16.782  0.9353  0.2154  1.8371
 3401SOL    HW221837   0.415   4.560  16.834 -1.8403  2.7916  2.7380
 3402SOL     OW21838   3.088   3.465   0.988 -0.2098 -0.0529 -0.4517
 3402SOL    HW121839   3.009   3.464   1.041 -1.6044  0.6374 -2.4975
 3402SOL    HW221840   3.050   3.440   0.903  1.5676 -2.3025 -0.5736
 3403SOL     OW21841   1.914   3.523  13.724  0.0249  0.3329 -0.1890
 3403SOL    HW121842   1.963   3.602  13.701  0.3135  0.2461  0.1237
 3403SOL    HW221843   1.972   3.490  13.793 -0.6219 -0.0332  0.1721
 3404SOL     OW21844   3.345   4.721   0.899 -0.1176 -0.0424  0.2233
 3404SOL    HW121845   3.369   4.722   0.992 -0.2195  0.8069  0.2359
 3404SOL    HW221846   3.428   4.701   0.856 -0.6554 -2.4920  0.3210
 3405SOL     OW21847   2.395   3.426  11.164 -0.6031 -0.0311 -0.4174
 3405SOL    HW121848   2.482   3.423  11.205 -1.4943 -0.5825  1.4349
 3405SOL    HW221849   2.416   3.453  11.075  1.5167  3.2465  1.0544
 3406SOL     OW21850   1.875   0.178   7.790 -0.5292  0.3485 -0.5219
 3406SOL    HW121851   1.951   0.218   7.749  0.8397 -2.7906 -1.0155
 3406SOL    HW221852   1.908   0.130   7.866 -1.8045 -1.1564 -0.9174
 3407SOL     OW21853   1.388   1.974   0.106 -0.0627 -0.2620 -0.0541
 3407SOL    HW121854   1.372   2.015   0.191 -0.6759  0.0841 -0.3341
 3407SOL    HW221855   1.392   1.884   0.136 -0.0987  0.0397  0.8454
 3408SOL     OW21856   3.900   3.743   2.230  0.0561 -0.5399  0.5318
 3408SOL    HW121857   3.869   3.686   2.160  0.3085  0.3528 -0.3147
 3408SOL    HW221858   3.874   3.697   2.310  2.1772  1.1814  2.2049
 3409SOL     OW21859   1.127   3.282   1.583  0.1528  0.1337 -0.0057
 3409SOL    HW121860   1.046   3.319   1.547 -0.3260 -0.9593 -0.0468
 3409SOL    HW221861   1.172   3.358   1.620 -0.5285  1.6012 -2.2329
 3410SOL     OW21862   2.118   0.265   1.139  0.3179 -0.5076 -0.4907
 3410SOL    HW121863   2.169   0.204   1.192  0.9590 -1.5852 -2.3344
 3410SOL    HW221864   2.171   0.269   1.059  1.1129  1.8841  0.1541
 3411SOL     OW21865   0.286   1.129  11.444  0.1176 -0.6820  0.9778
 3411SOL    HW121866   0.264   1.051  11.495 -0.8601 -0.3257  1.1007
 3411SOL    HW221867   0.370   1.148  11.487  0.9408  1.3197 -1.5563
 3412SOL     OW21868   3.250   0.756   3.229  0.4116  1.2872  0.0006
 3412SOL    HW121869   3.180   0.761   3.163  0.8031  0.6064 -0.4572
 3412SOL    HW221870   3.313   0.811   3.183  1.0232 -0.4494 -1.2452
 3413SOL     OW21871   3.446   4.003   7.023 -0.2954 -0.3216 -0.5892
 3413SOL    HW121872   3.441   3.956   6.939 -2.3567 -0.7134 -0.2538
 3413SOL    HW221873   3.387   3.946   7.072 -0.3561 -1.6458 -2.2188
 3414SOL     OW21874   0.640   2.042   5.978  0.1748 -0.0697 -0.3114
 3414SOL    HW121875   0.551   2.011   5.962 -0.2894  1.6534 -1.1810
 3414SOL    HW221876   0.695   1.964   5.977  0.4891  0.1527 -1.9535
 3415SOL     OW21877   1.773   4.469   3.520  0.2822  0.2495  0.2152
 3415SOL    HW121878   1.730   4.425   3.594  1.4861 -0.1017  0.7046
 3415SOL    HW221879   1.837   4.403   3.495 -1.1783 -1.7386  1.6592
 3416SOL     OW21880   3.446   1.280   5.360  0.2864 -0.4809 -0.2123
 3416SOL    HW121881   3.398   1.224   5.299 -0.9204  0.8875 -0.5255
 3416SOL    HW221882   3.527   1.291   5.311 -0.4795 -1.8097 -1.7846
 3417SOL     OW21883   0.998   2.589   7.997  0.1647 -0.8391  0.0949
 3417SOL    HW121884   1.060   2.563   7.929  1.7380 -0.7421  1.5007
 3417SOL    HW221885   0.933   2.518   7.995 -0.9128  0.1830 -1.0966
 3418SOL     OW21886   4.713   1.545   0.167 -0.2541 -0.1089  0.2597
 3418SOL    HW121887   0.067   1.545   0.156 -0.2635  1.0925  0.1945
 3418SOL    HW221888   4.689   1.593   0.089  2.6051 -0.7611 -1.0390
 3419SOL     OW21889   3.245   3.137  15.155 -0.4508  0.0557  0.2597
 3419SOL    HW121890   3.322   3.081  15.164 -1.3910 -0.9970  1.5490
 3419SOL    HW221891   3.279   3.207  15.098  0.7608 -2.6648 -2.3563
 3420SOL     OW21892   3.669   4.423   4.193  0.0560  0.0503  0.1762
 3420SOL    HW121893   3.759   4.433   4.163 -1.0207  1.5941 -2.4964
 3420SOL    HW221894   3.639   4.340   4.156  0.9907  0.3331 -1.2157
 3421SOL     OW21895   1.493   3.266   2.589  0.2865  0.0973  0.3468
 3421SOL    HW121896   1.567   3.324   2.571  0.3932  0.7343  2.8802
 3421SOL    HW221897   1.462   3.268   2.499  0.1232  1.6477  0.4461
 3422SOL     OW21898   1.331   4.124   8.954 -0.3528 -0.0119 -0.1415
 3422SOL    HW121899   1.239   4.126   8.926  0.1177 -0.7053 -1.7375
 3422SOL    HW221900   1.315   4.101   9.045 -1.2063 -3.0231 -1.0372
 3423SOL     OW21901   0.818   0.061   4.851 -0.8723  0.3166  0.1558
 3423SOL    HW121902   0.843   0.132   4.792 -1.5046  1.4645  1.2832
 3423SOL    HW221903   0.725   0.055   4.832 -1.2109  0.8916  1.7164
 3424SOL     OW21904   4.372   3.243   4.147 -0.6151  0.0676  0.0861
 3424SOL    HW121905   4.312   3.317   4.143  0.6544  0.9558 -2.2220
 3424SOL    HW221906   4.324   3.161   4.162 -1.3406  0.5684  0.5288
 3425SOL     OW21907   2.594   4.254   6.605 -0.0887  0.2614  0.1234
 3425SOL    HW121908   2.687   4.245   6.585  0.2183  0.0321  1.5931
 3425SOL    HW221909   2.556   4.272   6.519  0.0033  0.0686  0.0423
 3426SOL     OW21910   0.218   0.477   5.679  0.1335 -0.2264 -0.0434
 3426SOL    HW121911   0.311   0.454   5.687 -0.1827 -2.1348 -1.7660
 3426SOL    HW221912   0.199   0.469   5.585  0.5348 -0.2624 -0.1225
 3427SOL     OW21913   1.817   0.668   2.037  0.1098 -0.2075 -0.0341
 3427SOL    HW121914   1.851   0.634   1.955 -0.7036 -0.5538 -0.2213
 3427SOL    HW221915   1.754   0.727   1.995  0.4854  0.5227  0.4263
 3428SOL     OW21916   4.410   4.682   9.594 -0.0950 -0.2503 -0.0036
 3428SOL    HW121917   4.491   4.635   9.616  0.5076 -0.1118 -1.9145
 3428SOL    HW221918   4.360   4.666   9.674 -0.1466  0.5537  0.1201
 3429SOL     OW21919   3.190   0.798  10.878 -0.2104 -0.3593 -0.3080
 3429SOL    HW121920   3.245   0.876  10.874 -0.1111 -0.3947  0.3030
 3429SOL    HW221921   3.106   0.838  10.858  0.6669  1.7455  0.2168
 3430SOL     OW21922   2.862   3.442   7.241 -0.1093 -0.2608  0.1578
 3430SOL    HW121923   2.861   3.382   7.167 -1.1249  0.0921 -0.1240
 3430SOL    HW221924   2.881   3.527   7.201  0.5969 -0.4317  0.1338
 3431SOL     OW21925   4.369   2.650  10.173  0.3179  1.0974  0.0402
 3431SOL    HW121926   4.381   2.653  10.268  1.5738 -0.6665 -0.0667
 3431SOL    HW221927   4.358   2.555  10.176  0.7414  1.0268 -0.6652
 3432SOL     OW21928   0.780   3.677  10.311  0.1178  0.5607 -0.2245
 3432SOL    HW121929   0.828   3.733  10.249  0.6403  1.9420  1.4502
 3432SOL    HW221930   0.729   3.745  10.354  1.8087  0.9361  1.1730
 3433SOL     OW21931   1.031   0.348   8.489  0.5004  0.4678 -0.0676
 3433SOL    HW121932   1.053   0.307   8.405  0.2953 -1.6539  0.8948
 3433SOL    HW221933   1.118   0.364   8.526  1.5180  0.2959 -2.3628
 3434SOL     OW21934   3.232   4.678   7.885 -0.1145 -0.3439 -0.9796
 3434SOL    HW121935   3.170   4.674   7.812 -1.5345 -2.1431  0.3277
 3434SOL    HW221936   3.191   4.641   7.963 -0.5239 -1.3909 -1.6928
 3435SOL     OW21937   3.199   4.335   5.406  0.3060 -0.0969 -0.4916
 3435SOL    HW121938   3.259   4.261   5.407 -1.6616 -1.7214 -2.5133
 3435SOL    HW221939   3.208   4.365   5.496 -0.2343  0.5420 -0.6439
 3436SOL     OW21940   1.086   0.960   3.131 -0.2358 -0.2943 -0.2730
 3436SOL    HW121941   1.109   0.911   3.052  2.2860  0.3195  0.0727
 3436SOL    HW221942   1.113   1.047   3.103  0.2069  0.0349  1.1674
 3437SOL     OW21943   3.242   3.597   8.255  0.4191 -0.0060 -0.0364
 3437SOL    HW121944   3.325   3.613   8.211 -0.8995 -0.9120 -2.8405
 3437SOL    HW221945   3.220   3.513   8.215 -0.6365  0.3789 -0.2703
 3438SOL     OW21946   0.392   2.812   1.721 -0.3124 -0.6447  0.2224
 3438SOL    HW121947   0.367   2.730   1.762 -0.2460  0.2224  1.9996
 3438SOL    HW221948   0.466   2.847   1.771  0.7217 -0.4770 -1.4120
 3439SOL     OW21949   3.985   0.580  17.156  0.2964  0.4499  0.5448
 3439SOL    HW121950   3.895   0.554  17.177  0.4119  0.3940  0.9762
 3439SOL    HW221951   3.980   0.575  17.061 -1.9490  1.5428  0.6007
 3440SOL     OW21952   0.944   3.750  15.691 -0.1657  0.0552 -0.2824
 3440SOL    HW121953   0.989   3.811  15.750  0.3843 -0.4047 -0.2173
 3440SOL    HW221954   0.912   3.813  15.627 -3.0382  0.2723  1.3737
 3441SOL     OW21955   4.152   1.560   7.248 -0.9908 -0.0378 -0.2713
 3441SOL    HW121956   4.222   1.554   7.314 -1.7632  0.7764  0.6393
 3441SOL    HW221957   4.168   1.653   7.231 -2.8655  0.5405  1.1167
 3442SOL     OW21958   1.870   2.807   3.592  0.2043  0.5928 -0.0663
 3442SOL    HW121959   1.847   2.727   3.639 -0.1952  2.9152  3.7580
 3442SOL    HW221960   1.832   2.878   3.646 -1.9545 -0.5182 -0.1185
 3443SOL     OW21961   1.188   0.375   2.982  0.5711  0.1486  0.6525
 3443SOL    HW121962   1.139   0.382   3.064  0.8402  0.3874  0.7914
 3443SOL    HW221963   1.153   0.301   2.932  2.5795  0.4397 -1.1529
 3444SOL     OW21964   1.849   0.537   2.859  0.2243  0.0503  0.2501
 3444SOL    HW121965   1.830   0.470   2.925 -0.2445  0.8452  0.9260
 3444SOL    HW221966   1.918   0.584   2.905 -0.3341  0.6891  0.4376
 3445SOL     OW21967   0.730   2.121   8.942  0.0523 -0.0525 -0.0133
 3445SOL    HW121968   0.637   2.124   8.921 -0.3162 -0.3582  1.5693
 3445SOL    HW221969   0.731   2.075   9.026  2.2506  0.7540  0.4037
 3446SOL     OW21970   3.999   3.689   0.752 -0.4669  0.0642 -0.4260
 3446SOL    HW121971   3.999   3.593   0.763  0.4226  0.2166  0.9814
 3446SOL    HW221972   4.056   3.711   0.826 -1.3371 -0.5574  0.4321
 3447SOL     OW21973   3.093   1.054   8.155  0.1096  0.1570  0.1296
 3447SOL    HW121974   3.185   1.063   8.180  0.1382 -1.1827  0.4976
 3447SOL    HW221975   3.076   1.141   8.121 -0.6868  1.0618  2.8859
 3448SOL     OW21976   2.571   3.965   1.368  0.6682  0.1897 -0.8598
 3448SOL    HW121977   2.613   4.022   1.303 -0.9369 -0.0719 -2.1048
 3448SOL    HW221978   2.655   3.936   1.405  0.2239 -0.3869 -0.3210
 3449SOL     OW21979   0.502   1.768   1.967  0.0080 -0.5095 -0.6144
 3449SOL    HW121980   0.546   1.820   2.034  0.4345 -2.0401  0.2814
 3449SOL    HW221981   0.430   1.828   1.948 -0.5332 -0.8002  0.4963
 3450SOL     OW21982   3.279   2.787   2.316  0.3773 -0.2079  0.4453
 3450SOL    HW121983   3.196   2.813   2.355 -0.3417 -0.0728 -1.1603
 3450SOL    HW221984   3.247   2.703   2.282 -2.1551  1.0310 -0.2576
 3451SOL     OW21985   1.240   1.205   8.984  0.4861 -0.6710  0.4830
 3451SOL    HW121986   1.246   1.205   9.080 -2.3918 -0.7125  0.6605
 3451SOL    HW221987   1.169   1.144   8.962 -0.0564 -0.0057  0.4020
 3452SOL     OW21988   1.817   4.687   6.931  0.0502  0.9086 -0.2916
 3452SOL    HW121989   1.898   4.642   6.955 -0.0007 -0.6172 -2.9480
 3452SOL    HW221990   1.807   0.006   7.005  0.1547  0.5234  0.0379
 3453SOL     OW21991   1.937   0.898  10.100 -0.6713  0.6620 -0.2405
 3453SOL    HW121992   1.982   0.819  10.071  0.1109  0.3440  1.8382
 3453SOL    HW221993   1.926   0.876  10.192  0.9292 -1.4421 -0.5718
 3454SOL     OW21994   3.206   1.202   8.698  0.4872 -1.1590 -0.1789
 3454SOL    HW121995   3.300   1.186   8.697  0.5169 -0.9349 -0.6685
 3454SOL    HW221996   3.184   1.178   8.608  1.6626  2.0477 -1.3239
 3455SOL     OW21997   3.731   4.490   5.725 -0.5883  0.0381 -0.0415
 3455SOL    HW121998   3.740   4.458   5.815 -0.6879 -0.1814 -0.1113
 3455SOL    HW221999   3.800   4.556   5.713 -0.8246  0.6810  2.0299
 3456SOL     OW22000   3.394   4.047   4.253  0.0832  0.2956  0.7106
 3456SOL    HW122001   3.402   3.985   4.181 -0.4250  3.6700 -2.2375
 3456SOL    HW222002   3.299   4.056   4.255 -0.0324 -0.8571  0.7188
 3457SOL     OW22003   1.656   4.479   8.804  0.5045  0.1910 -0.6817
 3457SOL    HW122004   1.638   4.391   8.771  1.3735  0.0392 -0.7578
 3457SOL    HW222005   1.725   4.462   8.868 -1.2477 -0.5946  1.0139
 3458SOL     OW22006   1.987   1.627   7.915 -0.3090 -0.3593 -0.0576
 3458SOL    HW122007   1.962   1.535   7.923  1.0121 -0.7045  0.0378
 3458SOL    HW222008   2.040   1.628   7.835 -0.7921 -1.5509 -0.4021
 3459SOL     OW22009   2.747   4.129   0.514 -0.1983 -0.3996 -0.1403
 3459SOL    HW122010   2.664   4.083   0.503 -1.5208  1.7602  0.7286
 3459SOL    HW222011   2.745   4.195   0.445 -0.2735 -1.0854 -0.7946
 3460SOL     OW22012   2.657   2.620   0.030 -0.1613 -0.4856  0.1987
 3460SOL    HW122013   2.690   2.647  17.708  2.4189  1.2160  1.7502
 3460SOL    HW222014   2.654   2.525   0.019  1.3054 -0.7182  1.9177
 3461SOL     OW22015   0.493   1.313  17.115 -0.7341  0.0823 -0.7161
 3461SOL    HW122016   0.501   1.402  17.082 -0.4505  0.0876 -0.6268
 3461SOL    HW222017   0.473   1.321  17.208 -2.9452 -0.6657 -1.1244
 3462SOL     OW22018   1.469   2.256   6.661 -0.2897  0.2361 -0.1498
 3462SOL    HW122019   1.435   2.193   6.725  0.9320 -0.3177 -0.0371
 3462SOL    HW222020   1.539   2.301   6.708 -0.5122  0.1927  0.2291
 3463SOL     OW22021   3.790   3.233   8.856  0.3430  0.8619 -0.0554
 3463SOL    HW122022   3.744   3.204   8.777 -0.6515 -2.7840  1.8575
 3463SOL    HW222023   3.738   3.309   8.883 -0.4466  1.2189 -2.5822
 3464SOL     OW22024   0.099   2.765  11.961  0.0203 -0.2797 -0.5320
 3464SOL    HW122025   0.036   2.832  11.934  0.4220  0.2272 -0.2146
 3464SOL    HW222026   0.178   2.812  11.985 -0.3029  0.9030 -1.7717
 3465SOL     OW22027   3.963   0.914   7.374 -0.2734 -0.1493  0.6873
 3465SOL    HW122028   3.906   0.966   7.317 -0.2301 -1.1543 -0.2791
 3465SOL    HW222029   3.973   0.837   7.318  0.4955  0.1432  0.4226
 3466SOL     OW22030   0.569   2.156   7.215  0.5835 -0.4353  0.0435
 3466SOL    HW122031   0.628   2.231   7.214 -0.4136  0.3241 -1.5671
 3466SOL    HW222032   0.490   2.195   7.177 -0.5643 -1.0379  1.8187
 3467SOL     OW22033   3.418   1.365   6.481  0.3503 -0.1406  0.2978
 3467SOL    HW122034   3.337   1.370   6.429  0.7892  0.8401 -0.2837
 3467SOL    HW222035   3.482   1.344   6.413  0.3216  0.6066  0.0464
 3468SOL     OW22036   2.727   4.234   3.620 -0.2942 -0.0524 -0.2950
 3468SOL    HW122037   2.807   4.286   3.623 -1.9572  2.5380 -1.2209
 3468SOL    HW222038   2.697   4.258   3.532 -2.2100 -0.0002  0.3757
 3469SOL     OW22039   3.270   0.230   2.338 -0.5667 -0.6577 -0.1153
 3469SOL    HW122040   3.210   0.249   2.411 -0.9430  2.8026 -1.3102
 3469SOL    HW222041   3.265   0.310   2.286  0.5149 -0.4112  0.1528
 3470SOL     OW22042   4.615   2.355  12.495  0.4454  0.4555 -0.0897
 3470SOL    HW122043   4.536   2.408  12.491  0.1577  0.0925  0.7502
 3470SOL    HW222044   4.626   2.359  12.590 -1.0540 -0.7152  0.1399
 3471SOL     OW22045   0.647   4.269   5.683 -0.0138  0.4641 -0.3094
 3471SOL    HW122046   0.703   4.280   5.606 -0.8360 -0.4000 -1.0398
 3471SOL    HW222047   0.713   4.257   5.750 -0.9585 -2.0336  0.2010
 3472SOL     OW22048   4.068   2.932  15.125  0.1313 -0.4576 -0.4500
 3472SOL    HW122049   4.051   2.910  15.033  2.1395 -1.2262 -0.6358
 3472SOL    HW222050   4.163   2.937  15.133  0.0116  1.1894 -0.2065
 3473SOL     OW22051   2.240   2.709   6.488  0.0405 -0.4133  0.5021
 3473SOL    HW122052   2.310   2.695   6.425 -1.6904  1.1057 -1.7904
 3473SOL    HW222053   2.277   2.676   6.570  0.2183 -1.8972 -0.1920
 3474SOL     OW22054   1.695   2.627   9.315 -0.0392 -0.1767  0.6374
 3474SOL    HW122055   1.704   2.604   9.408 -1.0731 -1.6702  0.3637
 3474SOL    HW222056   1.787   2.612   9.293  0.6071  1.7444  2.0274
 3475SOL     OW22057   1.941   3.663   1.306  0.2445  0.7312  0.5839
 3475SOL    HW122058   1.897   3.745   1.327  0.5356  1.3661 -1.3065
 3475SOL    HW222059   1.998   3.694   1.236 -0.5982  0.7951 -0.0661
 3476SOL     OW22060   1.730   4.240   6.934  0.4863 -0.2024 -0.3066
 3476SOL    HW122061   1.808   4.211   6.981 -0.8092  0.0783  1.9996
 3476SOL    HW222062   1.764   4.319   6.891 -0.0458 -0.7600 -1.7658
 3477SOL     OW22063   0.872   2.252   1.714 -0.5951  0.3893 -0.2610
 3477SOL    HW122064   0.933   2.178   1.713 -0.6054  0.3741  0.3776
 3477SOL    HW222065   0.939   2.317   1.736 -0.3727  0.1965 -0.3635
 3478SOL     OW22066   0.692   2.740   5.002  0.1539 -0.2698  0.4757
 3478SOL    HW122067   0.663   2.702   4.919  1.0870  0.9403 -0.3945
 3478SOL    HW222068   0.772   2.690   5.014 -0.2291 -0.4650  2.2613
 3479SOL     OW22069   0.913   4.194   2.328  0.4640 -0.1012  0.0001
 3479SOL    HW122070   1.009   4.199   2.332  0.5114 -1.8112  0.8506
 3479SOL    HW222071   0.905   4.163   2.238  0.8159  1.2531 -0.4943
 3480SOL     OW22072   0.120   2.623  16.030 -0.4395 -0.2590 -1.6149
 3480SOL    HW122073   0.058   2.619  16.103  1.4624 -2.4007 -0.0992
 3480SOL    HW222074   0.137   2.717  16.026  0.4175 -0.3615 -0.5923
 3481SOL     OW22075   3.503   1.779   6.515  0.1596 -0.2334 -0.5523
 3481SOL    HW122076   3.428   1.782   6.456 -0.5433  2.0932  0.4594
 3481SOL    HW222077   3.467   1.728   6.588  1.8598  0.4620  0.7746
 3482SOL     OW22078   2.981   1.072   5.453  0.3147 -0.4289 -0.2739
 3482SOL    HW122079   2.950   1.004   5.394  0.6172 -2.2289  1.6393
 3482SOL    HW222080   2.988   1.018   5.532  1.5728 -1.6263 -1.1988
 3483SOL     OW22081   3.064   3.684   3.403  0.2057 -0.4237  0.2357
 3483SOL    HW122082   3.125   3.617   3.371  0.3580 -0.1614 -0.0235
 3483SOL    HW222083   3.118   3.718   3.475 -2.2120  2.2023  0.8297
 3484SOL     OW22084   4.229   1.446   4.702 -0.3062  0.3119  0.5058
 3484SOL    HW122085   4.253   1.532   4.737  0.5890  0.7366 -1.1464
 3484SOL    HW222086   4.204   1.468   4.612  0.2456 -1.5935 -0.1101
 3485SOL     OW22087   3.599   3.200  10.494 -0.1398  0.1626 -0.3850
 3485SOL    HW122088   3.581   3.121  10.444  0.5843 -1.0693  1.3068
 3485SOL    HW222089   3.646   3.256  10.431  0.9887 -0.2998  0.0385
 3486SOL     OW22090   0.018   0.544  17.284  0.7296 -0.6057 -0.4671
 3486SOL    HW122091   4.673   0.565  17.250  0.7934  1.4382  0.5932
 3486SOL    HW222092   4.731   0.483  17.352 -1.8228  1.9897  0.8041
 3487SOL     OW22093   3.195   1.167   1.712  0.2153  0.4576 -0.0953
 3487SOL    HW122094   3.122   1.202   1.764  1.3585  1.2977  0.9273
 3487SOL    HW222095   3.160   1.078   1.698 -0.7608  0.8625 -0.2709
 3488SOL     OW22096   4.399   0.962  11.329  0.0212  0.2496 -0.2866
 3488SOL    HW122097   4.489   0.929  11.321  0.0347  0.2226 -0.0242
 3488SOL    HW222098   4.365   0.913  11.254  1.2366 -1.7651  0.4668
 3489SOL     OW22099   2.971   2.578   7.580  0.2904 -0.2028 -0.3769
 3489SOL    HW122100   2.983   2.524   7.658  2.3235  0.3100 -0.3272
 3489SOL    HW222101   2.876   2.583   7.570  0.4676  0.1746 -1.9981
 3490SOL     OW22102   2.553   3.330   0.622 -0.5212 -0.0468 -0.0536
 3490SOL    HW122103   2.635   3.373   0.599 -0.4925  0.4881  1.0887
 3490SOL    HW222104   2.525   3.300   0.535 -0.7509  1.3443 -0.4639
 3491SOL     OW22105   0.468   0.245   4.117  0.0671 -0.3504 -0.4475
 3491SOL    HW122106   0.374   0.263   4.109  0.1249  0.1878  0.1173
 3491SOL    HW222107   0.469   0.188   4.041 -2.1906 -1.7279  0.5664
 3492SOL     OW22108   3.353   2.885   7.659  0.1785 -0.5663  0.7543
 3492SOL    HW122109   3.389   2.797   7.647 -0.0025 -0.8518  2.2938
 3492SOL    HW222110   3.270   2.872   7.614  0.7639  0.5583 -0.6936
 3493SOL     OW22111   0.879   3.232   9.154 -0.2845  0.1566 -0.3030
 3493SOL    HW122112   0.936   3.255   9.228  1.2171 -1.2599 -0.9980
 3493SOL    HW222113   0.952   3.199   9.101 -0.1031  0.2474 -0.1096
 3494SOL     OW22114   4.516   0.017   6.892 -0.1119  0.1879  0.0967
 3494SOL    HW122115   4.566   0.097   6.912  0.9624 -0.2876 -0.7119
 3494SOL    HW222116   4.431   0.048   6.924  0.3419  0.9874  0.5314
 3495SOL     OW22117   2.249   1.307   3.987 -0.5540  0.7296  0.1708
 3495SOL    HW122118   2.318   1.349   4.039 -0.3327 -0.2412  0.6540
 3495SOL    HW222119   2.235   1.379   3.926 -1.4082  0.7181  0.3477
 3496SOL     OW22120   4.281   2.855   2.662 -0.1022 -0.0017  0.1889
 3496SOL    HW122121   4.199   2.898   2.685 -0.2148 -0.1617  0.0895
 3496SOL    HW222122   4.348   2.915   2.693  1.3201 -1.8077  0.6519
 3497SOL     OW22123   3.871   1.272  13.299 -0.4289 -0.3645 -0.1125
 3497SOL    HW122124   3.940   1.337  13.288  0.3593 -1.1881 -0.1054
 3497SOL    HW222125   3.794   1.326  13.314  0.7632  1.4591 -0.6230
 3498SOL     OW22126   0.733   4.156   2.984 -0.4261  0.3037  0.3711
 3498SOL    HW122127   0.765   4.092   2.920 -1.9320  0.7775 -0.8197
 3498SOL    HW222128   0.808   4.215   2.986  0.4658 -0.8035 -0.7555
 3499SOL     OW22129   1.910   2.139   8.652 -0.5254  0.2363 -0.1579
 3499SOL    HW122130   1.907   2.062   8.708  1.1922 -0.1933 -0.6775
 3499SOL    HW222131   1.828   2.119   8.606  0.3464 -0.2390 -1.4645
 3500SOL     OW22132   0.655   4.230   7.186 -0.0393  0.5626 -0.1879
 3500SOL    HW122133   0.614   4.206   7.269  0.1730  2.3191  0.4388
 3500SOL    HW222134   0.584   4.272   7.139  0.5105 -1.8037 -3.0924
 3501SOL     OW22135   2.523   4.622   3.665 -0.4330 -0.1007  0.6268
 3501SOL    HW122136   2.518   4.582   3.579 -2.0281  0.0069  0.6714
 3501SOL    HW222137   2.530   4.711   3.630 -1.6781  0.2137  1.1786
 3502SOL     OW22138   1.604   4.196   9.261  0.2962 -0.0645 -0.6161
 3502SOL    HW122139   1.531   4.134   9.254 -0.4819  0.8387 -0.5004
 3502SOL    HW222140   1.663   4.153   9.322 -0.2447  0.6683  0.4175
 3503SOL     OW22141   2.861   2.950  11.175  0.0051  0.4594 -0.7993
 3503SOL    HW122142   2.816   2.986  11.098 -0.5126  0.9612 -0.2550
 3503SOL    HW222143   2.943   2.947  11.126 -0.2907  0.7728 -1.3181
 3504SOL     OW22144   2.873   0.460  14.083  1.0440  0.3667 -0.4620
 3504SOL    HW122145   2.937   0.462  14.154 -0.3969 -1.2529  0.8918
 3504SOL    HW222146   2.857   0.553  14.073 -0.2632  0.3286  1.3205
 3505SOL     OW22147   1.588   4.523  14.207  0.2701  0.0203 -0.3347
 3505SOL    HW122148   1.669   4.482  14.235  0.5783 -0.4639 -1.9239
 3505SOL    HW222149   1.533   4.445  14.209 -0.6821  0.6983  0.3334
 3506SOL     OW22150   0.645   2.149   7.751  0.0123  0.5691  0.9616
 3506SOL    HW122151   0.716   2.096   7.788  0.5108 -0.7164 -1.8145
 3506SOL    HW222152   0.654   2.120   7.660 -1.1053  1.9522  0.4061
 3507SOL     OW22153   3.418   2.497   6.015  0.3785 -0.2143 -0.1024
 3507SOL    HW122154   3.389   2.419   6.063  0.1885 -0.1554 -0.1196
 3507SOL    HW222155   3.485   2.532   6.072  1.5605 -0.0530 -1.5989
 3508SOL     OW22156   4.262   4.309   6.559  1.1091 -0.7492 -0.4460
 3508SOL    HW122157   4.206   4.233   6.548 -2.1810  1.3644  1.6710
 3508SOL    HW222158   4.314   4.287   6.637 -0.5728  0.4432  1.0271
 3509SOL     OW22159   0.664   2.182   4.487 -0.1094 -0.1085 -0.1083
 3509SOL    HW122160   0.575   2.147   4.489  0.8201 -2.2344  3.7827
 3509SOL    HW222161   0.695   2.169   4.397 -0.0295 -0.5457 -0.0214
 3510SOL     OW22162   2.184   0.168  13.969 -0.8762  0.1150 -0.6582
 3510SOL    HW122163   2.228   0.084  13.955  1.9055  1.5703 -0.4685
 3510SOL    HW222164   2.253   0.228  13.942 -0.6805  0.7086  1.1774
 3511SOL     OW22165   4.255   3.496  17.456 -0.0690  0.4852  0.2490
 3511SOL    HW122166   4.267   3.470  17.547 -0.3355  0.4403  0.2722
 3511SOL    HW222167   4.218   3.584  17.467  1.5759  1.0864  0.9158
 3512SOL     OW22168   3.892   4.397   2.693 -0.8142  0.0092 -0.1024
 3512SOL    HW122169   3.847   4.313   2.682 -2.4461  0.8950 -0.1933
 3512SOL    HW222170   3.982   4.369   2.710 -1.7391 -2.6003  0.5023
 3513SOL     OW22171   2.589   3.101  11.598 -0.1088  0.1780  0.0789
 3513SOL    HW122172   2.539   3.181  11.577  2.2615  1.5395 -0.3962
 3513SOL    HW222173   2.678   3.133  11.584 -0.1747  0.5155  0.4390
 3514SOL     OW22174   0.574   0.080  16.501  0.1039 -0.2753 -0.1091
 3514SOL    HW122175   0.612   0.083  16.414 -0.6996 -1.1527 -0.4947
 3514SOL    HW222176   0.483   0.105  16.483  0.4076  1.5491  0.8885
 3515SOL     OW22177   0.776   2.594   2.681 -0.3070  0.5983 -0.3121
 3515SOL    HW122178   0.716   2.600   2.607 -0.9805 -0.4243  0.1519
 3515SOL    HW222179   0.762   2.503   2.707  1.5609  1.6998  4.4483
 3516SOL     OW22180   3.293   0.092   6.326  0.1612 -1.0773  0.1757
 3516SOL    HW122181   3.340   0.165   6.365  1.0157 -1.5623  0.0573
 3516SOL    HW222182   3.231   0.070   6.395  0.2538 -0.0294  0.5909
 3517SOL     OW22183   0.800   2.128   4.249 -0.3836  0.6567  0.0274
 3517SOL    HW122184   0.866   2.148   4.314  0.6002  0.5946 -0.9526
 3517SOL    HW222185   0.794   2.032   4.253 -1.7073  0.7862  1.3867
 3518SOL     OW22186   3.397   1.514  15.646  0.4308  0.1252 -0.6311
 3518SOL    HW122187   3.309   1.550  15.656 -0.6482 -2.0875 -2.0538
 3518SOL    HW222188   3.383   1.423  15.670 -1.3511  1.2362  2.5977
 3519SOL     OW22189   3.491   2.499   0.494 -0.1729 -0.1846 -0.7548
 3519SOL    HW122190   3.424   2.511   0.562  1.3982  0.1507  0.7267
 3519SOL    HW222191   3.457   2.553   0.423  0.5466  1.5773  0.2120
 3520SOL     OW22192   1.206   2.776   4.706 -0.6215 -0.4671  0.1780
 3520SOL    HW122193   1.237   2.782   4.616 -1.0434 -1.9217 -0.0549
 3520SOL    HW222194   1.279   2.815   4.755 -0.6605  2.9354 -2.4606
 3521SOL     OW22195   1.147   4.146  17.741  0.0610  0.1229 -0.1612
 3521SOL    HW122196   1.132   4.071  17.682 -0.3976  0.5721 -0.6135
 3521SOL    HW222197   1.098   4.122   0.056  0.7124 -0.1662  0.1550
 3522SOL     OW22198   1.417   3.177   0.630  0.3249  0.3983 -0.4779
 3522SOL    HW122199   1.437   3.260   0.673 -0.1934 -0.1576  0.8352
 3522SOL    HW222200   1.361   3.137   0.697  0.1785  0.1374 -0.7545
 3523SOL     OW22201   1.907   4.089   1.373 -0.3099 -0.0886 -0.0750
 3523SOL    HW122202   1.958   4.075   1.454  0.4479 -1.9330 -0.8556
 3523SOL    HW222203   1.936   4.177   1.349  0.0294 -0.4008 -0.8165
 3524SOL     OW22204   1.133   3.009   1.565 -0.1966  0.0347 -0.3061
 3524SOL    HW122205   1.102   3.099   1.560  0.0109  0.1656  0.6719
 3524SOL    HW222206   1.200   3.013   1.497 -0.5953  2.7278 -0.5409
 3525SOL     OW22207   0.904   1.128  11.032  0.0876  0.2653 -0.5264
 3525SOL    HW122208   0.993   1.134  10.996 -0.1895  1.5672 -0.9731
 3525SOL    HW222209   0.922   1.050  11.084  1.0874  0.9632  0.1678
 3526SOL     OW22210   3.188   3.095  10.987 -0.1992 -0.2517 -0.3179
 3526SOL    HW122211   3.132   3.171  10.970  0.9663  0.9751  1.3457
 3526SOL    HW222212   3.229   3.110  11.072 -1.6040  1.4235  0.0550
 3527SOL     OW22213   0.250   3.013   2.638  0.1777 -0.2242 -0.2814
 3527SOL    HW122214   0.229   2.942   2.698 -1.4644  0.9406  0.5255
 3527SOL    HW222215   0.326   3.047   2.684 -0.4641  0.1024  0.5230
 3528SOL     OW22216   0.262   1.016   4.541 -0.0335 -0.2517  0.6866
 3528SOL    HW122217   0.228   1.026   4.452  0.2227 -0.5910  0.5523
 3528SOL    HW222218   0.180   1.005   4.590 -0.4409  1.1453  0.3215
 3529SOL     OW22219   2.274   1.363  12.720  0.1303  0.9409 -0.0019
 3529SOL    HW122220   2.201   1.375  12.658  1.6605  2.2587 -1.5464
 3529SOL    HW222221   2.342   1.403  12.666  0.4548 -1.6086 -1.4473
 3530SOL     OW22222   3.870   2.944  17.320  0.0833  0.5154  0.7278
 3530SOL    HW122223   3.949   2.939  17.266  0.0219 -1.1907  0.8048
 3530SOL    HW222224   3.911   2.955  17.406  3.7173  1.9231 -1.1774
 3531SOL     OW22225   0.192   4.319   5.669  0.4239 -0.2556 -0.0831
 3531SOL    HW122226   0.242   4.364   5.738 -0.5323 -3.7969  2.9156
 3531SOL    HW222227   0.217   4.364   5.588 -1.2333 -1.0900 -1.0460
 3532SOL     OW22228   3.292   4.589   9.301 -0.0138 -0.4122  0.2400
 3532SOL    HW122229   3.381   4.556   9.298 -0.0287 -0.3935 -0.3377
 3532SOL    HW222230   3.241   4.510   9.319 -2.2239  0.6747 -1.1316
 3533SOL     OW22231   1.468   0.626  11.013 -0.3016 -0.3127 -0.3348
 3533SOL    HW122232   1.484   0.539  11.048  4.6344  0.1592 -1.4428
 3533SOL    HW222233   1.540   0.633  10.949  0.5771  1.0087  0.7804
 3534SOL     OW22234   0.013   3.594   2.886  0.1163  0.0625 -0.2173
 3534SOL    HW122235   0.051   3.679   2.864 -0.6430  0.5187  0.2460
 3534SOL    HW222236   0.089   3.555   2.931 -1.8277  0.0001  3.0278
 3535SOL     OW22237   4.223   4.341   5.985 -0.2198  0.0879 -0.4525
 3535SOL    HW122238   4.295   4.393   5.950  1.0249 -1.1311  0.2845
 3535SOL    HW222239   4.183   4.308   5.904  1.2686  0.9184 -1.5253
 3536SOL     OW22240   0.500   3.795  13.561  0.1752 -0.3750 -0.0227
 3536SOL    HW122241   0.576   3.831  13.515  0.5798  0.1819  1.0837
 3536SOL    HW222242   0.424   3.828  13.512  0.7944 -1.7840 -1.9070
 3537SOL     OW22243   3.202   0.772   5.506  0.4859 -0.8311 -0.1907
 3537SOL    HW122244   3.203   0.780   5.601  0.3510 -1.1831 -0.1608
 3537SOL    HW222245   3.109   0.787   5.494  1.2420  1.7372 -2.9266
 3538SOL     OW22246   4.450   2.692  15.588 -0.1606 -0.1645 -0.2958
 3538SOL    HW122247   4.541   2.719  15.600 -0.1935  0.9195 -2.5549
 3538SOL    HW222248   4.447   2.607  15.633  0.6898  0.6365  1.2684
 3539SOL     OW22249   2.878   0.023   9.604 -0.4936  0.4949  0.0616
 3539SOL    HW122250   2.844   0.111   9.587 -0.5159  0.1979 -1.4657
 3539SOL    HW222251   2.971   0.040   9.617 -0.6013  1.1562 -0.0129
 3540SOL     OW22252   2.211   4.728   9.344 -0.5915 -0.3614 -0.3461
 3540SOL    HW122253   2.142   4.725   9.277 -0.1967 -0.1257 -0.7606
 3540SOL    HW222254   2.273   0.043   9.297 -1.0883 -0.3909 -1.0440
 3541SOL     OW22255   3.284   0.013   7.447 -0.3934  0.1403 -0.1924
 3541SOL    HW122256   3.379   0.012   7.436 -0.2183 -2.7396  1.4600
 3541SOL    HW222257   3.261   4.665   7.423  1.7882 -0.2513 -0.8396
 3542SOL     OW22258   3.038   2.591   5.507 -0.2761 -0.1931  0.0168
 3542SOL    HW122259   2.959   2.579   5.454 -0.1157 -0.7790 -0.0924
 3542SOL    HW222260   3.064   2.499   5.518 -2.0601 -0.6507  0.3892
 3543SOL     OW22261   2.172   3.282   6.230  0.0325  0.2363 -0.0205
 3543SOL    HW122262   2.104   3.347   6.248  1.2297  1.4641  0.1390
 3543SOL    HW222263   2.127   3.214   6.279 -1.6468  0.5006 -1.2214
 3544SOL     OW22264   3.953   3.368   6.211  0.6947  0.1998 -0.0527
 3544SOL    HW122265   3.953   3.426   6.135 -1.4472  0.1378 -0.1033
 3544SOL    HW222266   4.047   3.376   6.228  0.8009  1.0890 -1.0942
 3545SOL     OW22267   0.453   1.832   3.473  0.3784 -0.6444  0.3772
 3545SOL    HW122268   0.440   1.737   3.475 -2.2217 -0.3305 -2.2054
 3545SOL    HW222269   0.381   1.863   3.419  2.5227  1.8730 -1.0167
 3546SOL     OW22270   1.019   0.986   7.241 -0.4027 -0.0941 -0.6467
 3546SOL    HW122271   0.971   0.987   7.157 -0.2808  1.5516 -0.6898
 3546SOL    HW222272   0.972   0.926   7.298 -2.8932  2.0153 -0.4625
 3547SOL     OW22273   2.714   0.144   5.324  0.3710 -0.0394  0.3144
 3547SOL    HW122274   2.788   0.205   5.320 -1.0754  1.6488 -0.7482
 3547SOL    HW222275   2.733   0.111   5.237 -2.0720 -0.7357  0.0661
 3548SOL     OW22276   4.226   1.472   1.502  0.3873  0.5513  0.1500
 3548SOL    HW122277   4.176   1.433   1.574 -1.7390  2.6148 -0.1908
 3548SOL    HW222278   4.184   1.419   1.435  0.1842  0.3335  0.4513
 3549SOL     OW22279   4.348   2.612   5.451  0.0796  0.6370 -0.2499
 3549SOL    HW122280   4.264   2.569   5.437 -0.6038  0.8037  3.4029
 3549SOL    HW222281   4.340   2.614   5.546  1.1123 -1.2075 -0.1191
 3550SOL     OW22282   1.619   3.416   8.855 -0.2186  0.5153 -0.0206
 3550SOL    HW122283   1.591   3.374   8.773  1.0660 -1.6856  0.6556
 3550SOL    HW222284   1.611   3.508   8.833 -1.5465  0.7876  1.6194
 3551SOL     OW22285   2.285   4.181  10.373  0.1735 -0.0709  0.2121
 3551SOL    HW122286   2.236   4.119  10.319  0.4512  0.2851 -0.4546
 3551SOL    HW222287   2.224   4.175  10.446  0.4877 -0.9428  0.4007
 3552SOL     OW22288   4.536   1.133  16.097  0.3256  0.4629 -0.5412
 3552SOL    HW122289   4.504   1.156  16.010 -0.2373  1.2163 -0.1322
 3552SOL    HW222290   4.455   1.122  16.147 -0.8357  3.8381 -1.7180
 3553SOL     OW22291   2.766   2.135  17.745  0.0442  0.2972 -0.7347
 3553SOL    HW122292   2.843   2.155   0.034  0.2935 -0.6731 -0.7223
 3553SOL    HW222293   2.805   2.055  17.709  2.4584  0.9689  0.3800
 3554SOL     OW22294   1.127   4.143   9.828 -0.3110 -0.0707  0.2426
 3554SOL    HW122295   1.212   4.173   9.796 -0.2630  0.6797  1.0760
 3554SOL    HW222296   1.131   4.155   9.922  0.2434 -0.7701  0.3050
 3555SOL     OW22297   1.179   0.481  12.681 -0.0470  0.0343 -0.4200
 3555SOL    HW122298   1.166   0.483  12.586 -1.5570 -0.5610 -0.2153
 3555SOL    HW222299   1.151   0.566  12.717  1.6876  0.1236  0.7351
 3556SOL     OW22300   2.415   0.416   9.364  0.0694  0.0414  0.8505
 3556SOL    HW122301   2.472   0.410   9.442 -1.7148 -2.9617  1.9461
 3556SOL    HW222302   2.448   0.492   9.317 -1.1582 -1.2392 -2.0322
 3557SOL     OW22303   0.322   4.130   2.636  0.5297 -0.1563  0.3792
 3557SOL    HW122304   0.344   4.164   2.549  0.8036  0.3418  0.6488
 3557SOL    HW222305   0.228   4.119   2.623  0.4321  0.6314  0.3984
 3558SOL     OW22306   4.079   3.735  13.405 -0.2362 -0.4709  0.1970
 3558SOL    HW122307   4.053   3.679  13.478  0.7870  1.5226  2.0603
 3558SOL    HW222308   4.041   3.821  13.418  2.0728  0.7028 -0.7616
 3559SOL     OW22309   0.273   2.303   7.879 -0.1020  0.0668  0.1427
 3559SOL    HW122310   0.212   2.236   7.850  0.8045 -1.5566  1.9346
 3559SOL    HW222311   0.233   2.385   7.850  1.5655  0.9881  0.3794
 3560SOL     OW22312   0.364   3.616   5.125 -0.1387  0.1953  0.1521
 3560SOL    HW122313   0.302   3.688   5.119 -1.2761 -0.8224 -0.4127
 3560SOL    HW222314   0.330   3.570   5.201 -0.5725  1.4465  0.7123
 3561SOL     OW22315   3.368   2.552   5.523 -0.1424 -0.4203 -0.7379
 3561SOL    HW122316   3.328   2.627   5.479 -0.3502  0.2765  0.6583
 3561SOL    HW222317   3.325   2.479   5.478  1.5717 -1.1081 -1.2729
 3562SOL     OW22318   0.172   3.675   4.714 -0.4361  0.2739 -0.5788
 3562SOL    HW122319   0.214   3.643   4.794  2.2944  2.7548 -1.0241
 3562SOL    HW222320   0.118   3.600   4.689 -2.3249  1.0505  1.1553
 3563SOL     OW22321   4.511   0.658   3.431 -0.1323 -0.9499 -0.6550
 3563SOL    HW122322   4.449   0.708   3.378 -2.2042  0.5010  3.1899
 3563SOL    HW222323   4.482   0.677   3.520  3.3289 -0.1552  0.3098
 3564SOL     OW22324   4.293   2.201   4.827  0.3555 -0.4312 -0.9845
 3564SOL    HW122325   4.330   2.178   4.741  0.3651  0.8241 -1.3131
 3564SOL    HW222326   4.368   2.157   4.869  0.8411  2.4588  1.1656
 3565SOL     OW22327   1.735   0.026   3.757 -0.0745  0.0300 -0.1126
 3565SOL    HW122328   1.733   4.674   3.779  0.8331 -0.4394 -2.0369
 3565SOL    HW222329   1.754   0.032   3.663 -0.1680 -3.0015 -0.3413
 3566SOL     OW22330   1.222   2.583   5.860 -0.0707 -0.4076  0.0483
 3566SOL    HW122331   1.262   2.649   5.803 -0.4013 -0.3102 -0.0726
 3566SOL    HW222332   1.295   2.533   5.897 -1.5303  0.1602  3.6893
 3567SOL     OW22333   0.840   4.172   1.584  0.3651  0.1072  0.1250
 3567SOL    HW122334   0.862   4.197   1.494  0.4001 -0.5388 -0.0461
 3567SOL    HW222335   0.836   4.077   1.579 -0.0046  0.0858  0.8323
 3568SOL     OW22336   3.089   0.237   4.011 -0.0801  0.1951  0.1418
 3568SOL    HW122337   3.160   0.292   3.977  1.2799 -1.6571 -0.0136
 3568SOL    HW222338   3.067   0.172   3.945  1.7187 -1.0088  0.7236
 3569SOL     OW22339   3.739   1.853  16.818  0.8528  0.5025 -0.5785
 3569SOL    HW122340   3.736   1.902  16.736 -1.6994  0.2225 -0.6507
 3569SOL    HW222341   3.748   1.921  16.884 -1.0313 -0.3615  0.5598
 3570SOL     OW22342   1.886   0.627   9.007 -0.2939 -0.0623  0.0253
 3570SOL    HW122343   1.912   0.697   8.947  1.4718 -1.6797 -1.1165
 3570SOL    HW222344   1.808   0.598   8.960  1.2629 -1.6202 -1.5685
 3571SOL     OW22345   1.697   2.708   6.881 -0.4024  0.6279  0.2298
 3571SOL    HW122346   1.672   2.799   6.865 -0.0257  1.0432  1.9569
 3571SOL    HW222347   1.652   2.699   6.965  1.3341 -0.4733  1.0370
 3572SOL     OW22348   2.770   3.198  11.913  0.1443 -0.2068 -0.6913
 3572SOL    HW122349   2.719   3.252  11.975 -2.2477 -1.6322 -1.4331
 3572SOL    HW222350   2.787   3.258  11.841  0.4682  0.8184  0.2339
 3573SOL     OW22351   3.157   2.200   0.804 -0.7398 -0.4992  0.1572
 3573SOL    HW122352   3.146   2.146   0.725 -1.4497 -1.1245  0.6840
 3573SOL    HW222353   3.201   2.138   0.862 -1.2171 -2.3241 -1.4318
 3574SOL     OW22354   2.897   4.009   0.862 -0.0972 -0.7906 -0.5418
 3574SOL    HW122355   2.861   3.948   0.797 -2.4613 -0.8239  0.7848
 3574SOL    HW222356   2.907   4.092   0.816  0.8413 -2.3247 -3.1483
 3575SOL     OW22357   0.211   1.024   8.223  0.2034 -0.6015 -0.0710
 3575SOL    HW122358   0.191   1.046   8.132 -1.0779  1.6643  0.7397
 3575SOL    HW222359   0.280   0.959   8.219  1.6003  0.7388  2.1481
 3576SOL     OW22360   4.146   2.911  13.150 -0.3238  0.2324  0.1681
 3576SOL    HW122361   4.098   2.855  13.089  2.5489 -1.2739 -0.7209
 3576SOL    HW222362   4.210   2.851  13.188 -0.3817  0.6029  0.8515
 3577SOL     OW22363   2.903   0.818  15.522  0.1382  0.1368 -0.1316
 3577SOL    HW122364   2.943   0.787  15.440 -0.8938 -0.1281 -0.5351
 3577SOL    HW222365   2.918   0.744  15.580 -1.0331 -1.1038 -1.4054
 3578SOL     OW22366   4.179   2.176   2.940 -0.0614 -0.7151 -0.0166
 3578SOL    HW122367   4.092   2.140   2.930  0.1935 -1.3496  0.0609
 3578SOL    HW222368   4.230   2.104   2.903  2.1303  1.3317 -1.0392
 3579SOL     OW22369   0.222   1.725   2.764 -0.4185 -0.3713  0.0402
 3579SOL    HW122370   0.159   1.654   2.773  0.7796 -1.7042 -2.2695
 3579SOL    HW222371   0.180   1.799   2.809  0.8353  1.9927 -2.6889
 3580SOL     OW22372   4.727   1.743   3.205  0.1337 -0.0213 -0.3160
 3580SOL    HW122373   0.028   1.664   3.236 -2.7516 -1.1641  0.7126
 3580SOL    HW222374   4.656   1.701   3.156  1.1439 -1.3475 -0.6268
 3581SOL     OW22375   3.625   0.200  15.017  0.0070  0.1014 -1.3400
 3581SOL    HW122376   3.602   0.142  15.089 -1.7771  1.9458 -0.4196
 3581SOL    HW222377   3.540   0.238  14.996 -0.2465  0.4577  0.4205
 3582SOL     OW22378   2.215   1.341  11.943  0.0202 -0.3244  0.4131
 3582SOL    HW122379   2.231   1.351  12.037 -0.3511  1.0067  0.3418
 3582SOL    HW222380   2.281   1.404  11.914  1.3150 -1.1612  1.5286
 3583SOL     OW22381   0.317   0.323   9.431  0.0773 -0.2166  0.4859
 3583SOL    HW122382   0.339   0.378   9.506 -1.1240  0.0615  0.6280
 3583SOL    HW222383   0.362   0.378   9.367  2.4462 -1.6621  0.9030
 3584SOL     OW22384   1.302   3.144   2.101  0.0108 -0.8373 -0.0347
 3584SOL    HW122385   1.297   3.049   2.095 -1.8591 -0.6581 -1.1447
 3584SOL    HW222386   1.246   3.161   2.025 -0.4841  0.8028  0.6943
 3585SOL     OW22387   2.003   0.226   5.851  0.6812 -0.0268  0.3873
 3585SOL    HW122388   2.064   0.280   5.801  2.8752 -0.1498  2.9499
 3585SOL    HW222389   2.028   0.235   5.943 -0.7846 -0.1081  0.7909
 3586SOL     OW22390   0.572   1.609   4.588  0.1743 -0.0177  0.0789
 3586SOL    HW122391   0.560   1.653   4.672  2.5877 -0.5361  0.6856
 3586SOL    HW222392   0.655   1.568   4.612  1.0987 -0.0122 -3.0374
 3587SOL     OW22393   2.126   1.447   1.707  0.1020 -0.6251 -0.0927
 3587SOL    HW122394   2.211   1.411   1.731  1.0623  0.6571 -1.6124
 3587SOL    HW222395   2.087   1.450   1.795 -1.4802  1.0224 -0.8318
 3588SOL     OW22396   1.588   1.721   4.370 -0.2242  0.1183  0.1700
 3588SOL    HW122397   1.605   1.627   4.369  2.1102  0.5622 -1.2662
 3588SOL    HW222398   1.536   1.742   4.292  0.5367  0.6055 -0.2017
 3589SOL     OW22399   0.745   3.901   8.156  0.2065 -0.4858 -0.0982
 3589SOL    HW122400   0.757   3.808   8.175 -0.6641 -0.7790 -1.0332
 3589SOL    HW222401   0.830   3.945   8.150 -0.1252  0.5693  2.9345
 3590SOL     OW22402   4.266   2.114   8.907 -0.6335 -0.0295 -0.0965
 3590SOL    HW122403   4.243   2.021   8.898 -1.4505  0.2380 -0.7310
 3590SOL    HW222404   4.362   2.107   8.905 -0.7916 -1.9405 -1.0046
 3591SOL     OW22405   2.246   1.080   2.555  0.1243 -0.2027  0.0496
 3591SOL    HW122406   2.237   1.133   2.634 -0.7754 -0.9483  0.4535
 3591SOL    HW222407   2.279   1.002   2.599 -2.0458  0.5723  3.1006
 3592SOL     OW22408   3.142   3.662   7.565  0.5080 -0.4238  0.7347
 3592SOL    HW122409   3.066   3.680   7.620 -0.6453 -1.6820 -0.4429
 3592SOL    HW222410   3.153   3.567   7.567  0.6702 -0.4578 -1.1228
 3593SOL     OW22411   4.710   2.777  16.689  0.2651 -0.5065 -0.3335
 3593SOL    HW122412   4.674   2.824  16.765  0.5807  0.0731 -0.5352
 3593SOL    HW222413   4.719   2.848  16.625 -2.4566  0.0920 -0.0600
 3594SOL     OW22414   2.493   3.200   0.284 -0.0122 -0.4466 -0.0668
 3594SOL    HW122415   2.467   3.288   0.257  2.2186  0.1550 -0.2510
 3594SOL    HW222416   2.587   3.210   0.300 -0.0575 -0.7520  0.3987
 3595SOL     OW22417   3.742   4.438   8.380  0.0463  0.3422  0.5175
 3595SOL    HW122418   3.708   4.413   8.466  2.0149 -2.6254  0.4432
 3595SOL    HW222419   3.730   4.350   8.343  1.4194  0.6187 -0.5732
 3596SOL     OW22420   3.332   3.327  14.962  1.0457 -0.4631 -0.0950
 3596SOL    HW122421   3.329   3.339  14.867 -0.7610 -1.7918 -0.2032
 3596SOL    HW222422   3.316   3.417  14.992 -0.9660 -0.6905 -0.4802
 3597SOL     OW22423   4.373   2.474  12.477  0.1110 -0.0206  0.0710
 3597SOL    HW122424   4.324   2.543  12.521 -0.8712 -0.0244 -1.0154
 3597SOL    HW222425   4.312   2.401  12.491  1.0451 -0.0252  4.0921
 3598SOL     OW22426   4.555   3.994   7.218  0.1813 -0.4528  0.0074
 3598SOL    HW122427   4.620   4.029   7.278 -0.7858 -0.9131  1.3208
 3598SOL    HW222428   4.617   3.966   7.150 -1.6591 -0.4392 -1.6819
 3599SOL     OW22429   3.476   2.444   3.243  0.3902  0.5710 -0.2305
 3599SOL    HW122430   3.566   2.446   3.209  0.3373 -1.6029 -0.4786
 3599SOL    HW222431   3.484   2.491   3.326 -0.8450 -0.3410  0.4110
 3600SOL     OW22432   3.370   4.684  11.804  0.2726 -1.0452  0.4067
 3600SOL    HW122433   3.308   4.614  11.781 -0.3696 -0.1267 -0.6712
 3600SOL    HW222434   3.359   0.008  11.735 -1.9386  0.1104  1.8373
 3601SOL     OW22435   3.197   0.232   3.047 -0.0010  0.0313  0.4530
 3601SOL    HW122436   3.261   0.207   3.114 -0.2724  1.8040  1.3588
 3601SOL    HW222437   3.190   0.147   3.003 -0.5353 -0.2284  1.0372
 3602SOL     OW22438   4.295   1.332   1.913 -0.8454 -0.2993  0.2537
 3602SOL    HW122439   4.316   1.270   1.982 -1.8016 -0.9941 -0.0939
 3602SOL    HW222440   4.329   1.412   1.954 -1.5427 -0.4573  1.1283
 3603SOL     OW22441   2.142   1.096  12.701 -0.0967 -0.2182  0.2741
 3603SOL    HW122442   2.189   1.174  12.670  1.0925 -0.6319  1.0104
 3603SOL    HW222443   2.217   1.053  12.742  0.0192  0.4527  0.7688
 3604SOL     OW22444   2.958   1.302   2.667 -0.0733 -0.5743 -0.2286
 3604SOL    HW122445   2.969   1.331   2.758 -1.3013 -0.4834 -0.1007
 3604SOL    HW222446   2.879   1.248   2.668 -0.3454 -0.2155 -1.9102
 3605SOL     OW22447   2.237   3.908   7.632  0.1339 -0.5288 -0.1583
 3605SOL    HW122448   2.222   3.814   7.640  1.5968 -0.8982 -1.5532
 3605SOL    HW222449   2.157   3.946   7.668 -1.5346 -0.4247 -3.9655
 3606SOL     OW22450   0.211   0.905   4.923  0.1817 -0.1941  0.1155
 3606SOL    HW122451   0.280   0.964   4.893  0.6951 -0.7956  0.1291
 3606SOL    HW222452   0.259   0.824   4.937  1.6098  1.2859  3.8595
 3607SOL     OW22453   2.490   3.734   9.795  0.2016  0.7005  0.1350
 3607SOL    HW122454   2.513   3.717   9.704  0.3199  1.4471  0.0208
 3607SOL    HW222455   2.531   3.661   9.841  0.6020 -0.2717 -1.7651
 3608SOL     OW22456   3.973   3.534   2.826 -0.3898  0.1118 -0.1359
 3608SOL    HW122457   4.001   3.568   2.911 -1.8462  0.3076  0.2650
 3608SOL    HW222458   3.968   3.442   2.850  0.5705 -0.6788 -2.8603
 3609SOL     OW22459   1.887   2.375  16.721 -0.0706 -0.3229 -0.4591
 3609SOL    HW122460   1.957   2.312  16.733 -0.3627 -0.4507  0.5854
 3609SOL    HW222461   1.835   2.351  16.798 -0.3099  0.4411 -0.3771
 3610SOL     OW22462   3.267   3.998   7.818  0.3178  0.6482  0.3071
 3610SOL    HW122463   3.326   4.060   7.860  1.0572  1.6731 -2.2431
 3610SOL    HW222464   3.324   3.937   7.771  0.0899 -0.3675  1.3650
 3611SOL     OW22465   2.190   0.093   2.613  0.3976  0.4819  0.8690
 3611SOL    HW122466   2.234   0.037   2.678 -0.4130 -0.5002  0.5633
 3611SOL    HW222467   2.262   0.142   2.574 -0.6573  2.8642  1.8531
 3612SOL     OW22468   2.931   0.849   2.215  0.3860  0.0279  0.0074
 3612SOL    HW122469   2.904   0.933   2.252  1.4649  0.8846 -1.1289
 3612SOL    HW222470   2.972   0.884   2.136  0.4577  1.2786  0.5907
 3613SOL     OW22471   0.607   0.581  16.545 -0.0443  0.4018 -0.1166
 3613SOL    HW122472   0.675   0.550  16.485  1.3828  1.7967  0.7872
 3613SOL    HW222473   0.654   0.655  16.584 -1.3416  0.6138  1.0525
 3614SOL     OW22474   3.767   2.898   7.353  0.1451 -0.0149  0.0281
 3614SOL    HW122475   3.720   2.978   7.377  1.3403  0.2012  1.6504
 3614SOL    HW222476   3.719   2.867   7.276 -0.0288  3.5769 -1.3233
 3615SOL     OW22477   2.772   2.695  12.967 -0.2027  0.0725  0.2166
 3615SOL    HW122478   2.793   2.789  12.967  1.5013 -0.2964 -0.7451
 3615SOL    HW222479   2.720   2.700  12.886  1.1352  0.4462 -0.6202
 3616SOL     OW22480   4.533   3.300   8.952  0.2426  0.0527  0.5340
 3616SOL    HW122481   4.500   3.369   9.010  0.2714  0.1688  0.4101
 3616SOL    HW222482   4.592   3.353   8.899  0.8105 -1.3763 -0.2742
 3617SOL     OW22483   3.291   4.164   5.104 -0.4846 -0.3509  0.3066
 3617SOL    HW122484   3.222   4.168   5.169  0.8734  0.8756  1.6635
 3617SOL    HW222485   3.243   4.131   5.028  0.7359 -0.8125 -0.2693
 3618SOL     OW22486   2.353   3.289  16.913  0.4402  0.1615  0.0477
 3618SOL    HW122487   2.447   3.305  16.906 -0.1069  3.3877  0.1768
 3618SOL    HW222488   2.332   3.224  16.846 -1.0613 -0.2529  0.8978
 3619SOL     OW22489   2.473   4.464   8.623 -0.0304  0.6786  0.1821
 3619SOL    HW122490   2.561   4.504   8.623 -0.3924  1.4908  1.7134
 3619SOL    HW222491   2.420   4.537   8.655 -0.7409 -0.0113  0.5802
 3620SOL     OW22492   3.922   2.095   1.535  0.5718  0.4006 -0.1445
 3620SOL    HW122493   3.968   2.085   1.619 -2.0256 -0.9867  1.1228
 3620SOL    HW222494   3.970   2.169   1.497  0.1370  0.5442 -0.4132
 3621SOL     OW22495   3.395   0.694  11.042 -0.3916  0.4436 -0.1064
 3621SOL    HW122496   3.396   0.750  11.119 -1.6125  1.2606 -0.6839
 3621SOL    HW222497   3.345   0.744  10.977  1.1721  0.7799 -1.0528
 3622SOL     OW22498   2.523   1.322   2.726 -0.1562  0.0798  0.5007
 3622SOL    HW122499   2.598   1.263   2.719  1.4333  2.4266 -2.1849
 3622SOL    HW222500   2.538   1.356   2.814 -0.2766  0.5976  0.3233
 3623SOL     OW22501   0.359   0.171   3.659 -0.2044 -0.1403 -0.4085
 3623SOL    HW122502   0.321   0.112   3.594  1.0763 -0.7547 -0.5890
 3623SOL    HW222503   0.279   0.219   3.680 -0.5664 -0.4802 -1.0288
 3624SOL     OW22504   4.678   3.626   5.315  0.5145 -0.3821 -0.5241
 3624SOL    HW122505   4.639   3.539   5.319 -0.0313 -0.0249  1.9136
 3624SOL    HW222506   0.028   3.606   5.334  0.6465  1.4046  0.8019
 3625SOL     OW22507   2.192   3.963  15.973 -0.2340 -0.8861 -0.0333
 3625SOL    HW122508   2.143   4.034  15.931 -0.0162 -2.0152 -2.1937
 3625SOL    HW222509   2.246   3.933  15.900  0.7025  0.1006  0.2672
 3626SOL     OW22510   4.642   2.071  12.882  0.3134 -0.3307 -0.0688
 3626SOL    HW122511   4.677   2.028  12.804 -2.4399 -3.6715  0.5293
 3626SOL    HW222512   4.731   2.085  12.914  0.3514 -0.2305 -0.2201
 3627SOL     OW22513   2.809   2.383  10.847 -0.5144  0.0366  0.2618
 3627SOL    HW122514   2.762   2.380  10.764 -0.7892 -0.3978  0.4299
 3627SOL    HW222515   2.739   2.426  10.897 -0.5276 -1.3264  1.4364
 3628SOL     OW22516   4.045   4.498   3.896 -0.2095  0.2942  0.2506
 3628SOL    HW122517   4.058   4.581   3.852 -1.9960  1.2323  1.4831
 3628SOL    HW222518   4.119   4.443   3.872  1.3691  0.9309  3.6420
 3629SOL     OW22519   2.131   1.666   4.455  0.0994 -0.2498 -0.2471
 3629SOL    HW122520   2.168   1.728   4.517 -0.5449 -0.7135  0.6007
 3629SOL    HW222521   2.066   1.618   4.507 -0.4749  0.6848 -0.0955
 3630SOL     OW22522   0.209   4.479   2.708 -0.1208 -0.0296 -0.1064
 3630SOL    HW122523   0.294   4.493   2.749 -1.7544  2.3126  2.4943
 3630SOL    HW222524   0.185   4.570   2.687  2.2124  0.5411 -0.3033
 3631SOL     OW22525   0.758   1.841   5.098 -0.1458  0.0945 -0.1737
 3631SOL    HW122526   0.745   1.757   5.054  0.2575  0.2277 -0.5495
 3631SOL    HW222527   0.761   1.817   5.191 -1.6431 -0.2664 -0.2274
 3632SOL     OW22528   2.163   4.392  15.292 -0.4632 -1.0300  0.1956
 3632SOL    HW122529   2.111   4.402  15.213 -0.3270 -0.4855  0.1749
 3632SOL    HW222530   2.172   4.481  15.327 -2.0445 -0.1994 -1.5164
 3633SOL     OW22531   0.732   3.643   8.329  0.4184 -0.5143 -0.0638
 3633SOL    HW122532   0.761   3.667   8.417 -1.8175 -2.6323  1.2410
 3633SOL    HW222533   0.796   3.579   8.297 -0.9097 -1.4033 -0.9569
 3634SOL     OW22534   1.812   4.049  11.080  0.2066 -0.0769  0.1221
 3634SOL    HW122535   1.767   4.062  10.996  2.5500 -0.6635 -1.2257
 3634SOL    HW222536   1.868   4.126  11.078 -0.8972  0.6892 -1.0394
 3635SOL     OW22537   4.562   2.074  17.360  0.1332  0.4811 -0.4009
 3635SOL    HW122538   4.470   2.102  17.361  0.5972  2.0263 -0.8052
 3635SOL    HW222539   4.584   2.097  17.270 -0.9666 -1.8435 -1.2646
 3636SOL     OW22540   2.151   4.531   4.078  0.2115  0.1101  0.5529
 3636SOL    HW122541   2.185   4.447   4.107 -0.3795 -0.3104  0.0424
 3636SOL    HW222542   2.145   4.531   3.982  1.9889  0.9456  0.4394
 3637SOL     OW22543   1.558   4.210  16.715  0.2592  0.0492 -0.2071
 3637SOL    HW122544   1.491   4.215  16.646  0.2242 -1.2757 -0.2731
 3637SOL    HW222545   1.565   4.302  16.740 -1.1953 -0.2189  1.2089
 3638SOL     OW22546   4.687   2.177   7.208  0.0188  0.0753  0.2613
 3638SOL    HW122547   4.711   2.170   7.301  0.1705 -3.1961 -0.0113
 3638SOL    HW222548   0.025   2.167   7.155  0.7790  0.2389  1.3724
 3639SOL     OW22549   0.708   1.556  10.144 -0.1167  0.2330 -0.4113
 3639SOL    HW122550   0.652   1.608  10.202  1.1225  2.5741 -1.3339
 3639SOL    HW222551   0.754   1.499  10.205 -1.3168  0.8113  1.0236
 3640SOL     OW22552   0.619   4.595  10.294  0.6542  0.5935 -0.5135
 3640SOL    HW122553   0.544   4.542  10.266  1.1468 -0.3531 -0.0365
 3640SOL    HW222554   0.571   4.677  10.303 -0.5732  0.0448 -2.0088
 3641SOL     OW22555   0.840   1.710  14.680 -0.3673  0.6112 -0.6429
 3641SOL    HW122556   0.929   1.739  14.698 -0.4207 -0.1997  0.9991
 3641SOL    HW222557   0.836   1.623  14.721  2.2311  0.8079  0.0204
 3642SOL     OW22558   1.021   0.942  17.294 -0.1954  0.4653 -0.1846
 3642SOL    HW122559   0.986   1.019  17.339  0.1285  1.1305 -1.0604
 3642SOL    HW222560   0.994   0.876  17.357  2.1741  1.5019  1.9282
 3643SOL     OW22561   0.198   1.475  17.319  0.1264 -0.5234 -0.2220
 3643SOL    HW122562   0.154   1.542  17.372 -2.4238 -1.4778 -1.0974
 3643SOL    HW222563   0.128   1.448  17.259 -1.8825  0.4650  1.6472
 3644SOL     OW22564   4.654   1.626   5.152  0.0785  0.1014 -0.4321
 3644SOL    HW122565   4.594   1.692   5.186 -0.1793  0.2790 -1.2197
 3644SOL    HW222566   4.707   1.679   5.093 -0.6384 -0.5299 -1.6576
 3645SOL     OW22567   3.917   2.497  16.348  0.1609 -0.0036 -0.5453
 3645SOL    HW122568   3.969   2.457  16.278  1.6916  0.3763  0.3619
 3645SOL    HW222569   3.891   2.580  16.308  0.2206  0.5689  0.6009
 3646SOL     OW22570   1.686   0.999  15.410  0.2905  0.3919 -0.3908
 3646SOL    HW122571   1.777   0.983  15.385  0.4301 -2.4990  1.9305
 3646SOL    HW222572   1.682   0.967  15.500  2.2398  0.2708 -0.3556
 3647SOL     OW22573   2.282   1.168   1.478 -0.1047 -0.0781 -0.2996
 3647SOL    HW122574   2.235   1.153   1.559  1.4698 -1.7864  0.3075
 3647SOL    HW222575   2.262   1.085   1.433  0.2286 -0.3533  0.0560
 3648SOL     OW22576   3.554   1.199  12.527 -0.0302 -0.3176 -0.0959
 3648SOL    HW122577   3.570   1.106  12.508  0.9565 -0.3073  0.6910
 3648SOL    HW222578   3.567   1.197  12.621  0.2747  0.3342 -0.1243
 3649SOL     OW22579   0.663   4.216   3.746  0.4682 -0.2564  0.2103
 3649SOL    HW122580   0.745   4.255   3.776  0.1838 -0.9228  1.8663
 3649SOL    HW222581   0.599   4.252   3.807  0.6019 -0.9227  0.7509
 3650SOL     OW22582   2.849   3.196  11.476 -0.7087  0.2805 -0.2532
 3650SOL    HW122583   2.836   3.252  11.552 -0.3987  0.8464 -0.6202
 3650SOL    HW222584   2.911   3.246  11.422  0.2638 -1.5606 -0.8550
 3651SOL     OW22585   4.264   3.614   3.441  0.9707  0.0424  0.5513
 3651SOL    HW122586   4.196   3.548   3.453  0.1981  0.5199 -1.3019
 3651SOL    HW222587   4.218   3.695   3.419  1.8125 -0.0765 -1.5772
 3652SOL     OW22588   1.174   2.823   2.512  0.6631  0.1580 -0.4933
 3652SOL    HW122589   1.111   2.807   2.582 -1.3782  3.3099 -1.5904
 3652SOL    HW222590   1.215   2.738   2.496  2.8154  0.6803  2.3509
 3653SOL     OW22591   0.147   3.440   3.357  0.2185 -0.0267 -0.5066
 3653SOL    HW122592   0.216   3.393   3.309 -1.3216 -1.1682 -1.6177
 3653SOL    HW222593   0.193   3.509   3.405 -1.2639  0.9733 -0.5160
 3654SOL     OW22594   0.638   3.672   1.834  0.5565  0.5534  0.1300
 3654SOL    HW122595   0.642   3.635   1.922 -2.5667 -2.9954 -1.2000
 3654SOL    HW222596   0.548   3.701   1.819  0.8624  0.2945 -2.2668
 3655SOL     OW22597   0.798   2.777   3.590  0.1141  0.0196 -0.1549
 3655SOL    HW122598   0.887   2.753   3.565 -0.5228  0.1778 -2.5241
 3655SOL    HW222599   0.782   2.711   3.657  1.3937  0.6780  0.7850
 3656SOL     OW22600   1.156   1.702   3.439 -0.3165  0.9251  0.1735
 3656SOL    HW122601   1.103   1.625   3.418  1.5633 -1.2647  3.6464
 3656SOL    HW222602   1.227   1.686   3.376 -1.6180 -2.5058 -0.4304
 3657SOL     OW22603   4.126   3.935   9.706  0.1683 -0.4895  0.0963
 3657SOL    HW122604   4.185   4.009   9.694 -0.5883  0.3220  1.4194
 3657SOL    HW222605   4.048   3.988   9.722  0.7129  0.1674  0.5548
 3658SOL     OW22606   2.992   4.488  16.226 -0.5031  0.9168 -0.2195
 3658SOL    HW122607   3.005   4.494  16.320 -2.6707  0.1039  0.1418
 3658SOL    HW222608   3.084   4.480  16.202 -0.5313 -2.2785  0.7023
 3659SOL     OW22609   0.344   1.707  12.822 -0.4256 -0.8586  0.2468
 3659SOL    HW122610   0.404   1.642  12.785 -0.2457 -0.3916 -0.2769
 3659SOL    HW222611   0.366   1.717  12.915  1.4243 -1.2722 -0.1307
 3660SOL     OW22612   4.354   3.041   0.443 -0.1570 -0.3454  1.0276
 3660SOL    HW122613   4.333   2.970   0.383  0.5285  0.4825 -0.1795
 3660SOL    HW222614   4.390   2.994   0.519  1.6563  0.9318  0.9561
 3661SOL     OW22615   3.762   4.608   7.077 -0.2124  0.4911  0.3121
 3661SOL    HW122616   3.783   4.541   7.012 -1.6023 -1.5078  1.9356
 3661SOL    HW222617   3.697   4.657   7.027 -0.2530  1.4170  1.2558
 3662SOL     OW22618   2.968   2.615  11.410  0.2951 -0.5134 -0.1137
 3662SOL    HW122619   2.982   2.678  11.481  0.6903  1.8087 -2.2177
 3662SOL    HW222620   3.019   2.537  11.429  1.2718 -0.1179 -1.0714
 3663SOL     OW22621   0.731   0.351   8.400 -0.2170  0.2847  0.1497
 3663SOL    HW122622   0.801   0.415   8.404  1.4327 -1.5385  0.5123
 3663SOL    HW222623   0.719   0.326   8.492  0.4661 -0.4999  0.0254
 3664SOL     OW22624   2.764   0.299   0.792 -0.2825  0.1783  0.1939
 3664SOL    HW122625   2.808   0.306   0.707  1.6960 -0.5889  1.1438
 3664SOL    HW222626   2.688   0.353   0.772  0.4895  0.9604 -0.6161
 3665SOL     OW22627   3.426   2.636   4.910  0.0584 -0.6116 -0.2593
 3665SOL    HW122628   3.393   2.547   4.925 -1.8298  0.1990  0.3427
 3665SOL    HW222629   3.363   2.673   4.849  1.6010 -1.0636 -2.1269
 3666SOL     OW22630   2.263   2.141   1.259 -0.7061  0.3028 -0.8256
 3666SOL    HW122631   2.169   2.147   1.276 -1.2161 -2.1277 -2.8448
 3666SOL    HW222632   2.293   2.223   1.298 -0.6691 -0.0496 -0.1175
 3667SOL     OW22633   4.566   2.534  12.788  0.0149  0.6163  0.3573
 3667SOL    HW122634   4.588   2.444  12.765  0.2468  0.3156  1.7791
 3667SOL    HW222635   4.651   2.579  12.794  2.0007 -3.4732  2.7433
 3668SOL     OW22636   1.781   3.881   0.036  0.2779 -0.4945 -0.0397
 3668SOL    HW122637   1.739   3.834  17.728 -1.6003 -0.8880  1.3366
 3668SOL    HW222638   1.849   3.816   0.058  2.0090  0.9606 -1.0645
 3669SOL     OW22639   4.013   0.286   1.125  0.0021  0.1045  0.6094
 3669SOL    HW122640   4.077   0.317   1.061 -0.1093 -1.3601 -0.2336
 3669SOL    HW222641   3.939   0.254   1.073  1.0620 -2.1443  0.4719
 3670SOL     OW22642   1.021   4.728  13.488 -0.0801 -0.0062  0.2181
 3670SOL    HW122643   0.959   0.055  13.465 -1.0381 -0.4057  1.5719
 3670SOL    HW222644   1.096   0.008  13.434 -0.1050 -1.0841 -0.2570
 3671SOL     OW22645   1.787   1.167   9.535  0.5740  0.3629 -0.2699
 3671SOL    HW122646   1.848   1.105   9.495 -1.5098 -0.6348 -1.8639
 3671SOL    HW222647   1.709   1.128   9.497  0.3713  0.6275 -0.1270
 3672SOL     OW22648   3.573   0.460  10.736 -0.3622  0.7688  0.5889
 3672SOL    HW122649   3.543   0.442  10.825  0.3104  1.8822  1.0456
 3672SOL    HW222650   3.550   0.382  10.686  0.8361  0.4861  0.4823
 3673SOL     OW22651   1.272   0.678   0.543  0.5927 -0.6425 -0.1339
 3673SOL    HW122652   1.352   0.627   0.555  1.3453  0.4244 -0.6028
 3673SOL    HW222653   1.295   0.758   0.590 -1.1609  0.4289 -1.1235
 3674SOL     OW22654   0.176   3.522   0.989 -0.0139 -0.1606  0.0242
 3674SOL    HW122655   0.082   3.519   1.005  0.3831 -0.5115  2.2916
 3674SOL    HW222656   0.198   3.604   1.031  0.6259 -0.2947 -0.0451
 3675SOL     OW22657   4.431   4.521   5.571  0.1929 -0.3506  0.2347
 3675SOL    HW122658   4.451   4.611   5.545  1.0910 -0.6824 -0.2344
 3675SOL    HW222659   4.517   4.489   5.600  1.3956  1.1772 -1.6629
 3676SOL     OW22660   4.458   4.657   3.166 -0.2181 -0.6038 -0.0231
 3676SOL    HW122661   4.444   4.734   3.111 -1.0643  0.9599  2.3492
 3676SOL    HW222662   4.367   4.632   3.186 -0.0462 -2.5338 -1.6759
 3677SOL     OW22663   0.388   0.674  13.907  0.0089  0.7076  0.4230
 3677SOL    HW122664   0.482   0.673  13.891  0.0026 -1.0344  0.4608
 3677SOL    HW222665   0.365   0.763  13.883 -1.9397 -0.2536 -1.2749
 3678SOL     OW22666   1.083   0.616   9.443 -0.0564 -0.2317 -0.1628
 3678SOL    HW122667   1.093   0.523   9.424 -0.4671 -0.1452 -0.7806
 3678SOL    HW222668   1.061   0.632   9.535  0.4433 -1.2787  0.1342
 3679SOL     OW22669   3.289   1.397   1.585 -0.4139  0.3495  0.3737
 3679SOL    HW122670   3.351   1.428   1.651  0.1223 -1.0687  0.5526
 3679SOL    HW222671   3.270   1.312   1.625  3.5150 -1.9378 -2.6774
 3680SOL     OW22672   0.069   0.953   6.890 -0.7385 -0.4912 -0.2016
 3680SOL    HW122673   0.081   0.892   6.962  2.3768 -1.3173 -1.4326
 3680SOL    HW222674   4.717   0.971   6.880 -0.6373  0.6942  0.9390
 3681SOL     OW22675   0.123   1.750  17.402 -0.2835 -0.1832  0.0083
 3681SOL    HW122676   0.174   1.827  17.377  0.8921 -0.8787  0.2670
 3681SOL    HW222677   0.037   1.769  17.365 -0.4832 -0.5415  0.2900
 3682SOL     OW22678   3.121   2.578  16.827  1.0259  0.4428  0.5184
 3682SOL    HW122679   3.045   2.608  16.776  2.5009 -0.5186 -2.2439
 3682SOL    HW222680   3.112   2.610  16.917 -0.0109 -3.0119  1.6266
 3683SOL     OW22681   1.096   4.620   4.356  0.2193 -0.2689 -0.4636
 3683SOL    HW122682   1.180   4.616   4.312  0.8598  0.4308  0.7037
 3683SOL    HW222683   1.069   4.709   4.332 -1.4837 -0.4495  0.7652
 3684SOL     OW22684   2.153   2.773   7.199 -0.0537  0.1219  0.1464
 3684SOL    HW122685   2.173   2.709   7.131 -0.9152 -0.8900  0.8222
 3684SOL    HW222686   2.203   2.851   7.175 -0.5383  0.5924  0.6632
 3685SOL     OW22687   0.560   1.277  15.754  0.2207 -0.5490 -0.0628
 3685SOL    HW122688   0.618   1.349  15.779  1.8006 -2.5103  1.9876
 3685SOL    HW222689   0.574   1.216  15.826 -0.5646 -0.6168  0.0327
 3686SOL     OW22690   1.115   0.998   7.809  0.5652  0.5697 -0.1041
 3686SOL    HW122691   1.135   1.003   7.903 -0.4518  1.1696  0.0798
 3686SOL    HW222692   1.149   0.912   7.786  0.0384 -0.0819  1.5614
 3687SOL     OW22693   1.148   0.177   1.672  0.0062  0.0390  0.7864
 3687SOL    HW122694   1.221   0.116   1.675 -0.9279 -1.0714  0.9477
 3687SOL    HW222695   1.185   0.251   1.624 -1.3712  1.4354  1.8822
 3688SOL     OW22696   2.659   3.503   1.961 -0.1682 -0.3205  0.2201
 3688SOL    HW122697   2.604   3.564   1.911 -0.4777 -0.5688  0.2583
 3688SOL    HW222698   2.619   3.510   2.048 -3.1763 -0.5231 -1.1316
 3689SOL     OW22699   1.405   0.551   6.922 -0.1099 -0.0695 -0.1742
 3689SOL    HW122700   1.485   0.543   6.973 -0.7596 -1.3558  0.6262
 3689SOL    HW222701   1.389   0.646   6.924 -2.5618 -0.4952 -0.0424
 3690SOL     OW22702   2.544   3.741   6.490 -0.1272  0.3821 -0.0229
 3690SOL    HW122703   2.487   3.695   6.551  0.8191 -0.5178  0.1825
 3690SOL    HW222704   2.615   3.677   6.489  0.0679  0.5910  1.0197
 3691SOL     OW22705   4.337   1.620   2.802  0.6060 -0.0844 -0.2826
 3691SOL    HW122706   4.323   1.570   2.721  0.4734  1.5418 -1.2670
 3691SOL    HW222707   4.297   1.556   2.861  0.1908 -0.2681 -0.7634
 3692SOL     OW22708   1.325   0.741   7.223  0.4005 -0.5818  0.0021
 3692SOL    HW122709   1.413   0.750   7.187 -0.4377  0.1672 -1.8611
 3692SOL    HW222710   1.285   0.793   7.153  1.0624  1.1713  0.9389
 3693SOL     OW22711   2.731   4.491   5.545  0.3130 -0.6983 -0.1119
 3693SOL    HW122712   2.785   4.570   5.537 -0.4390 -0.0969  0.6771
 3693SOL    HW222713   2.770   4.445   5.620 -1.3426  0.5658  1.5352
 3694SOL     OW22714   1.235   3.077   3.571 -0.4711 -0.6597 -0.4350
 3694SOL    HW122715   1.321   3.076   3.529 -0.1623 -0.2427  0.1786
 3694SOL    HW222716   1.189   3.013   3.518 -2.0284 -0.8353  1.1458
 3695SOL     OW22717   2.928   0.307   8.997 -0.7166 -0.1642  0.2009
 3695SOL    HW122718   2.921   0.327   8.904 -1.7499 -2.3585 -0.1880
 3695SOL    HW222719   2.840   0.319   9.032 -0.3025  3.6859  0.0052
 3696SOL     OW22720   1.684   2.485   3.059 -0.4513 -0.0562 -0.1106
 3696SOL    HW122721   1.733   2.560   3.091  0.5923 -1.0539  0.6486
 3696SOL    HW222722   1.750   2.441   3.006  2.4488  2.5850  1.3257
 3697SOL     OW22723   0.464   3.794   7.140 -0.1857  0.0335 -0.2301
 3697SOL    HW122724   0.550   3.772   7.175 -0.0703  1.7971  0.5845
 3697SOL    HW222725   0.418   3.710   7.146  0.3371 -0.1057  1.6737
 3698SOL     OW22726   1.454   2.868   2.407  0.0744  0.0887  0.3392
 3698SOL    HW122727   1.441   2.860   2.312 -1.0854 -3.4025  0.8132
 3698SOL    HW222728   1.383   2.815   2.442  1.1915 -1.5089  0.1751
 3699SOL     OW22729   4.142   2.812   3.834  0.1707  0.2942  0.0557
 3699SOL    HW122730   4.074   2.879   3.823  1.3961  1.3961 -0.8072
 3699SOL    HW222731   4.094   2.752   3.891 -1.1465 -1.1126 -2.5297
 3700SOL     OW22732   1.079   0.266   8.240  0.1391  0.2292  0.0760
 3700SOL    HW122733   1.093   0.175   8.269 -1.5972  0.1427  0.6685
 3700SOL    HW222734   1.158   0.280   8.188  2.1419 -3.8372  1.9899
 3701SOL     OW22735   0.608   3.777   3.546  0.3903  0.1789 -0.4206
 3701SOL    HW122736   0.655   3.717   3.488  0.3135  0.2325 -0.5408
 3701SOL    HW222737   0.561   3.828   3.479  0.2661 -0.8850 -1.1378
 3702SOL     OW22738   0.982   4.310  12.370  0.0537 -0.6588  0.0845
 3702SOL    HW122739   0.971   4.263  12.288 -0.9528 -0.6302  0.2099
 3702SOL    HW222740   1.034   4.255  12.429  3.2753  0.3405 -1.7903
 3703SOL     OW22741   4.218   0.548   7.107 -0.2562  0.3742 -0.2001
 3703SOL    HW122742   4.204   0.629   7.058 -2.2784  0.7084  0.9224
 3703SOL    HW222743   4.250   0.504   7.029 -1.1035  0.1626 -0.4335
 3704SOL     OW22744   4.002   2.026   1.794 -0.5639  0.2811 -0.2150
 3704SOL    HW122745   3.922   1.999   1.840 -1.0822  0.5998 -0.9122
 3704SOL    HW222746   4.046   2.081   1.858  0.1910  1.7166 -1.9607
 3705SOL     OW22747   4.616   1.888  16.934  0.1514  0.3038  0.4197
 3705SOL    HW122748   4.560   1.814  16.911 -1.8361  2.5879 -2.1221
 3705SOL    HW222749   4.690   1.842  16.974 -0.6111  0.0492  1.5306
 3706SOL     OW22750   4.202   0.997   9.413  0.1363  0.5585  0.0254
 3706SOL    HW122751   4.226   0.956   9.497 -0.5763  0.5811  0.2389
 3706SOL    HW222752   4.267   1.066   9.405 -1.7651  2.6213  2.3938
 3707SOL     OW22753   3.734   3.916   6.992  0.2665 -0.2248 -0.5267
 3707SOL    HW122754   3.659   3.968   7.021  2.2901  2.3433  0.1185
 3707SOL    HW222755   3.714   3.846   7.055  1.1969 -0.5656 -0.6086
 3708SOL     OW22756   1.705   2.059   6.182  0.3464 -0.7709  0.1400
 3708SOL    HW122757   1.706   1.992   6.114  0.3547 -0.3173 -0.3045
 3708SOL    HW222758   1.689   2.004   6.259  1.2414  0.1215  0.9662
 3709SOL     OW22759   1.075   1.233   7.682  0.0278  0.1609  0.0865
 3709SOL    HW122760   1.158   1.273   7.705 -0.6495  1.1794  0.7530
 3709SOL    HW222761   1.080   1.156   7.739 -0.0947 -0.1194 -0.2760
 3710SOL     OW22762   3.033   1.405  10.446 -0.6227  0.4263  0.5612
 3710SOL    HW122763   3.060   1.396  10.355  0.1111 -1.6276  0.9694
 3710SOL    HW222764   2.964   1.471  10.441 -0.6190  0.6065  2.8761
 3711SOL     OW22765   0.296   3.294   8.031  0.1563 -0.4432  0.0803
 3711SOL    HW122766   0.336   3.225   8.084 -0.3848 -0.8704 -0.0672
 3711SOL    HW222767   0.323   3.374   8.076 -2.4653  0.1767  0.5621
 3712SOL     OW22768   1.259   2.907  13.616 -0.0617  0.1094 -0.4763
 3712SOL    HW122769   1.316   2.833  13.634  0.9378  1.2392  0.9829
 3712SOL    HW222770   1.189   2.866  13.565  0.8506 -0.8056 -0.9768
 3713SOL     OW22771   1.508   3.513   0.981 -0.0669 -0.3723  0.3784
 3713SOL    HW122772   1.532   3.590   1.033 -1.8874  0.3232  0.2007
 3713SOL    HW222773   1.515   3.441   1.044  0.7017  0.1024  0.8357
 3714SOL     OW22774   2.765   0.361   6.754 -0.1026 -0.0391 -0.0340
 3714SOL    HW122775   2.700   0.415   6.799 -2.8909 -2.4417 -1.1677
 3714SOL    HW222776   2.709   0.310   6.695 -0.6922  0.0155  0.4853
 3715SOL     OW22777   1.291   2.838   4.452  0.7393 -0.5591 -0.2614
 3715SOL    HW122778   1.364   2.879   4.406  0.1593  0.7405 -0.0072
 3715SOL    HW222779   1.219   2.899   4.437  1.2174  0.1636  0.3897
 3716SOL     OW22780   0.084   1.936   6.915  0.5591 -0.1285  0.1573
 3716SOL    HW122781   0.110   1.946   6.823  1.1340  0.0366  0.3415
 3716SOL    HW222782   0.086   2.028   6.940  2.5516 -0.5577  1.5567
 3717SOL     OW22783   0.784   0.033   7.302  0.0458 -0.5831  0.3016
 3717SOL    HW122784   0.795   0.047   7.396 -0.0148  1.7874 -0.0483
 3717SOL    HW222785   0.798   0.120   7.265 -3.2720 -0.6604 -1.1440
 3718SOL     OW22786   2.427   1.993   9.656 -0.1759 -0.6655 -0.3696
 3718SOL    HW122787   2.338   1.986   9.691 -0.1949 -1.2964 -0.5482
 3718SOL    HW222788   2.424   1.938   9.578  2.9732  0.5981 -1.3706
 3719SOL     OW22789   2.349   4.304   0.016  0.6170  0.3933 -0.1578
 3719SOL    HW122790   2.266   4.263  17.754  0.7421  1.3795 -2.1438
 3719SOL    HW222791   2.400   4.279  17.702 -1.3076 -2.4086 -0.5217
 3720SOL     OW22792   0.500   0.059   7.698 -0.0625 -0.1740  0.1648
 3720SOL    HW122793   0.429   4.739   7.716 -0.6152  0.3666 -0.1696
 3720SOL    HW222794   0.525   0.022   7.613  2.1600  0.1483  0.6728
 3721SOL     OW22795   4.157   1.522  16.897 -0.0952 -0.0481 -0.5708
 3721SOL    HW122796   4.095   1.541  16.967 -0.7542 -2.5138 -0.4916
 3721SOL    HW222797   4.231   1.497  16.953  0.1800  1.2190 -0.3583
 3722SOL     OW22798   0.804   3.529  11.894 -0.0838  0.2776  0.1632
 3722SOL    HW122799   0.862   3.453  11.881 -1.0094 -0.3864 -0.0649
 3722SOL    HW222800   0.817   3.558  11.984 -1.4665 -0.9592  0.7580
 3723SOL     OW22801   2.236   2.295  11.659  0.4431 -0.0868  0.1039
 3723SOL    HW122802   2.244   2.216  11.605  0.3378  1.1898 -1.8021
 3723SOL    HW222803   2.261   2.350  11.584 -0.0254 -0.0602 -0.0350
 3724SOL     OW22804   1.931   0.655   3.869 -0.2349  0.2856 -0.0791
 3724SOL    HW122805   1.915   0.749   3.871 -1.1669  0.1310 -0.5467
 3724SOL    HW222806   1.983   0.650   3.949 -4.1594 -1.0728  2.3285
 3725SOL     OW22807   2.804   3.254   4.867  0.3596 -0.1548 -0.0007
 3725SOL    HW122808   2.788   3.270   4.774  0.3622 -2.2968 -0.3667
 3725SOL    HW222809   2.781   3.336   4.912 -1.0638 -0.2968 -0.4771
 3726SOL     OW22810   3.279   4.474   7.367  0.2697 -0.0885  0.1772
 3726SOL    HW122811   3.344   4.489   7.299  1.4621 -0.0192  1.3481
 3726SOL    HW222812   3.331   4.423   7.429 -1.5445 -1.3143  0.7100
 3727SOL     OW22813   1.194   4.117   2.834  0.8338  0.6128 -0.6043
 3727SOL    HW122814   1.108   4.130   2.795  0.6840  0.7297 -0.2385
 3727SOL    HW222815   1.181   4.056   2.907 -0.1285  0.7774 -0.6345
 3728SOL     OW22816   4.671   4.053   2.098  0.7629 -0.3445 -0.0484
 3728SOL    HW122817   4.594   4.102   2.129  1.8745 -0.7671  3.4582
 3728SOL    HW222818   4.739   4.072   2.164 -2.3459  1.6535  2.5621
 3729SOL     OW22819   1.557   1.700   7.056  0.3249  0.1445 -0.5619
 3729SOL    HW122820   1.539   1.732   7.144  2.2957  0.0376 -0.1261
 3729SOL    HW222821   1.508   1.618   7.048 -0.1279  0.3504  0.1592
 3730SOL     OW22822   3.107   3.125   2.929 -0.1201 -0.4702  0.1005
 3730SOL    HW122823   3.175   3.185   2.899  0.5852 -1.6927 -0.7167
 3730SOL    HW222824   3.162   3.078   2.991  0.3932  0.2098  0.1613
 3731SOL     OW22825   0.963   2.170   6.115  0.3824 -0.1175 -0.7988
 3731SOL    HW122826   1.033   2.234   6.127 -1.0620  1.0499  1.4127
 3731SOL    HW222827   0.921   2.188   6.031  1.9294  1.9917 -1.1111
 3732SOL     OW22828   3.434   0.255   8.002  0.3955  0.2285  0.1850
 3732SOL    HW122829   3.523   0.290   8.012 -0.0617  1.9581 -2.0459
 3732SOL    HW222830   3.429   0.200   8.081 -0.0637 -1.2080 -0.8376
 3733SOL     OW22831   1.610   1.039   9.014  0.0788 -0.1301  0.3014
 3733SOL    HW122832   1.561   0.961   9.042 -0.1716  0.1166  0.5437
 3733SOL    HW222833   1.690   1.002   8.976  0.0608 -0.6176  0.7302
 3734SOL     OW22834   2.584   0.058   7.273  0.0514  0.0411 -0.1589
 3734SOL    HW122835   2.584   0.018   7.187 -0.7160 -0.0617 -0.1130
 3734SOL    HW222836   2.673   0.093   7.271 -0.5758  1.5805 -1.1383
 3735SOL     OW22837   2.975   3.636   4.785 -0.2012 -0.1543  0.6224
 3735SOL    HW122838   2.937   3.592   4.708  1.3941  0.6611 -0.6259
 3735SOL    HW222839   2.894   3.672   4.820  0.9609  0.7991  2.3241
 3736SOL     OW22840   4.490   0.552  17.233 -0.2166 -0.1271  0.8947
 3736SOL    HW122841   4.452   0.561  17.145 -0.0489 -1.0584  0.7280
 3736SOL    HW222842   4.415   0.511  17.277  0.3115 -0.7208  1.2383
 3737SOL     OW22843   2.476   4.549   9.102  0.3229  0.7184  0.6998
 3737SOL    HW122844   2.453   4.634   9.063 -0.2042 -1.1012 -2.9056
 3737SOL    HW222845   2.505   4.569   9.191 -0.2171  0.8800  0.8357
 3738SOL     OW22846   2.924   2.211   3.118 -0.3111 -0.3290 -0.0694
 3738SOL    HW122847   2.851   2.248   3.068 -0.9356 -1.5729 -0.0855
 3738SOL    HW222848   2.948   2.143   3.055  3.3919 -0.0568  1.0769
 3739SOL     OW22849   0.059   2.656   6.745  0.1180 -0.2959  0.0655
 3739SOL    HW122850   0.115   2.641   6.821 -0.9481 -1.1042  0.6974
 3739SOL    HW222851   0.114   2.727   6.716  1.5607 -0.0750  3.3244
 3740SOL     OW22852   2.466   1.356   1.428  0.0588 -0.1816 -0.0275
 3740SOL    HW122853   2.408   1.283   1.449  0.8352 -0.9218 -0.4787
 3740SOL    HW222854   2.453   1.424   1.494  0.7808  0.6264 -0.7125
 3741SOL     OW22855   2.889   0.566  14.570  0.0783 -0.0187  0.1318
 3741SOL    HW122856   2.930   0.569  14.656  2.6371  2.0460 -1.1814
 3741SOL    HW222857   2.803   0.607  14.578  0.2188  0.5479 -1.1933
 3742SOL     OW22858   1.495   3.754   2.802  0.5263 -0.0359 -0.7667
 3742SOL    HW122859   1.409   3.793   2.817  0.5611 -0.1971 -0.1511
 3742SOL    HW222860   1.537   3.826   2.754  0.8814  0.4364  0.2475
 3743SOL     OW22861   2.092   3.498   8.621 -0.2166  0.1160 -0.1224
 3743SOL    HW122862   2.128   3.416   8.655 -1.5640 -1.1130 -1.6951
 3743SOL    HW222863   2.076   3.544   8.703 -2.7804 -0.5453 -0.2629
 3744SOL     OW22864   2.043   0.719  10.876 -0.0536  0.6122 -0.5939
 3744SOL    HW122865   2.128   0.751  10.906  0.8546 -1.9080 -0.4882
 3744SOL    HW222866   2.060   0.628  10.851  1.8559  1.1637 -1.2461
 3745SOL     OW22867   2.405   2.154   0.603 -0.1678 -0.9109 -0.2592
 3745SOL    HW122868   2.482   2.144   0.659  0.8171  1.2197 -1.2230
 3745SOL    HW222869   2.352   2.216   0.651  0.6659 -0.7822  0.5023
 3746SOL     OW22870   3.667   3.525  11.950  0.2330  0.0098  0.5879
 3746SOL    HW122871   3.743   3.492  11.998  0.9804  2.5712  1.1973
 3746SOL    HW222872   3.681   3.481  11.866 -0.1808  3.5473 -1.3743
 3747SOL     OW22873   2.281   3.812   1.435  0.0325 -0.0822  0.1338
 3747SOL    HW122874   2.332   3.829   1.356 -1.4415  3.2334 -0.0913
 3747SOL    HW222875   2.295   3.717   1.439 -2.5718 -0.4212  1.3329
 3748SOL     OW22876   4.010   0.586  14.684 -0.3522 -0.3075  0.6123
 3748SOL    HW122877   4.010   0.603  14.590  0.0865  0.4717  0.7506
 3748SOL    HW222878   4.055   0.663  14.717 -1.5804  0.8050 -0.3055
 3749SOL     OW22879   1.535   2.416   8.365 -0.1060  1.1332  0.7020
 3749SOL    HW122880   1.473   2.364   8.417  0.3266  0.3970  0.4685
 3749SOL    HW222881   1.623   2.408   8.402  1.1324 -0.2596 -2.5618
 3750SOL     OW22882   0.611   0.077   7.079  0.1670  0.7525 -0.3588
 3750SOL    HW122883   0.671   0.039   7.142 -0.8047 -2.5874 -1.4422
 3750SOL    HW222884   0.606   0.007   7.014  2.3711  1.3076 -1.1099
 3751SOL     OW22885   0.291   1.484   7.536  0.6227 -0.2610  0.0388
 3751SOL    HW122886   0.230   1.557   7.527  2.3582  1.1112 -0.4861
 3751SOL    HW222887   0.329   1.500   7.622 -0.2191  1.1590  0.1473
 3752SOL     OW22888   3.398   1.948   8.159  0.2134  0.1120 -0.1148
 3752SOL    HW122889   3.333   1.924   8.093  0.5213  2.7761 -1.4065
 3752SOL    HW222890   3.338   1.982   8.226  0.0699  0.9501 -0.6654
 3753SOL     OW22891   4.360   1.747   5.762  0.1525 -0.3052 -0.0202
 3753SOL    HW122892   4.269   1.743   5.794  0.3649 -0.3874  0.5769
 3753SOL    HW222893   4.371   1.664   5.716  1.4324 -0.2978  0.2948
 3754SOL     OW22894   0.588   3.003   7.415 -0.0991  0.3219 -0.6549
 3754SOL    HW122895   0.504   2.981   7.373  0.5909 -1.3332 -1.1544
 3754SOL    HW222896   0.650   2.961   7.356 -1.1064 -4.5423  1.7411
 3755SOL     OW22897   4.089   1.369   1.704 -0.0962  0.0281  0.2161
 3755SOL    HW122898   4.035   1.315   1.762  2.0008 -2.5644 -0.2577
 3755SOL    HW222899   4.167   1.370   1.760 -0.7097 -2.6705  1.1293
 3756SOL     OW22900   4.511   1.812   8.615 -0.5561 -0.2531 -0.1183
 3756SOL    HW122901   4.539   1.855   8.696  2.8498 -1.8896 -0.4060
 3756SOL    HW222902   4.427   1.782   8.649  0.5154 -1.2054  1.6885
 3757SOL     OW22903   4.578   3.884   2.726  0.2333  0.1029 -0.6594
 3757SOL    HW122904   4.491   3.921   2.739  0.4780 -0.6162  3.0366
 3757SOL    HW222905   4.553   3.792   2.723  0.4461  0.0581 -1.0074
 3758SOL     OW22906   3.559   0.041   6.977 -0.1770 -0.5486 -0.1780
 3758SOL    HW122907   3.537   0.037   6.883  0.7491 -1.1882 -0.3683
 3758SOL    HW222908   3.513   0.121   7.002 -1.3218 -0.9392 -1.0275
 3759SOL     OW22909   0.257   3.529   6.301 -0.3559 -0.8390 -0.4507
 3759SOL    HW122910   0.321   3.473   6.344  0.8856 -0.5895 -1.9692
 3759SOL    HW222911   0.300   3.614   6.288 -0.5624 -0.9921 -2.1873
 3760SOL     OW22912   0.406   3.587   8.482  0.3415 -0.1515 -1.0803
 3760SOL    HW122913   0.436   3.666   8.526 -1.1441 -1.6487  2.5796
 3760SOL    HW222914   0.314   3.598   8.460 -0.0685 -1.5492 -0.0761
 3761SOL     OW22915   4.459   1.288   4.210  0.1351  0.2733  0.2050
 3761SOL    HW122916   4.366   1.308   4.218 -0.6574 -3.3350 -0.0959
 3761SOL    HW222917   4.455   1.193   4.197 -1.4399  0.4060 -0.1729
 3762SOL     OW22918   2.228   0.671   5.908  0.4153  0.2436  0.3367
 3762SOL    HW122919   2.167   0.726   5.861 -0.1890 -0.1958  0.6010
 3762SOL    HW222920   2.270   0.630   5.833  0.7945  1.2290  0.0180
 3763SOL     OW22921   1.921   3.429   8.429  0.5175 -0.0810  0.4973
 3763SOL    HW122922   1.957   3.341   8.436  1.0087  0.1721  1.2027
 3763SOL    HW222923   1.986   3.475   8.482  2.1481  0.4445 -1.9857
 3764SOL     OW22924   3.877   0.091   3.919  0.4400  0.2000 -0.1644
 3764SOL    HW122925   3.909   0.058   4.003 -0.7719  0.8686  0.5567
 3764SOL    HW222926   3.948   0.070   3.858  1.0902  0.6095  0.4504
 3765SOL     OW22927   4.580   2.724   7.344  0.1616 -0.3509 -0.0369
 3765SOL    HW122928   4.562   2.646   7.396 -1.2195  1.7595  2.5980
 3765SOL    HW222929   4.535   2.789   7.397  0.6091  1.0420 -1.3380
 3766SOL     OW22930   2.410   3.446   0.845  0.7562  0.2032  0.3935
 3766SOL    HW122931   2.459   3.399   0.778 -2.1831 -2.0304 -0.1987
 3766SOL    HW222932   2.317   3.441   0.821  0.6112 -0.0623  0.9839
 3767SOL     OW22933   3.356   0.694  10.492  0.4384 -0.2587  0.4003
 3767SOL    HW122934   3.316   0.766  10.539 -2.7521 -1.2536 -0.8273
 3767SOL    HW222935   3.297   0.620  10.505 -0.2780  0.2334 -0.0664
 3768SOL     OW22936   0.746   4.242   8.546  0.4867  0.0658 -0.5823
 3768SOL    HW122937   0.703   4.328   8.550  1.9829  0.7597  0.8117
 3768SOL    HW222938   0.698   4.193   8.480 -2.1223  2.4123 -0.4483
 3769SOL     OW22939   4.679   2.986   0.504  0.0541  0.0197  0.0824
 3769SOL    HW122940   4.621   3.060   0.520  0.2865 -0.1597  1.7617
 3769SOL    HW222941   4.648   2.941   0.582 -0.4566  0.4497  0.1272
 3770SOL     OW22942   4.282   0.888   5.488  0.2711  0.2173 -0.8049
 3770SOL    HW122943   4.324   0.834   5.555  1.1425  0.0986 -1.4446
 3770SOL    HW222944   4.239   0.821   5.434  0.4634  0.4211 -1.2104
 3771SOL     OW22945   0.370   1.615   3.251 -0.3835 -0.2257 -0.5034
 3771SOL    HW122946   0.368   1.708   3.228  0.1004 -0.3266 -0.9594
 3771SOL    HW222947   0.296   1.613   3.312  0.5681  0.1085  0.6773
 3772SOL     OW22948   2.598   2.960  14.983  0.0408  0.2119  0.3267
 3772SOL    HW122949   2.667   2.915  14.935  1.3304 -0.7917  3.1137
 3772SOL    HW222950   2.635   3.048  14.981 -0.7659  0.4096 -3.9752
 3773SOL     OW22951   1.389   2.016   7.664  0.1934 -0.3016 -0.2858
 3773SOL    HW122952   1.468   2.014   7.719 -0.3529 -1.4915  0.4294
 3773SOL    HW222953   1.366   2.099   7.707  2.1580  1.3220 -2.3367
 3774SOL     OW22954   1.206   2.458   8.901  0.0653 -0.6820  0.1167
 3774SOL    HW122955   1.216   2.552   8.886 -2.0246 -0.5391 -0.3851
 3774SOL    HW222956   1.112   2.438   8.910 -0.0791 -0.7114 -1.4466
 3775SOL     OW22957   4.113   4.351   9.829 -0.1552 -0.2078 -0.0542
 3775SOL    HW122958   4.190   4.339   9.884 -0.2973 -0.1211  0.1611
 3775SOL    HW222959   4.097   4.260   9.802  0.4721  0.2994 -2.1198
 3776SOL     OW22960   3.451   3.409   1.511  0.7404 -0.0901 -0.1916
 3776SOL    HW122961   3.492   3.453   1.436 -2.3392 -0.6135 -2.1576
 3776SOL    HW222962   3.416   3.338   1.458 -0.8842  0.5423  0.0389
 3777SOL     OW22963   3.577   1.329  14.314 -0.2137  0.5568  0.0242
 3777SOL    HW122964   3.490   1.345  14.276 -0.5398 -0.6305  0.2595
 3777SOL    HW222965   3.628   1.404  14.285  0.5993  0.5260  1.3850
 3778SOL     OW22966   4.160   3.334   4.556 -0.1700 -0.1352 -0.1130
 3778SOL    HW122967   4.119   3.366   4.476 -0.7377  0.1265  0.2759
 3778SOL    HW222968   4.243   3.293   4.531  0.2596  0.1308  0.8609
 3779SOL     OW22969   0.456   1.735   9.214 -0.1951 -0.4048  0.9275
 3779SOL    HW122970   0.384   1.708   9.158 -0.8762 -0.9811  2.0796
 3779SOL    HW222971   0.492   1.648   9.230 -1.6770 -1.3472 -1.0146
 3780SOL     OW22972   3.320   0.235   9.422 -0.1611 -0.4492 -0.3951
 3780SOL    HW122973   3.407   0.274   9.434 -0.6503 -0.0646  1.8896
 3780SOL    HW222974   3.318   0.216   9.329 -0.8505 -1.9778 -0.0619
 3781SOL     OW22975   3.229   4.401  11.306  0.3014 -0.7443 -0.2909
 3781SOL    HW122976   3.188   4.358  11.381  2.5719 -0.5302  1.0717
 3781SOL    HW222977   3.276   4.468  11.356  1.1328 -0.5242 -1.3670
 3782SOL     OW22978   1.356   2.921   6.018  0.2518  0.3404  0.2955
 3782SOL    HW122979   1.435   2.959   5.979  0.1915  0.5816  0.4115
 3782SOL    HW222980   1.404   2.840   6.036 -0.4857 -0.6503 -2.1263
 3783SOL     OW22981   0.625   3.155   9.299  0.7204 -0.0711 -0.5582
 3783SOL    HW122982   0.584   3.241   9.302 -1.7786 -1.2255 -1.8436
 3783SOL    HW222983   0.718   3.177   9.295  0.2598  2.4198  3.0174
 3784SOL     OW22984   4.378   0.432   5.509 -0.5722  0.0492  0.5904
 3784SOL    HW122985   4.467   0.465   5.497  0.1039 -1.7419  0.5677
 3784SOL    HW222986   4.401   0.341   5.491 -1.7070 -0.3074  0.9277
 3785SOL     OW22987   1.009   2.641   2.973  0.4636  0.5644 -0.3948
 3785SOL    HW122988   1.056   2.587   3.037 -1.6749 -0.8830 -0.0550
 3785SOL    HW222989   0.948   2.676   3.037  1.1967  1.1897 -0.0333
 3786SOL     OW22990   0.978   3.348   4.264  0.2297  0.1805 -0.2941
 3786SOL    HW122991   1.071   3.349   4.241  0.8823  1.8984  2.3077
 3786SOL    HW222992   0.977   3.391   4.350 -1.9966 -1.5062  0.5180
 3787SOL     OW22993   4.102   1.685   8.169  0.1371  0.3651 -0.5308
 3787SOL    HW122994   4.050   1.698   8.090 -0.7383 -1.9824 -0.3468
 3787SOL    HW222995   4.174   1.632   8.138  0.4728  0.3685  0.2420
 3788SOL     OW22996   4.578   2.570   3.282 -0.0011  0.0061  0.2690
 3788SOL    HW122997   4.488   2.602   3.279  0.4358  1.2761  0.7966
 3788SOL    HW222998   4.625   2.652   3.297  0.0606  0.1477 -0.7348
 3789SOL     OW22999   3.005   2.292   4.300  0.2713 -0.4076 -0.1221
 3789SOL    HW123000   3.085   2.242   4.285 -0.7629 -2.8590  2.6854
 3789SOL    HW223001   2.964   2.242   4.370 -0.4491 -0.7441 -0.7776
 3790SOL     OW23002   2.546   1.076   7.328  0.4911 -0.5925 -0.6558
 3790SOL    HW123003   2.602   1.153   7.334 -0.5254  0.4078 -4.0434
 3790SOL    HW223004   2.512   1.075   7.418  1.9028 -2.6098 -0.1254
 3791SOL     OW23005   4.486   4.651   8.104 -0.0626  0.1343  0.3389
 3791SOL    HW123006   4.496   4.715   8.033 -1.2379  0.3801  0.3953
 3791SOL    HW223007   4.393   4.630   8.099  0.0598 -0.5701  1.0109
 3792SOL     OW23008   0.300   3.945   9.968  0.0533 -0.3595  0.2240
 3792SOL    HW123009   0.207   3.966   9.959  0.1017  0.0075  0.5644
 3792SOL    HW223010   0.306   3.962  10.062  0.3386 -0.4874  0.2280
 3793SOL     OW23011   2.527   1.848  12.135 -0.6890 -0.3179 -0.1170
 3793SOL    HW123012   2.522   1.943  12.147  0.4670 -0.3409  0.5062
 3793SOL    HW223013   2.475   1.845  12.054  0.2785 -3.1083 -0.6258
 3794SOL     OW23014   3.298   3.548   3.269 -0.2979  0.2225  0.2075
 3794SOL    HW123015   3.293   3.580   3.179  1.2245  1.3573  0.5179
 3794SOL    HW223016   3.271   3.456   3.262 -0.6311  0.3178  0.2606
 3795SOL     OW23017   0.568   1.322  15.235  0.4450 -0.4048 -0.4686
 3795SOL    HW123018   0.484   1.293  15.199 -0.6994  0.1119  1.7880
 3795SOL    HW223019   0.555   1.301  15.327  0.3373 -0.5939 -0.5252
 3796SOL     OW23020   2.602   1.712   1.222 -0.0304  0.3948  0.0971
 3796SOL    HW123021   2.567   1.801   1.225  0.2579  0.4871  0.8400
 3796SOL    HW223022   2.531   1.660   1.185  0.3083  2.1104 -2.9920
 3797SOL     OW23023   3.100   2.289  16.796  0.2635  0.2834 -0.1936
 3797SOL    HW123024   3.045   2.292  16.719 -2.0658 -0.7088  1.4397
 3797SOL    HW223025   3.141   2.376  16.788 -1.2930  1.1868  1.5725
 3798SOL     OW23026   3.707   2.426  17.649 -0.2542 -0.2355  0.0902
 3798SOL    HW123027   3.760   2.347  17.655 -0.9487 -0.5973  1.6120
 3798SOL    HW223028   3.692   2.419  17.555  2.2464  2.9741 -0.5577
 3799SOL     OW23029   0.926   1.150  10.373 -0.3165  0.1236 -0.1392
 3799SOL    HW123030   1.003   1.102  10.342 -1.9582 -1.6045 -1.4615
 3799SOL    HW223031   0.879   1.087  10.426 -0.3345  0.4805  0.2688
 3800SOL     OW23032   3.805   3.549   2.020 -0.3899  0.6784  0.2851
 3800SOL    HW123033   3.876   3.500   2.061 -0.0781  1.3484  0.5482
 3800SOL    HW223034   3.727   3.493   2.013  0.3486 -0.5447  1.8412
 3801SOL     OW23035   0.841   4.444   9.655 -0.0426  0.6916  0.3699
 3801SOL    HW123036   0.851   4.442   9.750  0.0681  1.2327  0.3682
 3801SOL    HW223037   0.846   4.537   9.633 -0.3217  0.7905  0.7137
 3802SOL     OW23038   2.234   3.870   9.821  0.2594 -0.3182 -0.6911
 3802SOL    HW123039   2.284   3.794   9.792 -0.3130 -2.0643  2.9817
 3802SOL    HW223040   2.301   3.934   9.795  0.0550  0.0905 -0.2225
 3803SOL     OW23041   4.341   3.465  13.917 -0.0499 -0.6563  0.0151
 3803SOL    HW123042   4.252   3.438  13.896  0.1103 -1.7948  0.8369
 3803SOL    HW223043   4.383   3.388  13.955  2.6543  1.1813  0.7980
 3804SOL     OW23044   0.617   1.292   2.108 -0.3025 -0.6196 -0.1832
 3804SOL    HW123045   0.618   1.267   2.016  2.9294 -1.5652  0.1045
 3804SOL    HW223046   0.582   1.380   2.095 -1.2322 -1.0621 -0.6231
 3805SOL     OW23047   3.630   4.143   5.227  0.4189 -0.1061 -0.2873
 3805SOL    HW123048   3.675   4.227   5.216 -1.1112  0.4105 -2.5226
 3805SOL    HW223049   3.583   4.141   5.143 -0.3356  0.0474  0.1293
 3806SOL     OW23050   4.693   3.531   1.143  0.1749  0.6397  0.6150
 3806SOL    HW123051   0.018   3.526   1.211  0.5647  1.2800  0.2834
 3806SOL    HW223052   4.684   3.626   1.141 -0.5103  0.5457 -0.5116
 3807SOL     OW23053   2.477   1.197   5.204  0.0409  0.6933  0.4201
 3807SOL    HW123054   2.555   1.157   5.166 -0.1782  0.6701 -0.0067
 3807SOL    HW223055   2.513   1.247   5.277  0.4457  0.2185  0.5450
 3808SOL     OW23056   0.453   2.019   4.495 -0.2035 -0.5708  0.1201
 3808SOL    HW123057   0.504   1.942   4.521 -2.9574 -2.5361 -0.2613
 3808SOL    HW223058   0.419   1.993   4.409  0.3214 -1.4404  0.1765
 3809SOL     OW23059   0.031   1.425  15.003 -0.0305 -0.4753  0.0626
 3809SOL    HW123060   4.742   1.471  15.081 -0.8034 -1.4060  0.3130
 3809SOL    HW223061   0.022   1.332  15.024 -0.9341 -1.0315 -2.8234
 3810SOL     OW23062   0.924   3.236   8.153  0.0732  0.2349  0.1624
 3810SOL    HW123063   0.836   3.271   8.140  0.1945  0.4351 -0.0924
 3810SOL    HW223064   0.928   3.152   8.107 -2.5983  0.5442 -0.6246
 3811SOL     OW23065   0.248   0.494   0.899 -0.7514 -0.6091  0.1121
 3811SOL    HW123066   0.207   0.414   0.929 -2.0734  1.5456  4.0564
 3811SOL    HW223067   0.271   0.463   0.811 -1.7910  1.2266 -0.8111
 3812SOL     OW23068   4.492   1.154   6.536 -0.2504 -0.2210  0.5957
 3812SOL    HW123069   4.470   1.102   6.459  4.1203  0.3296 -1.0014
 3812SOL    HW223070   4.413   1.207   6.542  0.5988  1.0995  0.0002
 3813SOL     OW23071   2.065   3.377   3.375  0.2471  0.4338  0.0584
 3813SOL    HW123072   2.065   3.379   3.279  1.9345  2.2566  0.0864
 3813SOL    HW223073   1.996   3.313   3.392  0.8956 -0.7523 -1.8099
 3814SOL     OW23074   3.411   2.134   3.079 -0.2100 -0.1816  0.4271
 3814SOL    HW123075   3.367   2.120   3.163 -0.9189  1.9000  0.4174
 3814SOL    HW223076   3.396   2.228   3.066 -0.7737 -0.1686  1.1855
 3815SOL     OW23077   3.776   1.969   4.162 -0.3223 -0.6024 -0.5360
 3815SOL    HW123078   3.702   1.951   4.105 -0.8908  0.4828 -0.1219
 3815SOL    HW223079   3.849   1.965   4.100  0.9771 -1.0268  1.0185
 3816SOL     OW23080   0.344   2.046   2.598  0.7137  0.0330  0.1379
 3816SOL    HW123081   0.286   2.104   2.549  1.6699 -1.0056 -2.2451
 3816SOL    HW223082   0.316   2.056   2.689  0.2348  0.4720 -0.0603
 3817SOL     OW23083   4.024   0.050   8.597  0.0322  0.6930 -0.0144
 3817SOL    HW123084   4.030   0.111   8.524 -3.5534 -0.2289 -1.0683
 3817SOL    HW223085   4.055   4.712   8.554 -0.2545 -0.2070  1.4226
 3818SOL     OW23086   2.961   2.284  11.438  0.2010  0.7271  0.1127
 3818SOL    HW123087   2.945   2.213  11.501 -1.7347  1.4200  0.4007
 3818SOL    HW223088   2.898   2.260  11.371  1.4598 -2.0616 -0.0861
 3819SOL     OW23089   1.686   0.262   4.640  0.4228  0.4765 -0.0512
 3819SOL    HW123090   1.767   0.273   4.691 -0.2646 -0.2019  1.1917
 3819SOL    HW223091   1.639   0.193   4.687 -0.7169  2.0192  1.0782
 3820SOL     OW23092   0.755   1.227   2.336  0.7061 -0.4460 -0.0302
 3820SOL    HW123093   0.727   1.255   2.249  0.0785 -1.0051 -0.0049
 3820SOL    HW223094   0.726   1.137   2.351  1.9911 -0.4865  2.3164
 3821SOL     OW23095   4.622   2.815   2.118 -0.0104 -0.8802 -0.2549
 3821SOL    HW123096   4.603   2.794   2.027  0.0385  1.3065 -0.7682
 3821SOL    HW223097   4.710   2.851   2.117 -0.2356 -0.3663 -1.1228
 3822SOL     OW23098   2.018   0.046  17.230 -0.0797  0.2719 -0.1222
 3822SOL    HW123099   1.935   0.076  17.193  0.4048 -1.0885 -2.3156
 3822SOL    HW223100   2.009   0.030  17.324  0.9968 -1.8220 -0.3625
 3823SOL     OW23101   2.925   2.452   2.528 -0.2654  1.1987  0.6799
 3823SOL    HW123102   2.861   2.510   2.486 -0.6285  1.0418  1.0124
 3823SOL    HW223103   2.953   2.500   2.607 -1.4778  0.5739  1.4977
 3824SOL     OW23104   1.077   1.327   6.446  0.4696  0.1194 -0.5517
 3824SOL    HW123105   1.159   1.364   6.478 -0.5742  0.9060  1.1771
 3824SOL    HW223106   1.015   1.358   6.512  1.8270  0.6204  0.4881
 3825SOL     OW23107   2.243   0.773   5.045 -0.3739 -0.1566 -0.0836
 3825SOL    HW123108   2.299   0.826   5.102 -1.8930  0.7128  0.5836
 3825SOL    HW223109   2.223   0.840   4.980 -1.7592 -0.8543 -0.3625
 3826SOL     OW23110   1.612   1.448   3.798  0.0973 -0.4021 -0.4181
 3826SOL    HW123111   1.657   1.487   3.873 -0.3816 -1.0394  0.1956
 3826SOL    HW223112   1.529   1.429   3.841  1.7740 -0.1855  2.8690
 3827SOL     OW23113   2.963   4.062   7.359 -0.1986 -0.3072 -0.0889
 3827SOL    HW123114   2.918   4.022   7.285  2.3049 -1.4719 -0.9874
 3827SOL    HW223115   2.907   4.039   7.433 -0.0974  1.8857  0.6646
 3828SOL     OW23116   2.990   0.042   3.840 -0.2375 -0.3542 -0.3747
 3828SOL    HW123117   3.019   0.026   3.750 -2.7958 -1.0427 -1.0734
 3828SOL    HW223118   2.899   0.068   3.824 -1.1902 -2.5113  1.6491
 3829SOL     OW23119   0.233   4.239   5.203 -0.4379  0.5911 -0.3968
 3829SOL    HW123120   0.279   4.167   5.246 -0.3499  0.2621 -1.0400
 3829SOL    HW223121   0.142   4.210   5.212 -0.8800  2.3647  0.8240
 3830SOL     OW23122   3.244   0.734   0.080 -0.0074 -0.2602 -0.1053
 3830SOL    HW123123   3.273   0.739  17.752  1.9270  0.0119  0.5245
 3830SOL    HW223124   3.164   0.683   0.085  0.1656 -0.7026 -1.8760
 3831SOL     OW23125   2.350   3.894   7.387 -0.5840 -0.0373  0.3184
 3831SOL    HW123126   2.327   3.904   7.479 -0.3643  0.2110  0.3449
 3831SOL    HW223127   2.377   3.982   7.360 -0.9875  0.5046  1.6822
 3832SOL     OW23128   3.101   2.028  10.024  0.1621  0.2325 -0.1533
 3832SOL    HW123129   3.052   1.970  10.081 -0.4169  1.1853  0.3128
 3832SOL    HW223130   3.069   1.990   9.942  1.3140 -0.6590 -0.1836
 3833SOL     OW23131   2.714   3.997   3.156 -0.3994  0.5066 -0.5215
 3833SOL    HW123132   2.680   3.914   3.123 -1.0465  1.5515 -2.4671
 3833SOL    HW223133   2.674   4.059   3.096 -0.7820  1.5732  0.8179
 3834SOL     OW23134   4.582   1.729   2.768 -0.2010  0.2230 -0.0238
 3834SOL    HW123135   4.558   1.820   2.784  1.4969  0.1752  2.7512
 3834SOL    HW223136   4.494   1.692   2.776 -0.7436  1.1362 -1.8706
 3835SOL     OW23137   0.151   3.933  14.300  0.3066  0.3315  0.6131
 3835SOL    HW123138   0.208   3.869  14.256  2.5807  1.1475  2.3783
 3835SOL    HW223139   0.160   3.902  14.391 -3.2578  0.1385  0.9047
 3836SOL     OW23140   1.862   3.347   9.746 -0.1694 -0.4469 -0.0378
 3836SOL    HW123141   1.824   3.260   9.753 -2.2896  0.4021 -0.7083
 3836SOL    HW223142   1.797   3.402   9.791 -2.5084 -3.6860  0.5350
 3837SOL     OW23143   4.358   4.199   8.591  0.0290  0.3933 -0.0121
 3837SOL    HW123144   4.428   4.134   8.596 -0.5610 -0.4135 -2.1150
 3837SOL    HW223145   4.371   4.233   8.679 -0.4087  1.4846 -0.3619
 3838SOL     OW23146   2.130   2.186   5.303 -0.4353  0.0137  0.2874
 3838SOL    HW123147   2.084   2.270   5.297 -0.6633 -0.2784 -2.0444
 3838SOL    HW223148   2.144   2.157   5.213  1.2979 -0.0007  0.5630
 3839SOL     OW23149   0.624   3.210   9.820  0.0362  0.2117  0.0397
 3839SOL    HW123150   0.710   3.192   9.858 -0.2261 -0.0753  0.5038
 3839SOL    HW223151   0.572   3.137   9.856  1.7921 -1.4013 -0.6753
 3840SOL     OW23152   2.768   0.128  17.027  0.2851 -0.2225  0.1543
 3840SOL    HW123153   2.701   0.195  17.041 -0.6430 -0.9129 -1.1162
 3840SOL    HW223154   2.734   0.065  17.090  0.2182  0.6334  0.9916
 3841SOL     OW23155   1.210   3.254   7.779 -0.1926  0.4073 -0.0413
 3841SOL    HW123156   1.243   3.341   7.757 -0.2363  0.2120 -0.8845
 3841SOL    HW223157   1.120   3.277   7.803 -0.0295  2.0502 -1.0219
 3842SOL     OW23158   4.007   2.695  13.808  0.0429  0.2768  0.1297
 3842SOL    HW123159   3.981   2.622  13.865  0.4218  0.2407  0.2566
 3842SOL    HW223160   3.921   2.707  13.769  0.4120  1.4185 -0.3214
 3843SOL     OW23161   3.038   0.277   7.845 -0.1311  0.3364  0.2468
 3843SOL    HW123162   3.042   0.181   7.850  0.6896  0.3234 -0.7014
 3843SOL    HW223163   2.947   0.301   7.864  0.2302  1.8881 -0.0272
 3844SOL     OW23164   2.264   2.735   8.878  0.2416  0.0540  0.0399
 3844SOL    HW123165   2.304   2.698   8.800  0.3077 -0.7380  0.4478
 3844SOL    HW223166   2.313   2.684   8.943 -0.4328 -0.9532 -0.2326
 3845SOL     OW23167   2.025   4.202  10.108 -0.0216 -0.2743  0.0517
 3845SOL    HW123168   2.039   4.290  10.143  0.9985 -0.8377  1.0489
 3845SOL    HW223169   1.932   4.180  10.117 -0.3317  0.6059 -1.0027
 3846SOL     OW23170   4.321   2.912  11.187 -0.3053  0.1026 -0.0644
 3846SOL    HW123171   4.240   2.958  11.210  0.0392  0.2392  0.8476
 3846SOL    HW223172   4.314   2.907  11.091  1.5107 -0.3630 -0.1617
 3847SOL     OW23173   2.686   3.428   9.646  0.9620  0.1727 -0.0735
 3847SOL    HW123174   2.692   3.491   9.573  1.0190 -0.5616 -0.6996
 3847SOL    HW223175   2.673   3.346   9.600 -0.6831  0.9233 -0.9437
 3848SOL     OW23176   3.715   3.404  10.320 -0.2383 -0.0356  0.4502
 3848SOL    HW123177   3.711   3.498  10.337  1.1994  0.0757  0.1491
 3848SOL    HW223178   3.807   3.388  10.339 -0.6711 -0.3512  2.2312
 3849SOL     OW23179   2.839   3.013   3.415 -0.2987  0.1018  0.5003
 3849SOL    HW123180   2.842   3.091   3.471 -1.0533 -0.4377  1.2908
 3849SOL    HW223181   2.931   2.986   3.410 -0.0386  1.5429 -2.3719
 3850SOL     OW23182   2.350   2.312  17.216 -0.6419 -0.0084  0.0205
 3850SOL    HW123183   2.396   2.242  17.263  0.3808  0.5313 -0.1949
 3850SOL    HW223184   2.257   2.302  17.235 -0.6015 -1.4686 -0.5049
 3851SOL     OW23185   4.470   1.357   1.683 -0.5399  0.0351 -0.7401
 3851SOL    HW123186   4.408   1.296   1.644  0.6800 -1.8118  0.1535
 3851SOL    HW223187   4.459   1.344   1.777 -0.6788 -0.8135 -0.8727
 3852SOL     OW23188   4.676   0.946   7.684  0.4814  0.2471  0.2879
 3852SOL    HW123189   4.586   0.916   7.676  0.2411  1.3074 -0.9357
 3852SOL    HW223190   4.692   0.952   7.590 -2.1093  1.2129 -0.0821
 3853SOL     OW23191   0.777   2.077  14.911  0.0992  0.1771  0.0317
 3853SOL    HW123192   0.775   2.169  14.887  0.9379 -0.4034 -2.2349
 3853SOL    HW223193   0.686   2.064  14.941  0.4944  1.1433  1.6597
 3854SOL     OW23194   4.438   1.940  15.191 -0.1843  0.3341 -0.1347
 3854SOL    HW123195   4.484   2.024  15.198  0.0468  0.1442  0.6084
 3854SOL    HW223196   4.504   1.883  15.153  0.2895  0.0097  1.1779
 3855SOL     OW23197   2.562   2.227  12.288 -0.0254 -0.2185  0.0079
 3855SOL    HW123198   2.657   2.220  12.284 -0.1812 -2.4707  0.6449
 3855SOL    HW223199   2.536   2.189  12.204  0.8096  0.1114 -0.4028
 3856SOL     OW23200   4.622   3.684   7.692 -0.1668  0.5026 -0.1024
 3856SOL    HW123201   4.676   3.744   7.744 -0.4421 -0.2050  0.9918
 3856SOL    HW223202   4.610   3.607   7.747  0.5415 -1.0295 -2.0603
 3857SOL     OW23203   1.410   0.197   6.658 -1.0451  0.6180 -0.3392
 3857SOL    HW123204   1.320   0.166   6.646 -0.1251 -1.5693 -1.5560
 3857SOL    HW223205   1.402   0.232   6.747 -2.1756 -0.8749  0.1472
 3858SOL     OW23206   1.259   3.586   5.128 -0.1060  0.7539 -0.0206
 3858SOL    HW123207   1.178   3.566   5.176 -1.7308  0.5563 -2.8262
 3858SOL    HW223208   1.228   3.595   5.038  0.3306 -2.3791 -0.5021
 3859SOL     OW23209   0.915   0.730   7.928 -0.8037 -0.2870 -0.3417
 3859SOL    HW123210   0.952   0.656   7.880  0.7611  1.1501 -1.3745
 3859SOL    HW223211   0.823   0.711   7.913 -0.3407 -3.2574  0.6004
 3860SOL     OW23212   1.526   1.810   3.939  0.1819  0.2982  0.1896
 3860SOL    HW123213   1.553   1.813   3.847 -2.4156  0.6368 -0.5613
 3860SOL    HW223214   1.571   1.740   3.986  2.3163 -0.0927 -2.4333
 3861SOL     OW23215   2.641   4.685   3.349  0.3096 -0.2820 -0.1677
 3861SOL    HW123216   2.703   4.616   3.372 -0.1256  0.3821  2.9901
 3861SOL    HW223217   2.558   4.636   3.353  0.7467 -0.8254  2.3573
 3862SOL     OW23218   4.313   1.712   1.412  0.0289 -0.8396  0.2903
 3862SOL    HW123219   4.278   1.631   1.449 -1.1878 -0.7922 -0.7372
 3862SOL    HW223220   4.302   1.762   1.492  2.4333 -0.0868  0.1306
 3863SOL     OW23221   1.754   4.587   9.477  0.2563 -0.0305  0.3453
 3863SOL    HW123222   1.718   4.595   9.566  1.8671 -1.1511  1.1033
 3863SOL    HW223223   1.817   4.658   9.475  0.7688 -0.5062 -0.5067
 3864SOL     OW23224   4.324   4.338   9.995  0.5925  0.0663 -0.1674
 3864SOL    HW123225   4.286   4.352  10.082  2.7603 -1.1453  0.9694
 3864SOL    HW223226   4.418   4.331  10.011  0.8015 -0.2744 -1.5408
 3865SOL     OW23227   1.338   1.413  10.227  0.1543  0.7538  0.0905
 3865SOL    HW123228   1.295   1.372  10.302 -1.7076  0.0496 -1.3347
 3865SOL    HW223229   1.276   1.487  10.226  0.7781  1.2780  0.3144
 3866SOL     OW23230   4.133   0.889   6.648  0.6651  0.8710  0.2647
 3866SOL    HW123231   4.164   0.880   6.738  1.1270  0.7860  0.0926
 3866SOL    HW223232   4.208   0.873   6.592 -0.8880 -0.6554 -1.3838
 3867SOL     OW23233   4.602   0.998   8.239 -0.1451  0.0598 -0.4901
 3867SOL    HW123234   4.678   0.966   8.190 -0.2376  0.0969 -0.6591
 3867SOL    HW223235   4.583   1.071   8.181 -0.2649  0.7924  0.4748
 3868SOL     OW23236   0.694   1.802   2.980 -0.0092  0.3688 -0.4082
 3868SOL    HW123237   0.612   1.805   3.028  0.8766  0.8315  1.0760
 3868SOL    HW223238   0.710   1.896   2.973 -0.9308  0.4605 -1.3164
 3869SOL     OW23239   4.226   0.008   4.563  0.0091  0.5587 -0.0502
 3869SOL    HW123240   4.184   0.025   4.479 -0.7604  0.5414  0.3338
 3869SOL    HW223241   4.163   4.685   4.593 -0.4889 -0.2147 -2.7308
 3870SOL     OW23242   2.882   3.072   8.668  0.4389 -0.2995 -0.3171
 3870SOL    HW123243   2.833   2.999   8.630  1.6608 -0.3642 -1.8204
 3870SOL    HW223244   2.817   3.138   8.645 -1.4995 -1.3765  2.0683
 3871SOL     OW23245   1.928   0.929   7.519 -1.0262  0.0189 -0.4393
 3871SOL    HW123246   1.921   0.860   7.586  0.8306 -0.2888 -0.5656
 3871SOL    HW223247   1.977   0.889   7.448 -0.0317  0.3678  0.0589
 3872SOL     OW23248   1.452   0.704   2.313 -0.8876  0.2217 -0.3904
 3872SOL    HW123249   1.382   0.678   2.253 -1.0173  1.5844 -0.8453
 3872SOL    HW223250   1.517   0.637   2.294 -0.8081  0.5420 -1.2499
 3873SOL     OW23251   3.273   0.749  10.229 -0.2859 -0.4066 -0.0975
 3873SOL    HW123252   3.201   0.688  10.249 -0.1253 -0.3798  0.5484
 3873SOL    HW223253   3.320   0.741  10.312 -1.0860  0.9190  0.4721
 3874SOL     OW23254   1.796   3.889   7.643  0.2684  0.5992  0.0759
 3874SOL    HW123255   1.810   3.795   7.639 -2.8322  0.1951 -1.1829
 3874SOL    HW223256   1.792   3.907   7.737  1.0554 -1.6883  0.5375
 3875SOL     OW23257   0.555   4.255   9.393 -0.0575  0.0761 -0.0084
 3875SOL    HW123258   0.571   4.340   9.353  1.7368 -0.1235  0.3160
 3875SOL    HW223259   0.639   4.213   9.376 -0.1168  0.3258 -0.8933
 3876SOL     OW23260   0.277   3.431  10.318 -0.5079  0.2816 -0.4096
 3876SOL    HW123261   0.208   3.366  10.304 -0.5735  0.2189  0.2432
 3876SOL    HW223262   0.359   3.385  10.299 -1.2258 -1.2433  0.2294
 3877SOL     OW23263   3.391   2.459   0.931 -0.0683 -0.8508  0.3906
 3877SOL    HW123264   3.350   2.446   0.845  0.5683 -0.7798  0.0753
 3877SOL    HW223265   3.470   2.509   0.911 -0.5687  1.6980  4.8649
 3878SOL     OW23266   1.668   2.991   6.209  0.2931  0.5186  0.3674
 3878SOL    HW123267   1.574   3.011   6.215  0.2336 -0.1072  1.5082
 3878SOL    HW223268   1.704   3.057   6.268  2.0687  2.0354 -2.3894
 3879SOL     OW23269   0.899   4.526   3.887  0.2045  0.3861 -1.0552
 3879SOL    HW123270   0.948   4.608   3.883 -0.6640  0.9464 -0.2391
 3879SOL    HW223271   0.837   4.542   3.816  0.7291  0.7957 -1.4164
 3880SOL     OW23272   2.943   2.522  12.005  0.2391 -0.2031 -0.2323
 3880SOL    HW123273   2.910   2.439  11.972 -3.0031  0.2106  1.9910
 3880SOL    HW223274   2.973   2.571  11.928 -2.0829  0.0821 -0.9623
 3881SOL     OW23275   2.030   0.035   7.983  0.0879 -0.0013 -0.2693
 3881SOL    HW123276   2.084   4.706   7.948 -0.5829 -0.3965 -0.5125
 3881SOL    HW223277   1.982   4.735   8.055  0.2858  2.5748  1.3254
 3882SOL     OW23278   4.518   1.085  11.032 -0.3369 -0.2714 -0.2323
 3882SOL    HW123279   4.555   1.004  11.067 -1.3314  0.4311  2.4338
 3882SOL    HW223280   4.473   1.120  11.109  1.2270  1.8841 -0.2648
 3883SOL     OW23281   3.785   0.653  10.661  0.0907 -0.0023 -0.5103
 3883SOL    HW123282   3.747   0.577  10.706 -1.1656  0.8632 -0.1028
 3883SOL    HW223283   3.849   0.689  10.722  2.2796 -0.7991 -2.3405
 3884SOL     OW23284   3.599   3.813  14.185 -0.0026 -0.0504 -0.2420
 3884SOL    HW123285   3.507   3.785  14.180  0.7032 -2.3621 -0.4489
 3884SOL    HW223286   3.585   3.876  14.255  0.1090 -0.3637  0.0636
 3885SOL     OW23287   0.144   3.897  13.700  0.5678  0.4262 -0.4778
 3885SOL    HW123288   0.066   3.948  13.678 -0.5062 -2.3560 -3.0438
 3885SOL    HW223289   0.113   3.807  13.701 -2.8706  1.6298  1.9162
 3886SOL     OW23290   3.557   3.314   8.615 -0.0961 -0.1192  0.6102
 3886SOL    HW123291   3.631   3.362   8.577  0.8148 -0.4227  2.0171
 3886SOL    HW223292   3.585   3.224   8.604  2.1250  0.5967  0.4173
 3887SOL     OW23293   3.752   1.637   2.731 -1.0423 -0.0753 -0.0880
 3887SOL    HW123294   3.691   1.626   2.804  0.8849  0.6906  1.6230
 3887SOL    HW223295   3.798   1.554   2.729 -1.8345 -0.5207  0.1346
 3888SOL     OW23296   1.940   4.706   5.891  0.1990  0.1246  0.2304
 3888SOL    HW123297   1.918   0.006   5.975  1.5760  0.2014  0.5539
 3888SOL    HW223298   1.956   0.047   5.845 -1.3826  0.7065  0.7413
 3889SOL     OW23299   3.441   3.879   8.672 -0.0538  0.4155  0.2664
 3889SOL    HW123300   3.377   3.817   8.637  0.4606  0.0211  0.0147
 3889SOL    HW223301   3.479   3.901   8.587 -3.0265  4.3881 -0.0269
 3890SOL     OW23302   1.770   1.716  12.317  0.2838  0.1145 -0.0595
 3890SOL    HW123303   1.843   1.768  12.350  0.7940 -0.4515 -0.2998
 3890SOL    HW223304   1.781   1.746  12.227  0.5833  1.1104  0.3121
 3891SOL     OW23305   1.429   1.336  16.313  0.3598  0.1239 -0.4174
 3891SOL    HW123306   1.433   1.281  16.235  0.9562 -0.8486  0.2983
 3891SOL    HW223307   1.356   1.301  16.363  0.9462 -1.1619 -0.4543
 3892SOL     OW23308   2.250   2.316  14.742 -0.7019  0.4882  0.1415
 3892SOL    HW123309   2.221   2.285  14.657  1.3640  1.7748 -1.0210
 3892SOL    HW223310   2.251   2.410  14.726  2.3326  0.0609 -2.2602
 3893SOL     OW23311   0.770   4.179   6.103 -0.9003 -0.1597 -0.2431
 3893SOL    HW123312   0.684   4.140   6.116 -1.0003 -0.2565 -1.1600
 3893SOL    HW223313   0.812   4.173   6.189  0.7523 -0.6690 -1.0747
 3894SOL     OW23314   1.184   1.835   4.717  0.0097 -0.0906 -0.1707
 3894SOL    HW123315   1.232   1.908   4.756  0.5812  1.4646 -3.7706
 3894SOL    HW223316   1.236   1.812   4.641  1.5909 -1.7855  1.4165
 3895SOL     OW23317   1.801   2.911   1.668 -0.1679 -0.3848  0.0406
 3895SOL    HW123318   1.844   2.996   1.657  0.8050 -1.2142 -2.4433
 3895SOL    HW223319   1.792   2.924   1.763  3.9144  2.2908  0.0494
 3896SOL     OW23320   0.889   0.160   3.543 -0.1250  0.2358 -0.0912
 3896SOL    HW123321   0.927   0.083   3.501 -1.1033 -0.9308  1.1899
 3896SOL    HW223322   0.967   0.189   3.590 -0.4890  1.7065 -0.3752
 3897SOL     OW23323   1.746   0.839   5.645  1.0964  0.1022 -0.3156
 3897SOL    HW123324   1.692   0.905   5.602 -0.9956 -1.8716 -0.7523
 3897SOL    HW223325   1.710   0.836   5.733 -1.8367  1.4208 -1.4740
 3898SOL     OW23326   3.546   0.044   6.282 -1.0128  0.1897 -0.7405
 3898SOL    HW123327   3.457   0.065   6.255 -1.5464 -1.5107 -0.3397
 3898SOL    HW223328   3.530   4.704   6.330  0.7042  0.5423  0.4202
 3899SOL     OW23329   4.541   0.257   0.847  0.4625 -0.2977 -0.6918
 3899SOL    HW123330   4.606   0.187   0.850 -0.7303 -1.3649 -0.0539
 3899SOL    HW223331   4.467   0.214   0.804  0.1006 -0.8252  0.4563
 3900SOL     OW23332   1.215   3.943  10.266 -0.5975 -0.1204 -0.5141
 3900SOL    HW123333   1.247   3.929  10.356  0.9952  1.7860 -0.7716
 3900SOL    HW223334   1.289   3.921  10.209 -1.1878 -1.3877 -0.7828
 3901SOL     OW23335   1.875   0.702   4.478 -0.5693 -0.2400 -0.6027
 3901SOL    HW123336   1.921   0.785   4.462 -3.3122  1.5285  0.5133
 3901SOL    HW223337   1.790   0.714   4.435 -0.1601  0.2696 -1.2729
 3902SOL     OW23338   3.341   1.228  15.688 -0.4510  0.0870 -0.6293
 3902SOL    HW123339   3.331   1.199  15.598 -2.4445 -0.2377 -0.2931
 3902SOL    HW223340   3.369   1.149  15.736 -2.4501 -0.0848  0.2506
 3903SOL     OW23341   2.685   3.300  10.668  0.5007  0.3554 -0.4273
 3903SOL    HW123342   2.776   3.279  10.687  0.9570  1.1482 -1.7350
 3903SOL    HW223343   2.670   3.228  10.606 -0.6933  2.0664 -2.1092
 3904SOL     OW23344   3.419   0.444   1.664 -0.0260  0.3560 -0.0365
 3904SOL    HW123345   3.402   0.400   1.747  1.4932  2.6738  1.5231
 3904SOL    HW223346   3.376   0.527   1.683 -1.7685 -0.6157  0.1674
 3905SOL     OW23347   3.532   0.728   6.301 -0.1957 -0.2462  0.4568
 3905SOL    HW123348   3.535   0.823   6.305  0.3141 -0.2981  1.3143
 3905SOL    HW223349   3.617   0.704   6.265 -1.3155 -2.9116 -0.4693
 3906SOL     OW23350   3.559   2.795   5.578 -0.2747  0.2594  0.2674
 3906SOL    HW123351   3.590   2.732   5.513  0.4896  0.1024  0.7825
 3906SOL    HW223352   3.517   2.740   5.645  1.7089 -1.8938 -0.2257
 3907SOL     OW23353   2.532   0.349  17.083  0.3447  0.0761 -0.0830
 3907SOL    HW123354   2.551   0.439  17.058 -0.2237  0.5168  1.0694
 3907SOL    HW223355   2.518   0.302  17.001  2.2182  0.4202 -0.6031
 3908SOL     OW23356   0.611   4.236   7.945 -0.3031  0.3104  0.3226
 3908SOL    HW123357   0.651   4.238   8.032 -0.4776  1.9568  0.3595
 3908SOL    HW223358   0.563   4.319   7.946 -1.1159 -0.1537 -0.1597
 3909SOL     OW23359   2.662   4.418   5.271 -0.4771 -0.8432  0.5955
 3909SOL    HW123360   2.694   4.391   5.357  0.9321 -1.6746 -0.1709
 3909SOL    HW223361   2.742   4.412   5.219  0.4305  1.4686  1.7152
 3910SOL     OW23362   1.286   0.191   0.472  0.1742  0.2352 -0.3191
 3910SOL    HW123363   1.256   0.259   0.532 -1.0016  0.8146 -1.5660
 3910SOL    HW223364   1.203   0.177   0.427 -1.7670 -0.7395  3.6036
 3911SOL     OW23365   1.930   3.982   2.148 -0.0291 -0.1452 -0.0975
 3911SOL    HW123366   2.018   3.964   2.116  0.1067  1.2940 -0.5569
 3911SOL    HW223367   1.931   3.939   2.234  0.6920  1.0026  0.4700
 3912SOL     OW23368   0.968   3.401   2.864  0.4814 -0.1577 -0.1491
 3912SOL    HW123369   1.033   3.436   2.925 -0.1074  1.3177 -0.3636
 3912SOL    HW223370   1.016   3.346   2.802  0.5995 -1.6530  1.2784
 3913SOL     OW23371   2.911   2.193   2.484 -0.2415 -0.0291 -0.6548
 3913SOL    HW123372   2.995   2.166   2.520 -0.1658 -1.2518 -1.7583
 3913SOL    HW223373   2.922   2.288   2.482 -0.4558  0.0563  1.5012
 3914SOL     OW23374   1.538   2.606  16.694 -0.4000  0.6227  0.1154
 3914SOL    HW123375   1.622   2.600  16.649 -0.1866 -4.0779  1.1579
 3914SOL    HW223376   1.523   2.514  16.714  2.4642 -0.2260 -1.7245
 3915SOL     OW23377   4.605   0.067   2.548 -0.4760 -0.3968 -0.1674
 3915SOL    HW123378   4.685   0.096   2.592 -1.4173  1.8365  0.1004
 3915SOL    HW223379   4.632   0.047   2.459 -1.4727  0.0183 -0.5629
 3916SOL     OW23380   4.673   4.717  13.165 -0.0411  0.6009 -0.5276
 3916SOL    HW123381   4.627   4.661  13.103 -0.7295  1.0051 -0.3898
 3916SOL    HW223382   4.685   0.055  13.113 -2.6889  0.1788 -1.7820
 3917SOL     OW23383   4.218   1.576   7.818  0.1584 -0.6685 -0.3645
 3917SOL    HW123384   4.136   1.537   7.789 -0.2678 -0.6655  0.8346
 3917SOL    HW223385   4.228   1.543   7.908  0.2083  1.0100  0.2410
 3918SOL     OW23386   3.077   2.322   4.720 -0.4901  0.0770 -0.2868
 3918SOL    HW123387   3.043   2.376   4.792  0.3885 -0.0778  0.2409
 3918SOL    HW223388   3.003   2.314   4.659  0.6101 -1.9276 -1.3332
 3919SOL     OW23389   4.654   0.272   4.918  0.1054 -0.5171 -0.5658
 3919SOL    HW123390   0.006   0.262   4.936  0.4842  0.9083 -1.7699
 3919SOL    HW223391   4.617   0.185   4.901  1.1960 -1.3443  1.2844
 3920SOL     OW23392   2.238   1.761   6.026  0.1986 -0.6008 -0.0314
 3920SOL    HW123393   2.270   1.698   5.962 -0.6901 -0.2497 -0.8214
 3920SOL    HW223394   2.311   1.820   6.044  1.7890 -1.9513 -2.1002
 3921SOL     OW23395   1.676   0.238   6.512 -0.2207  0.5494  0.1922
 3921SOL    HW123396   1.594   0.234   6.562  0.3765  1.1316  1.2081
 3921SOL    HW223397   1.700   0.147   6.526 -1.1649  0.2129 -0.3404
 3922SOL     OW23398   2.371   0.000  13.815  0.3043  0.6787 -0.6187
 3922SOL    HW123399   2.363   0.093  13.791  0.5684  0.8029 -0.2206
 3922SOL    HW223400   2.452   4.724  13.768  0.3650  2.4073 -1.1832
 3923SOL     OW23401   1.502   0.530   2.927 -0.0005  0.5498 -0.4595
 3923SOL    HW123402   1.477   0.514   2.836  0.5924  0.0061 -0.5266
 3923SOL    HW223403   1.542   0.443   2.936 -2.2867 -0.4498  0.0823
 3924SOL     OW23404   2.838   3.163   0.609  0.8325  0.2240  0.4492
 3924SOL    HW123405   2.875   3.088   0.656 -1.9738 -1.0465  0.6009
 3924SOL    HW223406   2.747   3.161   0.637  0.1947  0.6294 -1.5565
 3925SOL     OW23407   2.333   2.362   8.521 -0.2575  0.2628 -0.2285
 3925SOL    HW123408   2.408   2.314   8.557 -1.1538 -1.0268 -0.0790
 3925SOL    HW223409   2.263   2.304   8.552 -1.4773  0.3713 -2.7748
 3926SOL     OW23410   0.538   2.277   3.235 -0.1106 -0.3390 -0.2453
 3926SOL    HW123411   0.580   2.279   3.321 -0.7070  1.6826  0.0019
 3926SOL    HW223412   0.535   2.184   3.214 -1.4939 -0.8393  2.1866
 3927SOL     OW23413   3.650   3.628   1.499  0.3727 -0.1736  0.5104
 3927SOL    HW123414   3.730   3.576   1.507  0.7845  0.3107 -0.4550
 3927SOL    HW223415   3.599   3.615   1.579  1.4516 -2.3806  0.8355
 3928SOL     OW23416   1.495   2.742   5.392 -0.6037  0.1782 -0.2392
 3928SOL    HW123417   1.554   2.778   5.326  0.6569 -0.0718  0.7732
 3928SOL    HW223418   1.556   2.742   5.466  2.2114 -0.7988 -2.5656
 3929SOL     OW23419   2.591   3.719   3.799  0.5482  0.3204 -0.6770
 3929SOL    HW123420   2.673   3.690   3.759  1.8126  0.7923  1.5734
 3929SOL    HW223421   2.565   3.784   3.734 -1.6803  0.7096  0.6018
 3930SOL     OW23422   3.214   0.366   0.064  0.1313  0.3209  1.1979
 3930SOL    HW123423   3.281   0.426   0.097  2.4497 -0.0872 -2.7112
 3930SOL    HW223424   3.154   0.434   0.034  0.5004  0.2955  0.4009
 3931SOL     OW23425   2.680   1.634  12.213  0.4810  0.1377  0.5709
 3931SOL    HW123426   2.623   1.704  12.180  1.2271 -0.5453 -2.1482
 3931SOL    HW223427   2.665   1.563  12.150  1.2392 -0.1951  0.7654
 3932SOL     OW23428   2.672   0.829   7.127  0.5415 -0.0030  0.2393
 3932SOL    HW123429   2.655   0.921   7.148 -1.2707 -0.1073 -0.7531
 3932SOL    HW223430   2.587   0.799   7.095  2.2598 -0.8529 -3.5090
 3933SOL     OW23431   3.421   4.362   6.676 -0.2666  0.5768 -0.0311
 3933SOL    HW123432   3.368   4.427   6.723  0.8285  1.8428 -0.5408
 3933SOL    HW223433   3.467   4.419   6.615  1.0894 -0.9395 -0.4123
 3934SOL     OW23434   1.693   3.154  14.141 -0.2647 -0.0871 -0.3422
 3934SOL    HW123435   1.747   3.195  14.073 -2.8954  1.9345 -1.2203
 3934SOL    HW223436   1.734   3.070  14.160  1.3645  0.5087 -1.1892
 3935SOL     OW23437   0.646   1.115   6.571 -0.1698 -0.9153 -0.4691
 3935SOL    HW123438   0.584   1.125   6.643  0.7880 -0.5328  0.3056
 3935SOL    HW223439   0.728   1.102   6.619  0.6932  1.6989 -1.2668
 3936SOL     OW23440   4.625   4.692   9.767 -0.5006 -0.2920 -0.2316
 3936SOL    HW123441   4.590   4.611   9.804  0.7989 -1.2861 -1.1635
 3936SOL    HW223442   4.592   0.015   9.830 -0.2878 -0.7572  0.3552
 3937SOL     OW23443   2.124   1.899  16.340  0.2202 -0.0421 -0.7551
 3937SOL    HW123444   2.199   1.902  16.399 -0.2223 -0.3500 -0.1805
 3937SOL    HW223445   2.051   1.907  16.401  0.4822  0.0908 -0.4553
 3938SOL     OW23446   0.224   3.839   6.453 -0.3524 -0.1179 -0.0750
 3938SOL    HW123447   0.144   3.801   6.489 -1.8456  0.4926 -2.7572
 3938SOL    HW223448   0.289   3.836   6.523  1.6851 -1.2264 -2.0000
 3939SOL     OW23449   1.381   3.182   6.892 -0.7349  0.2795  0.5936
 3939SOL    HW123450   1.296   3.212   6.861 -0.1664  0.0976 -1.0978
 3939SOL    HW223451   1.420   3.268   6.908 -1.1629  0.4974  0.4670
 3940SOL     OW23452   1.577   0.954   9.415 -0.2123 -0.2020 -0.1529
 3940SOL    HW123453   1.621   0.920   9.337  0.4592 -2.2178  1.1207
 3940SOL    HW223454   1.538   1.036   9.385 -0.5623 -0.4385 -0.3470
 3941SOL     OW23455   3.203   1.539   8.134  0.3310 -0.0990 -0.1296
 3941SOL    HW123456   3.199   1.495   8.219 -2.3957  1.6594  0.6554
 3941SOL    HW223457   3.295   1.528   8.111  0.2956  3.2178 -1.7779
 3942SOL     OW23458   0.627   2.534   8.397 -0.3731 -0.3075  0.3462
 3942SOL    HW123459   0.580   2.479   8.335 -1.4516 -0.2085  1.0750
 3942SOL    HW223460   0.578   2.517   8.477 -3.1471 -0.1729 -1.3507
 3943SOL     OW23461   3.655   4.095   2.964 -0.1904 -0.3704 -0.5371
 3943SOL    HW123462   3.587   4.035   2.934 -1.4201  0.5120  0.5081
 3943SOL    HW223463   3.655   4.169   2.903  0.0662  0.3022  0.2726
 3944SOL     OW23464   3.955   2.525   7.751 -0.3247 -0.2701 -0.0967
 3944SOL    HW123465   3.981   2.589   7.817 -1.1448  0.5844 -0.6023
 3944SOL    HW223466   3.861   2.537   7.765 -0.0179 -0.1766  1.7911
 3945SOL     OW23467   2.512   0.704   9.045  0.2779 -0.0928  0.4323
 3945SOL    HW123468   2.469   0.765   8.985  1.4253 -0.8049 -1.1124
 3945SOL    HW223469   2.601   0.707   9.008 -0.4054 -3.6675 -1.5103
 3946SOL     OW23470   3.051   1.938   1.982  0.3224 -0.0105  0.1581
 3946SOL    HW123471   3.037   2.033   1.979 -0.0718 -0.1141 -1.2660
 3946SOL    HW223472   3.095   1.922   1.899 -0.5661 -0.2654 -0.2575
 3947SOL     OW23473   4.436   1.646   4.721  0.0887 -0.3450 -0.0252
 3947SOL    HW123474   4.513   1.699   4.700 -0.5119  0.6796  0.3645
 3947SOL    HW223475   4.481   1.582   4.776 -1.5363 -0.4014  1.2311
 3948SOL     OW23476   1.801   0.853   3.528 -0.6874 -0.3493  0.0204
 3948SOL    HW123477   1.723   0.799   3.526 -2.7507  2.6407  0.3944
 3948SOL    HW223478   1.797   0.874   3.434 -1.4653  0.9355  0.3430
 3949SOL     OW23479   3.577   4.409   1.924  0.1622  0.0814  0.1989
 3949SOL    HW123480   3.494   4.364   1.940 -0.8116  0.3963 -4.0130
 3949SOL    HW223481   3.608   4.347   1.858 -1.1392 -0.2141 -0.1216
 3950SOL     OW23482   0.693   0.366   5.397  0.1051 -0.2067  0.3661
 3950SOL    HW123483   0.638   0.288   5.397  1.4049 -1.1209  1.4773
 3950SOL    HW223484   0.630   0.438   5.407  0.9718  0.3829  1.5197
 3951SOL     OW23485   3.019   3.920   6.539 -0.2849  0.3328  0.6503
 3951SOL    HW123486   2.966   3.858   6.589  1.2016 -0.0358  1.7690
 3951SOL    HW223487   3.101   3.879   6.565 -0.0578  0.3562 -0.0256
 3952SOL     OW23488   0.848   3.381   3.627  0.0997  0.1993 -0.1414
 3952SOL    HW123489   0.876   3.455   3.680 -2.0088  0.1636  1.0420
 3952SOL    HW223490   0.928   3.330   3.621 -2.0052 -3.1465  0.0081
 3953SOL     OW23491   3.921   1.449  17.307  0.6732  0.3320  0.2232
 3953SOL    HW123492   3.910   1.498  17.389 -0.3064  0.1110  0.2231
 3953SOL    HW223493   3.885   1.363  17.326  0.2384  0.8287  1.6334
 3954SOL     OW23494   0.154   0.832  13.275 -0.0042 -0.0685  0.9563
 3954SOL    HW123495   0.076   0.887  13.269  0.3224  0.6463  3.1005
 3954SOL    HW223496   0.110   0.759  13.319  1.5192 -2.7794 -2.0290
 3955SOL     OW23497   2.712   3.491   2.668  0.0682 -0.1013 -0.5360
 3955SOL    HW123498   2.807   3.481   2.657  0.1084  1.3410 -1.4808
 3955SOL    HW223499   2.681   3.519   2.582 -1.3227 -2.6579 -0.8572
 3956SOL     OW23500   0.956   3.382   9.412 -0.0864  0.0546  0.4450
 3956SOL    HW123501   0.887   3.398   9.476 -1.8485 -0.9091 -1.2384
 3956SOL    HW223502   1.031   3.397   9.470  0.2196 -0.3439  0.1557
 3957SOL     OW23503   0.496   4.160   7.679  0.2866 -0.3218 -0.9054
 3957SOL    HW123504   0.477   4.251   7.700  0.9360 -0.8161  1.9445
 3957SOL    HW223505   0.533   4.130   7.763  1.5705 -0.1018 -1.3956
 3958SOL     OW23506   3.114   4.009   4.209  0.1831  0.4261  0.1353
 3958SOL    HW123507   3.072   4.090   4.183 -0.0927  0.2073 -0.1015
 3958SOL    HW223508   3.076   3.991   4.295 -1.2255  1.5658 -0.2546
 3959SOL     OW23509   3.318   3.304   1.987 -0.1857  1.0019  0.2651
 3959SOL    HW123510   3.410   3.299   2.013  0.0803 -2.6615 -1.3785
 3959SOL    HW223511   3.290   3.217   2.014  2.4249 -0.0213 -0.3191
 3960SOL     OW23512   0.993   2.426   4.633  0.3788 -0.3041 -0.0981
 3960SOL    HW123513   1.012   2.463   4.719 -1.3935  1.4877 -0.4825
 3960SOL    HW223514   0.959   2.341   4.663  2.2874 -0.5090  1.4120
 3961SOL     OW23515   0.016   1.951   5.928 -0.4087  0.1530  0.5100
 3961SOL    HW123516   0.084   1.991   5.873 -1.2702  0.9384  0.0188
 3961SOL    HW223517   0.009   2.012   6.001 -0.0277  1.4895 -0.5620
 3962SOL     OW23518   2.304   1.549  15.809 -0.2528  0.1882 -0.0976
 3962SOL    HW123519   2.346   1.550  15.895  1.4881 -2.0265 -0.9204
 3962SOL    HW223520   2.374   1.573  15.749  0.0003 -0.3531 -0.0276
 3963SOL     OW23521   2.708   2.981   0.941 -0.0978  0.0346 -0.0092
 3963SOL    HW123522   2.737   3.059   0.988  4.7329 -2.2119  0.6756
 3963SOL    HW223523   2.627   3.023   0.912  0.7231  0.3112 -1.8523
 3964SOL     OW23524   1.027   4.631   2.004 -0.2226 -0.7160  0.0852
 3964SOL    HW123525   0.948   4.648   2.056 -0.3902  0.8127 -0.6921
 3964SOL    HW223526   0.997   4.625   1.914  1.0656 -3.0122 -0.1722
 3965SOL     OW23527   3.047   3.782   5.303 -0.0497  0.3433  0.1767
 3965SOL    HW123528   3.135   3.812   5.326 -0.2802 -0.0531  1.5794
 3965SOL    HW223529   2.996   3.862   5.296 -0.5182  0.0014 -0.3554
 3966SOL     OW23530   1.676   2.403   4.080  0.1999 -0.0718  0.5406
 3966SOL    HW123531   1.699   2.496   4.087 -0.4542  0.1447 -0.1194
 3966SOL    HW223532   1.659   2.381   4.171  0.6553  1.6206  1.0324
 3967SOL     OW23533   0.237   1.151   6.958  0.2985  0.7279 -0.2065
 3967SOL    HW123534   0.281   1.089   7.015 -0.2558  0.6330  0.1213
 3967SOL    HW223535   0.180   1.088   6.913  2.5086 -1.1603 -0.3467
 3968SOL     OW23536   3.627   4.669   5.238 -0.5529  0.3932 -0.3433
 3968SOL    HW123537   3.695   4.683   5.304  0.2300 -0.6651 -0.9302
 3968SOL    HW223538   3.654   4.730   5.170  1.8324  0.6453  0.8075
 3969SOL     OW23539   1.705   0.994   4.895 -0.5744  1.0032 -0.5318
 3969SOL    HW123540   1.790   0.970   4.931 -0.8560  2.2483  0.9436
 3969SOL    HW223541   1.638   0.968   4.959 -0.6305  0.5731 -0.7642
 3970SOL     OW23542   4.135   3.753   4.278 -0.5700  0.2413  0.1004
 3970SOL    HW123543   4.148   3.766   4.372 -2.7863 -0.7173  0.5472
 3970SOL    HW223544   4.041   3.766   4.266 -0.3880 -0.8254 -2.5930
 3971SOL     OW23545   2.704   1.181  16.535  0.2984  0.0067  0.1928
 3971SOL    HW123546   2.634   1.171  16.470 -0.3462  4.3272  0.2805
 3971SOL    HW223547   2.700   1.272  16.562  3.5752  0.4926 -0.9392
 3972SOL     OW23548   4.525   0.202   1.926  0.0188 -0.1969  0.2534
 3972SOL    HW123549   4.459   0.136   1.905  0.1829 -1.1322  2.6766
 3972SOL    HW223550   4.488   0.237   2.007  1.9963  0.4869  0.8590
 3973SOL     OW23551   0.428   4.611   7.890 -0.2770  0.4715 -0.3296
 3973SOL    HW123552   0.506   4.666   7.893  0.2538 -0.3470  0.9036
 3973SOL    HW223553   0.383   4.661   7.959  3.0158  1.1379  1.3149
 3974SOL     OW23554   2.083   1.774   7.502 -0.2156 -0.5251  0.3335
 3974SOL    HW123555   2.002   1.826   7.500 -0.7662 -1.4431 -1.3944
 3974SOL    HW223556   2.062   1.711   7.433  1.5074 -1.8261  1.0263
 3975SOL     OW23557   3.429   3.374   3.947  0.1390  0.4350  0.2795
 3975SOL    HW123558   3.410   3.283   3.925 -0.1490  0.7280 -0.7182
 3975SOL    HW223559   3.391   3.418   3.870  0.9975  1.0153  0.1863
 3976SOL     OW23560   3.226   4.534   1.677  0.6247 -0.0453 -0.4098
 3976SOL    HW123561   3.307   4.584   1.687  1.0007 -0.9816  1.1220
 3976SOL    HW223562   3.204   4.537   1.770 -2.3070 -2.8169 -1.0453
 3977SOL     OW23563   3.337   2.280   2.420  0.0059 -0.2394 -0.5022
 3977SOL    HW123564   3.417   2.269   2.471  0.7049  0.3797 -1.4705
 3977SOL    HW223565   3.308   2.189   2.411 -1.2551  0.1267 -0.1849
 3978SOL     OW23566   4.656   1.097  17.721  0.4143 -0.1154  0.1027
 3978SOL    HW123567   4.692   1.147  17.647 -1.1619 -0.2954 -0.7905
 3978SOL    HW223568   4.645   1.013  17.675  0.2481 -1.2119  2.1473
 3979SOL     OW23569   4.139   0.725  16.901 -0.8406 -0.4109 -0.4480
 3979SOL    HW123570   4.086   0.704  16.825 -0.5190 -0.8681 -0.5527
 3979SOL    HW223571   4.081   0.769  16.962 -0.5469 -0.6342 -0.0017
 3980SOL     OW23572   2.950   1.544   0.481  0.2841  0.3826 -0.8880
 3980SOL    HW123573   2.974   1.596   0.558 -2.9586  0.8147 -0.1566
 3980SOL    HW223574   2.855   1.541   0.493  0.5862  1.9789  1.8741
 3981SOL     OW23575   1.495   3.280   8.619  0.0716 -0.0267  0.4820
 3981SOL    HW123576   1.479   3.373   8.602  0.0068 -0.3066 -1.0642
 3981SOL    HW223577   1.487   3.255   8.527 -0.3313  0.5417  0.3605
 3982SOL     OW23578   4.446   1.026   7.231 -0.2212  0.1725  0.1908
 3982SOL    HW123579   4.431   1.097   7.168  1.4757  0.1479 -0.2332
 3982SOL    HW223580   4.370   1.051   7.284 -0.9186 -0.0475 -0.7040
 3983SOL     OW23581   1.212   0.404   1.064  0.6590  0.4252  0.0579
 3983SOL    HW123582   1.145   0.338   1.045  1.3733 -0.0878 -0.7047
 3983SOL    HW223583   1.182   0.427   1.151 -1.3256 -0.9163 -0.2786
 3984SOL     OW23584   2.207   0.861   6.853  0.6843  0.6420  0.5316
 3984SOL    HW123585   2.218   0.936   6.795  0.4277  0.1768 -0.1128
 3984SOL    HW223586   2.161   0.809   6.788 -2.3244  0.2109  2.9694
 3985SOL     OW23587   1.674   1.230   7.834  0.7243 -0.8362 -0.5082
 3985SOL    HW123588   1.694   1.271   7.750  0.6169  1.3244  0.5077
 3985SOL    HW223589   1.610   1.297   7.859  1.1779 -0.1282 -1.2223
 3986SOL     OW23590   2.712   1.260   5.790 -0.6987  0.2225 -0.3983
 3986SOL    HW123591   2.671   1.212   5.718  0.9549 -0.9088 -0.5879
 3986SOL    HW223592   2.634   1.291   5.835  0.3083  2.0310  0.1167
 3987SOL     OW23593   0.668   2.898   3.005  0.4472 -0.0265  0.2928
 3987SOL    HW123594   0.645   2.816   3.048  0.0588 -1.1011 -1.9864
 3987SOL    HW223595   0.601   2.958   3.038 -1.6718 -0.8949 -2.4225
 3988SOL     OW23596   1.674   0.057   3.171 -0.0626  0.0527  0.3816
 3988SOL    HW123597   1.747   0.016   3.218 -0.7353 -2.5064 -0.8130
 3988SOL    HW223598   1.705   0.070   3.081  0.6988 -0.8721  0.5010
 3989SOL     OW23599   4.154   3.043   7.974  0.0928  0.3381  0.2853
 3989SOL    HW123600   4.076   3.023   8.026 -1.0624  0.7135 -1.2884
 3989SOL    HW223601   4.223   2.979   7.991 -0.1071  0.2140  0.6253
 3990SOL     OW23602   2.499   1.672  16.460  0.4894 -0.2224  1.0774
 3990SOL    HW123603   2.505   1.750  16.406 -0.9242 -1.3807 -0.7522
 3990SOL    HW223604   2.486   1.596  16.404  0.6972  0.4118  0.1724
 3991SOL     OW23605   1.315   4.270  16.082 -0.3435  0.5958 -0.3796
 3991SOL    HW123606   1.390   4.251  16.025 -0.8005  0.3796 -0.9182
 3991SOL    HW223607   1.304   4.359  16.049 -1.1432  0.2884 -0.9314
 3992SOL     OW23608   2.340   4.449   7.137 -0.3085  0.1356 -0.7887
 3992SOL    HW123609   2.399   4.458   7.062  2.1640  0.4832  1.1832
 3992SOL    HW223610   2.355   4.533   7.181 -0.0673 -0.5654  0.4619
 3993SOL     OW23611   2.084   1.588  14.817 -0.6997  0.4003 -0.2776
 3993SOL    HW123612   2.163   1.590  14.872 -1.2634 -0.4116  0.5647
 3993SOL    HW223613   2.058   1.679  14.832  0.1007  0.5739  0.0895
 3994SOL     OW23614   3.128   3.433  13.879  0.3471  0.5670  0.1043
 3994SOL    HW123615   3.062   3.502  13.871 -1.0327 -0.5512  1.6736
 3994SOL    HW223616   3.089   3.377  13.812  0.2769  0.5765  0.1376
 3995SOL     OW23617   1.141   2.350   2.368  0.8643  0.2532 -0.0397
 3995SOL    HW123618   1.169   2.437   2.394  0.0487  0.8113 -0.9817
 3995SOL    HW223619   1.061   2.336   2.419  1.4006 -0.9536  0.4655
 3996SOL     OW23620   2.640   2.872   2.526  0.4461 -0.2842 -0.0047
 3996SOL    HW123621   2.623   2.955   2.569 -0.2406 -0.3404 -0.1701
 3996SOL    HW223622   2.663   2.887   2.434 -0.0766  0.5087  0.0007
 3997SOL     OW23623   2.962   0.146   9.233  0.1427  0.2320  0.3029
 3997SOL    HW123624   3.051   0.176   9.217  0.1657 -0.1955 -0.4118
 3997SOL    HW223625   2.918   0.172   9.152  3.1466  2.7267 -0.5209
 3998SOL     OW23626   2.513   0.764  11.465 -0.4227  0.2359 -0.3089
 3998SOL    HW123627   2.592   0.768  11.518 -1.1979  3.9238  0.5241
 3998SOL    HW223628   2.451   0.765  11.538  0.8801  1.0644  0.7901
 3999SOL     OW23629   0.221   4.399   4.618 -0.9780 -0.2460  0.1693
 3999SOL    HW123630   0.130   4.395   4.588 -0.0488  1.1934 -2.8656
 3999SOL    HW223631   0.260   4.312   4.609 -1.0737 -0.2885  0.1599
 4000SOL     OW23632   3.233   2.189  14.500  0.1182  0.1590 -0.1302
 4000SOL    HW123633   3.310   2.168  14.446  0.7859 -0.6680  1.1401
 4000SOL    HW223634   3.183   2.107  14.498  1.9823 -0.9892 -0.4485
 4001SOL     OW23635   4.450   3.056   4.829  0.3076  0.0701 -1.0597
 4001SOL    HW123636   4.462   2.993   4.900 -0.2733 -0.4185 -1.3930
 4001SOL    HW223637   4.405   3.127   4.876  2.0074  0.2176  0.3278
 4002SOL     OW23638   0.392   1.425   3.987 -0.2201  0.4888 -0.6634
 4002SOL    HW123639   0.486   1.419   4.001 -0.4286 -0.2531  0.3669
 4002SOL    HW223640   0.354   1.375   4.059  1.3478  1.4398  0.8253
 4003SOL     OW23641   1.242   0.858   7.468  0.0406  0.4952 -0.2906
 4003SOL    HW123642   1.250   0.802   7.391 -2.4320  0.2256 -0.3357
 4003SOL    HW223643   1.204   0.936   7.428  0.4164  0.2258 -1.1880
 4004SOL     OW23644   0.812   3.031   6.443 -0.6682  0.1940  0.5847
 4004SOL    HW123645   0.894   2.982   6.454  0.6125  2.4634  1.1748
 4004SOL    HW223646   0.789   3.017   6.351 -1.6233 -0.5414  0.9372
 4005SOL     OW23647   2.175   4.159   0.326 -0.7196  0.3481 -0.4900
 4005SOL    HW123648   2.233   4.232   0.303  0.9539 -1.6482 -2.6032
 4005SOL    HW223649   2.122   4.156   0.246  0.0005 -0.4498 -0.9365
 4006SOL     OW23650   2.723   3.940   9.862  0.0611 -0.4683 -0.0047
 4006SOL    HW123651   2.654   3.893   9.907 -0.1125  2.6487  2.9834
 4006SOL    HW223652   2.793   3.876   9.874  0.5884  0.3482  1.2808
 4007SOL     OW23653   0.244   4.098   8.990  0.3787  0.7540  0.1131
 4007SOL    HW123654   0.299   4.064   9.060  1.3126 -0.5401 -1.2451
 4007SOL    HW223655   0.184   4.154   9.040 -0.1707  0.0536  0.2394
 4008SOL     OW23656   0.266   2.425  17.335  0.0196  0.2526  0.4186
 4008SOL    HW123657   0.200   2.494  17.339  0.1410  0.5551 -2.8248
 4008SOL    HW223658   0.208   2.350  17.326  0.1130  0.1319  0.7934
 4009SOL     OW23659   0.538   1.986   5.491 -0.1176 -0.0919 -0.2853
 4009SOL    HW123660   0.551   2.064   5.544  2.9819 -0.9009  0.1032
 4009SOL    HW223661   0.454   1.960   5.529  0.6286 -2.1797 -0.0821
 4010SOL     OW23662   3.302   1.164   4.301 -0.2940 -0.6833 -0.0440
 4010SOL    HW123663   3.312   1.123   4.387 -2.2675 -1.9883 -0.4454
 4010SOL    HW223664   3.248   1.241   4.316  1.9177  0.9273 -0.2311
 4011SOL     OW23665   3.609   1.272  15.857 -0.1833  0.6679  0.2445
 4011SOL    HW123666   3.538   1.310  15.908 -1.5512 -1.2347 -0.2537
 4011SOL    HW223667   3.677   1.234  15.913 -1.6966 -2.6362 -0.1300
 4012SOL     OW23668   1.366   0.054  12.134 -0.2726  0.2325 -0.2186
 4012SOL    HW123669   1.385   0.147  12.146 -1.0769  0.1208  1.9838
 4012SOL    HW223670   1.348   0.055  12.040  2.7235  0.3055 -0.7872
 4013SOL     OW23671   3.418   4.627   7.203 -0.0155 -0.2936  0.0275
 4013SOL    HW123672   3.495   4.651   7.255 -0.7702 -0.4526  1.2217
 4013SOL    HW223673   3.448   4.655   7.117  2.2580  2.8718  1.8289
 4014SOL     OW23674   0.914   0.155   3.182  0.0931  0.3900  0.0613
 4014SOL    HW123675   0.952   0.128   3.265 -0.4649 -2.2437 -0.5289
 4014SOL    HW223676   0.956   0.237   3.158  0.3572  0.5877  1.1946
 4015SOL     OW23677   1.951   0.689  16.697  0.3849 -0.0099  0.1820
 4015SOL    HW123678   2.041   0.662  16.680  0.8662  1.7097 -0.0281
 4015SOL    HW223679   1.963   0.777  16.735  0.1566  1.4327 -3.1272
 4016SOL     OW23680   2.420   4.559   3.405 -0.8868 -0.2308  0.5893
 4016SOL    HW123681   2.389   4.635   3.356  0.4209  0.4298  0.7841
 4016SOL    HW223682   2.368   4.488   3.368 -2.1021  1.0285 -0.0794
 4017SOL     OW23683   3.675   3.838   9.081  0.1019  0.0295  0.1259
 4017SOL    HW123684   3.634   3.812   9.163  1.7585  0.9168  1.2483
 4017SOL    HW223685   3.656   3.768   9.018  0.5901  0.0387 -0.0361
 4018SOL     OW23686   2.014   4.416  15.075 -0.1921 -0.5349  0.3367
 4018SOL    HW123687   1.943   4.355  15.052 -1.3256  0.2028  1.8974
 4018SOL    HW223688   1.962   4.497  15.079 -0.3352 -0.5512 -1.2786
 4019SOL     OW23689   0.086   1.607  13.052  0.3117  0.1677 -0.2472
 4019SOL    HW123690   0.081   1.702  13.055  1.2896  0.1886  0.8648
 4019SOL    HW223691   0.165   1.593  13.104 -1.0898 -1.4119  1.4797
 4020SOL     OW23692   0.843   1.026   7.974 -0.1183 -0.2633 -0.4402
 4020SOL    HW123693   0.898   0.949   7.988  1.7037  1.0024 -0.6868
 4020SOL    HW223694   0.903   1.100   7.974 -1.8063  1.1086  1.5207
 4021SOL     OW23695   0.102   1.326   4.424  0.4457 -0.0538  0.2647
 4021SOL    HW123696   0.083   1.237   4.395  0.0621  0.1375 -0.0614
 4021SOL    HW223697   0.024   1.344   4.477  1.1739  1.4820  0.8410
 4022SOL     OW23698   0.162   2.964   2.962 -0.1764  0.0801 -0.2552
 4022SOL    HW123699   0.113   2.903   3.017  1.3427 -1.8825 -1.0853
 4022SOL    HW223700   0.101   3.038   2.958  0.7751  0.8924  0.1211
 4023SOL     OW23701   2.831   1.945   3.781  0.0092 -0.4099 -0.1893
 4023SOL    HW123702   2.760   1.958   3.845  0.4215 -0.8769  0.3564
 4023SOL    HW223703   2.894   1.896   3.833  1.5887  1.4312 -0.3803
 4024SOL     OW23704   0.477   1.556  15.031  0.2019 -0.5301  0.0127
 4024SOL    HW123705   0.395   1.585  15.071  0.0385 -2.9702  1.4487
 4024SOL    HW223706   0.514   1.510  15.107  1.9742 -0.2528 -0.6787
 4025SOL     OW23707   1.497   1.683   3.068 -0.2078 -0.6709  0.2562
 4025SOL    HW123708   1.578   1.684   3.119  1.1134  0.8724 -1.8824
 4025SOL    HW223709   1.511   1.593   3.040  1.8452 -0.1209 -0.4842
 4026SOL     OW23710   0.037   1.535   2.831 -0.5893  0.1277  0.2968
 4026SOL    HW123711   4.712   1.599   2.805  2.1310  2.1367 -1.7082
 4026SOL    HW223712   4.723   1.484   2.891  1.7432 -0.2149  2.1513
 4027SOL     OW23713   1.850   3.071   9.725  0.1734  0.4744  0.2683
 4027SOL    HW123714   1.843   3.044   9.816  2.9531  0.4425  0.4458
 4027SOL    HW223715   1.795   3.007   9.679  0.1213  2.5376 -2.5537
 4028SOL     OW23716   2.385   1.769   9.509 -0.3477  0.3643 -0.0644
 4028SOL    HW123717   2.296   1.750   9.477 -0.3287 -0.6413  0.4943
 4028SOL    HW223718   2.435   1.739   9.433  0.4692  0.0545  0.6036
 4029SOL     OW23719   4.265   0.416   9.638 -0.3023 -0.3111 -0.0074
 4029SOL    HW123720   4.288   0.410   9.546  3.0623  2.1508  0.6898
 4029SOL    HW223721   4.335   0.376   9.689  0.8333 -0.0341 -1.3662
 4030SOL     OW23722   1.030   1.029   0.871 -0.5223 -0.6181  0.2284
 4030SOL    HW123723   1.087   1.083   0.926 -0.5889  0.5008 -0.8087
 4030SOL    HW223724   1.086   0.952   0.865 -1.4282 -1.3007  0.5857
 4031SOL     OW23725   1.031   0.861   6.207 -0.2819  0.1222 -0.5467
 4031SOL    HW123726   1.026   0.957   6.206 -0.9692  0.0863 -0.5344
 4031SOL    HW223727   0.937   0.843   6.205 -0.5553  1.5520 -0.7858
 4032SOL     OW23728   3.536   4.351  13.887 -0.0030 -0.1827 -0.3728
 4032SOL    HW123729   3.491   4.376  13.968 -2.6435 -2.3425 -1.1911
 4032SOL    HW223730   3.489   4.406  13.824 -2.0931 -0.0806  1.2784
 4033SOL     OW23731   2.567   0.392   7.563  0.6838  0.1269 -0.3840
 4033SOL    HW123732   2.594   0.482   7.575  2.7534 -0.6242  0.5643
 4033SOL    HW223733   2.624   0.349   7.627  1.3999 -0.3794 -1.3749
 4034SOL     OW23734   0.757   2.552   4.374 -0.3937  0.4233 -0.0106
 4034SOL    HW123735   0.826   2.598   4.423  0.7466 -1.3265  0.0308
 4034SOL    HW223736   0.800   2.474   4.340 -1.9187  0.0549 -1.0710
 4035SOL     OW23737   2.285   4.591   1.303 -0.6159  0.3409  0.6134
 4035SOL    HW123738   2.256   4.583   1.394 -0.5130 -1.2604  0.5096
 4035SOL    HW223739   2.275   4.504   1.264 -0.2853  0.5566  0.0435
 4036SOL     OW23740   1.164   1.797   3.158  0.2895 -0.0766  0.6421
 4036SOL    HW123741   1.116   1.834   3.231 -0.8299 -2.2823  0.9990
 4036SOL    HW223742   1.232   1.865   3.157  0.5913 -0.3825 -1.2956
 4037SOL     OW23743   0.766   0.035   9.888 -0.1709 -0.0408 -0.3187
 4037SOL    HW123744   0.817   0.050   9.967  2.2305  1.6263 -2.2115
 4037SOL    HW223745   0.704   0.104   9.911  2.8277  2.5260  0.0402
 4038SOL     OW23746   0.693   1.812  15.550 -0.2008 -0.1199  0.8353
 4038SOL    HW123747   0.746   1.769  15.482 -0.1504  3.3271 -1.2910
 4038SOL    HW223748   0.614   1.759  15.561 -0.3228  0.2461  1.6511
 4039SOL     OW23749   0.464   3.365   6.415 -0.5874 -0.0665  0.1320
 4039SOL    HW123750   0.526   3.392   6.483 -0.0257 -0.9282 -0.0334
 4039SOL    HW223751   0.462   3.272   6.437 -1.0195  0.4190  2.0979
 4040SOL     OW23752   2.404   4.399   9.572  0.4941  0.4401  0.7813
 4040SOL    HW123753   2.391   4.382   9.479 -0.4100  0.2142  0.9499
 4040SOL    HW223754   2.476   4.341   9.595  0.4388  0.3118  0.6276
 4041SOL     OW23755   3.581   1.685   5.106 -0.6342  0.9003 -0.4551
 4041SOL    HW123756   3.669   1.705   5.139 -0.3672  1.1251 -1.2773
 4041SOL    HW223757   3.523   1.663   5.178  1.2956  0.6628  1.0244
 4042SOL     OW23758   0.643   3.013   8.025  0.7395 -0.2795  0.4770
 4042SOL    HW123759   0.633   2.918   8.034  2.2646 -0.4170  0.7335
 4042SOL    HW223760   0.695   3.019   7.945 -2.2064 -0.0036 -1.4353
 4043SOL     OW23761   2.229   3.263   9.336 -0.2717 -0.7793  0.1776
 4043SOL    HW123762   2.282   3.340   9.357 -1.3532  0.0630 -0.2108
 4043SOL    HW223763   2.159   3.262   9.401 -0.8754  1.4968 -0.4490
 4044SOL     OW23764   4.192   4.472   7.508 -0.1967  0.2713  0.5270
 4044SOL    HW123765   4.191   4.517   7.593  1.4164  0.2245  0.5742
 4044SOL    HW223766   4.171   4.541   7.444  2.1593 -0.8704 -1.4803
 4045SOL     OW23767   0.947   0.842  10.893  0.0496 -0.0857  0.3564
 4045SOL    HW123768   0.876   0.789  10.931 -0.9359  0.9227 -0.0784
 4045SOL    HW223769   1.008   0.841  10.967  0.5797 -1.0383 -0.0922
 4046SOL     OW23770   3.455   0.943   2.175  0.8537  0.4753  0.1884
 4046SOL    HW123771   3.383   0.934   2.113 -0.4530  3.2112  1.2923
 4046SOL    HW223772   3.412   0.922   2.258  3.3921 -0.4189  1.2905
 4047SOL     OW23773   0.053   4.277   2.726  0.5815 -0.5359  0.3625
 4047SOL    HW123774   0.113   4.352   2.729 -0.6339  0.4458  0.1645
 4047SOL    HW223775   0.027   4.261   2.635 -0.9135  0.3493  0.6417
 4048SOL     OW23776   1.484   2.184   3.803 -0.4186 -0.1520  0.1252
 4048SOL    HW123777   1.512   2.143   3.885  0.3281 -2.7888 -1.4644
 4048SOL    HW223778   1.391   2.192   3.824 -0.9988  1.9976 -3.2188
 4049SOL     OW23779   3.471   1.563   5.958 -0.4038  0.2411  0.2111
 4049SOL    HW123780   3.528   1.637   5.978 -0.7380  0.0227  1.9286
 4049SOL    HW223781   3.470   1.513   6.039 -1.6388 -0.4419 -0.2169
 4050SOL     OW23782   3.652   1.153   8.146 -0.1714  0.4874 -0.5598
 4050SOL    HW123783   3.699   1.236   8.152  0.3735  0.2512 -1.6029
 4050SOL    HW223784   3.722   1.088   8.146 -0.8185 -0.2041  0.5021
 4051SOL     OW23785   1.573   3.379   3.634  0.2687  0.0326  0.5286
 4051SOL    HW123786   1.655   3.414   3.600  0.4166 -0.4769  0.3597
 4051SOL    HW223787   1.513   3.454   3.641 -1.5449 -1.5502  1.9879
 4052SOL     OW23788   0.704   4.053   2.031  0.0325  0.1789  0.1651
 4052SOL    HW123789   0.672   4.033   1.943 -1.0234  2.6857 -0.0214
 4052SOL    HW223790   0.797   4.032   2.021 -0.9875 -3.8553 -0.9617
 4053SOL     OW23791   3.906   4.181   3.847 -0.0657  0.2615  0.3399
 4053SOL    HW123792   3.855   4.126   3.906  2.2095 -1.2837  0.8355
 4053SOL    HW223793   3.881   4.264   3.889  0.9937  0.0525  1.3648
 4054SOL     OW23794   3.062   3.891   5.685 -0.1126 -1.1542 -0.1166
 4054SOL    HW123795   3.059   3.986   5.685 -1.6166 -1.1983 -0.7879
 4054SOL    HW223796   2.993   3.882   5.620  2.3244 -0.4543 -2.8100
 4055SOL     OW23797   1.316   3.642  10.217  0.3807 -0.4094 -0.0027
 4055SOL    HW123798   1.364   3.560  10.203  0.5142 -0.0777 -1.4635
 4055SOL    HW223799   1.343   3.694  10.141  0.0314 -1.5729 -0.9145
 4056SOL     OW23800   0.845   0.218   8.115  0.1755 -0.1205  0.4687
 4056SOL    HW123801   0.878   0.172   8.038 -2.0732  2.9805 -2.3657
 4056SOL    HW223802   0.922   0.224   8.172 -0.5190 -0.8183  1.4708
 4057SOL     OW23803   0.890   4.484   7.273  0.0125  0.0469  0.4021
 4057SOL    HW123804   0.868   4.577   7.260  0.2919  0.0441 -0.1054
 4057SOL    HW223805   0.799   4.456   7.264  0.9976 -2.9645  0.0149
 4058SOL     OW23806   0.263   2.408   8.530  0.1971  0.3828 -0.2463
 4058SOL    HW123807   0.285   2.367   8.446 -3.0089 -1.2670 -0.3064
 4058SOL    HW223808   0.354   2.426   8.551  0.9283 -3.4390 -0.1274
 4059SOL     OW23809   2.859   3.204   1.007  0.2584 -0.1940  0.4962
 4059SOL    HW123810   2.935   3.207   0.950  0.7248  0.4284  1.1605
 4059SOL    HW223811   2.889   3.248   1.086  0.9504 -0.0207  0.1318
 4060SOL     OW23812   2.184   1.358  13.576 -0.0416 -0.3597 -0.3652
 4060SOL    HW123813   2.246   1.364  13.503 -0.9895  4.1613 -0.8135
 4060SOL    HW223814   2.242   1.323  13.644  0.6627  0.8352 -0.3330
 4061SOL     OW23815   0.116   0.993   9.968  0.2561 -0.2447 -0.0780
 4061SOL    HW123816   0.105   1.067   9.907  0.0133  1.5014  2.0870
 4061SOL    HW223817   0.128   1.044  10.048 -3.0625 -1.3236  1.0851
 4062SOL     OW23818   4.379   1.121   2.078  0.2395 -0.6385  0.0264
 4062SOL    HW123819   4.404   1.086   1.993  0.6775  1.3333 -0.6436
 4062SOL    HW223820   4.406   1.048   2.134 -2.0051 -1.8561 -0.4876
 4063SOL     OW23821   0.098   1.278   7.468 -0.0624  0.4845 -0.5526
 4063SOL    HW123822   0.116   1.372   7.466  1.1528  0.2407 -0.9271
 4063SOL    HW223823   0.085   1.256   7.560  1.9574  0.7264 -0.2052
 4064SOL     OW23824   2.655   1.129   0.827  0.7286  0.8833 -0.2464
 4064SOL    HW123825   2.615   1.188   0.892  0.0880 -0.0502  0.2150
 4064SOL    HW223826   2.737   1.177   0.823  0.5091  1.0732 -2.4717
 4065SOL     OW23827   0.552   1.751   9.870  0.6310 -0.1328  0.7153
 4065SOL    HW123828   0.523   1.674   9.919  0.0913  0.1572  0.8511
 4065SOL    HW223829   0.486   1.756   9.801  0.9074  0.1424  0.4720
 4066SOL     OW23830   1.163   3.582   4.105 -0.3190  0.7260  0.2426
 4066SOL    HW123831   1.254   3.591   4.135 -0.9046  0.7005  2.0302
 4066SOL    HW223832   1.128   3.663   4.142 -2.0920 -0.7040  1.7037
 4067SOL     OW23833   0.110   4.710   3.295  0.0809 -0.0632 -0.0238
 4067SOL    HW123834   0.093   0.045   3.242 -2.5052  1.0826  2.4804
 4067SOL    HW223835   0.030   4.701   3.346 -0.8786 -0.0647 -1.5418
 4068SOL     OW23836   0.707   1.449   9.282  0.0139 -0.3537 -0.7253
 4068SOL    HW123837   0.653   1.481   9.353  2.0206  1.0290  0.1810
 4068SOL    HW223838   0.643   1.442   9.211 -1.8400 -1.9683  1.1126
 4069SOL     OW23839   1.074   4.414   5.064 -0.1650 -0.4376  0.5733
 4069SOL    HW123840   1.008   4.369   5.011  0.1028 -1.3132  0.9716
 4069SOL    HW223841   1.094   4.501   5.029 -0.4157 -0.8605 -0.6227
 4070SOL     OW23842   1.327   2.067   6.031 -0.0287  0.2680  0.1185
 4070SOL    HW123843   1.370   2.151   6.043  2.3593 -0.7283 -1.2650
 4070SOL    HW223844   1.309   2.066   5.936  0.1014  2.8001  0.0740
 4071SOL     OW23845   2.345   0.081   2.174 -0.1934 -0.0496 -0.0700
 4071SOL    HW123846   2.356   0.149   2.108 -1.2536  0.4717  0.2879
 4071SOL    HW223847   2.432   0.083   2.215 -0.6397  0.6125  0.8568
 4072SOL     OW23848   1.239   4.000   4.377 -0.1206 -0.3457  0.1991
 4072SOL    HW123849   1.176   3.963   4.315  0.3661 -1.1820  0.2117
 4072SOL    HW223850   1.265   4.074   4.322  0.7471 -0.2575  0.7366
 4073SOL     OW23851   3.596   3.709  15.251 -0.3963  0.0639 -0.3746
 4073SOL    HW123852   3.520   3.674  15.204 -0.1673 -0.5706 -0.2781
 4073SOL    HW223853   3.599   3.660  15.333 -1.0677 -1.5679 -1.3128
 4074SOL     OW23854   3.803   0.484  11.108 -0.1908 -0.2025 -0.1016
 4074SOL    HW123855   3.784   0.549  11.177 -1.0630 -0.6702  0.1052
 4074SOL    HW223856   3.747   0.525  11.042 -3.5241  0.0443  2.8353
 4075SOL     OW23857   2.444   1.946   3.754  0.1787 -0.0445 -0.4402
 4075SOL    HW123858   2.511   1.933   3.821 -3.1212 -1.5761  2.5386
 4075SOL    HW223859   2.472   2.029   3.717  0.4621  0.9709  2.0567
 4076SOL     OW23860   0.104   0.853   5.255  0.2395 -0.4827 -0.7816
 4076SOL    HW123861   0.056   0.797   5.195 -2.3710  0.2685  0.5949
 4076SOL    HW223862   0.058   0.936   5.242  3.4888  1.2640 -1.1087
 4077SOL     OW23863   0.307   0.473   8.057  0.3700 -0.3786 -0.2301
 4077SOL    HW123864   0.314   0.457   8.151 -0.1894  0.8812  0.0218
 4077SOL    HW223865   0.384   0.527   8.040 -0.5390  0.7030 -0.8891
 4078SOL     OW23866   2.670   4.191   7.012 -0.0270  0.0907 -0.6743
 4078SOL    HW123867   2.689   4.241   6.932  0.3430  1.5714  0.3548
 4078SOL    HW223868   2.732   4.228   7.074 -1.5957 -0.0490  0.9707
 4079SOL     OW23869   4.603   0.465   1.894 -0.3184  0.2003 -1.1484
 4079SOL    HW123870   4.608   0.371   1.874 -0.2906  0.7522 -3.7624
 4079SOL    HW223871   4.566   0.460   1.982 -2.0370  1.8802 -1.7691
 4080SOL     OW23872   3.705   2.010   3.798 -0.5693 -0.3055  0.4117
 4080SOL    HW123873   3.662   2.035   3.717 -1.5605 -0.1759  0.9807
 4080SOL    HW223874   3.737   1.922   3.778 -0.4260 -0.4686  1.3332
 4081SOL     OW23875   3.864   3.335   4.166  0.0916  0.0298  0.1106
 4081SOL    HW123876   3.772   3.314   4.185 -0.0412 -0.8746 -1.5374
 4081SOL    HW223877   3.857   3.332   4.071  0.9848  0.4442  0.0395
 4082SOL     OW23878   0.098   2.626  16.923  0.0288  0.3087 -0.1576
 4082SOL    HW123879   0.184   2.668  16.930  0.0843  0.3796 -1.2846
 4082SOL    HW223880   0.075   2.637  16.831 -0.6166 -2.2572 -0.3043
 4083SOL     OW23881   3.146   4.342   7.746  0.1151 -0.0072 -0.1159
 4083SOL    HW123882   3.189   4.336   7.831  0.9016 -0.9800 -0.5845
 4083SOL    HW223883   3.208   4.380   7.684 -1.0033  0.5036 -0.9329
 4084SOL     OW23884   0.382   4.441   7.654 -0.2281 -0.5301 -0.1912
 4084SOL    HW123885   0.393   4.469   7.745 -0.3381 -2.1808  0.3233
 4084SOL    HW223886   0.312   4.502   7.629  0.6079 -0.0105 -1.2733
 4085SOL     OW23887   2.701   4.732   4.876 -0.3174  0.2187 -0.2551
 4085SOL    HW123888   2.752   0.014   4.953 -3.1528  1.3278  1.2787
 4085SOL    HW223889   2.775   4.712   4.819  0.4065 -1.5420  1.3063
 4086SOL     OW23890   0.263   1.014  15.522 -0.0867 -0.3857  0.4289
 4086SOL    HW123891   0.353   1.045  15.532  0.7657 -2.5249 -0.6353
 4086SOL    HW223892   0.256   1.023  15.427 -0.6880 -2.5202  0.2665
 4087SOL     OW23893   0.798   0.860   4.305 -0.3004 -0.3558  0.7856
 4087SOL    HW123894   0.841   0.777   4.322  0.1931 -0.3590 -0.4792
 4087SOL    HW223895   0.729   0.821   4.251  0.5558 -0.7047 -0.0577
 4088SOL     OW23896   2.127   2.099   5.048 -0.4190 -0.6727  0.5225
 4088SOL    HW123897   2.186   2.133   4.980 -1.8576 -0.1074 -0.4534
 4088SOL    HW223898   2.088   2.021   5.010  0.8034 -0.9266 -0.2150
 4089SOL     OW23899   2.679   4.703   0.103 -0.0885  0.2834  0.5685
 4089SOL    HW123900   2.604   4.648   0.126 -0.3962  1.7578  3.0637
 4089SOL    HW223901   2.752   4.641   0.101  0.8082  1.3898 -0.9155
 4090SOL     OW23902   1.968   2.793   9.993  0.4425 -0.2793  0.4127
 4090SOL    HW123903   2.019   2.860  10.038  1.6420 -0.2510 -0.9652
 4090SOL    HW223904   1.995   2.814   9.903  0.7992  2.4629  1.1763
 4091SOL     OW23905   4.069   0.151  17.496 -0.2928  0.1142  0.5716
 4091SOL    HW123906   4.092   0.104  17.416 -1.3195 -0.9404  0.8983
 4091SOL    HW223907   3.974   0.143  17.488 -0.4448 -0.1885  2.5498
 4092SOL     OW23908   2.108   1.904   3.390 -0.0300 -0.1730 -0.0627
 4092SOL    HW123909   2.152   1.961   3.327  0.9729 -0.3330  0.4924
 4092SOL    HW223910   2.186   1.860   3.422  0.0081 -0.7349 -0.9374
 4093SOL     OW23911   2.030   0.680  16.368 -0.3649  0.2488 -0.6610
 4093SOL    HW123912   2.125   0.672  16.366 -0.4477 -0.8280 -0.2192
 4093SOL    HW223913   1.999   0.642  16.450  0.7602 -0.3744 -0.5256
 4094SOL     OW23914   2.345   3.331   2.724  0.0528  0.4461  0.2352
 4094SOL    HW123915   2.362   3.416   2.765 -1.3574  1.2836 -0.9583
 4094SOL    HW223916   2.293   3.349   2.646 -0.6480  2.6482  1.2014
 4095SOL     OW23917   1.734   4.007  17.193 -0.1780  0.4244 -0.4001
 4095SOL    HW123918   1.820   4.049  17.198 -1.3532  2.7992 -0.5600
 4095SOL    HW223919   1.712   4.036  17.105 -0.1785  0.0044 -0.5375
 4096SOL     OW23920   4.115   2.000   0.637 -0.0501  0.3640  0.0546
 4096SOL    HW123921   4.166   1.969   0.711 -0.1313 -0.0682 -0.0712
 4096SOL    HW223922   4.025   1.990   0.668 -0.4114 -0.6146 -1.2911
 4097SOL     OW23923   3.817   0.283  16.024  0.3015 -0.4367 -0.0103
 4097SOL    HW123924   3.768   0.238  16.093  0.4293  3.5460  2.6984
 4097SOL    HW223925   3.786   0.242  15.943  1.1198 -0.3251 -0.3782
 4098SOL     OW23926   1.034   4.637   4.902  0.3842 -0.3041  0.3219
 4098SOL    HW123927   1.026   4.601   4.814  1.6767  2.9648 -1.1174
 4098SOL    HW223928   0.953   4.688   4.913  0.4615 -0.2529  0.6454
 4099SOL     OW23929   4.494   1.831   3.670 -0.1984 -0.1900 -0.4846
 4099SOL    HW123930   4.565   1.786   3.625  0.8161  0.6898  0.2327
 4099SOL    HW223931   4.518   1.805   3.759 -2.5111 -1.2335 -0.1851
 4100SOL     OW23932   3.870   1.180   3.755 -0.0777 -0.2684  0.2420
 4100SOL    HW123933   3.785   1.168   3.712  0.1017 -1.6358  0.2834
 4100SOL    HW223934   3.861   1.139   3.841 -0.7159 -2.5267 -0.9084
 4101SOL     OW23935   1.181   2.014  13.892 -0.1664  0.0858  0.1094
 4101SOL    HW123936   1.250   2.081  13.890  0.8068 -0.9401 -0.9004
 4101SOL    HW223937   1.127   2.039  13.967 -0.5752  1.1034 -0.5170
 4102SOL     OW23938   3.323   3.643   7.911 -0.4081  0.6887  0.4874
 4102SOL    HW123939   3.312   3.723   7.860  4.1120  0.9210 -0.0720
 4102SOL    HW223940   3.283   3.572   7.859 -2.5242 -0.4990  3.6696
 4103SOL     OW23941   4.045   0.576  11.765 -0.9935  0.0864  0.3928
 4103SOL    HW123942   4.013   0.657  11.726 -1.8250 -0.4339 -0.0070
 4103SOL    HW223943   4.102   0.606  11.835 -0.1058  1.1636 -0.7882
 4104SOL     OW23944   3.398   0.199   5.933  1.1108  0.3796  0.1354
 4104SOL    HW123945   3.337   0.148   5.986 -0.6875 -1.1651 -3.4394
 4104SOL    HW223946   3.385   0.285   5.974 -0.0307 -0.8470  2.3452
 4105SOL     OW23947   4.706   1.900   7.727 -0.3532 -0.0292  0.4105
 4105SOL    HW123948   4.739   1.928   7.812 -1.5094 -0.1860  0.9075
 4105SOL    HW223949   4.628   1.955   7.724 -1.2956 -1.3771  0.1839
 4106SOL     OW23950   2.102   2.071   7.076 -0.5505  0.0668  0.1127
 4106SOL    HW123951   2.129   2.124   7.001  0.7280  0.9553  1.1942
 4106SOL    HW223952   2.183   2.020   7.078 -0.4265  0.3300  1.4727
 4107SOL     OW23953   0.599   4.142   0.866 -0.2026 -0.1068  0.6731
 4107SOL    HW123954   0.620   4.118   0.957  1.2662 -1.1858  0.0546
 4107SOL    HW223955   0.608   4.238   0.868  1.2346 -0.2154 -1.3428
 4108SOL     OW23956   3.174   1.133   2.537 -0.4828 -0.7130 -0.3821
 4108SOL    HW123957   3.107   1.164   2.598  0.0345 -0.5589  0.1075
 4108SOL    HW223958   3.245   1.134   2.601 -1.8825  0.0458  1.1557
 4109SOL     OW23959   3.322   4.043   1.130 -0.4365 -0.1271  0.5052
 4109SOL    HW123960   3.262   4.115   1.112 -0.7808  0.0644  2.3933
 4109SOL    HW223961   3.309   4.059   1.223  0.4565 -3.1484  1.1347
 4110SOL     OW23962   3.688   4.710   8.016  0.3497  0.0910  0.6006
 4110SOL    HW123963   3.756   4.649   7.986  0.4280 -0.4849  1.9807
 4110SOL    HW223964   3.662   4.676   8.101  0.8233  2.6903  1.7834
 4111SOL     OW23965   0.231   4.033   6.245 -0.2933  0.7108  0.0550
 4111SOL    HW123966   0.156   4.009   6.191  0.6086  1.0108 -1.3347
 4111SOL    HW223967   0.220   3.968   6.315 -1.2167 -0.4421 -1.1620
 4112SOL     OW23968   3.339   1.316   7.897 -0.3906 -0.3426  0.0718
 4112SOL    HW123969   3.362   1.380   7.964 -4.1404  1.2510 -0.1267
 4112SOL    HW223970   3.371   1.236   7.938 -1.1456  0.1609  1.6262
 4113SOL     OW23971   4.378   3.771  16.315 -0.2522  0.0636  0.0102
 4113SOL    HW123972   4.394   3.856  16.357 -1.6184  0.0217  0.6018
 4113SOL    HW223973   4.461   3.724  16.323 -0.0655  0.7152  1.8868
 4114SOL     OW23974   0.511   4.689   4.330  0.2119  0.0197 -0.2890
 4114SOL    HW123975   0.529   4.614   4.386  0.2196 -0.1422 -0.5070
 4114SOL    HW223976   0.574   0.011   4.364  1.0976  0.0009 -1.8898
 4115SOL     OW23977   3.445   1.616   5.320 -0.7023  0.1356 -0.2459
 4115SOL    HW123978   3.466   1.642   5.409 -0.1336 -1.8872  0.2032
 4115SOL    HW223979   3.461   1.522   5.328  1.1220  0.6817  2.2973
 4116SOL     OW23980   2.126   1.755   1.731 -0.4599 -0.5259 -0.4239
 4116SOL    HW123981   2.095   1.759   1.821 -0.2354 -0.4233 -0.3509
 4116SOL    HW223982   2.044   1.755   1.682  0.2270 -0.4433 -1.5869
 4117SOL     OW23983   0.285   0.721   7.258  0.7944 -0.2193 -0.5265
 4117SOL    HW123984   0.323   0.671   7.331 -0.2740 -0.5442 -0.1922
 4117SOL    HW223985   0.303   0.655   7.190 -1.6509  0.5096 -1.8745
 4118SOL     OW23986   0.562   1.178   6.871  0.0495 -0.0870  0.1164
 4118SOL    HW123987   0.608   1.262   6.870 -1.8765  0.9494 -1.2136
 4118SOL    HW223988   0.615   1.130   6.935 -4.7230 -0.4170  3.8027
 4119SOL     OW23989   1.145   3.645   1.878  0.7285  0.2845 -0.1178
 4119SOL    HW123990   1.112   3.613   1.963 -1.5365 -0.4090 -1.2599
 4119SOL    HW223991   1.061   3.662   1.836 -0.7349  0.0001  2.6925
 4120SOL     OW23992   2.836   2.377   1.962 -0.3155 -0.4717  0.1701
 4120SOL    HW123993   2.886   2.457   1.977  0.3676 -0.9968  0.6893
 4120SOL    HW223994   2.759   2.408   1.913 -1.1487 -0.5496  1.4236
 4121SOL     OW23995   4.094   2.801  17.462 -0.0848 -0.7573 -0.0957
 4121SOL    HW123996   4.081   2.746  17.539  0.0416  0.3346  0.6975
 4121SOL    HW223997   4.019   2.780  17.406  0.1180 -0.1533 -0.5948
 4122SOL     OW23998   4.697   4.071   3.104  0.3493 -0.3253 -0.2741
 4122SOL    HW123999   4.733   4.041   3.020  0.6289 -0.1383 -0.2216
 4122SOL    HW224000   4.621   4.113   3.065  0.1492  0.0064  0.4820
 4123SOL     OW24001   3.945   2.858   3.342 -0.1522 -1.1233 -0.0917
 4123SOL    HW124002   3.940   2.785   3.403 -0.2756 -2.6543 -1.9391
 4123SOL    HW224003   4.023   2.842   3.289  0.2256 -0.4057  0.2491
 4124SOL     OW24004   0.741   2.509   8.782  0.2120 -0.4615 -0.7673
 4124SOL    HW124005   0.815   2.448   8.792  0.5590  0.0534 -0.1345
 4124SOL    HW224006   0.737   2.539   8.873  2.4929  0.4086 -0.9422
 4125SOL     OW24007   3.489   0.144   0.124 -0.0756  0.1651  1.0256
 4125SOL    HW124008   3.477   0.229   0.166  2.2416  0.7329  0.5185
 4125SOL    HW224009   3.416   0.154   0.063  2.1895  2.2749 -1.3363
 4126SOL     OW24010   1.639   3.094  11.356 -0.0421 -0.1055 -0.0995
 4126SOL    HW124011   1.691   3.162  11.312  0.0650 -0.2373 -0.1797
 4126SOL    HW224012   1.662   3.107  11.448 -0.0408  1.0173 -0.2557
 4127SOL     OW24013   4.081   0.391   7.773 -0.2942  0.1055 -0.3489
 4127SOL    HW124014   4.059   0.334   7.700 -0.4662  1.7296 -1.5572
 4127SOL    HW224015   4.120   0.322   7.827  0.6800 -0.4512 -1.7728
 4128SOL     OW24016   0.243   2.684   4.542  0.2322  0.1512 -0.2872
 4128SOL    HW124017   0.244   2.719   4.631 -1.5973  0.0984 -0.2426
 4128SOL    HW224018   0.155   2.714   4.521 -0.7054 -1.3465  1.5159
 4129SOL     OW24019   3.641   4.726  15.967  0.1939  0.3706 -0.1490
 4129SOL    HW124020   3.633   0.032  16.049 -2.1952 -0.5887  0.1565
 4129SOL    HW224021   3.629   0.056  15.905  1.2949  1.2058  0.5957
 4130SOL     OW24022   4.267   4.099  11.213 -0.7086  0.6114 -0.6963
 4130SOL    HW124023   4.202   4.074  11.279 -0.4969  0.3767 -0.5724
 4130SOL    HW224024   4.225   4.066  11.134 -2.4692  0.1916  0.4139
 4131SOL     OW24025   0.711   3.894  13.423 -0.0280  0.2433  0.5998
 4131SOL    HW124026   0.757   3.813  13.397 -0.0934  0.0008  1.2434
 4131SOL    HW224027   0.784   3.955  13.411 -1.7296  1.9864 -0.7043
 4132SOL     OW24028   0.845   3.283   6.093  0.9197 -0.3665  0.3134
 4132SOL    HW124029   0.799   3.312   6.172  2.9324  0.1149  1.2993
 4132SOL    HW224030   0.855   3.190   6.117 -1.6114 -0.7567 -0.1071
 4133SOL     OW24031   0.310   3.152   3.600 -0.8912  0.6509 -0.3162
 4133SOL    HW124032   0.327   3.242   3.570  1.7096  0.5117  0.7411
 4133SOL    HW224033   0.236   3.165   3.659 -2.2847  0.9275 -2.1385
 4134SOL     OW24034   2.041   1.317   5.293 -0.4983  0.6254  0.0528
 4134SOL    HW124035   2.071   1.331   5.383  1.3850 -0.4101 -0.4126
 4134SOL    HW224036   2.021   1.408   5.273 -1.8840 -0.0778 -1.7157
 4135SOL     OW24037   0.579   0.991   8.038  0.5038 -0.3009 -0.0542
 4135SOL    HW124038   0.600   0.902   8.066  1.1079 -0.1403  0.0014
 4135SOL    HW224039   0.664   1.033   8.025  0.5724 -0.5345 -0.3464
 4136SOL     OW24040   2.731   3.380  14.552  0.9529  0.0680 -0.2083
 4136SOL    HW124041   2.745   3.469  14.585  2.3371 -0.0195 -0.5977
 4136SOL    HW224042   2.643   3.364  14.587  1.8184  0.3136  2.1216
 4137SOL     OW24043   1.290   0.811   6.551  0.8312 -0.5249 -0.1878
 4137SOL    HW124044   1.270   0.793   6.460 -0.5163 -1.3092  0.2735
 4137SOL    HW224045   1.319   0.725   6.581 -2.2684 -1.5499 -0.2036
 4138SOL     OW24046   0.825   0.003   2.412  0.7229 -0.0256  1.2060
 4138SOL    HW124047   0.885   4.690   2.360  1.3325  1.9624 -0.1615
 4138SOL    HW224048   0.743   4.696   2.399  0.0418  1.1674  1.0963
 4139SOL     OW24049   1.229   3.515   2.945  0.0608  0.2475  0.2393
 4139SOL    HW124050   1.180   3.493   3.024 -0.7914 -0.5877 -0.5244
 4139SOL    HW224051   1.287   3.441   2.928  0.9773  1.1469 -0.5408
 4140SOL     OW24052   1.804   0.065   5.484  0.5692 -0.5837  0.0300
 4140SOL    HW124053   1.851   0.146   5.506  0.3969 -0.2735 -0.7435
 4140SOL    HW224054   1.870   0.020   5.432  1.7472  1.1994 -0.0263
 4141SOL     OW24055   4.203   2.275  11.184  0.0877 -0.2420  0.2854
 4141SOL    HW124056   4.266   2.337  11.147 -1.4950  2.2536  1.7526
 4141SOL    HW224057   4.260   2.205  11.217 -1.0139 -1.2025  0.1405
 4142SOL     OW24058   2.076   4.276  14.143  0.2948 -0.3523 -0.4272
 4142SOL    HW124059   2.132   4.324  14.082  1.9173 -0.2664  1.1206
 4142SOL    HW224060   2.003   4.229  14.102  1.2062  0.1945 -2.6641
 4143SOL     OW24061   1.149   2.968   3.329 -0.2578 -0.2619 -0.7796
 4143SOL    HW124062   1.209   2.987   3.257  2.4300 -0.4749  1.4010
 4143SOL    HW224063   1.125   2.877   3.313 -1.3798 -0.0228 -0.5162
 4144SOL     OW24064   1.014   3.504  16.678  0.2860  0.2668 -0.0480
 4144SOL    HW124065   1.093   3.519  16.625 -0.0803  2.0270 -0.1083
 4144SOL    HW224066   0.967   3.582  16.648  2.1457  2.3458  2.3456
 4145SOL     OW24067   4.662   4.231   8.541 -0.1307 -0.0646 -0.3231
 4145SOL    HW124068   4.647   4.301   8.477 -0.1582 -1.3442 -1.7072
 4145SOL    HW224069   4.656   4.277   8.624 -1.7055  0.5035 -0.7562
 4146SOL     OW24070   1.629   3.120   9.421 -0.0789 -0.1443  0.0106
 4146SOL    HW124071   1.696   3.181   9.393 -0.6951  0.0059 -1.1235
 4146SOL    HW224072   1.675   3.090   9.500 -0.4641  1.6001  0.9076
 4147SOL     OW24073   1.604   1.975   7.923  1.0755 -0.1018  0.8169
 4147SOL    HW124074   1.640   1.924   7.995 -1.6719 -1.2953  1.3349
 4147SOL    HW224075   1.530   2.016   7.968  1.6454  0.3675  1.3121
 4148SOL     OW24076   0.786   1.979   1.930  0.3966  0.3415  0.3115
 4148SOL    HW124077   0.703   1.963   1.975  0.1146 -0.1909 -0.4100
 4148SOL    HW224078   0.748   2.031   1.859  1.6855  1.8160  0.7133
 4149SOL     OW24079   1.409   3.290   2.337  0.2648 -0.0858 -0.4567
 4149SOL    HW124080   1.386   3.265   2.248 -0.9117 -1.6121  0.2731
 4149SOL    HW224081   1.374   3.379   2.340 -0.7037 -0.4489 -1.2349
 4150SOL     OW24082   3.647   1.932   5.572  0.1517 -0.0659 -0.5169
 4150SOL    HW124083   3.620   1.975   5.491 -0.7986 -0.9786 -0.6817
 4150SOL    HW224084   3.607   1.992   5.635  0.0804 -0.1294 -0.5029
 4151SOL     OW24085   2.356   1.186   2.279  0.5655  0.3319  0.7081
 4151SOL    HW124086   2.345   1.222   2.367 -0.3471 -1.4575  1.3412
 4151SOL    HW224087   2.377   1.093   2.291 -0.1513  0.0676 -0.1039
 4152SOL     OW24088   1.810   2.335   4.706  0.0801  0.1468 -0.4192
 4152SOL    HW124089   1.833   2.362   4.618  1.1300  0.7700  0.0469
 4152SOL    HW224090   1.890   2.369   4.748 -0.8889 -0.9923  2.3679
 4153SOL     OW24091   3.272   1.827   7.102  0.2120  0.2756  0.0273
 4153SOL    HW124092   3.236   1.838   7.014 -0.3578 -1.6908  0.0207
 4153SOL    HW224093   3.304   1.911   7.135 -0.6348  0.1746  1.0812
 4154SOL     OW24094   1.827   1.228   5.664  0.0347 -0.1447 -0.3369
 4154SOL    HW124095   1.748   1.282   5.664  0.6327  0.7450 -1.0633
 4154SOL    HW224096   1.895   1.288   5.633  0.1985  0.2456  0.7747
 4155SOL     OW24097   3.097   2.935   3.381 -0.0536 -0.7774 -0.2869
 4155SOL    HW124098   3.188   2.924   3.408 -1.2349 -1.8083  3.2488
 4155SOL    HW224099   3.069   2.844   3.393  1.4300 -1.2365 -0.2581
 4156SOL     OW24100   4.300   2.926   8.385 -0.3872 -0.2494 -0.3482
 4156SOL    HW124101   4.326   2.945   8.475 -2.0028  0.5414 -0.0504
 4156SOL    HW224102   4.216   2.884   8.400  0.3509 -1.2444  0.9822
 4157SOL     OW24103   0.092   1.406   6.445  0.6434 -0.0791 -1.0310
 4157SOL    HW124104   0.099   1.311   6.453 -0.3443 -0.1051 -0.4533
 4157SOL    HW224105   0.094   1.417   6.350  1.9704  1.3497 -0.8354
 4158SOL     OW24106   1.770   1.768   4.860  0.8622  0.0655  0.5138
 4158SOL    HW124107   1.752   1.684   4.817 -1.3186  1.4585 -1.2957
 4158SOL    HW224108   1.720   1.756   4.940  0.9645 -1.3319  0.3680
 4159SOL     OW24109   2.014   3.608   2.793  0.0850  0.3212 -0.0918
 4159SOL    HW124110   1.931   3.655   2.783  0.1947 -0.2486 -3.4760
 4159SOL    HW224111   1.987   3.534   2.848 -0.4599  0.2991 -0.3846
 4160SOL     OW24112   1.230   2.090  16.318 -0.2190  0.9675  0.2678
 4160SOL    HW124113   1.287   2.019  16.289 -0.6430  0.4769  0.6319
 4160SOL    HW224114   1.299   2.154  16.336 -0.0124  0.4823  1.2001
 4161SOL     OW24115   2.734   2.899  12.738  0.0313  0.4144  0.5781
 4161SOL    HW124116   2.645   2.893  12.704  0.7254  1.2756 -1.4202
 4161SOL    HW224117   2.731   2.982  12.785  0.4694  1.0746 -0.5637
 4162SOL     OW24118   2.806   3.903   1.458  0.6113  0.2440  0.3691
 4162SOL    HW124119   2.882   3.955   1.433  1.7809 -1.1534  1.0193
 4162SOL    HW224120   2.844   3.823   1.420 -1.5594 -0.8298  0.4561
 4163SOL     OW24121   0.544   0.056   2.568 -0.1964 -0.0527 -0.2142
 4163SOL    HW124122   0.502   0.085   2.487 -1.6561 -1.6256 -0.0051
 4163SOL    HW224123   0.617   0.117   2.581  0.5215 -0.5441 -1.9357
 4164SOL     OW24124   1.317   2.114   4.438  0.1689 -0.0702 -0.6070
 4164SOL    HW124125   1.412   2.101   4.434  0.2565  0.9046 -1.6938
 4164SOL    HW224126   1.303   2.196   4.486  1.2956  0.4664 -1.1981
 4165SOL     OW24127   3.507   3.966  10.584 -0.0259  0.1230 -0.5748
 4165SOL    HW124128   3.451   3.983  10.660 -1.5521 -2.4865 -1.0916
 4165SOL    HW224129   3.493   3.873  10.568 -0.7468  0.3706 -1.4094
 4166SOL     OW24130   4.016   4.070   4.991 -0.1612 -0.0274  0.0765
 4166SOL    HW124131   4.008   3.984   4.951 -1.7667  0.6631 -1.1159
 4166SOL    HW224132   3.964   4.055   5.070  1.4545  1.0316  1.3308
 4167SOL     OW24133   0.804   2.691   3.195 -0.0703 -0.6373 -0.3226
 4167SOL    HW124134   0.780   2.612   3.243 -0.6359  0.3065  0.9665
 4167SOL    HW224135   0.767   2.753   3.258 -0.2853  1.2002 -2.2657
 4168SOL     OW24136   2.517   0.059   3.067 -0.5965  0.2227  0.2920
 4168SOL    HW124137   2.470   0.131   3.026 -0.4646  0.8439  1.2352
 4168SOL    HW224138   2.584   0.104   3.119 -0.1934  0.4352 -0.4229
 4169SOL     OW24139   0.736   0.093   8.349  0.2536 -0.3633  0.3381
 4169SOL    HW124140   0.762   0.108   8.439  1.7600  0.5681 -0.2563
 4169SOL    HW224141   0.757   0.176   8.305 -1.0349  0.4369  1.2297
 4170SOL     OW24142   0.178   2.155   2.400 -0.1299  0.2787 -0.0894
 4170SOL    HW124143   0.125   2.234   2.385 -0.1437  0.1870 -0.5379
 4170SOL    HW224144   0.120   2.089   2.362  0.2596 -0.3860  0.4832
 4171SOL     OW24145   0.795   3.768   9.314  0.5478  0.0558 -0.3144
 4171SOL    HW124146   0.784   3.806   9.401 -0.1819  1.1072 -0.8639
 4171SOL    HW224147   0.888   3.748   9.314  0.7069  0.7670  1.1674
 4172SOL     OW24148   3.112   3.973   1.651  0.6937 -0.0966 -0.2978
 4172SOL    HW124149   3.106   3.998   1.559 -0.3749 -1.1103 -0.5120
 4172SOL    HW224150   3.048   3.901   1.656  0.3856  0.4316  3.3126
 4173SOL     OW24151   1.701   0.165   7.548 -0.2246 -0.3611  0.3343
 4173SOL    HW124152   1.631   0.108   7.582 -1.0211  0.0782 -0.5840
 4173SOL    HW224153   1.765   0.138   7.614  1.6217 -0.4234 -1.4964
 4174SOL     OW24154   4.647   3.746  16.469  0.5795 -0.1637 -0.1821
 4174SOL    HW124155   4.726   3.698  16.495  0.0004  0.0562  1.9847
 4174SOL    HW224156   4.685   3.785  16.390  0.4300 -0.3928 -0.3689
 4175SOL     OW24157   0.298   0.371  10.111 -0.0286  0.2618 -0.2258
 4175SOL    HW124158   0.221   0.356  10.165 -0.9616  2.1177 -1.0257
 4175SOL    HW224159   0.361   0.386  10.181 -0.6779 -2.8075  1.0055
 4176SOL     OW24160   3.046   2.838  11.600 -0.0061 -0.0554  1.0236
 4176SOL    HW124161   3.072   2.912  11.654 -1.4145  2.5261 -1.8359
 4176SOL    HW224162   2.966   2.871  11.559 -0.2544 -1.7277  0.1778
 4177SOL     OW24163   1.082   4.736   9.313 -0.1712 -0.1157  0.0007
 4177SOL    HW124164   1.136   4.724   9.235  0.0302 -1.7131  0.3958
 4177SOL    HW224165   1.025   4.660   9.309  0.4294 -0.5380 -0.4640
 4178SOL     OW24166   3.882   0.997  14.717 -0.5374  0.5078 -0.0052
 4178SOL    HW124167   3.977   0.990  14.718 -0.5273  0.6561  0.1491
 4178SOL    HW224168   3.856   1.083  14.682 -2.4103 -0.4015 -0.8606
 4179SOL     OW24169   1.728   2.246   7.595  0.3534 -0.8098  0.3001
 4179SOL    HW124170   1.713   2.313   7.662 -4.1030  1.2729 -2.7964
 4179SOL    HW224171   1.735   2.172   7.655  0.1655  0.2698  1.6580
 4180SOL     OW24172   1.258   2.281   3.916  0.2797 -0.1000 -0.3781
 4180SOL    HW124173   1.305   2.352   3.960 -1.1925  0.3888  0.4212
 4180SOL    HW224174   1.174   2.324   3.900  0.3497  0.4492  0.7417
 4181SOL     OW24175   2.110   3.330  11.276 -0.2952  0.2421 -0.1999
 4181SOL    HW124176   2.179   3.264  11.282  0.3263  1.0264  1.3241
 4181SOL    HW224177   2.137   3.407  11.326  0.6043 -1.4962  2.0119
 4182SOL     OW24178   3.299   3.020   4.880 -0.3714  0.7765  0.1252
 4182SOL    HW124179   3.386   3.011   4.919 -0.1893 -1.2608 -0.7205
 4182SOL    HW224180   3.251   3.073   4.943  0.1795  1.8896 -0.3872
 4183SOL     OW24181   2.635   3.899   2.583  0.7105 -0.4681 -0.6774
 4183SOL    HW124182   2.622   3.993   2.589 -0.7846 -0.8131  1.3848
 4183SOL    HW224183   2.721   3.884   2.544  1.6730  2.5809  0.2492
 4184SOL     OW24184   1.036   4.518   7.519  0.3119  0.5564 -0.1339
 4184SOL    HW124185   1.000   4.492   7.433  0.4875 -1.2167  0.3288
 4184SOL    HW224186   0.973   4.481   7.581  1.5382  0.2670  0.9214
 4185SOL     OW24187   1.553   3.424   0.718 -0.3424 -0.0123 -0.3538
 4185SOL    HW124188   1.599   3.504   0.693  2.4569 -1.4477  0.1659
 4185SOL    HW224189   1.527   3.438   0.809 -1.2231  3.0694 -1.0683
 4186SOL     OW24190   3.518   3.370   6.806 -0.9060  0.2693  0.5660
 4186SOL    HW124191   3.452   3.337   6.866 -1.2884 -1.1387 -0.6255
 4186SOL    HW224192   3.502   3.312   6.731 -2.6579  0.6376  0.6491
 4187SOL     OW24193   4.547   2.236  14.664  0.0631  1.1505  0.8279
 4187SOL    HW124194   4.523   2.195  14.748 -2.9378 -0.7660 -0.9712
 4187SOL    HW224195   4.643   2.232  14.661 -0.1463 -1.7233 -2.2258
 4188SOL     OW24196   4.389   3.933   8.943  0.4145  0.0678 -0.1256
 4188SOL    HW124197   4.430   3.950   9.028  0.8328  0.0969 -0.3324
 4188SOL    HW224198   4.318   3.997   8.940 -0.3411 -0.9079 -2.8176
 4189SOL     OW24199   1.410   4.635   8.816 -0.0094  0.7120 -1.4450
 4189SOL    HW124200   1.494   4.590   8.809 -1.7802 -2.8287  0.1221
 4189SOL    HW224201   1.369   4.577   8.880  2.3011 -1.1827 -1.6890
 4190SOL     OW24202   4.017   0.242   7.521 -0.0492 -0.2162 -0.2287
 4190SOL    HW124203   3.934   0.206   7.492 -1.0597 -0.4501  2.9658
 4190SOL    HW224204   4.030   0.319   7.465  0.4382  0.2870  0.5648
 4191SOL     OW24205   2.508   3.586   9.084  0.0997 -0.1852  0.2572
 4191SOL    HW124206   2.511   3.666   9.137 -0.2068  0.8577 -1.3175
 4191SOL    HW224207   2.525   3.513   9.144 -1.9834 -1.1409 -0.3254
 4192SOL     OW24208   0.056   3.947   6.007  0.6007 -0.6435 -0.6322
 4192SOL    HW124209   0.111   4.019   5.974  1.3555 -1.4436 -1.1103
 4192SOL    HW224210   0.065   3.890   5.930 -2.0198  0.1241 -1.4825
 4193SOL     OW24211   3.481   0.748   1.878  0.0881 -0.0519  0.2995
 4193SOL    HW124212   3.497   0.735   1.784 -0.3709  2.8964 -0.1807
 4193SOL    HW224213   3.398   0.795   1.872  2.4808  3.9179 -1.2024
 4194SOL     OW24214   1.589   3.985   8.914 -0.5602 -0.0846  0.2252
 4194SOL    HW124215   1.496   4.003   8.926 -0.2262 -0.0862  2.7308
 4194SOL    HW224216   1.615   4.073   8.939 -1.3457  0.3418 -0.4735
 4195SOL     OW24217   4.278   0.146   4.995 -0.2077  0.5329 -0.0114
 4195SOL    HW124218   4.236   0.064   4.969  0.3307 -0.2476  1.5846
 4195SOL    HW224219   4.270   0.207   4.922 -1.4358  0.3725 -0.0012
 4196SOL     OW24220   3.727   4.713   2.572 -0.2062  0.2553 -0.3236
 4196SOL    HW124221   3.785   0.016   2.633 -1.2614  2.0389 -0.6245
 4196SOL    HW224222   3.642   0.005   2.601 -0.0400  1.3190 -1.0835
 4197SOL     OW24223   1.644   0.545   2.210 -0.3274  0.2791 -1.0589
 4197SOL    HW124224   1.718   0.581   2.160 -0.0732 -0.2617 -1.0679
 4197SOL    HW224225   1.580   0.522   2.143 -0.3045 -0.3361 -0.8663
 4198SOL     OW24226   2.026   1.139   6.042 -0.4100  0.5800 -0.5809
 4198SOL    HW124227   2.018   1.114   5.950  2.1243  1.2344 -0.9945
 4198SOL    HW224228   1.950   1.197   6.036 -1.1969 -0.5107 -1.0993
 4199SOL     OW24229   0.473   2.627  17.219 -0.2716 -0.0031  0.5458
 4199SOL    HW124230   0.411   2.571  17.266 -1.1659  0.6331  0.1183
 4199SOL    HW224231   0.557   2.593  17.250  0.3521 -0.2622 -1.4628
 4200SOL     OW24232   1.059   1.535   9.037  0.1973  0.3602  0.5769
 4200SOL    HW124233   1.088   1.538   9.128  0.1999 -0.7282  0.6168
 4200SOL    HW224234   1.147   1.520   9.003  0.2011  2.1016 -0.1684
 4201SOL     OW24235   2.251   0.525   7.773 -0.1486  0.1832  0.1617
 4201SOL    HW124236   2.197   0.601   7.793 -1.8251 -1.2304  0.9905
 4201SOL    HW224237   2.211   0.448   7.814  1.6803 -1.4635 -1.1395
 4202SOL     OW24238   4.091   2.648   4.083 -0.3880  0.1909  0.0083
 4202SOL    HW124239   4.086   2.711   4.154  0.8633 -0.5118  0.7119
 4202SOL    HW224240   4.000   2.617   4.076 -0.3987  0.5254 -1.3485
 4203SOL     OW24241   0.336   2.543  15.653 -0.2539 -0.1713 -0.2701
 4203SOL    HW124242   0.242   2.527  15.648 -0.1410 -0.9395  0.1579
 4203SOL    HW224243   0.342   2.639  15.658  2.6634 -0.4103  0.8091
 4204SOL     OW24244   2.025   4.521   6.971 -0.1735  0.0019  0.4672
 4204SOL    HW124245   2.106   4.496   6.928 -0.8456  0.0005 -0.8103
 4204SOL    HW224246   2.031   4.473   7.053  1.5081  3.1104  2.1274
 4205SOL     OW24247   4.635   3.209   4.068 -0.1560  0.1299 -0.4984
 4205SOL    HW124248   4.641   3.240   3.978  0.5810  3.8488  0.8191
 4205SOL    HW224249   4.541   3.217   4.087  0.2156  1.3436  0.7602
 4206SOL     OW24250   3.291   2.949   8.186 -0.5565 -0.6073 -0.3636
 4206SOL    HW124251   3.288   3.042   8.209 -2.2402 -1.2210  1.8233
 4206SOL    HW224252   3.282   2.952   8.091 -0.7775  0.5555 -0.3023
 4207SOL     OW24253   0.231   0.291   1.949 -0.7553 -0.2787  0.0510
 4207SOL    HW124254   0.232   0.357   1.880 -3.5855 -0.2365  0.0459
 4207SOL    HW224255   0.171   0.234   1.901  0.2653  0.0309 -1.6057
 4208SOL     OW24256   0.066   0.078  11.029 -0.1170 -0.2877 -0.0564
 4208SOL    HW124257   4.738   0.070  11.095  0.0712 -0.3415  0.1357
 4208SOL    HW224258   0.137   0.022  11.061 -1.2202 -2.4052 -1.3471
 4209SOL     OW24259   2.924   0.574   3.546  0.7584  0.6447  0.1315
 4209SOL    HW124260   2.938   0.607   3.457 -1.0032 -0.7245 -0.6715
 4209SOL    HW224261   2.889   0.648   3.596  0.0359 -0.8062  1.7763
 4210SOL     OW24262   2.227   3.347  10.840 -0.0630 -0.5571  0.3051
 4210SOL    HW124263   2.220   3.384  10.752 -0.7168  0.6835  0.8749
 4210SOL    HW224264   2.304   3.398  10.862 -0.9196 -0.4977  3.2032
 4211SOL     OW24265   3.852   2.659   0.564  0.3930  0.0226  0.6268
 4211SOL    HW124266   3.882   2.629   0.478 -1.2319 -1.9750  0.7616
 4211SOL    HW224267   3.936   2.663   0.611  2.1495  1.4798 -2.6963
 4212SOL     OW24268   4.671   2.230   4.978  0.2088 -0.9278  0.2652
 4212SOL    HW124269   0.023   2.233   4.999  0.2459 -0.5097  0.0344
 4212SOL    HW224270   4.659   2.190   4.892 -0.2577 -0.5569  0.1597
 4213SOL     OW24271   4.723   0.237   2.874  0.1336  0.6047 -0.0602
 4213SOL    HW124272   4.685   0.211   2.958 -0.8751  1.7858 -0.1513
 4213SOL    HW224273   4.724   0.331   2.891 -0.2280  0.7334 -0.7309
 4214SOL     OW24274   3.388   0.084   4.875 -0.2375  0.0641 -0.1649
 4214SOL    HW124275   3.379   0.052   4.965 -1.0914 -1.5531 -0.8204
 4214SOL    HW224276   3.467   0.039   4.844  2.1510  2.8191  1.8854
 4215SOL     OW24277   2.480   4.409   5.663 -0.5900 -0.0108 -0.8153
 4215SOL    HW124278   2.496   4.316   5.645  0.3635 -0.4673  2.4723
 4215SOL    HW224279   2.547   4.448   5.607  0.5469 -0.4903  0.2131
 4216SOL     OW24280   3.771   3.808  15.773  0.6923  0.3772  0.6051
 4216SOL    HW124281   3.740   3.840  15.858  0.7565 -1.3595  1.3020
 4216SOL    HW224282   3.698   3.828  15.715 -0.6218  2.1179  2.8905
 4217SOL     OW24283   0.835   4.154  12.058 -0.5958 -0.6644 -0.2906
 4217SOL    HW124284   0.824   4.148  11.963  0.7071  0.4380 -0.5259
 4217SOL    HW224285   0.773   4.223  12.083 -0.8956 -1.2248  0.5224
 4218SOL     OW24286   1.174   1.539   9.266 -0.4550  0.0940  0.3166
 4218SOL    HW124287   1.103   1.545   9.330  0.9899  1.0075  1.8317
 4218SOL    HW224288   1.250   1.502   9.312 -0.8969 -0.0836  0.9097
 4219SOL     OW24289   2.259   3.798   6.229 -0.4349  0.1149 -0.3920
 4219SOL    HW124290   2.303   3.719   6.199  0.4542  0.8762 -1.0864
 4219SOL    HW224291   2.320   3.872   6.224 -0.8773  0.5865  1.2848
 4220SOL     OW24292   2.464   3.275   1.045  0.0888 -0.1201  0.3751
 4220SOL    HW124293   2.448   3.343   0.979  0.4565  1.4109  1.8856
 4220SOL    HW224294   2.499   3.212   0.982  1.2964  1.6999 -0.7787
 4221SOL     OW24295   4.716   4.509   8.160 -0.3649 -0.0631  0.4354
 4221SOL    HW124296   4.635   4.541   8.118 -1.1070 -0.5835  1.4731
 4221SOL    HW224297   0.031   4.523   8.084 -0.3859 -0.1993  0.3951
 4222SOL     OW24298   0.483   2.104  10.249 -0.3094  0.6096 -1.0066
 4222SOL    HW124299   0.568   2.084  10.211 -0.7899  0.1436 -1.8287
 4222SOL    HW224300   0.430   2.057  10.185  1.2913 -1.7858 -0.5640
 4223SOL     OW24301   1.182   0.364  14.274  0.4406 -0.0264  0.6185
 4223SOL    HW124302   1.150   0.290  14.223  1.0434 -1.0163  1.6675
 4223SOL    HW224303   1.236   0.406  14.207  0.8727  1.5738  1.9515
 4224SOL     OW24304   1.265   0.314   8.033  0.2320  0.1197  0.3087
 4224SOL    HW124305   1.282   0.398   7.990 -0.3592  0.9987  1.8091
 4224SOL    HW224306   1.306   0.262   7.964 -1.2412 -1.0034  0.2816
 4225SOL     OW24307   0.477   1.507   2.028  0.3333 -0.2087  0.1084
 4225SOL    HW124308   0.506   1.597   2.013  0.3721 -0.2971 -0.3730
 4225SOL    HW224309   0.466   1.479   1.937 -0.6080  0.0253  0.1546
 4226SOL     OW24310   4.071   0.355  13.551  0.0842  0.3105  0.5306
 4226SOL    HW124311   3.977   0.342  13.560  0.0552 -0.5079 -0.9673
 4226SOL    HW224312   4.099   0.264  13.542  0.9455  0.6008  0.2531
 4227SOL     OW24313   4.592   2.785   0.342 -0.1073  0.0245 -0.0804
 4227SOL    HW124314   4.599   2.843   0.267  0.8982 -0.1266 -0.1027
 4227SOL    HW224315   4.643   2.830   0.410  1.2312  0.6090 -1.4624
 4228SOL     OW24316   3.651   2.979   5.735 -0.7255  0.3312  0.3464
 4228SOL    HW124317   3.607   2.939   5.660  0.5337 -1.0691  0.3655
 4228SOL    HW224318   3.716   3.023   5.680  0.0180  0.8277  1.6181
 4229SOL     OW24319   2.024   0.195  11.512 -0.3038 -0.6229  0.3286
 4229SOL    HW124320   1.962   0.227  11.447 -1.2204  1.3183  2.1249
 4229SOL    HW224321   2.106   0.221  11.470 -1.0283  0.8235 -0.1845
 4230SOL     OW24322   2.548   0.475   1.452 -0.4360  0.3787 -0.3284
 4230SOL    HW124323   2.567   0.553   1.505  2.0448 -0.1014 -0.5096
 4230SOL    HW224324   2.629   0.424   1.457  0.4124  1.5883 -1.5806
 4231SOL     OW24325   4.468   2.646   5.937 -0.2967  0.0025 -0.6732
 4231SOL    HW124326   4.514   2.660   6.019  2.7810  0.8467 -2.5383
 4231SOL    HW224327   4.394   2.605   5.982  1.3217  0.1300  2.0623
 4232SOL     OW24328   0.334   2.213   6.792  0.5577 -0.5656 -0.2034
 4232SOL    HW124329   0.373   2.201   6.878  1.3069  0.1456 -0.4529
 4232SOL    HW224330   0.344   2.125   6.757  0.6249 -1.3167  1.6940
 4233SOL     OW24331   2.221   0.756   4.010 -0.1793  0.2826 -0.1627
 4233SOL    HW124332   2.248   0.665   4.005  2.9281  1.0997  2.1252
 4233SOL    HW224333   2.148   0.760   4.071  0.3026 -2.2764  0.5719
 4234SOL     OW24334   4.043   0.091   4.381  0.3878 -0.2321  0.0225
 4234SOL    HW124335   4.047   0.186   4.396  1.0644 -0.3746  0.7479
 4234SOL    HW224336   3.952   0.077   4.408  1.0265  0.0861  2.3537
 4235SOL     OW24337   1.563   1.420  14.310  0.8130  0.0663  0.0309
 4235SOL    HW124338   1.488   1.365  14.332 -0.2387  1.4182 -0.1973
 4235SOL    HW224339   1.560   1.475  14.388  0.5340 -0.6841  0.5477
 4236SOL     OW24340   0.441   4.041   8.794  0.0650 -0.2354  0.3555
 4236SOL    HW124341   0.378   4.047   8.866 -0.6011  2.2363 -0.4225
 4236SOL    HW224342   0.516   4.083   8.838  1.1207 -0.7130 -1.0083
 4237SOL     OW24343   4.469   1.983  13.983 -0.7522  0.2632 -0.0788
 4237SOL    HW124344   4.395   1.985  13.922 -0.1525  0.9538 -0.7747
 4237SOL    HW224345   4.521   2.061  13.963  1.9510 -1.6909 -0.6587
 4238SOL     OW24346   4.000   3.181   0.617 -0.1142 -0.3542 -0.2579
 4238SOL    HW124347   3.937   3.109   0.614 -0.4337 -0.1613  1.6907
 4238SOL    HW224348   3.991   3.195   0.523  1.9220  0.4721 -0.3383
 4239SOL     OW24349   0.371   0.054   9.194 -0.3084 -0.3039 -0.0104
 4239SOL    HW124350   0.332   4.726   9.141 -2.8934 -0.3898  2.0213
 4239SOL    HW224351   0.312   0.125   9.172  0.7461  0.3605 -0.6884
 4240SOL     OW24352   4.038   1.535   9.169  0.0721 -0.0049  0.2274
 4240SOL    HW124353   4.022   1.544   9.263 -0.0401  0.0304  0.2046
 4240SOL    HW224354   4.102   1.464   9.170  0.0718 -0.0312 -1.4554
 4241SOL     OW24355   1.039   2.725  17.015 -0.0382  0.2652  0.4357
 4241SOL    HW124356   1.115   2.668  17.005  1.7592  3.1985 -2.9906
 4241SOL    HW224357   0.976   2.688  16.953 -0.5677 -2.3569  2.5983
 4242SOL     OW24358   0.115   0.785  13.632 -0.0588  0.1124 -0.7125
 4242SOL    HW124359   0.107   0.730  13.554 -0.4043  2.0785 -2.0526
 4242SOL    HW224360   0.034   0.835  13.621 -0.4682 -0.4266 -0.1836
 4243SOL     OW24361   3.350   0.591   0.381  0.1318  0.1460  0.0628
 4243SOL    HW124362   3.272   0.636   0.414 -0.1322  0.1277 -0.5315
 4243SOL    HW224363   3.404   0.594   0.460  1.8246 -2.7562 -0.9952
 4244SOL     OW24364   1.854   1.287   2.649  0.0029 -0.5390 -0.0074
 4244SOL    HW124365   1.849   1.368   2.700 -0.0783 -1.0819  0.8449
 4244SOL    HW224366   1.898   1.231   2.713 -0.4264 -1.2178 -0.3108
 4245SOL     OW24367   0.127   0.687   3.414  0.2527 -0.8268 -0.3398
 4245SOL    HW124368   0.206   0.657   3.370 -0.0630 -1.5465 -0.4167
 4245SOL    HW224369   0.081   0.700   3.331  1.6064 -1.1987 -1.1429
 4246SOL     OW24370   4.045   1.767   8.652 -0.2651  0.5178 -0.1107
 4246SOL    HW124371   3.966   1.749   8.704  0.5766 -1.3150  0.5238
 4246SOL    HW224372   4.078   1.686   8.613 -0.1033  0.0771  0.9351
 4247SOL     OW24373   4.370   3.422   6.521  0.2120 -0.3670 -0.0193
 4247SOL    HW124374   4.339   3.508   6.491  0.6835  0.0389  0.6642
 4247SOL    HW224375   4.451   3.437   6.570  0.0907  1.4000 -0.3556
 4248SOL     OW24376   3.038   4.031   4.498 -0.4151 -0.5434 -0.5336
 4248SOL    HW124377   3.106   3.996   4.555  0.3255  0.2030 -0.9559
 4248SOL    HW224378   2.959   3.979   4.512 -1.2189  1.3914  2.2107
 4249SOL     OW24379   0.559   1.339   0.559 -0.1812  0.5342  0.5517
 4249SOL    HW124380   0.484   1.298   0.516  0.1845  1.2071 -0.7144
 4249SOL    HW224381   0.556   1.407   0.492  0.1924  1.3539  1.3730
 4250SOL     OW24382   0.502   1.720  16.819 -0.0465  0.2139  0.3681
 4250SOL    HW124383   0.597   1.720  16.826 -0.0928  0.9649  1.0508
 4250SOL    HW224384   0.489   1.626  16.831 -0.9573 -0.0602 -2.6513
 4251SOL     OW24385   4.460   2.856   6.421 -0.1496  0.2782 -0.0457
 4251SOL    HW124386   4.383   2.828   6.372  0.5243  1.7456 -1.9369
 4251SOL    HW224387   4.494   2.939   6.386 -0.6707 -0.1380 -1.5352
 4252SOL     OW24388   1.601   2.914   8.242 -0.0457  0.4114 -0.2682
 4252SOL    HW124389   1.514   2.884   8.216 -0.7181  1.0527  1.2529
 4252SOL    HW224390   1.588   2.916   8.337 -0.5920 -0.1485 -0.3361
 4253SOL     OW24391   3.144   0.153   4.663 -0.3560  0.2815  0.1306
 4253SOL    HW124392   3.205   0.114   4.726  0.3098 -0.8597 -1.2356
 4253SOL    HW224393   3.083   0.193   4.725  0.3206  0.4303  0.6981
 4254SOL     OW24394   2.755   0.143   3.719  0.2234  0.4264 -0.0080
 4254SOL    HW124395   2.666   0.143   3.685 -1.3042  0.6769  3.9357
 4254SOL    HW224396   2.798   0.131   3.634 -1.4232  1.1133 -0.9279
 4255SOL     OW24397   2.579   1.010   9.170  0.0220 -0.2363  0.3154
 4255SOL    HW124398   2.540   1.049   9.248 -2.7007 -0.7579 -0.7837
 4255SOL    HW224399   2.506   1.012   9.107  0.6448  0.5144 -0.3731
 4256SOL     OW24400   1.172   2.036  14.487 -0.5072 -0.0283 -0.2340
 4256SOL    HW124401   1.228   2.074  14.555  1.0224 -2.1406 -0.3162
 4256SOL    HW224402   1.118   2.115  14.479  0.2827  0.6986  1.5446
 4257SOL     OW24403   0.926   2.926   4.013 -0.4139 -0.1945 -0.2145
 4257SOL    HW124404   0.900   3.000   4.068  0.2620  1.5352 -2.1959
 4257SOL    HW224405   0.893   2.971   3.935  2.1537 -1.3605 -1.9768
 4258SOL     OW24406   1.778   4.306   4.971 -0.2557  0.1584  0.2206
 4258SOL    HW124407   1.865   4.308   5.011  0.8301  2.1308 -2.2159
 4258SOL    HW224408   1.797   4.362   4.895  0.3888 -0.9071 -0.4117
 4259SOL     OW24409   2.314   4.443   7.787 -0.3300  0.3116 -0.2919
 4259SOL    HW124410   2.331   4.349   7.789 -1.8903  0.0354 -0.1547
 4259SOL    HW224411   2.336   4.468   7.697 -2.1179  4.9925  0.5979
 4260SOL     OW24412   3.134   1.574   3.494 -0.4629 -0.0305 -0.5586
 4260SOL    HW124413   3.118   1.623   3.414 -0.4533 -0.2301 -0.6837
 4260SOL    HW224414   3.055   1.596   3.544 -1.0439 -1.6306 -0.7463
 4261SOL     OW24415   2.916   0.117   6.229  0.7214 -0.0107  0.1231
 4261SOL    HW124416   2.968   0.069   6.293 -0.1086  1.5324  1.9451
 4261SOL    HW224417   2.964   0.200   6.229  1.5523 -0.4864  0.0103
 4262SOL     OW24418   0.650   4.513   6.993 -0.0022 -1.3581  0.1162
 4262SOL    HW124419   0.610   4.503   6.907  0.0650 -0.3196 -0.0324
 4262SOL    HW224420   0.735   4.500   6.951 -0.3062  1.1828 -1.3104
 4263SOL     OW24421   4.575   1.049   6.816  0.1391  0.5212 -0.1183
 4263SOL    HW124422   4.559   1.120   6.878  2.8669 -1.2451  2.6294
 4263SOL    HW224423   4.535   1.087   6.738 -0.3340 -0.2369 -0.2462
 4264SOL     OW24424   4.219   1.484  13.129  0.2151 -0.0834 -0.3028
 4264SOL    HW124425   4.134   1.478  13.173  0.9431 -0.7088  1.0036
 4264SOL    HW224426   4.235   1.578  13.142  0.0460 -0.2534  1.1305
 4265SOL     OW24427   3.204   2.435   7.164 -0.2058  0.2429 -0.2771
 4265SOL    HW124428   3.204   2.440   7.259  0.0895  1.8028 -0.3649
 4265SOL    HW224429   3.112   2.446   7.140 -1.1567 -0.7645  2.9342
 4266SOL     OW24430   3.959   4.070   6.921  0.4382  0.1017  0.3377
 4266SOL    HW124431   3.875   4.033   6.950  0.8458 -0.3812  0.9053
 4266SOL    HW224432   3.984   4.128   6.993 -0.1474 -0.2575  0.8357
 4267SOL     OW24433   1.497   0.275   4.056  0.5013  0.0365 -0.0398
 4267SOL    HW124434   1.578   0.270   4.004 -0.4394 -1.0157 -1.3970
 4267SOL    HW224435   1.538   0.275   4.143  0.5075 -1.5583 -0.0493
 4268SOL     OW24436   1.381   4.722   4.313 -0.2090 -0.0747 -0.3030
 4268SOL    HW124437   1.457   0.011   4.264  2.3549 -1.9268  2.4916
 4268SOL    HW224438   1.386   0.059   4.367 -3.2934 -0.1696  0.1305
 4269SOL     OW24439   2.866   1.740   2.146 -0.9220  0.2775  0.0160
 4269SOL    HW124440   2.931   1.758   2.078  0.2530  0.4789  1.1754
 4269SOL    HW224441   2.815   1.666   2.114  0.4597 -0.4044 -0.6214
 4270SOL     OW24442   0.480   1.971   8.600 -0.2807 -0.2641  0.8045
 4270SOL    HW124443   0.419   1.898   8.588  0.6281 -0.4605 -2.5835
 4270SOL    HW224444   0.558   1.920   8.619  0.0068  0.2900  1.1152
 4271SOL     OW24445   1.816   3.252   2.655 -0.8647 -0.0628  0.4199
 4271SOL    HW124446   1.805   3.313   2.582  1.0922  0.0519  0.2030
 4271SOL    HW224447   1.742   3.192   2.649  0.6497 -2.0449  1.4000
 4272SOL     OW24448   4.235   0.550   4.453 -0.2496 -0.6434 -0.5351
 4272SOL    HW124449   4.295   0.496   4.504  1.1771  0.9719 -0.4844
 4272SOL    HW224450   4.291   0.573   4.378  0.9223  0.9352  0.8245
 4273SOL     OW24451   0.976   1.012   9.324  1.1733  0.3521 -0.8668
 4273SOL    HW124452   0.945   0.959   9.251  0.9541 -0.7495  0.0285
 4273SOL    HW224453   0.941   1.100   9.306  2.3910  0.8030 -1.0424
 4274SOL     OW24454   1.339   0.529   6.009 -0.2680  0.3321  0.1094
 4274SOL    HW124455   1.420   0.531   6.061 -0.0268 -0.3372 -0.2469
 4274SOL    HW224456   1.334   0.434   5.999 -2.3593  0.3104  1.4511
 4275SOL     OW24457   3.623   3.450   2.813  0.4671  0.0807  0.3760
 4275SOL    HW124458   3.684   3.376   2.805  0.9310  0.7955 -2.5451
 4275SOL    HW224459   3.624   3.470   2.907  1.0052  3.7028 -0.4016
 4276SOL     OW24460   3.340   3.546   1.016  0.3162  0.1156  0.5873
 4276SOL    HW124461   3.253   3.515   0.991  0.7787  0.6758 -1.7367
 4276SOL    HW224462   3.329   3.641   1.014 -1.3203 -0.0387  2.6006
 4277SOL     OW24463   0.831   2.315  16.738  0.3446 -0.3767  0.7779
 4277SOL    HW124464   0.736   2.327  16.751 -0.5136 -2.1081 -3.9428
 4277SOL    HW224465   0.859   2.385  16.797 -1.2670 -0.5174  1.7201
 4278SOL     OW24466   3.542   2.351   1.480 -0.1368  1.1253 -0.2691
 4278SOL    HW124467   3.505   2.414   1.541 -0.7998  0.5955 -0.1300
 4278SOL    HW224468   3.495   2.379   1.402  1.6595  0.4674 -1.6033
 4279SOL     OW24469   2.624   0.372  10.161  0.4136  0.3206 -0.1073
 4279SOL    HW124470   2.658   0.386  10.072 -0.8432 -1.4071 -0.8671
 4279SOL    HW224471   2.696   0.312  10.180  0.6674  0.2786 -1.1750
 4280SOL     OW24472   3.223   0.691  14.458 -0.0480  0.4283  0.1693
 4280SOL    HW124473   3.233   0.611  14.509  1.9509  0.1546 -0.6611
 4280SOL    HW224474   3.253   0.761  14.515  0.8510 -0.6204  0.9600
 4281SOL     OW24475   0.674   0.316  12.192  0.2773  0.1915 -0.1158
 4281SOL    HW124476   0.682   0.328  12.287 -1.1196  1.6319 -0.1754
 4281SOL    HW224477   0.686   0.407  12.163  2.6776 -0.6492 -1.7471
 4282SOL     OW24478   1.431   1.018  12.975 -0.3419 -0.2145  0.0508
 4282SOL    HW124479   1.507   1.026  12.917  1.1503 -1.7625  1.7835
 4282SOL    HW224480   1.360   1.018  12.912  1.0244  0.3350 -1.4741
 4283SOL     OW24481   1.988   1.826  16.015  0.1765 -0.0011  1.1401
 4283SOL    HW124482   2.036   1.871  16.084  0.2329 -0.0078  1.1049
 4283SOL    HW224483   1.914   1.786  16.062 -0.5181 -0.5515 -0.4217
 4284SOL     OW24484   4.259   1.181  11.417  0.0836 -0.6417  0.1571
 4284SOL    HW124485   4.238   1.211  11.328  0.1725 -0.5068  0.1811
 4284SOL    HW224486   4.342   1.143  11.389  2.1492  2.3357  2.1957
 4285SOL     OW24487   1.118   2.550  13.630 -0.2203  0.4960 -0.2708
 4285SOL    HW124488   1.137   2.469  13.583  1.0411 -0.7193  2.3277
 4285SOL    HW224489   1.209   2.563  13.657 -0.2260  0.2649 -0.1395
 4286SOL     OW24490   4.279   3.579   7.057 -0.3129  0.1011 -0.1988
 4286SOL    HW124491   4.264   3.518   7.130 -0.3070  2.0528  1.4520
 4286SOL    HW224492   4.226   3.654   7.084 -1.3212 -0.1173 -1.5749
 4287SOL     OW24493   3.241   0.708  15.812  0.1631  0.1993 -0.5805
 4287SOL    HW124494   3.271   0.617  15.813  0.8809  0.4186 -2.0015
 4287SOL    HW224495   3.187   0.705  15.733  1.9063 -0.1944 -1.7426
 4288SOL     OW24496   2.578   4.127   2.964  0.1720 -0.1302 -0.2813
 4288SOL    HW124497   2.503   4.075   2.934 -0.0982 -0.8013  1.5424
 4288SOL    HW224498   2.583   4.194   2.896 -1.0843  0.2089 -0.0344
 4289SOL     OW24499   2.792   1.327   8.056 -0.6545 -0.3425  0.2083
 4289SOL    HW124500   2.836   1.249   8.021 -1.4876 -0.5632 -0.3515
 4289SOL    HW224501   2.851   1.400   8.040  1.7293 -2.1017  0.8314
 4290SOL     OW24502   4.105   4.731   4.157 -0.1852 -0.4339 -0.4026
 4290SOL    HW124503   4.077   0.028   4.240  0.0834 -1.9830  0.4157
 4290SOL    HW224504   4.181   0.044   4.135  0.8034 -1.8094 -0.4238
 4291SOL     OW24505   2.806   4.643   9.183 -0.2683  0.0817  0.0062
 4291SOL    HW124506   2.729   4.695   9.157 -0.3927 -0.2998 -0.3879
 4291SOL    HW224507   2.857   4.721   9.205 -1.6270  0.5059  1.6483
 4292SOL     OW24508   1.580   3.256   3.851 -0.1091 -0.3356 -0.2170
 4292SOL    HW124509   1.575   3.294   3.763 -1.7179  0.1211  0.0764
 4292SOL    HW224510   1.674   3.254   3.865  0.3017  1.2412 -2.7089
 4293SOL     OW24511   2.630   0.131   9.146  0.1536 -0.0985  0.0628
 4293SOL    HW124512   2.591   0.091   9.068 -1.5818  1.7839 -0.0351
 4293SOL    HW224513   2.551   0.146   9.198 -1.1922 -0.8843 -1.7350
 4294SOL     OW24514   4.701   2.649  16.253  0.5520  0.1373 -0.0716
 4294SOL    HW124515   4.696   2.576  16.316  0.9874 -0.1984 -0.4268
 4294SOL    HW224516   4.618   2.652  16.207 -0.9526 -1.9792  2.4684
 4295SOL     OW24517   3.899   0.756   4.029  0.5780 -0.2856  0.4713
 4295SOL    HW124518   3.881   0.685   3.966  0.2656  2.0870 -2.1090
 4295SOL    HW224519   3.844   0.827   3.996  1.0932 -0.7696 -1.4460
 4296SOL     OW24520   0.505   0.256   5.075 -0.7372 -0.1684  0.4756
 4296SOL    HW124521   0.572   0.273   5.009  1.5775 -1.6333  2.4833
 4296SOL    HW224522   0.529   0.184   5.132 -1.2318  0.3447  1.3316
 4297SOL     OW24523   1.473   2.569   6.332  0.2069 -0.1340 -0.5836
 4297SOL    HW124524   1.532   2.568   6.407 -0.7595 -0.5803  0.1764
 4297SOL    HW224525   1.464   2.474   6.336  0.7827 -0.1734 -0.1262
 4298SOL     OW24526   4.397   3.235   4.463 -0.2499  0.1255  0.2466
 4298SOL    HW124527   4.407   3.198   4.375  0.5988  2.0647 -0.4637
 4298SOL    HW224528   4.488   3.259   4.480  0.3710 -1.4194 -0.8457
 4299SOL     OW24529   2.065   2.726   2.129 -0.2767  0.0662  0.1686
 4299SOL    HW124530   1.976   2.761   2.143  0.1359  0.6330  1.4311
 4299SOL    HW224531   2.111   2.775   2.197 -0.1803 -1.6701  1.3555
 4300SOL     OW24532   2.045   3.614   6.909 -0.1935  0.5023 -0.0120
 4300SOL    HW124533   2.018   3.522   6.909  2.2804 -0.2242  0.7585
 4300SOL    HW224534   1.963   3.648   6.946 -1.3819 -2.4569  0.0378
 4301SOL     OW24535   2.561   0.818  10.913 -0.1001  0.1442 -0.5053
 4301SOL    HW124536   2.600   0.883  10.854 -0.7294 -0.3049 -1.4050
 4301SOL    HW224537   2.573   0.736  10.865  0.6760 -1.5653  2.6143
 4302SOL     OW24538   1.314   3.170   3.156  0.0339  0.0095 -0.2496
 4302SOL    HW124539   1.224   3.145   3.132 -0.4589  0.5840  1.0026
 4302SOL    HW224540   1.339   3.200   3.068  0.7431  0.0191 -0.0460
 4303SOL     OW24541   1.278   4.358   2.586  0.6673 -0.1402 -0.2094
 4303SOL    HW124542   1.238   4.293   2.529 -0.8112 -1.2814  2.1143
 4303SOL    HW224543   1.202   4.389   2.636  0.5843  0.6362 -0.8192
 4304SOL     OW24544   3.594   3.664   6.821 -0.4663  0.4738 -0.6909
 4304SOL    HW124545   3.625   3.652   6.911 -1.5660  2.8246  0.0055
 4304SOL    HW224546   3.561   3.576   6.804 -0.9363  0.1902  1.6569
 4305SOL     OW24547   2.717   0.780  11.649 -0.8064  0.1480 -0.1030
 4305SOL    HW124548   2.800   0.827  11.648 -2.0072  2.2730 -1.0680
 4305SOL    HW224549   2.752   0.701  11.690 -0.2109  0.7135  0.4886
 4306SOL     OW24550   3.923   1.492   6.251 -0.3176 -0.0066 -0.0721
 4306SOL    HW124551   3.876   1.525   6.174  0.2686  1.5403  0.2321
 4306SOL    HW224552   4.002   1.547   6.250  1.3974 -2.4694 -2.2446
 4307SOL     OW24553   3.726   3.780   3.342  0.1619 -0.3746  0.4584
 4307SOL    HW124554   3.636   3.769   3.371 -0.6027  2.5789 -0.7347
 4307SOL    HW224555   3.759   3.709   3.397  2.6502 -0.4194 -1.0976
 4308SOL     OW24556   0.049   1.887   5.430 -0.3332 -0.5172 -0.0436
 4308SOL    HW124557   0.114   1.818   5.438 -1.5623 -1.6913 -0.2491
 4308SOL    HW224558   4.730   1.844   5.490 -0.3830 -0.2833  0.0740
 4309SOL     OW24559   1.910   2.545   6.457 -0.3562  0.2307  0.3797
 4309SOL    HW124560   1.856   2.617   6.423  0.2405  0.5288  0.0593
 4309SOL    HW224561   1.851   2.472   6.440 -1.6557  2.0605 -2.9773
 4310SOL     OW24562   1.088   4.147   9.325 -0.0427  0.0923  0.0209
 4310SOL    HW124563   1.003   4.184   9.348 -0.0634  0.9628 -1.3957
 4310SOL    HW224564   1.066   4.057   9.347 -0.7961  0.4365  0.6286
 4311SOL     OW24565   4.714   2.751  15.585  0.2548 -0.3257 -0.1707
 4311SOL    HW124566   0.017   2.795  15.657  1.5364 -3.0236  0.6661
 4311SOL    HW224567   0.047   2.706  15.546  1.1377 -1.0293  2.3410
 4312SOL     OW24568   3.244   0.633   9.167 -0.6117  0.5728 -0.3149
 4312SOL    HW124569   3.206   0.556   9.126 -1.5962  1.2853 -0.7485
 4312SOL    HW224570   3.177   0.680   9.218 -1.9089 -0.8511 -0.6963
 4313SOL     OW24571   0.199   2.901   3.522  0.1290  0.6496 -0.1789
 4313SOL    HW124572   0.263   2.837   3.550  1.6915  1.2277 -2.4110
 4313SOL    HW224573   0.227   2.978   3.571 -0.2035  0.3434  0.4929
 4314SOL     OW24574   2.171   0.765   6.150 -0.5935 -0.4012  0.7534
 4314SOL    HW124575   2.082   0.728   6.153  0.0341 -1.7619  2.9558
 4314SOL    HW224576   2.199   0.713   6.075  0.8295  1.3693  0.0652
 4315SOL     OW24577   2.346   1.035   9.631 -0.4115  0.5043 -0.2329
 4315SOL    HW124578   2.364   1.033   9.725 -1.2048 -2.7738 -0.1532
 4315SOL    HW224579   2.351   0.945   9.599 -0.4918 -0.2065  1.7452
 4316SOL     OW24580   2.513   2.782  11.367 -0.5061  0.3652 -0.7198
 4316SOL    HW124581   2.521   2.841  11.292  0.9702 -0.7496 -1.4491
 4316SOL    HW224582   2.419   2.770  11.378 -0.3332  0.8067  1.4232
 4317SOL     OW24583   3.791   2.429   2.356 -0.1483  0.0611  0.3264
 4317SOL    HW124584   3.804   2.509   2.306 -0.8841  0.0799  0.1546
 4317SOL    HW224585   3.836   2.364   2.302 -0.0934 -0.0089  0.4573
 4318SOL     OW24586   2.959   0.416   6.204 -0.0892  0.0989 -0.1082
 4318SOL    HW124587   2.871   0.387   6.229  0.4762 -0.3687  1.3110
 4318SOL    HW224588   2.991   0.473   6.274  2.6728 -0.4666 -0.8884
 4319SOL     OW24589   4.030   1.315   6.663  0.5576  0.3006 -0.1360
 4319SOL    HW124590   4.007   1.299   6.572  0.5111 -0.9036  0.0879
 4319SOL    HW224591   3.988   1.399   6.679 -0.6974 -0.3605  0.0097
 4320SOL     OW24592   0.868   2.218   8.537 -0.0805 -0.7513  0.5790
 4320SOL    HW124593   0.917   2.182   8.463 -1.1135  1.2069 -1.0365
 4320SOL    HW224594   0.912   2.303   8.531  0.3754 -0.8573  2.1438
 4321SOL     OW24595   2.743   3.495   3.125  0.0307 -0.1287  0.7150
 4321SOL    HW124596   2.815   3.463   3.071 -0.6637  0.2245 -0.4244
 4321SOL    HW224597   2.669   3.447   3.089  0.2756 -1.0625  1.4657
 4322SOL     OW24598   3.805   3.590   3.947  0.0190  0.3491  0.0502
 4322SOL    HW124599   3.780   3.499   3.931 -0.9095  0.6676 -0.2774
 4322SOL    HW224600   3.782   3.634   3.866 -0.2200  0.4287  0.1629
 4323SOL     OW24601   3.666   4.218   6.710 -0.0463  0.6429 -0.0923
 4323SOL    HW124602   3.576   4.248   6.695 -0.2334  0.1387  0.0236
 4323SOL    HW224603   3.670   4.132   6.668 -0.3888  0.6625 -0.1651
 4324SOL     OW24604   4.464   0.213   6.244  0.2032 -0.1489 -0.6740
 4324SOL    HW124605   4.428   0.233   6.157  0.7894  0.0461 -0.8697
 4324SOL    HW224606   4.472   0.300   6.281 -1.7379  0.6066 -2.0241
 4325SOL     OW24607   0.406   4.512   9.540 -0.1332  0.4488 -0.0974
 4325SOL    HW124608   0.500   4.525   9.557 -0.4583  0.4117  1.7527
 4325SOL    HW224609   0.368   4.599   9.551  1.2610  1.0393  0.0340
 4326SOL     OW24610   0.084   3.934   7.095 -0.5798  0.8741  0.1211
 4326SOL    HW124611   0.063   3.853   7.142  0.3242  1.3055  1.2826
 4326SOL    HW224612   0.172   3.954   7.129 -1.1038  2.2307  0.6742
 4327SOL     OW24613   0.957   0.747   4.534  0.2648 -0.2695  0.6691
 4327SOL    HW124614   0.863   0.756   4.548 -0.0920 -1.9334 -0.7204
 4327SOL    HW224615   0.989   0.696   4.608  0.2203  1.1537  1.6858
 4328SOL     OW24616   2.753   1.853  10.558 -0.2142 -0.3049  0.0903
 4328SOL    HW124617   2.818   1.788  10.532 -1.4598 -0.5705 -2.3101
 4328SOL    HW224618   2.735   1.900  10.477 -1.8520  0.4751  0.9042
 4329SOL     OW24619   3.616   2.505   5.601  0.3620 -0.3205  0.1308
 4329SOL    HW124620   3.528   2.528   5.569  0.5281  0.0313 -0.0686
 4329SOL    HW224621   3.672   2.530   5.527  0.5033 -1.5258 -0.1706
 4330SOL     OW24622   0.275   2.780   5.679  0.2608  0.2373  0.0258
 4330SOL    HW124623   0.337   2.773   5.607  0.4913  0.4984  0.1940
 4330SOL    HW224624   0.337   2.826   5.737  1.8782  1.5570 -2.7807
 4331SOL     OW24625   1.092   3.502   5.608  0.0566  0.2843  0.0903
 4331SOL    HW124626   1.030   3.573   5.624  2.1343  2.1791 -0.1043
 4331SOL    HW224627   1.031   3.430   5.593  1.7778 -0.7352 -2.0968
 4332SOL     OW24628   0.876   0.193   7.496  0.1842  0.2305 -0.4796
 4332SOL    HW124629   0.830   0.276   7.511  0.3492  0.1406  0.5402
 4332SOL    HW224630   0.835   0.152   7.573  2.3358  0.4232  0.7775
 4333SOL     OW24631   1.023   1.776  13.621 -0.0095 -0.1863  0.6316
 4333SOL    HW124632   1.108   1.786  13.577 -0.2443 -3.1090 -0.5012
 4333SOL    HW224633   1.053   1.758  13.710 -0.5327 -0.4424  0.7539
 4334SOL     OW24634   4.475   1.421   9.283  0.4801 -0.6241  0.5350
 4334SOL    HW124635   4.435   1.342   9.320  0.6555 -0.2282  1.5734
 4334SOL    HW224636   4.550   1.435   9.341 -0.6043  2.5670  1.1691
 4335SOL     OW24637   2.750   3.614  12.246 -0.4273  0.8750  0.7561
 4335SOL    HW124638   2.706   3.559  12.311 -1.5796  0.0938 -0.7130
 4335SOL    HW224639   2.832   3.637  12.292 -0.1610 -0.2734  0.8611
 4336SOL     OW24640   4.031   1.328   2.123  0.3868 -0.4058  0.2366
 4336SOL    HW124641   4.103   1.345   2.184 -0.9128  4.1421  0.4558
 4336SOL    HW224642   4.042   1.405   2.067  0.2162 -1.3166 -1.0562
 4337SOL     OW24643   3.140   1.989   5.011 -0.1586  0.0309  0.7184
 4337SOL    HW124644   3.122   2.069   5.060  0.1462  0.2345  0.5001
 4337SOL    HW224645   3.189   2.019   4.934  0.2740  1.7093  1.6728
 4338SOL     OW24646   2.448   0.434   9.045 -0.4752 -0.3269  0.2653
 4338SOL    HW124647   2.446   0.529   9.044  0.5724 -0.3550 -4.3329
 4338SOL    HW224648   2.531   0.422   9.091 -0.1480 -3.3452 -1.0771
 4339SOL     OW24649   4.166   3.265   2.348  0.3127 -0.1087 -0.2491
 4339SOL    HW124650   4.229   3.266   2.419 -2.5241  0.1708  2.2424
 4339SOL    HW224651   4.221   3.289   2.273  1.3018 -2.7807 -0.3773
 4340SOL     OW24652   1.144   3.157   1.893 -0.3191  0.2493  0.1799
 4340SOL    HW124653   1.215   3.174   1.831  0.8850 -0.4823  1.3664
 4340SOL    HW224654   1.075   3.200   1.843  0.3005  1.2544  0.2059
 4341SOL     OW24655   2.633   0.682   1.617  0.0705  0.1279  0.4854
 4341SOL    HW124656   2.708   0.662   1.672 -1.4290 -0.1777  2.4264
 4341SOL    HW224657   2.601   0.763   1.656  1.1937 -0.6606  3.0515
 4342SOL     OW24658   2.104   4.700   4.285 -0.3626 -0.5528  0.6627
 4342SOL    HW124659   2.192   4.698   4.322 -0.7556 -1.5540  1.5514
 4342SOL    HW224660   2.117   4.633   4.217  0.9472  2.2489 -1.8743
 4343SOL     OW24661   3.836   1.892   8.846  0.0636  0.1047  0.4690
 4343SOL    HW124662   3.855   1.833   8.919  0.3185 -0.3625  0.0232
 4343SOL    HW224663   3.741   1.879   8.837 -0.0466  1.1299  0.1362
 4344SOL     OW24664   0.788   2.901   4.586  0.6289  0.3970 -0.1515
 4344SOL    HW124665   0.759   2.816   4.619  0.5500  0.3802 -0.2667
 4344SOL    HW224666   0.859   2.873   4.528  0.2106 -0.9189 -0.0418
 4345SOL     OW24667   0.491   2.678   2.238  0.8153 -0.0306  0.0769
 4345SOL    HW124668   0.543   2.622   2.294 -0.9131 -2.8945 -1.2168
 4345SOL    HW224669   0.457   2.751   2.290 -1.1712 -1.0631  0.2203
 4346SOL     OW24670   4.494   3.713   3.211 -0.5143 -0.2078 -0.5761
 4346SOL    HW124671   4.449   3.796   3.227 -1.4302 -0.7631 -0.2490
 4346SOL    HW224672   4.549   3.696   3.288 -0.1744  3.4888 -0.0091
 4347SOL     OW24673   0.289   4.327   7.345 -0.2916 -0.4175  0.3632
 4347SOL    HW124674   0.287   4.398   7.409 -1.3242 -1.8215  1.8759
 4347SOL    HW224675   0.335   4.363   7.269 -0.0513  0.2498  0.8253
 4348SOL     OW24676   4.026   1.305   2.661 -0.4321 -0.7290 -0.1113
 4348SOL    HW124677   4.107   1.265   2.693 -0.1977  1.3274  1.8929
 4348SOL    HW224678   4.017   1.245   2.587  1.1511 -2.1827  0.8552
 4349SOL     OW24679   2.797   3.786   7.438 -0.4827  0.4152 -0.3872
 4349SOL    HW124680   2.876   3.785   7.383  0.7629 -3.5356  1.5233
 4349SOL    HW224681   2.803   3.871   7.481 -2.7120  1.3862 -1.9958
 4350SOL     OW24682   0.936   3.664   3.900  0.0700  0.3772 -0.1119
 4350SOL    HW124683   0.956   3.758   3.909 -0.9874  0.6696 -0.7506
 4350SOL    HW224684   0.919   3.644   3.992 -0.7524  2.7304  0.2588
 4351SOL     OW24685   1.982   0.943   4.410  0.7289 -0.1392  0.4669
 4351SOL    HW124686   2.074   0.951   4.386  0.2983  0.9466 -0.8259
 4351SOL    HW224687   1.952   1.034   4.407 -1.0311 -0.7268  0.3644
 4352SOL     OW24688   2.452   2.197   5.260 -0.5532  0.2445 -0.1506
 4352SOL    HW124689   2.367   2.198   5.304  0.0777 -2.8375  1.1357
 4352SOL    HW224690   2.485   2.112   5.291 -1.8302 -0.4384 -0.6536
 4353SOL     OW24691   1.937   3.412   6.728 -0.3740  0.5406 -0.0460
 4353SOL    HW124692   1.854   3.365   6.734 -0.6950  1.1676  0.3899
 4353SOL    HW224693   1.920   3.477   6.660 -2.6973  0.7113  0.6957
 4354SOL     OW24694   1.311   0.330   3.360  0.2623  0.8880 -0.1325
 4354SOL    HW124695   1.377   0.268   3.391 -1.0625 -0.3752  0.1966
 4354SOL    HW224696   1.328   0.332   3.266 -0.9956  0.1007 -0.3791
 4355SOL     OW24697   0.485   3.485  11.322  0.7441  0.4716 -0.1494
 4355SOL    HW124698   0.555   3.481  11.386  1.5997 -1.7650 -1.2325
 4355SOL    HW224699   0.405   3.477  11.374  1.7648 -0.8534  1.2143
 4356SOL     OW24700   0.621   0.908   1.603 -0.6211 -0.3006 -0.1738
 4356SOL    HW124701   0.565   0.984   1.586 -0.0655  0.1649  0.0542
 4356SOL    HW224702   0.610   0.861   1.521  0.8799 -1.4847  0.3049
 4357SOL     OW24703   4.676   2.175   1.953  0.3427  0.4946  0.5190
 4357SOL    HW124704   4.706   2.252   2.002  1.4393 -0.6047  1.5811
 4357SOL    HW224705   4.729   2.113   2.002  1.5812  1.8538  0.9228
 4358SOL     OW24706   3.626   0.707   0.850  0.5416  0.5081  0.0961
 4358SOL    HW124707   3.699   0.649   0.869  0.1278 -1.3923 -4.0879
 4358SOL    HW224708   3.640   0.790   0.894  0.3588  1.7770 -2.2358
 4359SOL     OW24709   2.522   2.660   8.402  0.2218 -0.5330  0.1963
 4359SOL    HW124710   2.618   2.661   8.399  0.2244  1.4577  0.8987
 4359SOL    HW224711   2.505   2.738   8.350 -1.7632 -1.6906 -0.8757
 4360SOL     OW24712   3.006   2.787  15.941 -0.1342 -0.0141 -0.1923
 4360SOL    HW124713   3.067   2.827  15.878  0.7684  0.8027  1.1980
 4360SOL    HW224714   2.967   2.712  15.896 -1.4530  1.1468 -0.9845
 4361SOL     OW24715   4.538   1.942   3.330  0.1886  0.5233  0.3926
 4361SOL    HW124716   4.618   1.982   3.362  0.3038  1.2540 -0.8162
 4361SOL    HW224717   4.567   1.895   3.252 -0.4172 -1.5108  1.4010
 4362SOL     OW24718   1.352   3.761  12.109 -0.1441  0.1312 -0.2689
 4362SOL    HW124719   1.258   3.745  12.117 -0.0046 -0.4401  0.1752
 4362SOL    HW224720   1.378   3.693  12.047 -0.1390  0.3899 -0.5484
 4363SOL     OW24721   3.012   1.641   9.568  0.0349  0.1536 -0.5079
 4363SOL    HW124722   3.028   1.557   9.609 -0.7084  0.0872 -0.3485
 4363SOL    HW224723   2.935   1.674   9.615  0.5142  1.0651 -0.3456
 4364SOL     OW24724   1.883   0.412   6.572 -0.4823 -0.0199 -0.5102
 4364SOL    HW124725   1.801   0.366   6.555  0.8558 -2.1926 -1.0039
 4364SOL    HW224726   1.922   0.424   6.486  0.6080 -0.0466 -0.0242
 4365SOL     OW24727   1.503   1.782  12.035  0.2254  0.2744 -0.5106
 4365SOL    HW124728   1.513   1.695  12.072 -0.5437  0.8371  1.0317
 4365SOL    HW224729   1.530   1.838  12.109  0.0301  0.3194 -0.4736
 4366SOL     OW24730   4.331   4.656   2.846 -0.3083  0.0962  0.1888
 4366SOL    HW124731   4.251   4.692   2.808 -1.6106 -4.0579 -0.9533
 4366SOL    HW224732   4.388   4.730   2.825  0.0876 -0.4401 -0.6751
 4367SOL     OW24733   1.011   0.578   5.725 -0.6616 -0.5652  0.2268
 4367SOL    HW124734   1.084   0.519   5.710 -1.6561 -1.2304 -1.9530
 4367SOL    HW224735   1.037   0.615   5.810  0.7842  0.0812 -0.4912
 4368SOL     OW24736   1.726   0.787   9.247 -0.0692  0.0594 -0.3947
 4368SOL    HW124737   1.806   0.792   9.195 -0.3057  2.1587 -0.5897
 4368SOL    HW224738   1.658   0.771   9.181  1.6261 -1.4236 -1.7717
 4369SOL     OW24739   0.987   2.901   6.947 -0.3934  0.3602  0.1774
 4369SOL    HW124740   1.073   2.922   6.983 -0.0794  2.7110 -1.9026
 4369SOL    HW224741   0.991   2.953   6.866 -0.7663  1.1872  0.6901
 4370SOL     OW24742   3.388   0.550   7.651  0.4787  0.2854 -0.1389
 4370SOL    HW124743   3.352   0.500   7.724  1.6460 -0.1417  0.1322
 4370SOL    HW224744   3.439   0.483   7.604 -1.3226 -0.9895 -0.3215
 4371SOL     OW24745   1.670   0.087  13.935  0.5658  0.4354  0.0468
 4371SOL    HW124746   1.641   0.172  13.904  0.8111  0.2178 -0.7877
 4371SOL    HW224747   1.737   0.109  14.000  1.1566  1.4982 -0.9275
 4372SOL     OW24748   2.301   1.811   7.291  0.3316 -0.3563 -0.5168
 4372SOL    HW124749   2.326   1.719   7.294 -1.8985 -0.8865  0.8263
 4372SOL    HW224750   2.276   1.828   7.381 -1.1292 -1.6323 -0.6928
 4373SOL     OW24751   0.996   0.134  14.969  0.6691 -0.3302 -0.4366
 4373SOL    HW124752   1.060   0.203  14.950  1.2730 -0.4212  1.2257
 4373SOL    HW224753   1.054   0.071  15.011 -1.1547 -1.1088  0.9080
 4374SOL     OW24754   4.175   2.687   9.261  0.0001 -0.3547  0.3175
 4374SOL    HW124755   4.174   2.746   9.186  1.3238  3.3591  3.2150
 4374SOL    HW224756   4.135   2.609   9.224 -2.6457  1.2836 -0.2344
 4375SOL     OW24757   0.243   0.486   3.891  0.3559 -0.0729  0.2170
 4375SOL    HW124758   0.328   0.468   3.850 -0.8662 -0.4542 -2.1052
 4375SOL    HW224759   0.176   0.444   3.838  1.7535 -0.4657 -1.2472
 4376SOL     OW24760   0.569   1.053  15.911  0.2907 -0.1332  0.5208
 4376SOL    HW124761   0.496   1.002  15.945 -1.4307  2.6235  0.9093
 4376SOL    HW224762   0.593   1.011  15.828 -0.9093  0.6362 -0.2047
 4377SOL     OW24763   1.495   1.433   2.990 -0.3101 -0.1128 -0.2233
 4377SOL    HW124764   1.508   1.390   2.905 -2.6173 -0.3183 -0.4669
 4377SOL    HW224765   1.544   1.381   3.054 -0.3021 -1.6317 -1.4687
 4378SOL     OW24766   0.824   1.128   4.326 -0.0216 -0.0874 -0.0683
 4378SOL    HW124767   0.735   1.155   4.347 -0.0219 -0.9018  0.9565
 4378SOL    HW224768   0.806   1.036   4.307  0.2331 -0.3254  0.8488
 4379SOL     OW24769   1.852   2.710   7.778 -0.1875 -0.1534  0.4387
 4379SOL    HW124770   1.796   2.786   7.765 -0.9825 -0.6657  0.8458
 4379SOL    HW224771   1.790   2.653   7.824  1.2074 -2.3214 -0.3762
 4380SOL     OW24772   3.893   2.525   9.077  0.2441 -0.4384  0.2024
 4380SOL    HW124773   3.829   2.455   9.089 -0.8402  0.5523  0.2398
 4380SOL    HW224774   3.973   2.472   9.079  1.0945  0.8005 -0.6903
 4381SOL     OW24775   2.259   0.323   5.348 -0.0701 -0.1552  0.1074
 4381SOL    HW124776   2.263   0.330   5.253  2.2105  2.4329  0.4075
 4381SOL    HW224777   2.301   0.237   5.358 -1.5068 -1.0704 -1.7678
 4382SOL     OW24778   0.670   1.386   5.162  0.3261 -0.1994  0.3741
 4382SOL    HW124779   0.759   1.356   5.182  0.3109 -0.6301 -0.2037
 4382SOL    HW224780   0.625   1.315   5.208  0.8003  0.9264  2.6131
 4383SOL     OW24781   2.903   0.709   7.248  0.6693 -0.1441  0.4046
 4383SOL    HW124782   2.866   0.636   7.298  1.4067 -0.3104  0.7154
 4383SOL    HW224783   2.834   0.743   7.192  1.7292  1.1441 -0.1295
 4384SOL     OW24784   0.880   2.216   7.119  0.7834 -0.2793  0.1574
 4384SOL    HW124785   0.854   2.196   7.029  1.7297 -2.0683  0.2702
 4384SOL    HW224786   0.868   2.311   7.117  0.3269 -0.3250  0.9431
 4385SOL     OW24787   0.180   2.152  15.273 -0.3810  0.4250  0.3213
 4385SOL    HW124788   0.204   2.092  15.344  1.4754  0.9049  0.1016
 4385SOL    HW224789   0.218   2.234  15.306 -3.0603  2.2090 -0.9702
 4386SOL     OW24790   2.965   3.294   7.569 -0.2297 -0.0748  0.0293
 4386SOL    HW124791   2.984   3.290   7.476  3.1383 -2.8313  0.8276
 4386SOL    HW224792   2.870   3.279   7.570 -0.1938 -0.1332  2.5392
 4387SOL     OW24793   3.794   0.358   1.456 -0.4720  0.3314 -0.3033
 4387SOL    HW124794   3.817   0.435   1.404  2.0153 -0.7634 -0.8305
 4387SOL    HW224795   3.706   0.383   1.484 -0.8637  0.3089 -1.5444
 4388SOL     OW24796   2.436   3.984   6.153  0.4938  0.1093 -0.0758
 4388SOL    HW124797   2.517   3.946   6.188  1.6443  1.3455 -1.3997
 4388SOL    HW224798   2.468   4.024   6.072  0.8830 -0.1183 -0.0343
 4389SOL     OW24799   0.328   1.344   4.254 -0.7583  0.6107 -0.5602
 4389SOL    HW124800   0.259   1.334   4.319 -1.5470  1.2696 -1.3060
 4389SOL    HW224801   0.386   1.397   4.309 -1.0453 -0.5888  0.9072
 4390SOL     OW24802   0.315   3.152   7.302  0.4727 -0.1827  0.1591
 4390SOL    HW124803   0.375   3.220   7.333 -0.9745  1.2825 -0.1961
 4390SOL    HW224804   0.295   3.101   7.380 -0.7759 -2.4073 -1.6383
 4391SOL     OW24805   2.243   4.123   6.265 -0.0846  0.0902 -0.4402
 4391SOL    HW124806   2.236   4.052   6.328 -1.5253 -0.2040 -0.9262
 4391SOL    HW224807   2.313   4.081   6.216 -0.6892 -0.5355 -0.7718
 4392SOL     OW24808   0.849   2.558   6.804  0.2363 -0.2535  0.1225
 4392SOL    HW124809   0.845   2.628   6.739 -0.3584 -3.0876 -2.9506
 4392SOL    HW224810   0.867   2.481   6.749  0.7002  0.8657 -1.2888
 4393SOL     OW24811   2.952   0.409  16.469  0.1536 -0.3142 -0.1437
 4393SOL    HW124812   2.857   0.421  16.471  0.2527  0.3100  0.8082
 4393SOL    HW224813   2.963   0.319  16.499  2.1645  0.1799  0.6182
 4394SOL     OW24814   3.760   3.210   2.065 -0.1460  0.1529  0.1936
 4394SOL    HW124815   3.789   3.119   2.075  0.4093  0.3112  0.0321
 4394SOL    HW224816   3.848   3.246   2.072  1.2559 -2.5925 -3.2033
 4395SOL     OW24817   3.907   4.004   3.377 -0.1785 -0.0352  0.1607
 4395SOL    HW124818   3.846   4.057   3.325  0.9286  1.7379  0.6682
 4395SOL    HW224819   3.852   3.926   3.382 -1.6559  0.9760 -0.1328
 4396SOL     OW24820   4.677   4.545   7.620 -0.0369  0.6642 -0.3238
 4396SOL    HW124821   4.652   4.491   7.545 -0.8354  0.5442  0.0260
 4396SOL    HW224822   4.608   4.612   7.625 -2.0451 -1.4041  0.0211
 4397SOL     OW24823   0.558   0.821  13.288  0.3699  0.3540  0.3060
 4397SOL    HW124824   0.491   0.880  13.252  1.4069  2.0079  1.1379
 4397SOL    HW224825   0.631   0.879  13.308  0.2789  0.1847  1.1210
 4398SOL     OW24826   1.725   4.720   4.466 -0.4104 -0.0749 -0.7721
 4398SOL    HW124827   1.724   0.071   4.439 -0.2457  0.2359  0.2831
 4398SOL    HW224828   1.818   4.709   4.487 -0.4591  0.8913 -0.0241
 4399SOL     OW24829   0.126   3.787   9.558  0.5769  0.3755  0.3824
 4399SOL    HW124830   0.173   3.862   9.522  0.3987  0.6685  0.7603
 4399SOL    HW224831   0.195   3.766   9.621  1.4303 -2.6559 -1.5551
 4400SOL     OW24832   4.296   0.551  17.025 -0.6175  0.2948 -0.1207
 4400SOL    HW124833   4.249   0.467  17.029 -0.3192  0.0471 -1.7387
 4400SOL    HW224834   4.245   0.605  16.965  0.9252 -1.9833 -3.5124
 4401SOL     OW24835   3.812   0.131  14.849  0.0373 -0.3110  0.1977
 4401SOL    HW124836   3.851   0.204  14.801  0.9389 -1.1821 -0.3991
 4401SOL    HW224837   3.747   0.169  14.908 -0.9990 -0.2809 -0.9709
 4402SOL     OW24838   1.415   1.173   3.148  0.4818  0.4107  0.8903
 4402SOL    HW124839   1.382   1.199   3.062  1.1910 -0.5230  0.3317
 4402SOL    HW224840   1.340   1.199   3.202 -0.1464  0.3766  0.0319
 4403SOL     OW24841   0.823   4.429  16.519  0.2039  0.3917  0.1290
 4403SOL    HW124842   0.869   4.494  16.467 -1.8467  2.5217  1.0184
 4403SOL    HW224843   0.770   4.487  16.574 -0.3327 -0.1860  0.2250
 4404SOL     OW24844   1.663   1.171   1.305  0.3477  0.2518 -0.0561
 4404SOL    HW124845   1.654   1.147   1.397 -1.0209  1.5002  0.1426
 4404SOL    HW224846   1.758   1.164   1.292  0.0712 -0.7161 -1.5979
 4405SOL     OW24847   0.059   0.618  10.704  0.2199  0.3964  0.5357
 4405SOL    HW124848   0.085   0.534  10.743 -0.6022 -0.0224  0.1787
 4405SOL    HW224849   0.142   0.639  10.660  0.0140 -1.0204 -0.5170
 4406SOL     OW24850   2.256   0.520   1.470 -0.2236  0.3123 -0.0948
 4406SOL    HW124851   2.268   0.609   1.505 -0.7144  0.1334  0.5220
 4406SOL    HW224852   2.345   0.502   1.441  0.8886  1.4124  2.5440
 4407SOL     OW24853   4.522   0.967   5.899 -0.2260  0.2734  0.3256
 4407SOL    HW124854   4.568   0.956   5.983 -1.0058  0.7042  0.8106
 4407SOL    HW224855   4.439   1.002   5.932 -0.7870  0.9421 -1.7894
 4408SOL     OW24856   1.873   2.573   7.352  0.1814 -0.6582  0.2038
 4408SOL    HW124857   1.937   2.545   7.417 -0.3429 -1.1637  0.5046
 4408SOL    HW224858   1.833   2.488   7.334 -0.9948 -0.1404  0.3646
 4409SOL     OW24859   4.188   1.826   7.226 -0.6889  0.2997 -0.1299
 4409SOL    HW124860   4.166   1.905   7.276  2.7667  0.2608  1.5016
 4409SOL    HW224861   4.207   1.862   7.139 -0.2833 -0.0610 -0.1911
 4410SOL     OW24862   1.075   4.452  12.713 -0.0586 -0.7464  0.2480
 4410SOL    HW124863   1.074   4.480  12.622 -0.2513  1.1652  0.8562
 4410SOL    HW224864   1.110   4.363  12.700 -0.6380 -0.8944 -0.3180
 4411SOL     OW24865   4.210   3.782   6.075  0.2375 -0.2992 -0.3223
 4411SOL    HW124866   4.300   3.773   6.108  0.5735  1.1253 -0.8789
 4411SOL    HW224867   4.168   3.849   6.129  0.0902  1.0584 -2.1416
 4412SOL     OW24868   2.299   2.983   3.154  0.5098 -0.8026  0.4826
 4412SOL    HW124869   2.279   3.015   3.066  0.2891 -0.1978  0.7552
 4412SOL    HW224870   2.356   3.054   3.181 -0.4242  0.0828  0.1382
 4413SOL     OW24871   1.853   1.561  15.790  0.2132  0.1523  0.1790
 4413SOL    HW124872   1.928   1.522  15.835 -0.6392 -1.1456  0.4664
 4413SOL    HW224873   1.876   1.528  15.703 -1.5418  0.1129 -0.2811
 4414SOL     OW24874   2.832   0.534   1.990  0.4055  0.2860  0.3980
 4414SOL    HW124875   2.782   0.485   1.924 -0.5963  1.1628  0.5125
 4414SOL    HW224876   2.826   0.480   2.069  1.3633 -0.2409  0.1167
 4415SOL     OW24877   3.500   0.887   8.552 -0.3620  0.4524 -0.5818
 4415SOL    HW124878   3.587   0.866   8.519 -0.8925  0.3068 -1.8647
 4415SOL    HW224879   3.457   0.853   8.474 -0.5942 -0.2683 -0.1389
 4416SOL     OW24880   1.506   0.802   4.124 -0.1511  0.3845  0.1448
 4416SOL    HW124881   1.421   0.777   4.089  0.8710  0.2844 -2.2623
 4416SOL    HW224882   1.556   0.840   4.052 -1.3643 -2.9658 -2.4765
 4417SOL     OW24883   0.518   4.470   4.501 -0.1218  0.4937  0.1760
 4417SOL    HW124884   0.427   4.483   4.527 -0.6138 -0.6119 -0.9866
 4417SOL    HW224885   0.510   4.386   4.455  0.2936  0.1338  0.7570
 4418SOL     OW24886   1.890   4.197   6.544 -0.3916  0.4865 -0.4477
 4418SOL    HW124887   1.982   4.220   6.550 -0.2706 -0.0932 -0.0024
 4418SOL    HW224888   1.846   4.276   6.577  1.0103  1.3521 -0.6737
 4419SOL     OW24889   2.661   2.114   2.342  0.1374  0.3460 -0.1129
 4419SOL    HW124890   2.744   2.126   2.388 -0.2266 -0.5337  0.7852
 4419SOL    HW224891   2.708   2.090   2.263  1.5004 -0.8040  1.0431
 4420SOL     OW24892   3.376   1.325   7.632  0.3032 -0.2049 -0.0162
 4420SOL    HW124893   3.330   1.323   7.716  1.4847  0.5060  0.6436
 4420SOL    HW224894   3.441   1.395   7.637  0.3525 -0.0524 -2.4695
 4421SOL     OW24895   4.477   2.566  12.225  0.0946 -0.3524 -0.2004
 4421SOL    HW124896   4.571   2.573  12.212  0.0302  3.1591  1.0291
 4421SOL    HW224897   4.479   2.555  12.320 -2.1860  0.6833 -0.0294
 4422SOL     OW24898   2.694   0.782   3.451 -0.2453 -0.5788 -0.2082
 4422SOL    HW124899   2.706   0.757   3.543 -1.7067 -0.1040  0.1143
 4422SOL    HW224900   2.657   0.699   3.421 -0.4343 -1.4022  2.2938
 4423SOL     OW24901   4.674   1.230  17.464  0.4282  0.1818 -0.0007
 4423SOL    HW124902   4.583   1.235  17.491  0.3399 -1.2892 -0.0153
 4423SOL    HW224903   4.708   1.301  17.518  1.2909  1.4378 -2.1864
 4424SOL     OW24904   2.920   1.582   8.028  0.3606 -0.1394 -0.6088
 4424SOL    HW124905   2.931   1.655   8.090  3.5604 -0.1515 -1.1522
 4424SOL    HW224906   2.994   1.535   8.066 -1.0920 -0.5184  1.7509
 4425SOL     OW24907   4.558   2.262   8.580 -0.6707 -0.0350 -0.6553
 4425SOL    HW124908   4.559   2.352   8.545  0.6253  0.7302  1.3736
 4425SOL    HW224909   4.584   2.276   8.671  0.1362 -0.6920 -0.7831
 4426SOL     OW24910   2.018   2.626   8.568 -0.1588 -0.4313  0.3173
 4426SOL    HW124911   1.943   2.566   8.571 -0.2919 -0.2663  0.3061
 4426SOL    HW224912   2.077   2.595   8.637  0.4279  1.7826  0.7945
 4427SOL     OW24913   4.479   1.270  10.074 -0.2582  0.2598  0.1321
 4427SOL    HW124914   4.574   1.263  10.069 -0.3660 -0.2015 -1.2051
 4427SOL    HW224915   4.467   1.265  10.169 -2.1404 -1.1743 -0.1858
 4428SOL     OW24916   2.042   2.268  17.763 -0.0768  0.1399  0.0995
 4428SOL    HW124917   2.085   2.325  17.699  1.9862  2.6742  3.7534
 4428SOL    HW224918   2.119   2.218   0.024  1.0324  1.9347  0.2482
 4429SOL     OW24919   1.857   2.679   3.183 -0.2579 -0.1261 -0.0109
 4429SOL    HW124920   1.919   2.738   3.141  1.5952 -0.0277  2.8889
 4429SOL    HW224921   1.894   2.591   3.176  1.6258  0.6289  0.6753
 4430SOL     OW24922   2.880   0.193  16.783 -0.0329 -0.1837 -0.1904
 4430SOL    HW124923   2.838   0.170  16.866  2.7320  0.1402  1.2789
 4430SOL    HW224924   2.849   0.281  16.765 -0.4977 -0.5591 -1.3019
 4431SOL     OW24925   2.432   4.092   8.150 -0.0608 -0.3991  0.1461
 4431SOL    HW124926   2.378   4.104   8.071  1.7948 -0.9156 -1.1924
 4431SOL    HW224927   2.375   4.028   8.193  0.0160  0.4101  1.4367
 4432SOL     OW24928   1.473   0.080   9.094  0.1466 -0.3631 -0.6115
 4432SOL    HW124929   1.412   0.019   9.051  0.6701 -1.5500  0.3205
 4432SOL    HW224930   1.517   0.021   9.155 -1.1545  0.5517  1.1794
 4433SOL     OW24931   3.208   3.921  16.510  0.0944  0.4001 -0.2079
 4433SOL    HW124932   3.270   3.865  16.557  0.3538 -0.4542 -1.5875
 4433SOL    HW224933   3.180   3.970  16.588 -2.3564 -0.1775 -0.7411
 4434SOL     OW24934   2.323   1.843   5.177  0.1465 -0.1779 -0.5250
 4434SOL    HW124935   2.328   1.907   5.105 -0.2856  2.5293  1.8442
 4434SOL    HW224936   2.412   1.808   5.176  0.3108  0.1760  2.8233
 4435SOL     OW24937   2.859   2.629  16.693  0.5803 -0.2521 -0.0012
 4435SOL    HW124938   2.844   2.708  16.641  1.6917  0.0014  0.0614
 4435SOL    HW224939   2.774   2.611  16.734  0.3790 -0.6914 -0.6270
 4436SOL     OW24940   3.553   2.193   7.061  0.2054 -0.2368  0.0893
 4436SOL    HW124941   3.635   2.239   7.041  1.1577 -1.8481  0.2970
 4436SOL    HW224942   3.587   2.140   7.133  3.1701  2.3314  0.5906
 4437SOL     OW24943   0.814   0.900   8.429 -0.1376 -0.2338  0.4229
 4437SOL    HW124944   0.792   0.866   8.342  0.3741  0.6862 -0.0555
 4437SOL    HW224945   0.868   0.830   8.465 -1.6360  0.0694  3.2862
 4438SOL     OW24946   3.667   3.497   7.422  0.8365  0.4524 -0.0044
 4438SOL    HW124947   3.719   3.433   7.471 -0.7936 -0.4106  0.6091
 4438SOL    HW224948   3.632   3.443   7.351  1.4249 -0.1755  0.1894
 4439SOL     OW24949   0.175   0.712   8.430  1.0575  0.6974 -0.3473
 4439SOL    HW124950   0.264   0.743   8.449  0.5152  1.0664  1.5169
 4439SOL    HW224951   0.192   0.622   8.402  2.3812 -0.0099  2.7184
 4440SOL     OW24952   2.641   1.571   4.364 -0.2291  0.0616 -0.1797
 4440SOL    HW124953   2.663   1.525   4.284 -0.7601  0.3790 -0.5142
 4440SOL    HW224954   2.684   1.510   4.423 -0.3283  0.7514  0.6115
 4441SOL     OW24955   4.673   0.403   7.987 -0.1334  0.4098 -0.4158
 4441SOL    HW124956   4.736   0.444   7.927 -0.1069  1.6325  0.4329
 4441SOL    HW224957   4.594   0.452   7.964  1.1323  1.3761 -2.6766
 4442SOL     OW24958   0.570   1.465   1.745  0.1720  0.0347 -0.2312
 4442SOL    HW124959   0.597   1.460   1.653 -0.9730 -0.9930 -0.5202
 4442SOL    HW224960   0.556   1.557   1.768  2.5889 -0.2364  2.3797
 4443SOL     OW24961   3.574   2.812  11.090 -0.8280 -0.2475  0.1841
 4443SOL    HW124962   3.581   2.903  11.119 -1.6687  0.1177 -0.7518
 4443SOL    HW224963   3.480   2.795  11.093 -0.5636 -1.4000  2.0314
 4444SOL     OW24964   1.094   2.126  14.128 -0.5987 -0.2867 -1.1425
 4444SOL    HW124965   1.011   2.092  14.163 -0.7630  0.7155 -0.5548
 4444SOL    HW224966   1.110   2.203  14.183  1.1104 -0.8603 -0.8637
 4445SOL     OW24967   2.466   1.717   4.938  0.2144 -0.4076 -0.2315
 4445SOL    HW124968   2.503   1.782   4.880 -0.4744  1.0101  0.9000
 4445SOL    HW224969   2.391   1.686   4.886 -0.9693 -0.4023  1.4424
 4446SOL     OW24970   1.697   3.360   3.186  0.7012  0.0585  0.4490
 4446SOL    HW124971   1.674   3.267   3.189 -0.6889  0.3650 -1.0028
 4446SOL    HW224972   1.616   3.409   3.199 -0.8115 -2.2502 -0.2762
 4447SOL     OW24973   3.927   3.640   6.480  0.5433 -0.3371 -0.7407
 4447SOL    HW124974   3.989   3.586   6.431  0.4703 -1.2424  0.1442
 4447SOL    HW224975   3.885   3.574   6.536  1.5895 -1.3842 -1.1762
 4448SOL     OW24976   3.953   2.847   1.713 -0.1201  0.3861 -0.2915
 4448SOL    HW124977   3.862   2.869   1.693 -0.2511 -0.9199 -1.1236
 4448SOL    HW224978   3.966   2.753   1.697 -2.5601 -0.0293  0.2239
 4449SOL     OW24979   3.737   1.123   2.506 -0.5283 -0.1480 -0.1671
 4449SOL    HW124980   3.831   1.132   2.490 -0.3201  0.1524  1.1978
 4449SOL    HW224981   3.688   1.132   2.425  0.6359 -0.4879 -0.9115
 4450SOL     OW24982   2.910   4.230   1.960  0.0324  0.6766  0.3953
 4450SOL    HW124983   2.896   4.147   2.006  0.5866  0.3966  0.0682
 4450SOL    HW224984   2.997   4.222   1.921  0.1534  1.5733  0.4785
 4451SOL     OW24985   0.340   4.349   4.985 -0.7975 -0.2194  0.2038
 4451SOL    HW124986   0.274   4.324   5.050  1.7416  0.4066  3.0094
 4451SOL    HW224987   0.287   4.411   4.935  3.1209  2.1628 -0.9688
 4452SOL     OW24988   2.352   0.394   6.198  0.0775  0.3442  0.3181
 4452SOL    HW124989   2.338   0.419   6.289  0.8723 -2.5384  1.2269
 4452SOL    HW224990   2.375   0.301   6.203  1.0284  0.5329 -0.5429
 4453SOL     OW24991   4.625   4.509   2.999  0.0966  0.3815  0.1128
 4453SOL    HW124992   4.667   4.586   2.961 -0.1579  1.1872  1.4775
 4453SOL    HW224993   4.575   4.550   3.069 -0.2076 -0.3518  0.3285
 4454SOL     OW24994   1.273   0.695   8.903 -0.4019 -0.3009 -0.4553
 4454SOL    HW124995   1.248   0.768   8.847 -0.5970  1.9006  2.5071
 4454SOL    HW224996   1.186   0.656   8.913 -1.8504  3.5001  1.5345
 4455SOL     OW24997   2.582   4.473   2.461  0.2612 -0.1110  0.3821
 4455SOL    HW124998   2.554   4.560   2.490 -0.8259 -0.1928 -0.4169
 4455SOL    HW224999   2.659   4.493   2.407  0.3436 -1.0655  0.1464
 4456SOL     OW25000   3.766   0.896   5.411  0.3333  0.1360  0.6385
 4456SOL    HW125001   3.806   0.866   5.492  0.0107 -0.0275  0.7323
 4456SOL    HW225002   3.715   0.971   5.441 -1.2938 -1.3265  1.5160
 4457SOL     OW25003   4.351   2.948   3.907  0.1918  0.1532  0.3232
 4457SOL    HW125004   4.352   3.032   3.861 -1.0733  0.0097  0.0318
 4457SOL    HW225005   4.266   2.912   3.881 -0.0625  0.9669  0.0424
 4458SOL     OW25006   1.163   4.470  10.030  0.3950 -0.6519 -0.4490
 4458SOL    HW125007   1.202   4.461  10.117  1.2789  1.0171 -0.6578
 4458SOL    HW225008   1.093   4.405  10.036  2.0376 -2.2778  1.0791
 4459SOL     OW25009   1.434   0.586   3.372 -0.0063 -0.0159  0.3531
 4459SOL    HW125010   1.387   0.503   3.367  0.2759 -0.1263 -0.6391
 4459SOL    HW225011   1.388   0.631   3.300 -0.5890  0.8548  1.2711
 4460SOL     OW25012   1.909   0.978  13.690 -0.2286  0.1107  0.8152
 4460SOL    HW125013   1.856   1.037  13.744  2.1330  1.7408  1.3476
 4460SOL    HW225014   1.841   0.953  13.627  0.3789 -0.3530  0.3334
 4461SOL     OW25015   2.898   0.763  17.279 -0.5041 -0.2757  0.4809
 4461SOL    HW125016   2.965   0.818  17.238 -1.7261  1.3144  0.6370
 4461SOL    HW225017   2.935   0.735  17.363  1.6227  1.6854  0.2041
 4462SOL     OW25018   3.610   0.311   9.905 -0.5220  0.1646  0.5066
 4462SOL    HW125019   3.524   0.353   9.914 -0.0533  2.1338 -3.6882
 4462SOL    HW225020   3.674   0.365   9.951  1.1677 -2.9056  1.7360
 4463SOL     OW25021   3.441   2.416   6.798 -0.3594  0.7479 -0.1361
 4463SOL    HW125022   3.365   2.413   6.741 -0.1814  0.5006 -0.3637
 4463SOL    HW225023   3.417   2.343   6.855  2.2118  0.1899  0.2500
 4464SOL     OW25024   4.662   1.125   4.365  0.5168  1.1081 -0.0799
 4464SOL    HW125025   4.632   1.077   4.443  0.5561 -0.5261 -1.0910
 4464SOL    HW225026   4.586   1.181   4.349  0.3031  0.6398 -0.7031
 4465SOL     OW25027   2.557   3.459   5.768 -0.3427 -0.5381 -0.7422
 4465SOL    HW125028   2.546   3.364   5.777  1.8759 -0.5815  1.6294
 4465SOL    HW225029   2.650   3.458   5.744  0.5991  0.6000  2.8895
 4466SOL     OW25030   1.993   4.295   8.505 -0.2200  0.3606  0.4720
 4466SOL    HW125031   1.980   4.305   8.600  1.3889  0.0747  0.7138
 4466SOL    HW225032   2.078   4.252   8.502  1.2216  3.3100 -1.0553
 4467SOL     OW25033   1.529   4.194   1.857 -0.5411  0.7814 -0.1922
 4467SOL    HW125034   1.589   4.178   1.930 -0.6826  0.5994 -0.1126
 4467SOL    HW225035   1.441   4.180   1.894 -0.5967  1.7718  0.0388
 4468SOL     OW25036   2.962   4.412   6.806  0.5168  0.4204  0.3034
 4468SOL    HW125037   2.958   4.434   6.713  0.6146 -0.4664  0.0810
 4468SOL    HW225038   2.980   4.318   6.802  0.9138  0.3825  2.9149
 4469SOL     OW25039   2.552   0.732  16.792  0.0692 -0.9887  0.1222
 4469SOL    HW125040   2.493   0.807  16.790 -0.9444 -1.8013 -0.3899
 4469SOL    HW225041   2.596   0.723  16.707 -1.1352 -2.6850 -0.3289
 4470SOL     OW25042   2.607   3.564   1.230  0.4537 -0.0064  0.1073
 4470SOL    HW125043   2.542   3.550   1.161  1.1373 -2.5727 -0.0197
 4470SOL    HW225044   2.554   3.594   1.304 -1.1349 -3.2280  0.2606
 4471SOL     OW25045   2.691   0.473   7.299 -0.1010 -0.4549  0.0711
 4471SOL    HW125046   2.644   0.420   7.362 -2.5710  1.1782 -0.4010
 4471SOL    HW225047   2.735   0.410   7.242 -0.1148 -2.9550  2.8192
 4472SOL     OW25048   0.033   1.763   0.515 -0.2204 -0.1806  0.0474
 4472SOL    HW125049   0.075   1.848   0.526 -1.6444  0.5182  0.0168
 4472SOL    HW225050   0.083   1.717   0.582  1.2693  0.1329 -0.8451
 4473SOL     OW25051   4.349   4.453   8.482 -0.0673  0.5701 -0.5792
 4473SOL    HW125052   4.344   4.358   8.488  1.3073  0.5408  0.0515
 4473SOL    HW225053   4.432   4.453   8.433  0.0820 -0.9173 -0.3052
 4474SOL     OW25054   2.986   0.128   8.261  0.0356  0.1441  0.2197
 4474SOL    HW125055   2.975   0.077   8.341 -1.1288  1.7887  1.1177
 4474SOL    HW225056   2.996   0.068   8.187 -1.7047  2.0845 -1.6109
 4475SOL     OW25057   2.433   2.235   1.855 -0.2133 -0.2135 -0.3706
 4475SOL    HW125058   2.408   2.159   1.908  0.5721 -0.3792 -0.2342
 4475SOL    HW225059   2.502   2.194   1.803  1.1491  2.4652 -0.6751
 4476SOL     OW25060   2.289   4.318   1.429 -0.1168  0.4438  0.6324
 4476SOL    HW125061   2.309   4.317   1.523 -2.8987 -3.2862  1.1801
 4476SOL    HW225062   2.204   4.360   1.439  0.3880  2.1090 -2.0261
 4477SOL     OW25063   1.710   1.555   1.884  0.6504  0.6541  0.0916
 4477SOL    HW125064   1.654   1.575   1.959 -0.0599  0.3144 -0.3544
 4477SOL    HW225065   1.665   1.600   1.813 -0.9897 -0.9472  0.1560
 4478SOL     OW25066   1.218   0.457   7.654 -0.1967 -0.0881 -0.0322
 4478SOL    HW125067   1.187   0.386   7.598  0.3597 -0.9019  0.6883
 4478SOL    HW225068   1.312   0.447   7.639 -0.4180 -0.0395 -1.4792
 4479SOL     OW25069   3.972   0.074   7.137  0.1607  0.2624 -0.4156
 4479SOL    HW125070   3.959   0.135   7.064  1.0883  1.6503  0.5761
 4479SOL    HW225071   3.953   4.737   7.085  0.2645 -0.1297  0.1455
 4480SOL     OW25072   2.255   1.865   2.372  0.1852  0.5434 -0.6558
 4480SOL    HW125073   2.323   1.798   2.387 -0.8918 -0.7249 -1.4785
 4480SOL    HW225074   2.258   1.878   2.278  2.8628  1.6325 -0.4375
 4481SOL     OW25075   0.790   0.683   3.810  0.5503 -0.3614  0.1084
 4481SOL    HW125076   0.734   0.636   3.873  1.2872 -0.2120  0.8651
 4481SOL    HW225077   0.872   0.663   3.855  0.5425 -0.6116  0.0137
 4482SOL     OW25078   3.677   2.049   2.535  0.0067  0.5738 -0.2166
 4482SOL    HW125079   3.633   1.987   2.593 -1.2315 -0.6331 -2.4677
 4482SOL    HW225080   3.759   2.002   2.519 -1.1835 -0.6996 -2.4907
 4483SOL     OW25081   2.961   3.591   9.542  0.2637  0.5191  0.4061
 4483SOL    HW125082   2.897   3.544   9.596  0.3652  0.6378  0.6232
 4483SOL    HW225083   3.046   3.548   9.551  0.1606  0.3455  0.5697
 4484SOL     OW25084   3.839   3.440   5.710 -0.7957 -0.2813 -0.3964
 4484SOL    HW125085   3.825   3.370   5.774  1.0495  0.5088  0.8889
 4484SOL    HW225086   3.931   3.464   5.723 -1.3236  1.9968 -0.8779
 4485SOL     OW25087   0.360   0.887   6.501  0.0865  0.3482 -0.3409
 4485SOL    HW125088   0.276   0.915   6.538  0.4839 -0.1621  0.9248
 4485SOL    HW225089   0.425   0.919   6.563 -1.5554  0.0453  1.5223
 4486SOL     OW25090   0.427   3.003  13.410  0.3589 -0.2169 -0.4402
 4486SOL    HW125091   0.417   2.995  13.315  0.7007 -4.0798 -0.1417
 4486SOL    HW225092   0.398   2.919  13.445 -1.9802  0.1005 -1.6324
 4487SOL     OW25093   4.526   3.965   9.195 -0.1169  0.3059 -0.5009
 4487SOL    HW125094   4.493   4.051   9.222  1.3233  0.3678  1.0722
 4487SOL    HW225095   4.564   3.935   9.278  0.0540  0.6876 -0.4427
 4488SOL     OW25096   1.247   3.273   6.602 -0.2015  0.2053 -1.2639
 4488SOL    HW125097   1.244   3.218   6.524 -0.7195 -1.3603 -0.1235
 4488SOL    HW225098   1.286   3.349   6.559 -2.7818  0.8523 -2.4617
 4489SOL     OW25099   0.228   0.351   7.187  0.1715  0.3578  0.2256
 4489SOL    HW125100   0.314   0.309   7.194 -0.3449 -0.6946  0.2931
 4489SOL    HW225101   0.250   0.440   7.161 -2.0441  0.9268  0.2694
 4490SOL     OW25102   1.640   2.695   7.547  0.3729 -0.1307 -0.3068
 4490SOL    HW125103   1.686   2.619   7.512  1.9024  0.3297  0.7395
 4490SOL    HW225104   1.609   2.745   7.472  0.0963  0.0736 -0.0552
 4491SOL     OW25105   3.565   1.516   0.169 -0.6304  0.2243  0.6604
 4491SOL    HW125106   3.533   1.606   0.166 -1.4615 -0.1224 -0.7408
 4491SOL    HW225107   3.536   1.496   0.258  1.6350 -4.1266  0.4133
 4492SOL     OW25108   2.204   3.102   6.680  0.4177 -0.2397 -0.5752
 4492SOL    HW125109   2.207   3.046   6.758  1.1812 -1.3583 -1.4038
 4492SOL    HW225110   2.131   3.061   6.633  0.6638 -1.2090 -0.1180
 4493SOL     OW25111   2.833   3.362  11.701 -0.0860 -0.4049  0.1347
 4493SOL    HW125112   2.910   3.418  11.717 -0.9703  0.8350  0.0462
 4493SOL    HW225113   2.770   3.429  11.676 -0.1248  0.4605  2.5929
 4494SOL     OW25114   2.577   1.149   8.765 -0.5350  0.0926 -0.4259
 4494SOL    HW125115   2.600   1.058   8.749  2.0771  0.2346  2.5193
 4494SOL    HW225116   2.661   1.194   8.773 -0.3630 -0.5355  1.4377
 4495SOL     OW25117   1.383   4.139   9.669 -0.2168  0.1256  0.1936
 4495SOL    HW125118   1.430   4.064   9.633  0.4460  1.1451 -1.0663
 4495SOL    HW225119   1.400   4.210   9.606  0.4268 -0.2633 -0.0753
 4496SOL     OW25120   3.332   2.574   4.574 -0.1744 -0.3694  0.5139
 4496SOL    HW125121   3.255   2.572   4.517  1.9480  2.2584 -2.3815
 4496SOL    HW225122   3.299   2.619   4.652  0.8690  1.3907 -0.0618
 4497SOL     OW25123   2.589   0.938   4.902 -0.8011  0.1401 -0.1618
 4497SOL    HW125124   2.508   0.925   4.853 -1.3917 -0.4398  0.9523
 4497SOL    HW225125   2.623   1.020   4.866 -1.6356  0.2451 -0.7024
 4498SOL     OW25126   1.695   1.406  16.289 -0.5091  0.2221 -0.4491
 4498SOL    HW125127   1.713   1.476  16.351 -0.9871  1.3060 -1.5543
 4498SOL    HW225128   1.612   1.369  16.319 -0.4280  0.5161  0.1304
 4499SOL     OW25129   0.698   3.161   3.637 -0.3251 -0.2601 -0.0262
 4499SOL    HW125130   0.607   3.182   3.618  0.2800  2.4772  0.0822
 4499SOL    HW225131   0.734   3.249   3.631 -1.1179  0.0054 -0.8500
 4500SOL     OW25132   4.039   1.352   5.931 -0.2957  0.2040  0.2128
 4500SOL    HW125133   4.077   1.318   5.850 -2.3614 -1.8833  0.1148
 4500SOL    HW225134   3.960   1.390   5.893 -0.2979  1.2248  1.2202
 4501SOL     OW25135   3.731   2.489   1.126 -0.4111 -0.3694 -0.1736
 4501SOL    HW125136   3.744   2.582   1.143 -0.0435 -0.7272  1.5511
 4501SOL    HW225137   3.669   2.488   1.053 -0.8446  0.4411  0.1831
 4502SOL     OW25138   0.037   3.279   8.156 -0.2963  0.3790  0.2111
 4502SOL    HW125139   0.128   3.262   8.135 -0.0711 -0.6791  2.0089
 4502SOL    HW225140   0.038   3.373   8.173 -1.9392  0.3639  0.4304
 4503SOL     OW25141   0.545   1.463   0.298 -0.1524  0.0158  0.4275
 4503SOL    HW125142   0.455   1.493   0.292 -0.4773 -1.0476 -0.0381
 4503SOL    HW225143   0.593   1.543   0.279 -1.3773  0.6666  0.0818
 4504SOL     OW25144   3.418   1.140   9.041 -0.3279 -0.5535 -0.0170
 4504SOL    HW125145   3.363   1.149   8.963 -1.1444 -1.0852  0.5012
 4504SOL    HW225146   3.476   1.069   9.013  1.5521  0.7952  0.4190
 4505SOL     OW25147   1.594   4.206   4.159 -0.3644  0.4068  0.1415
 4505SOL    HW125148   1.671   4.165   4.199 -0.4033  0.0878 -0.1073
 4505SOL    HW225149   1.591   4.146   4.084 -0.0666  0.4787  0.0714
 4506SOL     OW25150   2.574   0.731   0.198  0.1540 -0.0668 -0.0813
 4506SOL    HW125151   2.495   0.776   0.228 -1.4545 -1.7505 -1.8362
 4506SOL    HW225152   2.575   0.758   0.106 -0.8376 -1.9468 -0.6296
 4507SOL     OW25153   0.325   4.286   3.535  0.3543  0.0890 -0.3947
 4507SOL    HW125154   0.377   4.210   3.562 -2.1526 -1.8017 -0.8759
 4507SOL    HW225155   0.239   4.250   3.514 -0.9450  1.6944  2.2799
 4508SOL     OW25156   1.859   3.190   1.377  0.0926  0.2184  0.2490
 4508SOL    HW125157   1.949   3.199   1.345  0.3235 -1.3919  0.4476
 4508SOL    HW225158   1.875   3.164   1.468 -0.3629 -0.6532  0.0774
 4509SOL     OW25159   0.084   1.526   7.314  0.0996  0.1669 -0.4447
 4509SOL    HW125160   0.109   1.606   7.268  2.4630 -0.6633 -0.5830
 4509SOL    HW225161   0.151   1.477   7.267  1.4409  0.5186  1.1046
 4510SOL     OW25162   0.293   0.261  13.058 -0.0581  0.2280  0.0587
 4510SOL    HW125163   0.282   0.187  12.999 -0.1621 -0.5340  1.0328
 4510SOL    HW225164   0.309   0.216  13.141  0.1466  0.7237  0.2888
 4511SOL     OW25165   2.422   3.745   0.858  0.1102 -0.0400  0.2266
 4511SOL    HW125166   2.415   3.673   0.796 -1.5036 -1.3385  1.9314
 4511SOL    HW225167   2.336   3.787   0.850  0.7101  1.2871  0.7160
 4512SOL     OW25168   3.239   0.257  16.959  0.2334 -0.3993  0.0547
 4512SOL    HW125169   3.162   0.313  16.965 -0.2548 -1.2429  1.6866
 4512SOL    HW225170   3.194   0.182  16.920  1.7231 -1.6173  0.6806
 4513SOL     OW25171   0.240   0.117   7.471 -0.5633 -0.1102  0.1344
 4513SOL    HW125172   0.325   0.147   7.438  0.2039 -2.1703  0.2759
 4513SOL    HW225173   0.225   0.179   7.543 -1.6322 -1.1197  0.7706
 4514SOL     OW25174   2.742   4.720   4.028  0.0239 -0.1190  0.6469
 4514SOL    HW125175   2.830   4.724   3.991  0.4650  0.2205  1.7083
 4514SOL    HW225176   2.731   4.626   4.042  1.0521  0.0543  2.6978
 4515SOL     OW25177   0.701   2.585   7.760 -0.1475 -0.2533  0.5200
 4515SOL    HW125178   0.694   2.662   7.817 -0.1196  0.1208  0.0193
 4515SOL    HW225179   0.644   2.522   7.803  0.4199 -1.3086 -0.2723
 4516SOL     OW25180   3.239   2.433   5.000  0.1409 -0.6129 -0.0383
 4516SOL    HW125181   3.229   2.460   5.091 -1.5748  2.0305 -1.0033
 4516SOL    HW225182   3.163   2.478   4.963 -1.0652 -1.4611  1.4171
 4517SOL     OW25183   0.849   4.492   5.809 -0.1589 -0.7049  0.4628
 4517SOL    HW125184   0.858   4.397   5.815 -0.0391 -0.6433  1.3108
 4517SOL    HW225185   0.868   4.516   5.900 -1.5076 -0.0958  0.5772
 4518SOL     OW25186   1.111   2.096  11.056  0.0604  0.0689  0.3547
 4518SOL    HW125187   1.052   2.026  11.084  0.6177 -1.0600 -1.3111
 4518SOL    HW225188   1.109   2.105  10.961 -4.4970 -3.5123  0.1102
 4519SOL     OW25189   3.567   1.054   5.495 -0.2484 -0.3410 -0.5056
 4519SOL    HW125190   3.496   1.027   5.437 -1.4488 -0.9647  1.2273
 4519SOL    HW225191   3.524   1.119   5.550  2.3645  0.7496  0.2481
 4520SOL     OW25192   2.767   1.289   3.183  0.3619 -0.3048  0.1039
 4520SOL    HW125193   2.771   1.215   3.244  0.5555  0.5291  1.0883
 4520SOL    HW225194   2.797   1.352   3.248  1.6407 -0.9087  0.1002
 4521SOL     OW25195   1.239   1.103   1.812 -0.3212 -0.0496 -0.3219
 4521SOL    HW125196   1.187   1.032   1.773 -1.8793  1.0410 -0.2316
 4521SOL    HW225197   1.171   1.159   1.849  0.0314  0.3974 -0.3469
 4522SOL     OW25198   0.685   2.419   8.050  0.1089 -0.2555 -0.3511
 4522SOL    HW125199   0.598   2.409   8.012  0.7497  0.5992 -2.0482
 4522SOL    HW225200   0.677   2.486   8.118  0.0342 -0.9081  0.2858
 4523SOL     OW25201   4.301   2.557   6.126  0.2732 -0.3697 -0.4976
 4523SOL    HW125202   4.300   2.506   6.208  0.4727 -1.4282 -1.1493
 4523SOL    HW225203   4.268   2.641   6.157 -0.1002 -1.2323  1.4994
 4524SOL     OW25204   3.903   1.535   1.399  0.2205  0.6251 -0.1119
 4524SOL    HW125205   3.905   1.526   1.304 -1.8506 -3.2513  0.2133
 4524SOL    HW225206   3.808   1.547   1.404  0.2596 -0.1276  2.2490
 4525SOL     OW25207   0.409   4.367  16.557  0.6422  0.7895  0.6070
 4525SOL    HW125208   0.393   4.431  16.627 -0.2886  0.0462  1.0700
 4525SOL    HW225209   0.502   4.347  16.560  0.6854  1.3294  2.5603
 4526SOL     OW25210   1.014   0.351   3.736  0.5341  0.3759 -0.1530
 4526SOL    HW125211   1.079   0.409   3.695 -0.9430  1.3184 -1.1680
 4526SOL    HW225212   1.043   0.343   3.827 -1.8748 -0.4964  0.5278
 4527SOL     OW25213   0.296   4.469  13.556  1.2218  0.0891  0.4712
 4527SOL    HW125214   0.226   4.409  13.528  2.2392 -0.1188 -1.6620
 4527SOL    HW225215   0.347   4.475  13.475 -1.4121  2.0635 -1.0461
 4528SOL     OW25216   4.442   1.369   8.798  0.4717 -0.8043  0.2464
 4528SOL    HW125217   4.469   1.390   8.708  1.1117 -1.5211  0.2719
 4528SOL    HW225218   4.485   1.286   8.819 -0.7136 -0.7694  2.7212
 4529SOL     OW25219   1.737   0.983   2.794 -0.1900  0.2008 -0.3473
 4529SOL    HW125220   1.717   0.916   2.860 -2.4991  1.2177 -0.0235
 4529SOL    HW225221   1.668   0.965   2.729  0.0239  0.7222 -0.7206
 4530SOL     OW25222   3.385   2.223   2.013  0.0389  0.8959  0.3738
 4530SOL    HW125223   3.371   2.311   1.977 -1.7152  0.3171 -0.3841
 4530SOL    HW225224   3.400   2.175   1.931 -1.1390  1.5536 -0.2431
 4531SOL     OW25225   3.171   4.207   1.781 -0.2881  0.0021 -0.0473
 4531SOL    HW125226   3.224   4.252   1.715 -0.8001  0.7694  0.0612
 4531SOL    HW225227   3.158   4.119   1.745 -1.9835  0.1095  0.3340
 4532SOL     OW25228   1.363   0.367   0.778  0.0533  0.2144 -0.4987
 4532SOL    HW125229   1.313   0.312   0.838  1.1908 -0.4228 -0.1348
 4532SOL    HW225230   1.443   0.318   0.762 -0.8655 -1.5740  0.3438
 4533SOL     OW25231   2.707   2.288   2.963 -0.6960 -0.2334  0.2273
 4533SOL    HW125232   2.680   2.380   2.969  1.3180  0.3133  0.7317
 4533SOL    HW225233   2.716   2.285   2.868 -0.3287  2.2143  0.1964
 4534SOL     OW25234   3.914   2.095   2.895  0.1568 -0.4941 -0.0442
 4534SOL    HW125235   3.869   2.085   2.811 -1.7665 -1.1915  1.0997
 4534SOL    HW225236   3.838   2.082   2.950  0.5160  0.4825  0.6880
 4535SOL     OW25237   1.787   0.083   8.271 -0.1185 -0.2141  0.0191
 4535SOL    HW125238   1.833   0.128   8.342  1.6056  0.9339 -1.8393
 4535SOL    HW225239   1.702   0.068   8.312 -0.8101 -0.5950 -1.5909
 4536SOL     OW25240   0.549   1.288   7.418  0.0062 -0.5243 -0.2213
 4536SOL    HW125241   0.609   1.357   7.391  0.7777 -2.6676 -4.0313
 4536SOL    HW225242   0.624   1.229   7.432  1.2203  1.2206  0.7488
 4537SOL     OW25243   4.431   3.427   3.231 -0.3063 -0.3041  0.4540
 4537SOL    HW125244   4.486   3.392   3.301  1.1090  2.9526  0.9787
 4537SOL    HW225245   4.413   3.516   3.261 -3.5795 -1.0175  0.5972
 4538SOL     OW25246   4.359   0.460  14.837 -0.6931  0.2218  0.0516
 4538SOL    HW125247   4.386   0.377  14.798  0.8919  0.8455 -0.1660
 4538SOL    HW225248   4.346   0.433  14.928 -0.1209  1.0597  0.3848
 4539SOL     OW25249   1.675   1.104   3.528 -0.2760 -0.6294 -0.8827
 4539SOL    HW125250   1.719   1.019   3.531  1.6348  0.3765 -0.0235
 4539SOL    HW225251   1.661   1.107   3.433 -0.6903 -1.3049 -0.8388
 4540SOL     OW25252   2.322   3.274   9.792 -0.0300  0.1813 -0.0033
 4540SOL    HW125253   2.363   3.308   9.713  1.3016  1.6197  1.2819
 4540SOL    HW225254   2.318   3.181   9.773  2.9861  0.1964 -0.6832
 4541SOL     OW25255   0.813   2.456   5.524  0.0776 -0.5074  0.1076
 4541SOL    HW125256   0.894   2.408   5.540 -0.4852 -0.7992  2.0671
 4541SOL    HW225257   0.794   2.431   5.433  0.5982  0.4651 -0.2693
 4542SOL     OW25258   1.567   4.649   6.532  0.2954 -0.0164 -0.4857
 4542SOL    HW125259   1.589   4.621   6.620 -0.2914 -0.3897 -0.4581
 4542SOL    HW225260   1.472   4.664   6.529  0.2466  0.2012  2.3118
 4543SOL     OW25261   1.963   1.016   8.592 -0.0743  0.0271  0.3353
 4543SOL    HW125262   1.991   0.982   8.507 -1.3211 -1.5353  0.5439
 4543SOL    HW225263   1.885   0.967   8.617  0.1925  0.2254  1.5734
 4544SOL     OW25264   2.164   0.297   7.221  0.0002 -0.0209  0.4005
 4544SOL    HW125265   2.235   0.270   7.280  0.7243  0.6152 -0.1661
 4544SOL    HW225266   2.218   0.346   7.158  1.4911 -2.8694 -0.5327
 4545SOL     OW25267   0.057   3.143   6.387  0.0736 -0.4861  0.9235
 4545SOL    HW125268   0.086   3.229   6.417 -0.8476  0.7495 -1.7120
 4545SOL    HW225269   0.050   3.100   6.472  1.6026 -0.9406  0.8280
 4546SOL     OW25270   2.009   1.530  17.620  0.3646 -0.5399 -0.0806
 4546SOL    HW125271   2.083   1.512  17.561 -0.8050  1.2374 -2.0559
 4546SOL    HW225272   1.937   1.559  17.566 -0.9346  1.1006  2.5537
 4547SOL     OW25273   4.490   2.612   8.049  0.1765 -0.1311  0.2335
 4547SOL    HW125274   4.395   2.623   8.040  0.0593 -1.8932 -0.6599
 4547SOL    HW225275   4.491   2.663   8.130 -0.8366  2.8333 -1.6250
 4548SOL     OW25276   4.394   4.334  17.235 -0.5430 -0.2800  0.0823
 4548SOL    HW125277   4.334   4.277  17.187 -0.6556 -0.1689  0.0901
 4548SOL    HW225278   4.401   4.412  17.180 -2.3036 -2.0351 -2.6099
 4549SOL     OW25279   3.890   2.139  17.198  0.2331 -0.1545  0.0403
 4549SOL    HW125280   3.974   2.167  17.162  0.5871  2.2209  2.6617
 4549SOL    HW225281   3.850   2.114  17.115 -1.0017 -2.0809  1.2164
 4550SOL     OW25282   4.394   3.014   1.184  0.0727 -0.2614  1.0528
 4550SOL    HW125283   4.414   2.974   1.099 -0.1030  1.1586  0.3440
 4550SOL    HW225284   4.340   3.085   1.148  2.3318  1.3491  0.8683
 4551SOL     OW25285   0.401   0.801   2.666 -0.7335  0.3470  0.0884
 4551SOL    HW125286   0.382   0.826   2.756 -0.8178 -1.5954  0.5907
 4551SOL    HW225287   0.432   0.885   2.631 -0.2673 -0.2047 -0.8113
 4552SOL     OW25288   0.017   2.613  12.229 -0.0038  0.3599  0.6492
 4552SOL    HW125289   0.058   2.651  12.151 -3.2082  2.6082  0.0450
 4552SOL    HW225290   0.066   2.659  12.298  0.0957  1.4889 -0.1734
 4553SOL     OW25291   4.642   3.109   5.292  0.2331  0.2917 -0.3176
 4553SOL    HW125292   4.619   3.108   5.385 -0.9797 -3.2809 -0.6618
 4553SOL    HW225293   4.697   3.031   5.289  1.5439  1.1722  0.5359
 4554SOL     OW25294   0.418   0.200   3.261  0.1537 -0.3279 -0.3825
 4554SOL    HW125295   0.504   0.241   3.262  0.0351 -0.0799 -0.3930
 4554SOL    HW225296   0.441   0.108   3.273  0.6192  0.1062  1.9357
 4555SOL     OW25297   3.182   2.943  15.771  0.2168  0.0515 -0.5895
 4555SOL    HW125298   3.124   2.994  15.714  0.7856 -0.5576 -1.7081
 4555SOL    HW225299   3.236   2.902  15.704 -1.1351  1.1161 -2.3310
 4556SOL     OW25300   2.782   0.655   8.980 -0.3745 -0.0442 -0.3214
 4556SOL    HW125301   2.872   0.685   8.968 -0.0270 -0.5454  1.0822
 4556SOL    HW225302   2.786   0.621   9.069  2.1407  1.0440 -0.0302
 4557SOL     OW25303   1.162   1.840   6.000 -0.3922 -0.5895  0.1511
 4557SOL    HW125304   1.234   1.895   6.030 -1.1646  0.9430 -0.7807
 4557SOL    HW225305   1.140   1.884   5.917 -0.9149 -0.0184  0.5882
 4558SOL     OW25306   4.262   3.328  13.646 -1.1924  0.2271 -0.5419
 4558SOL    HW125307   4.192   3.317  13.710 -1.9887 -1.3179 -1.6785
 4558SOL    HW225308   4.298   3.239  13.647  0.6938  0.9831 -1.8516
 4559SOL     OW25309   3.083   2.019   2.683 -0.4406  0.2629  0.1427
 4559SOL    HW125310   3.173   2.027   2.652 -0.5458 -1.9235 -0.7170
 4559SOL    HW225311   3.092   2.033   2.777 -0.5666  0.9137  0.0615
 4560SOL     OW25312   1.528   1.772   2.312  0.0316 -0.2658 -0.5157
 4560SOL    HW125313   1.584   1.696   2.296 -1.6307 -1.3847 -1.0013
 4560SOL    HW225314   1.451   1.722   2.340 -0.1107  0.5749  0.5809
 4561SOL     OW25315   1.987   1.414  13.356  0.1819 -0.3329  0.2099
 4561SOL    HW125316   1.991   1.507  13.380 -1.2510 -0.2040 -0.0733
 4561SOL    HW225317   2.009   1.364  13.435  1.0207  1.6962  1.2382
 4562SOL     OW25318   2.521   4.030   4.726  0.4370 -0.1686  0.0775
 4562SOL    HW125319   2.541   4.089   4.798  4.0466 -0.7607 -0.4356
 4562SOL    HW225320   2.559   3.952   4.767 -2.5192 -2.3362 -1.3559
 4563SOL     OW25321   3.094   1.447   8.763 -0.3769 -0.0492 -0.1110
 4563SOL    HW125322   3.141   1.366   8.740 -1.4825 -0.0811 -2.3058
 4563SOL    HW225323   3.143   1.512   8.713  0.7604 -2.1092 -1.7144
 4564SOL     OW25324   0.490   4.716   6.677  0.7379  0.0246 -0.3989
 4564SOL    HW125325   0.404   4.700   6.638  0.3297 -0.4557  0.7264
 4564SOL    HW225326   0.521   4.629   6.699 -1.1721 -0.5687 -0.0560
 4565SOL     OW25327   2.147   2.561   5.602 -0.4404 -0.8115  0.0144
 4565SOL    HW125328   2.082   2.561   5.672 -1.0779 -0.4278 -0.5857
 4565SOL    HW225329   2.224   2.601   5.642 -0.8385  1.1712 -1.2489
 4566SOL     OW25330   3.477   2.327  12.751  1.2954 -0.1638  0.0715
 4566SOL    HW125331   3.443   2.390  12.687 -2.2040 -1.5692  0.5304
 4566SOL    HW225332   3.394   2.300  12.790  1.0323  0.4495 -0.0574
 4567SOL     OW25333   4.225   0.916  15.230  0.0026  0.2371 -0.9433
 4567SOL    HW125334   4.219   0.970  15.152  1.3872 -0.0678 -1.2636
 4567SOL    HW225335   4.237   0.830  15.189 -2.7206  0.7976 -2.8932
 4568SOL     OW25336   0.294   2.017   2.898  1.1199  0.1377  0.2478
 4568SOL    HW125337   0.311   1.923   2.890  0.7166 -0.0204  1.1309
 4568SOL    HW225338   0.206   2.015   2.938  0.4859 -1.5206 -1.2435
 4569SOL     OW25339   3.982   1.683   4.217 -0.3089 -0.0880  0.6333
 4569SOL    HW125340   4.066   1.717   4.247 -0.8368  1.8007 -0.0519
 4569SOL    HW225341   3.948   1.768   4.190 -0.3753 -0.9031 -1.8339
 4570SOL     OW25342   4.326   1.904   6.977  1.0683 -0.1050 -0.4893
 4570SOL    HW125343   4.363   1.982   7.019  1.9086 -0.7483 -0.0296
 4570SOL    HW225344   4.405   1.876   6.931 -0.0016 -1.8352 -1.2703
 4571SOL     OW25345   4.577   3.386   5.279  0.4515 -0.3448 -0.1565
 4571SOL    HW125346   4.536   3.374   5.194  0.7138 -0.2251 -0.2999
 4571SOL    HW225347   4.603   3.294   5.286  0.6904 -0.1880  1.0784
 4572SOL     OW25348   3.685   1.912   1.672 -0.0996 -0.1430  0.1372
 4572SOL    HW125349   3.623   1.872   1.612  0.0919 -0.4864  0.1648
 4572SOL    HW225350   3.750   1.946   1.610 -0.8491  0.7542 -0.1424
 4573SOL     OW25351   4.279   1.270  11.143  0.2118  0.0364 -0.1189
 4573SOL    HW125352   4.217   1.221  11.089  0.2750  2.2288 -2.1827
 4573SOL    HW225353   4.265   1.363  11.124 -0.3319  0.0016  0.1069
 4574SOL     OW25354   3.723   2.480   8.813 -0.3003 -0.1445 -0.9138
 4574SOL    HW125355   3.709   2.539   8.739  0.4603  0.8087 -0.3083
 4574SOL    HW225356   3.658   2.521   8.871 -0.7627 -0.4308 -1.2288
 4575SOL     OW25357   3.788   0.879   8.913  0.0803  0.3805 -0.5466
 4575SOL    HW125358   3.707   0.928   8.928  0.3874  0.2657  1.5562
 4575SOL    HW225359   3.761   0.795   8.877 -1.1210  0.4485  0.2055
 4576SOL     OW25360   4.630   1.751  14.055 -0.6528  0.4156 -0.5180
 4576SOL    HW125361   4.578   1.830  14.041 -1.9806  0.0723  2.4696
 4576SOL    HW225362   4.681   1.745  13.974  1.5382 -0.8888  0.9897
 4577SOL     OW25363   0.163   2.824  15.260 -0.3059 -0.2409  0.2052
 4577SOL    HW125364   0.177   2.783  15.175 -2.4563 -2.6107  0.9932
 4577SOL    HW225365   0.188   2.912  15.231 -2.4024  0.8473  1.7398
 4578SOL     OW25366   1.791   2.186   9.758 -0.0628  0.0670  0.9098
 4578SOL    HW125367   1.697   2.171   9.749 -0.0899 -0.0220  1.3545
 4578SOL    HW225368   1.800   2.222   9.670  0.4405  0.3776  1.0892
 4579SOL     OW25369   0.531   2.392   5.047 -0.1089  0.3768  0.2532
 4579SOL    HW125370   0.582   2.388   4.966 -0.2267  0.1868  0.1886
 4579SOL    HW225371   0.600   2.361   5.107  1.3655  0.2466 -1.4921
 4580SOL     OW25372   0.752   0.535   5.119 -0.3866  0.7680 -0.1588
 4580SOL    HW125373   0.799   0.470   5.172 -2.9172  0.1765  1.3668
 4580SOL    HW225374   0.666   0.543   5.161 -0.4615  2.8371 -0.7004
 4581SOL     OW25375   3.383   4.741   2.246  0.0350  0.3590 -0.6301
 4581SOL    HW125376   3.337   0.076   2.281  0.5563 -0.5032  1.8917
 4581SOL    HW225377   3.468   0.033   2.218 -0.2381  2.1977  0.7821
 4582SOL     OW25378   1.258   2.634   7.540 -0.1923  0.0602  0.2084
 4582SOL    HW125379   1.247   2.654   7.447 -2.9805  0.2301  0.5568
 4582SOL    HW225380   1.311   2.555   7.532  1.4304  1.1313  0.3604
 4583SOL     OW25381   0.047   0.132  14.127 -0.6130  0.0690  0.0541
 4583SOL    HW125382   4.725   0.060  14.128 -0.0206 -0.4691 -0.8536
 4583SOL    HW225383   0.009   0.179  14.052 -1.5274 -0.7276  0.0183
 4584SOL     OW25384   0.760   0.455   5.752 -0.2151 -0.1270  0.3543
 4584SOL    HW125385   0.820   0.518   5.714 -0.8055  0.1723 -0.0885
 4584SOL    HW225386   0.797   0.427   5.836 -3.7314 -1.5395  1.4502
 4585SOL     OW25387   3.270   2.116  14.045 -0.4416 -0.0532 -0.2666
 4585SOL    HW125388   3.229   2.188  14.093 -2.5983 -0.5388 -1.3864
 4585SOL    HW225389   3.268   2.050  14.113  0.9868  0.0292 -0.1296
 4586SOL     OW25390   1.491   2.962   9.229  0.3611 -0.2718  0.5747
 4586SOL    HW125391   1.552   2.985   9.299  1.8226 -1.6422 -0.2526
 4586SOL    HW225392   1.515   3.026   9.162 -2.7208 -1.8691 -2.0617
 4587SOL     OW25393   1.760   3.626   9.943 -0.0838 -0.0235 -0.2495
 4587SOL    HW125394   1.817   3.695   9.909  0.6340  0.1741  1.3440
 4587SOL    HW225395   1.817   3.589  10.010 -1.6477  0.3554  1.2825
 4588SOL     OW25396   0.995   0.276   2.826  0.3370  0.4186 -0.3395
 4588SOL    HW125397   0.940   0.330   2.882  0.1387  2.3384 -2.3627
 4588SOL    HW225398   0.940   0.208   2.786  1.6432  0.6232 -2.5229
 4589SOL     OW25399   0.146   3.617   5.920 -0.4456 -0.1577 -0.4153
 4589SOL    HW125400   0.129   3.701   5.879 -1.4310  0.1775  0.6941
 4589SOL    HW225401   0.211   3.645   5.983 -1.1414 -0.7952  0.5994
 4590SOL     OW25402   1.689   2.662  15.384 -0.4749  0.5305 -0.0668
 4590SOL    HW125403   1.697   2.683  15.291  0.2999  2.6163  0.4659
 4590SOL    HW225404   1.773   2.693  15.419 -0.0585  0.0609 -0.6694
 4591SOL     OW25405   1.373   1.222   9.650  0.5212 -0.0141  0.8326
 4591SOL    HW125406   1.421   1.139   9.643  0.3594 -0.1157  0.9193
 4591SOL    HW225407   1.354   1.231   9.743  2.7361 -1.7930  1.4787
 4592SOL     OW25408   1.863   3.218   3.449  0.3548 -0.1158 -0.7987
 4592SOL    HW125409   1.912   3.137   3.464  0.2971  0.0151  0.0737
 4592SOL    HW225410   1.773   3.186   3.450 -0.7965  3.1010 -0.8458
 4593SOL     OW25411   0.632   0.328  15.820 -0.3080 -0.6293  0.3020
 4593SOL    HW125412   0.592   0.280  15.748 -1.4459  0.1621  0.4048
 4593SOL    HW225413   0.559   0.363  15.872  0.5102  1.1306  0.2938
 4594SOL     OW25414   3.496   0.579   2.747  0.1900 -0.0747 -0.4655
 4594SOL    HW125415   3.403   0.584   2.727  0.0814  0.0259  0.0948
 4594SOL    HW225416   3.521   0.669   2.764 -0.2614 -0.4301  2.0059
 4595SOL     OW25417   0.272   2.320   2.821 -0.1742 -0.0645  0.0364
 4595SOL    HW125418   0.282   2.233   2.860  2.9943  0.5768  0.7133
 4595SOL    HW225419   0.178   2.329   2.836 -0.5471 -2.1359 -1.0680
 4596SOL     OW25420   1.568   1.742   5.904 -0.1950  0.3252 -0.0514
 4596SOL    HW125421   1.569   1.837   5.893 -0.9501  0.4884  1.2510
 4596SOL    HW225422   1.642   1.725   5.962 -0.0684  0.1115 -0.2740
 4597SOL     OW25423   3.040   4.541   1.968 -0.6262 -0.1183 -0.1541
 4597SOL    HW125424   3.053   4.446   1.972  2.1085  0.2576 -0.0046
 4597SOL    HW225425   3.010   4.556   2.058  2.2671  0.2842  0.7493
 4598SOL     OW25426   0.732   0.991   2.642  0.3477  0.1272 -0.1691
 4598SOL    HW125427   0.718   1.009   2.735 -0.0314  3.2482 -0.8421
 4598SOL    HW225428   0.806   1.051   2.638 -1.0004  1.7222 -0.6868
 4599SOL     OW25429   2.574   3.897   3.563  0.6318  0.3722 -0.3817
 4599SOL    HW125430   2.532   3.951   3.496  1.7493  1.0752 -0.5125
 4599SOL    HW225431   2.669   3.901   3.553  0.8563 -1.7798  0.9025
 4600SOL     OW25432   0.844   4.342   1.788 -0.4068  0.0100  0.6218
 4600SOL    HW125433   0.807   4.415   1.738  0.6804  0.5816  0.6541
 4600SOL    HW225434   0.851   4.270   1.726 -0.3071  0.6940 -0.1595
 4601SOL     OW25435   1.380   3.220   4.489 -0.6957 -0.1404  0.6562
 4601SOL    HW125436   1.327   3.200   4.567 -0.1971  1.0352  1.3014
 4601SOL    HW225437   1.433   3.285   4.537 -0.6223  0.4184 -0.1825
 4602SOL     OW25438   1.849   3.480   1.898 -0.1964  0.2898 -0.3452
 4602SOL    HW125439   1.765   3.493   1.942  0.6732 -2.4650  2.1192
 4602SOL    HW225440   1.894   3.553   1.941  0.0868  1.1564 -2.0978
 4603SOL     OW25441   4.337   4.698   2.456 -0.7642 -0.0505 -0.0942
 4603SOL    HW125442   4.410   4.680   2.515 -2.1064 -0.7574  1.3712
 4603SOL    HW225443   4.343   0.052   2.456 -4.4952  0.1799  1.1732
 4604SOL     OW25444   1.562   0.033  10.465 -0.1580  0.5143 -0.3971
 4604SOL    HW125445   1.618   0.018  10.388 -1.1607  0.9812 -1.2207
 4604SOL    HW225446   1.591   0.118  10.497  3.2848 -0.8470  0.0777
 4605SOL     OW25447   2.903   1.180   8.330  0.6169  0.0061  0.8874
 4605SOL    HW125448   2.938   1.091   8.318 -2.7243 -1.3574  1.1439
 4605SOL    HW225449   2.923   1.192   8.423  0.6204  1.1552  0.7300
 4606SOL     OW25450   0.888   1.999   2.662 -0.2609  0.0165 -0.1090
 4606SOL    HW125451   0.812   2.025   2.714 -0.9676  0.4860 -1.3730
 4606SOL    HW225452   0.849   1.934   2.603 -0.4304 -0.7003  0.7999
 4607SOL     OW25453   0.545   1.613   5.115  0.2931 -0.0453 -1.0290
 4607SOL    HW125454   0.592   1.531   5.125  1.7448  0.8933 -0.1218
 4607SOL    HW225455   0.553   1.648   5.203 -2.4534  1.7172 -1.4866
 4608SOL     OW25456   1.911   4.086   1.081 -0.3497  0.2842 -0.1173
 4608SOL    HW125457   1.888   4.104   1.173 -1.4394  1.0556 -0.5375
 4608SOL    HW225458   1.963   4.007   1.089  2.3202  1.8038 -2.6089
 4609SOL     OW25459   1.078   3.780   8.755 -0.5053  0.0891 -0.0665
 4609SOL    HW125460   1.029   3.711   8.710  2.0720 -1.8312  0.0733
 4609SOL    HW225461   1.064   3.756   8.847 -0.1891 -0.0254 -0.0457
 4610SOL     OW25462   2.438   2.050   5.013 -0.0612 -0.1586 -0.2571
 4610SOL    HW125463   2.502   2.061   4.943  0.8153  0.5976  0.6553
 4610SOL    HW225464   2.457   2.115   5.081  0.5365 -0.8715  0.2669
 4611SOL     OW25465   2.865   4.448   8.730 -0.6445 -0.2366 -0.0486
 4611SOL    HW125466   2.819   4.530   8.749  0.6478  0.3391  0.5751
 4611SOL    HW225467   2.880   4.412   8.817 -3.0107 -2.1705 -0.4330
 4612SOL     OW25468   0.374   1.869   7.850 -0.1423  0.8787  0.1512
 4612SOL    HW125469   0.466   1.844   7.853 -0.6700 -1.0502  0.3228
 4612SOL    HW225470   0.361   1.908   7.763 -0.5485  1.5670  0.5231
 4613SOL     OW25471   0.302   0.781   9.879 -0.3158 -0.1957  0.1553
 4613SOL    HW125472   0.258   0.714   9.932  0.5013  1.2435  2.6337
 4613SOL    HW225473   0.279   0.864   9.920  0.2742  0.8553 -1.6189
 4614SOL     OW25474   3.778   0.523   9.950  0.4236  0.0505 -0.3577
 4614SOL    HW125475   3.868   0.549   9.932  0.9022 -2.6028 -1.8328
 4614SOL    HW225476   3.778   0.529  10.046 -0.3600  0.0327 -0.3508
 4615SOL     OW25477   1.541   1.939   1.612 -0.0278 -0.4536  0.2946
 4615SOL    HW125478   1.538   2.034   1.621 -0.7034 -0.5747  1.2259
 4615SOL    HW225479   1.583   1.914   1.694 -2.2834  1.9899  2.1637
 4616SOL     OW25480   1.052   3.650   7.073  0.2498 -0.5945  0.0801
 4616SOL    HW125481   1.020   3.675   7.159 -0.6522 -0.4181 -0.3067
 4616SOL    HW225482   1.121   3.710   7.045  0.5653 -0.9796  0.0315
 4617SOL     OW25483   1.010   1.127   6.241  0.1391 -0.4208  0.6569
 4617SOL    HW125484   0.923   1.144   6.204  1.8189 -0.9944 -3.5923
 4617SOL    HW225485   1.013   1.190   6.313  1.0040  1.8482 -1.3860
 4618SOL     OW25486   1.552   0.885   6.516  0.6966  0.3625 -0.1309
 4618SOL    HW125487   1.456   0.893   6.515  0.7606  1.2635  1.2548
 4618SOL    HW225488   1.570   0.978   6.501  1.8536  0.1767  0.1319
 4619SOL     OW25489   3.254   2.445   0.676  0.1452 -0.0231  0.7072
 4619SOL    HW125490   3.231   2.445   0.583  0.1417  0.0791  0.7079
 4619SOL    HW225491   3.227   2.358   0.704 -0.6832  0.5327  1.6658
 4620SOL     OW25492   1.522   3.651  13.728 -0.2156  0.0766  0.0077
 4620SOL    HW125493   1.579   3.718  13.690 -1.0554  1.8161  1.8181
 4620SOL    HW225494   1.565   3.640  13.813  0.3739  2.5023  0.0404
 4621SOL     OW25495   4.296   3.046  13.616  0.1400  0.5608 -0.5557
 4621SOL    HW125496   4.241   2.970  13.597 -0.7053  0.9174  0.4936
 4621SOL    HW225497   4.273   3.058  13.708 -1.1747  0.5548 -0.8887
 4622SOL     OW25498   0.590   1.726   5.380  0.3570  0.1394  0.3875
 4622SOL    HW125499   0.659   1.703   5.442 -1.0374  0.7478  2.1804
 4622SOL    HW225500   0.594   1.821   5.380 -1.8788  0.2246 -0.1597
 4623SOL     OW25501   1.021   1.165   0.316  0.3463  0.0144  0.6506
 4623SOL    HW125502   0.988   1.209   0.238 -0.6569  1.3110  1.8128
 4623SOL    HW225503   0.952   1.186   0.378  0.5875  1.4085  0.4531
 4624SOL     OW25504   0.759   2.779   5.524 -0.5792 -0.6211 -0.4594
 4624SOL    HW125505   0.745   2.766   5.430 -0.5108 -1.2585 -0.3765
 4624SOL    HW225506   0.766   2.874   5.536 -0.1671 -0.6743 -0.2929
 4625SOL     OW25507   3.492   3.181   8.250  0.5714 -0.1424 -0.5376
 4625SOL    HW125508   3.409   3.197   8.294  0.9315  0.7376 -0.1814
 4625SOL    HW225509   3.531   3.111   8.303  0.0616 -0.1502 -0.1752
 4626SOL     OW25510   4.341   3.148   6.050  0.0335 -0.5473 -0.1449
 4626SOL    HW125511   4.345   3.056   6.075 -0.3331 -0.9179 -1.4324
 4626SOL    HW225512   4.422   3.150   6.000 -0.7656 -1.4518 -1.4820
 4627SOL     OW25513   2.678   0.350  13.626 -0.7067 -0.4047  0.3191
 4627SOL    HW125514   2.701   0.411  13.696 -0.4461 -3.1418  2.6363
 4627SOL    HW225515   2.752   0.288  13.625  1.8576  2.6702 -1.0564
 4628SOL     OW25516   3.448   3.051   4.064 -0.0243  0.4720 -0.0683
 4628SOL    HW125517   3.374   2.989   4.064 -0.6149  1.1842 -2.0785
 4628SOL    HW225518   3.438   3.074   4.156 -0.4257 -2.5895  0.6622
 4629SOL     OW25519   3.176   0.487   4.825 -0.0588  0.2549  0.5363
 4629SOL    HW125520   3.175   0.574   4.785 -0.3792 -0.6466 -1.4363
 4629SOL    HW225521   3.266   0.455   4.827 -0.4601 -1.0236 -2.3948
 4630SOL     OW25522   0.805   0.720   9.607  0.3953 -0.4634  0.6811
 4630SOL    HW125523   0.864   0.697   9.679  2.6245 -1.1953 -1.3750
 4630SOL    HW225524   0.812   0.815   9.594  0.0915 -0.6943 -1.2324
 4631SOL     OW25525   0.095   4.733   4.733 -0.4330 -0.4509  0.2275
 4631SOL    HW125526   0.074   4.714   4.641 -0.7702  1.7706 -0.1448
 4631SOL    HW225527   0.137   0.077   4.725  1.1953 -1.3935 -1.3029
 4632SOL     OW25528   2.737   1.136   2.616  0.8962  0.2963  0.1996
 4632SOL    HW125529   2.670   1.069   2.625  1.3789 -0.4552 -1.9235
 4632SOL    HW225530   2.807   1.070   2.613  2.3953  1.8834  0.3039
 4633SOL     OW25531   0.259   4.053   7.592 -0.5296  0.1574  0.2095
 4633SOL    HW125532   0.207   4.122   7.633 -3.0339 -1.9378  0.5698
 4633SOL    HW225533   0.346   4.073   7.625 -1.0785  1.2951  0.9787
 4634SOL     OW25534   1.988   2.777   8.827  0.1542 -0.1805  0.2684
 4634SOL    HW125535   1.978   2.705   8.765 -0.5280  0.8252 -0.7844
 4634SOL    HW225536   2.082   2.770   8.844 -0.1237 -1.2045  1.3156
 4635SOL     OW25537   1.572   0.945   2.182  0.1481 -0.2606  0.9871
 4635SOL    HW125538   1.536   0.858   2.196  2.1335 -1.5486 -1.9166
 4635SOL    HW225539   1.512   1.002   2.230 -0.1383 -1.6905  2.2976
 4636SOL     OW25540   3.967   3.611  13.623 -0.6740 -0.4030  0.5119
 4636SOL    HW125541   3.975   3.568  13.708 -0.1581 -1.6410 -0.1739
 4636SOL    HW225542   3.902   3.561  13.574  0.0679 -1.2869  0.4441
 4637SOL     OW25543   1.707   4.640   9.735  0.6424 -0.1557  0.7938
 4637SOL    HW125544   1.634   4.692   9.768 -0.9738 -2.5947  1.0730
 4637SOL    HW225545   1.672   4.554   9.760  0.6350 -1.1218 -2.4762
 4638SOL     OW25546   0.635   3.085  15.396  0.3651  0.2480 -0.0146
 4638SOL    HW125547   0.676   3.130  15.322 -3.1836  0.2821 -1.9494
 4638SOL    HW225548   0.571   3.148  15.430 -0.5108  0.0644 -1.3121
 4639SOL     OW25549   1.747   1.717   6.109 -0.2922 -0.2360 -0.2031
 4639SOL    HW125550   1.817   1.743   6.169 -1.0641  0.6257  0.2980
 4639SOL    HW225551   1.726   1.631   6.147  2.7805  0.2752  2.6982
 4640SOL     OW25552   2.429   1.523   8.353  0.2926  0.0999  0.5209
 4640SOL    HW125553   2.429   1.468   8.432  0.2796 -1.3512 -0.4986
 4640SOL    HW225554   2.485   1.478   8.290  0.9681  2.3794 -0.4882
 4641SOL     OW25555   1.996   2.645  10.286 -0.7129  0.1034  0.0793
 4641SOL    HW125556   1.976   2.571  10.344  1.8452  1.2558  2.3822
 4641SOL    HW225557   1.981   2.609  10.199 -1.8773  1.1474 -0.1584
 4642SOL     OW25558   1.008   1.981   9.472 -0.1810 -0.0293 -0.0301
 4642SOL    HW125559   1.075   1.914   9.458  0.4107  0.7144 -0.7172
 4642SOL    HW225560   1.053   2.028   9.542  2.2052 -0.7028 -1.1314
 4643SOL     OW25561   1.071   3.120   6.718  0.0826  0.1478  0.1765
 4643SOL    HW125562   1.070   3.060   6.644  0.0880 -0.6503  0.8191
 4643SOL    HW225563   1.117   3.190   6.672  1.4498 -0.7427  0.1845
 4644SOL     OW25564   3.048   1.349   3.349  0.1584  0.3443  0.5634
 4644SOL    HW125565   3.079   1.429   3.391  2.8137 -0.1489 -0.4084
 4644SOL    HW225566   3.006   1.301   3.421 -1.9261  2.5460  0.7916
 4645SOL     OW25567   1.038   1.996   6.322 -0.2843  0.3350  0.5473
 4645SOL    HW125568   0.990   2.039   6.252  0.2077 -1.8637 -1.1519
 4645SOL    HW225569   0.975   1.989   6.394 -0.3258  2.0747  0.6632
 4646SOL     OW25570   3.671   3.131   2.990 -1.0654 -0.8642  0.3654
 4646SOL    HW125571   3.679   3.170   3.077  0.0003  0.8443 -0.5135
 4646SOL    HW225572   3.745   3.073   3.006  0.5730  0.7463 -1.4496
 4647SOL     OW25573   1.222   3.410   5.891 -0.1356 -0.1443  0.2961
 4647SOL    HW125574   1.131   3.424   5.917 -0.5702 -1.0589 -0.7193
 4647SOL    HW225575   1.237   3.475   5.823 -0.0302 -0.5224 -0.0389
 4648SOL     OW25576   3.599   1.846   7.076 -0.6321  0.0599  0.3056
 4648SOL    HW125577   3.581   1.897   6.997  0.6756 -1.8878 -1.2764
 4648SOL    HW225578   3.675   1.894   7.109  1.2640 -1.3509 -1.9587
 4649SOL     OW25579   4.597   1.838   7.105 -0.2031 -0.0452 -0.0481
 4649SOL    HW125580   4.682   1.836   7.061  0.2764  2.1982  0.7493
 4649SOL    HW225581   4.567   1.927   7.086 -0.6808 -0.1378  0.2821
 4650SOL     OW25582   3.137   4.261   1.108  0.2572  0.0631 -0.2609
 4650SOL    HW125583   3.058   4.308   1.132  0.9928  2.6420 -3.0193
 4650SOL    HW225584   3.192   4.338   1.121 -0.3515  0.2865  1.0007
 4651SOL     OW25585   3.778   4.367   9.342 -0.3997  0.4412  0.9945
 4651SOL    HW125586   3.868   4.386   9.317 -0.7161 -0.1517 -0.5980
 4651SOL    HW225587   3.762   4.296   9.280 -0.5215  2.6199 -1.4969
 4652SOL     OW25588   0.266   4.391   5.429  0.1663 -0.1429  0.3854
 4652SOL    HW125589   0.275   4.360   5.339 -1.8814  2.7068 -0.8219
 4652SOL    HW225590   0.298   4.481   5.418 -0.5714  0.1487  0.6226
 4653SOL     OW25591   3.814   0.746   2.903 -0.3981 -0.3960  0.2021
 4653SOL    HW125592   3.820   0.831   2.945 -0.2637 -0.5569  0.5055
 4653SOL    HW225593   3.744   0.703   2.953  0.3035 -1.3400  0.3814
 4654SOL     OW25594   3.572   2.565  10.919 -0.0667  0.0567  0.6457
 4654SOL    HW125595   3.602   2.484  10.959  0.6752  0.4716  0.9248
 4654SOL    HW225596   3.573   2.623  10.995 -1.6894 -0.1456  0.8277
 4655SOL     OW25597   0.619   4.307   2.042 -0.2021 -0.2567 -0.1495
 4655SOL    HW125598   0.656   4.299   1.954 -1.8283  0.3862 -0.8834
 4655SOL    HW225599   0.621   4.212   2.055  0.9951 -0.2584 -0.3143
 4656SOL     OW25600   2.740   2.644  14.947  0.3748  0.2779  0.1598
 4656SOL    HW125601   2.722   2.594  15.027  3.5678  0.3725  0.9178
 4656SOL    HW225602   2.830   2.667  14.967  0.8892 -0.4892 -1.3366
 4657SOL     OW25603   2.415   2.927  12.785  0.0475 -0.3344  0.5680
 4657SOL    HW125604   2.335   2.965  12.749 -0.5586 -0.4845  1.7680
 4657SOL    HW225605   2.458   2.916  12.700 -0.6676 -2.7951  0.5365
 4658SOL     OW25606   3.109   3.693   2.694  0.4073  0.2817  0.4585
 4658SOL    HW125607   3.066   3.771   2.729  0.6502  0.4440  0.3973
 4658SOL    HW225608   3.196   3.726   2.671 -0.5215  0.8001 -2.3533
 4659SOL     OW25609   0.099   1.818   8.771  0.1571  0.4030  0.0400
 4659SOL    HW125610   0.135   1.893   8.819 -1.8960  1.1389  0.4086
 4659SOL    HW225611   0.143   1.823   8.686  0.2450  0.6090  0.0995
 4660SOL     OW25612   1.028   3.654   0.932  0.2282  0.7381 -0.5022
 4660SOL    HW125613   1.013   3.706   0.853 -1.1537 -0.6746 -1.1794
 4660SOL    HW225614   1.117   3.622   0.918 -1.4875 -4.3407 -0.0455
 4661SOL     OW25615   2.969   1.824   7.896  0.1750 -0.2632 -0.1485
 4661SOL    HW125616   2.882   1.790   7.918  0.6183 -1.3841 -0.1287
 4661SOL    HW225617   2.954   1.853   7.806  0.0461  0.8924  0.2550
 4662SOL     OW25618   4.096   1.684  16.588  0.0784  0.2917 -0.0544
 4662SOL    HW125619   4.035   1.652  16.654  0.3089 -0.0712 -0.0154
 4662SOL    HW225620   4.174   1.633  16.610 -0.6046 -0.8686 -0.3227
 4663SOL     OW25621   2.275   3.123   4.925 -0.3330  0.1861 -0.5590
 4663SOL    HW125622   2.298   3.030   4.928 -0.2978  0.2452  1.2132
 4663SOL    HW225623   2.362   3.157   4.942 -0.3843 -1.2544  2.7547
 4664SOL     OW25624   1.072   2.054  10.356 -0.6082  0.1461  0.4354
 4664SOL    HW125625   0.977   2.053  10.363 -0.3409  0.9883  3.9367
 4664SOL    HW225626   1.087   2.139  10.397 -0.3688  0.1717  0.2997
 4665SOL     OW25627   0.526   1.174  11.553 -0.8583  0.2021 -0.8542
 4665SOL    HW125628   0.601   1.127  11.514  0.1974  0.6918  0.6085
 4665SOL    HW225629   0.559   1.263  11.548  1.7074 -0.6406  0.4942
 4666SOL     OW25630   0.763   3.491   2.719  0.0931  0.1375  0.4107
 4666SOL    HW125631   0.726   3.413   2.679  0.1256 -0.9290  2.4590
 4666SOL    HW225632   0.838   3.451   2.764  0.1138  0.0465  0.2930
 4667SOL     OW25633   0.889   3.814   7.658 -0.2978  0.3570  0.1313
 4667SOL    HW125634   0.968   3.765   7.680 -0.4285 -0.2354 -0.7085
 4667SOL    HW225635   0.819   3.769   7.704 -0.0447  0.9419  1.0860
 4668SOL     OW25636   0.713   2.373   4.857  0.2828 -0.0959 -0.1346
 4668SOL    HW125637   0.771   2.302   4.831 -2.1438 -2.6510  1.3454
 4668SOL    HW225638   0.673   2.396   4.773  0.8071 -0.6136 -0.5231
 4669SOL     OW25639   0.401   4.006   3.637  0.4934  0.1493 -0.0516
 4669SOL    HW125640   0.470   3.992   3.573  0.0480  0.6166 -0.6371
 4669SOL    HW225641   0.330   3.950   3.606  0.4661  0.5768 -0.7714
 4670SOL     OW25642   1.579   3.939   3.235 -0.3822 -0.1906 -0.1671
 4670SOL    HW125643   1.515   4.010   3.224 -0.3010  0.0729  1.0171
 4670SOL    HW225644   1.542   3.874   3.294  1.1783  1.7606  2.9824
 4671SOL     OW25645   2.917   2.812  10.793 -0.2132  0.0910 -0.4183
 4671SOL    HW125646   2.850   2.813  10.725 -1.0103  2.2143  0.4004
 4671SOL    HW225647   2.933   2.718  10.800  1.2288  0.2567 -1.5425
 4672SOL     OW25648   1.861   0.937   8.952  0.0953  0.3632  0.3231
 4672SOL    HW125649   1.900   0.960   9.037  2.8174  0.9199 -1.0613
 4672SOL    HW225650   1.906   1.010   8.908  1.1086 -1.2728 -1.3221
 4673SOL     OW25651   2.040   3.475   1.479  0.0338  0.0436  0.3041
 4673SOL    HW125652   2.121   3.524   1.472 -0.1666  0.5925  1.8107
 4673SOL    HW225653   1.992   3.517   1.407  0.6946  1.0939  0.4769
 4674SOL     OW25654   1.382   3.797   2.444 -0.1396  0.1378  0.2446
 4674SOL    HW125655   1.325   3.866   2.479 -2.3539 -2.0549  1.0104
 4674SOL    HW225656   1.341   3.720   2.484  1.4560 -0.1952  1.2420
 4675SOL     OW25657   0.881   3.652   3.163  0.0925  0.0403  0.1590
 4675SOL    HW125658   0.935   3.575   3.183  0.7230 -0.0109 -1.6684
 4675SOL    HW225659   0.915   3.721   3.220  1.4735 -0.9928  0.5839
 4676SOL     OW25660   3.534   0.632   9.607 -0.1982  0.0667  0.1976
 4676SOL    HW125661   3.596   0.622   9.534  0.2700 -1.8174  0.8644
 4676SOL    HW225662   3.596   0.674   9.667 -1.3490 -2.0744  2.8351
 4677SOL     OW25663   1.206   2.375  14.598  0.8566  0.1618  0.0279
 4677SOL    HW125664   1.150   2.346  14.669  2.5826 -0.6263  1.0659
 4677SOL    HW225665   1.142   2.378  14.527  2.3296  1.5403 -1.2282
 4678SOL     OW25666   4.416   3.827  14.264 -0.2723  0.1962 -0.0225
 4678SOL    HW125667   4.439   3.878  14.342 -1.0874  1.0036 -0.2958
 4678SOL    HW225668   4.493   3.829  14.207 -0.0274 -0.5939  0.2868
 4679SOL     OW25669   1.582   4.643   2.395  0.0498 -0.3751 -0.1351
 4679SOL    HW125670   1.494   4.650   2.359  0.2230  0.2492 -0.4394
 4679SOL    HW225671   1.634   4.630   2.315  0.3825  2.3541 -0.3749
 4680SOL     OW25672   1.610   0.230   9.600 -0.5752  0.0269  0.2575
 4680SOL    HW125673   1.703   0.207   9.602 -1.2999 -2.6707  2.3804
 4680SOL    HW225674   1.575   0.166   9.662  0.7906 -0.1950  0.8001
 4681SOL     OW25675   1.776   2.661  10.478  0.0873  0.1244  0.2305
 4681SOL    HW125676   1.870   2.662  10.465  0.1031 -1.9906  0.0816
 4681SOL    HW225677   1.759   2.712  10.557  0.6100 -2.1882  1.8697
 4682SOL     OW25678   0.367   0.526   9.637 -0.1004 -0.5371  0.6916
 4682SOL    HW125679   0.417   0.513   9.718 -0.8643  0.0827  1.2674
 4682SOL    HW225680   0.444   0.543   9.582 -0.3690  0.6483  0.6806
 4683SOL     OW25681   3.850   2.166   7.433 -0.0293  0.4851 -0.0986
 4683SOL    HW125682   3.806   2.119   7.503  1.9740 -1.0979  0.1078
 4683SOL    HW225683   3.861   2.250   7.478  3.2377  1.3365 -2.4294
 4684SOL     OW25684   1.450   0.261   4.461 -0.8987 -0.4802 -0.2207
 4684SOL    HW125685   1.447   0.338   4.405 -0.4394  0.6504  1.3231
 4684SOL    HW225686   1.542   0.255   4.487 -0.7085 -0.7569 -0.9593
 4685SOL     OW25687   3.608   2.988   0.476 -0.5767  0.1047 -0.1573
 4685SOL    HW125688   3.634   3.074   0.510  0.6000 -0.3562  0.1329
 4685SOL    HW225689   3.590   2.993   0.383 -0.1287  2.4883 -0.0997
 4686SOL     OW25690   3.121   3.145   6.942  0.3630  0.6524 -0.0076
 4686SOL    HW125691   3.147   3.056   6.964 -1.3611 -0.7452 -3.4981
 4686SOL    HW225692   3.094   3.129   6.851  0.6935  0.2731 -0.0407
 4687SOL     OW25693   1.678   1.252  11.927 -0.2073  0.4004 -0.1969
 4687SOL    HW125694   1.766   1.271  11.895  0.5757  1.3344  2.4965
 4687SOL    HW225695   1.644   1.245  11.838 -1.8505 -2.2840  0.6514
 4688SOL     OW25696   3.094   2.299  14.149  0.2881  0.1520  0.5455
 4688SOL    HW125697   3.119   2.383  14.188 -1.2619  1.5262 -1.3910
 4688SOL    HW225698   3.028   2.269  14.211  1.5362  1.3386  2.4523
 4689SOL     OW25699   4.637   0.854  11.112 -0.3043 -0.7270  0.4454
 4689SOL    HW125700   4.569   0.787  11.126  0.2933 -1.4154  0.0794
 4689SOL    HW225701   4.672   0.834  11.025  1.1881  3.0891  0.1976
 4690SOL     OW25702   2.919   3.424   0.277  0.4323 -0.2799  0.5020
 4690SOL    HW125703   2.840   3.399   0.324  0.3762  0.6735  0.9085
 4690SOL    HW225704   2.986   3.416   0.345 -0.0229  0.6769  1.0590
 4691SOL     OW25705   4.301   1.469   5.490  0.0319 -0.4780 -0.0596
 4691SOL    HW125706   4.380   1.490   5.440 -1.2292  0.8686 -1.4618
 4691SOL    HW225707   4.340   1.456   5.577 -0.9434 -1.7314  0.1967
 4692SOL     OW25708   1.659   0.411   9.061 -0.0686  0.4829 -0.2566
 4692SOL    HW125709   1.626   0.389   8.974  0.7891  1.1115 -0.7414
 4692SOL    HW225710   1.590   0.374   9.116  0.9789 -0.4441  0.4532
 4693SOL     OW25711   0.425   0.952   4.072 -0.1726 -0.0976  0.0736
 4693SOL    HW125712   0.362   0.920   4.008  2.3451 -3.9294 -0.4996
 4693SOL    HW225713   0.468   1.027   4.031 -0.1435  0.2570  0.7518
 4694SOL     OW25714   1.778   2.184   5.909  0.1845  0.2980 -0.4903
 4694SOL    HW125715   1.836   2.125   5.862  0.6673  1.3898 -1.2689
 4694SOL    HW225716   1.839   2.221   5.972  0.2818 -0.1319 -0.3376
 4695SOL     OW25717   1.771   3.740   5.264 -0.0290  0.0475  0.1421
 4695SOL    HW125718   1.801   3.694   5.342  1.1681  1.4930  0.5337
 4695SOL    HW225719   1.689   3.764   5.308  0.4100  0.1075  0.9269
 4696SOL     OW25720   3.190   0.393   6.012 -0.0636 -0.4054  0.2474
 4696SOL    HW125721   3.159   0.336   5.941  0.4220 -0.5073  0.1174
 4696SOL    HW225722   3.110   0.391   6.064  1.1021 -0.1190  2.0310
 4697SOL     OW25723   1.500   0.439   2.603 -0.4094  0.2685  0.2054
 4697SOL    HW125724   1.497   0.349   2.569 -1.2907  0.1220  0.6652
 4697SOL    HW225725   1.454   0.486   2.534  2.0841  2.8508  0.3300
 4698SOL     OW25726   3.605   4.621   4.868 -0.1345  0.4429 -0.0833
 4698SOL    HW125727   3.663   4.624   4.791  1.1462  1.2294  0.9110
 4698SOL    HW225728   3.526   4.577   4.838  0.6590 -0.8184 -0.3110
 4699SOL     OW25729   3.546   1.460   2.090  0.2410  0.3073 -0.0956
 4699SOL    HW125730   3.534   1.374   2.131 -1.0517  0.0915 -0.9312
 4699SOL    HW225731   3.628   1.480   2.136  0.2822  2.6276 -1.2147
 4700SOL     OW25732   0.362   1.349   1.443 -0.0890 -0.3300 -0.4097
 4700SOL    HW125733   0.436   1.410   1.438  1.1460 -1.8225 -0.5535
 4700SOL    HW225734   0.287   1.407   1.457  0.7023  1.0634 -1.8894
 4701SOL     OW25735   0.799   0.441   6.580  0.2278  0.0794 -0.2335
 4701SOL    HW125736   0.807   0.433   6.675 -2.7615 -0.8831 -0.0430
 4701SOL    HW225737   0.879   0.493   6.569  0.1867  0.0849 -0.4941
 4702SOL     OW25738   0.338   1.318   5.800 -0.2935  0.0732  0.2261
 4702SOL    HW125739   0.343   1.370   5.720 -1.9281 -0.5054 -0.2432
 4702SOL    HW225740   0.340   1.386   5.868 -2.2765  0.2705  0.0872
 4703SOL     OW25741   2.688   3.882   6.233  0.3907 -0.5707 -0.1668
 4703SOL    HW125742   2.743   3.815   6.195  2.0516 -0.2893  1.7511
 4703SOL    HW225743   2.756   3.944   6.258  0.5084 -0.7587 -0.0219
 4704SOL     OW25744   2.350   3.079   1.200 -0.3420 -0.6935  0.1676
 4704SOL    HW125745   2.411   3.101   1.271  1.2040 -3.9743 -0.1334
 4704SOL    HW225746   2.386   3.149   1.146 -0.9636 -1.5925 -1.4293
 4705SOL     OW25747   1.708   0.162  11.007 -0.5104  0.5431 -0.3334
 4705SOL    HW125748   1.659   0.123  11.080 -0.6645 -0.0431 -0.7520
 4705SOL    HW225749   1.632   0.202  10.965 -1.2993 -0.0949  0.4870
 4706SOL     OW25750   4.491   4.379  10.945 -0.4723  0.3835 -0.4086
 4706SOL    HW125751   4.579   4.360  10.977 -1.0848  2.6637  2.6405
 4706SOL    HW225752   4.440   4.385  11.026  0.3474 -1.7979  0.2651
 4707SOL     OW25753   0.504   3.270   2.985 -0.4847  0.0102  0.1765
 4707SOL    HW125754   0.504   3.196   2.924 -2.5976 -1.1847  1.6289
 4707SOL    HW225755   0.579   3.254   3.042  0.0430 -1.0088 -0.8026
 4708SOL     OW25756   2.793   2.172   4.522  0.2330 -0.1749 -0.0594
 4708SOL    HW125757   2.851   2.125   4.582  0.0541  0.1036  0.3281
 4708SOL    HW225758   2.709   2.139   4.554 -0.3509  1.3598 -0.0069
 4709SOL     OW25759   0.342   0.478   6.237 -0.5044 -0.1897  0.1126
 4709SOL    HW125760   0.346   0.507   6.146 -0.1496 -0.1142  0.1522
 4709SOL    HW225761   0.424   0.429   6.244 -0.5293 -0.3321 -0.6099
 4710SOL     OW25762   0.779   1.511   0.621  0.3607 -0.3222 -0.3384
 4710SOL    HW125763   0.713   1.447   0.594  0.8939 -1.1525  0.3524
 4710SOL    HW225764   0.831   1.456   0.679  0.5868  1.5299  1.2124
 4711SOL     OW25765   1.251   1.819  13.490 -0.3757  0.1334  0.3990
 4711SOL    HW125766   1.281   1.775  13.410  1.1149  1.1480  0.4074
 4711SOL    HW225767   1.333   1.850  13.528 -0.9234  1.9216  0.1166
 4712SOL     OW25768   1.948   4.049   2.644  0.1063 -0.0951 -0.0436
 4712SOL    HW125769   2.016   4.070   2.580  1.5998 -4.1557  0.1808
 4712SOL    HW225770   1.877   4.108   2.620 -0.1377 -0.2017  0.4177
 4713SOL     OW25771   2.767   1.007   4.035  0.1284  0.3575  0.0952
 4713SOL    HW125772   2.696   1.032   4.093  0.8049 -1.7701  1.8637
 4713SOL    HW225773   2.827   0.947   4.079  1.1705  0.7040 -0.8344
 4714SOL     OW25774   3.562   2.204  15.523  0.1489 -0.8953 -0.6042
 4714SOL    HW125775   3.529   2.145  15.456 -2.4049 -1.4040  1.0872
 4714SOL    HW225776   3.570   2.148  15.600  0.0203  2.3085  1.7364
 4715SOL     OW25777   1.835   2.746   4.742  0.3736 -0.6184 -0.2613
 4715SOL    HW125778   1.886   2.797   4.679  1.2248  1.3127  1.9775
 4715SOL    HW225779   1.874   2.781   4.823 -0.6886  0.4324 -0.2022
 4716SOL     OW25780   3.313   1.464   2.864  0.7369 -0.8477 -0.3720
 4716SOL    HW125781   3.299   1.522   2.938  1.3190  0.3329 -1.1892
 4716SOL    HW225782   3.247   1.399   2.887  1.8551 -2.0619 -0.6088
 4717SOL     OW25783   0.260   1.036  11.880  0.3904 -0.6514  0.1788
 4717SOL    HW125784   0.316   1.109  11.906 -1.1380  1.0124 -1.2467
 4717SOL    HW225785   0.218   1.085  11.809  1.7461  1.3188  0.7315
 4718SOL     OW25786   1.170   0.325   9.437  0.4252 -0.3834 -0.2298
 4718SOL    HW125787   1.234   0.335   9.507 -0.5526 -2.1554  0.9189
 4718SOL    HW225788   1.140   0.236   9.457  1.8148 -1.3447 -2.3321
 4719SOL     OW25789   1.561   2.271  16.456 -0.2959  0.1483 -0.2047
 4719SOL    HW125790   1.539   2.216  16.531 -0.9887  1.7762  0.7909
 4719SOL    HW225791   1.581   2.200  16.395 -0.3126 -0.2848  0.2965
 4720SOL     OW25792   2.340   2.365   3.576  0.1416 -0.2093  0.1230
 4720SOL    HW125793   2.312   2.360   3.667  3.8643 -0.5739  1.2480
 4720SOL    HW225794   2.430   2.395   3.589 -0.1556 -0.6588  3.0899
 4721SOL     OW25795   3.221   2.625  12.140  0.4540 -0.0337 -0.2610
 4721SOL    HW125796   3.288   2.651  12.077  2.0400  0.1475  1.5096
 4721SOL    HW225797   3.172   2.707  12.149 -0.9501 -0.7784 -0.9869
 4722SOL     OW25798   4.711   3.408   5.937  0.6465  0.3759  0.0537
 4722SOL    HW125799   0.041   3.472   5.942  1.7279 -0.9528  1.3565
 4722SOL    HW225800   4.670   3.434   6.019 -1.6683 -0.4053 -0.8547
 4723SOL     OW25801   4.670   1.289   4.766  0.2201  0.1787  0.3385
 4723SOL    HW125802   4.578   1.277   4.786 -0.4059  2.7963 -0.9823
 4723SOL    HW225803   4.680   1.359   4.701 -2.2021 -0.9249 -1.2007
 4724SOL     OW25804   2.086   0.561   8.789  0.4356  0.1096 -0.4101
 4724SOL    HW125805   2.048   0.473   8.799  1.6288 -0.6164 -2.2183
 4724SOL    HW225806   2.085   0.570   8.694 -1.1511 -1.4539 -0.5453
 4725SOL     OW25807   1.111   3.946   2.228  0.6538 -0.0267  0.3239
 4725SOL    HW125808   1.096   3.867   2.279  0.3595 -0.4587 -0.4369
 4725SOL    HW225809   1.062   3.928   2.148  1.6235  3.2213 -1.0257
 4726SOL     OW25810   4.110   0.950   2.241 -0.1498 -0.4127  0.0562
 4726SOL    HW125811   4.192   0.924   2.199  0.2365 -1.7944  1.6943
 4726SOL    HW225812   4.050   0.903   2.184  0.6727 -0.0900 -1.0806
 4727SOL     OW25813   2.609   1.813   6.930  0.3637 -0.1391 -0.3185
 4727SOL    HW125814   2.635   1.904   6.946  0.4132 -0.4290  1.2106
 4727SOL    HW225815   2.614   1.766   7.013 -0.3684  1.0047  0.3740
 4728SOL     OW25816   0.015   3.501   4.180  0.3226  0.0117 -0.5020
 4728SOL    HW125817   0.078   3.571   4.162 -1.0693  1.4442  0.2435
 4728SOL    HW225818   0.078   3.429   4.172 -0.5015 -0.7017 -0.4413
 4729SOL     OW25819   4.630   1.071  15.688 -0.1793 -0.0425 -0.1386
 4729SOL    HW125820   4.658   1.020  15.764 -0.2456 -1.1803 -0.8886
 4729SOL    HW225821   4.614   1.159  15.722  1.2628  0.8354 -1.7290
 4730SOL     OW25822   2.412   4.720   6.013  0.0409  0.2666  0.2184
 4730SOL    HW125823   2.484   4.658   6.001 -0.8198 -0.7538  0.3394
 4730SOL    HW225824   2.401   0.012   5.924  1.5233  1.1000  0.3557
 4731SOL     OW25825   1.064   2.770   0.877 -0.1846 -0.1209  0.4383
 4731SOL    HW125826   1.020   2.765   0.792  0.7889  0.4014 -0.0939
 4731SOL    HW225827   1.151   2.733   0.871  0.4506  1.2781  1.0250
 4732SOL     OW25828   2.961   2.779   4.725 -0.0454 -0.8222  0.1098
 4732SOL    HW125829   2.962   2.862   4.773 -1.5525  0.0175 -1.3404
 4732SOL    HW225830   2.882   2.738   4.759 -0.7982  0.4360 -0.1321
 4733SOL     OW25831   3.372   3.752  16.679  1.0370 -0.2640  0.1544
 4733SOL    HW125832   3.377   3.756  16.774  1.6467 -0.4785  0.1302
 4733SOL    HW225833   3.435   3.815  16.644 -1.5567  1.7059 -0.9668
 4734SOL     OW25834   0.048   4.238  17.713  0.2783  0.0113  0.2135
 4734SOL    HW125835   0.057   4.145  17.694 -0.4570  0.2008 -1.1201
 4734SOL    HW225836   0.082   4.237   0.038 -0.6034  2.2268  0.5666
 4735SOL     OW25837   4.564   3.280   1.177 -0.1123 -0.8941  0.3325
 4735SOL    HW125838   4.528   3.253   1.092 -2.3406  1.6570  0.4766
 4735SOL    HW225839   4.622   3.354   1.160 -1.0394 -0.4592 -0.9814
 4736SOL     OW25840   3.322   0.363   3.910 -0.7923 -0.2306 -0.0033
 4736SOL    HW125841   3.298   0.454   3.895  0.3426  0.2089  0.9003
 4736SOL    HW225842   3.387   0.365   3.980 -0.4256  2.3530 -0.4471
 4737SOL     OW25843   3.401   3.518  12.259  0.2556  0.2614  0.0249
 4737SOL    HW125844   3.438   3.505  12.346 -3.0232 -2.2236  1.0728
 4737SOL    HW225845   3.415   3.611  12.240 -1.7220  0.6044  0.2481
 4738SOL     OW25846   2.904   3.443   6.429  0.0420  0.2676 -0.1125
 4738SOL    HW125847   2.849   3.502   6.481 -0.2330  0.8070 -1.0036
 4738SOL    HW225848   2.925   3.386   6.502 -1.6488  0.5051  0.5710
 4739SOL     OW25849   2.439   4.275   1.964 -0.0717  0.4364 -0.8242
 4739SOL    HW125850   2.412   4.189   1.932  1.8108 -0.5868  0.3058
 4739SOL    HW225851   2.365   4.328   1.935  0.9071  2.2003 -0.0663
 4740SOL     OW25852   2.994   1.027   3.523 -0.9256  0.7967 -0.1134
 4740SOL    HW125853   3.058   0.959   3.501 -1.5483  0.6965 -1.6239
 4740SOL    HW225854   2.977   1.009   3.615 -1.6885  0.3030 -0.3489
 4741SOL     OW25855   1.917   0.987   9.395 -0.0666  0.2747 -0.4017
 4741SOL    HW125856   1.985   0.998   9.329 -0.3219  0.1742 -0.6782
 4741SOL    HW225857   1.907   0.892   9.390 -2.9568  0.4418  1.8488
 4742SOL     OW25858   0.276   1.947  16.845 -0.5689  0.5001 -0.5171
 4742SOL    HW125859   0.334   2.014  16.881 -2.7705  1.7553  0.6990
 4742SOL    HW225860   0.335   1.871  16.844 -1.3856 -0.1483  0.2999
 4743SOL     OW25861   3.779   3.093   0.100 -0.0768  0.1981  0.0910
 4743SOL    HW125862   3.836   3.048   0.162  1.8097  0.8964 -1.1305
 4743SOL    HW225863   3.693   3.070   0.136  0.3617 -1.2394  0.2209
 4744SOL     OW25864   4.120   4.020   7.803  0.6158  0.2633  0.2530
 4744SOL    HW125865   4.134   4.076   7.726 -1.5733  0.4670 -0.0014
 4744SOL    HW225866   4.086   4.092   7.857  1.4533  0.7275  0.1614
 4745SOL     OW25867   1.749   3.392   7.045 -0.5429  0.1161 -0.1644
 4745SOL    HW125868   1.807   3.362   7.115 -1.1237  0.3267  0.4016
 4745SOL    HW225869   1.777   3.483   7.030  0.1676  0.2280  1.8684
 4746SOL     OW25870   3.844   1.188  17.447 -0.5690 -0.0399  0.0173
 4746SOL    HW125871   3.797   1.112  17.413  1.2377 -1.0118 -0.2883
 4746SOL    HW225872   3.764   1.238  17.464 -0.6547 -0.2240  0.1532
 4747SOL     OW25873   0.993   4.343   8.710  0.1944 -0.3274 -0.4047
 4747SOL    HW125874   0.916   4.323   8.656  1.5859 -2.3018 -1.6176
 4747SOL    HW225875   1.003   4.435   8.686 -1.9579  0.2745  0.9882
 4748SOL     OW25876   3.720   0.508   4.377 -0.1075 -0.1481 -0.1005
 4748SOL    HW125877   3.674   0.514   4.461  0.3213 -1.8493  0.2472
 4748SOL    HW225878   3.656   0.493   4.307  0.1886  2.3820 -0.9086
 4749SOL     OW25879   1.126   2.878   9.193 -0.0661 -0.1502  0.0773
 4749SOL    HW125880   1.115   2.943   9.124 -0.8551  2.7626  2.9073
 4749SOL    HW225881   1.049   2.823   9.180 -1.7029  2.1333  0.0709
 4750SOL     OW25882   3.842   0.084   1.316 -0.1161  0.1662 -0.8662
 4750SOL    HW125883   3.794   0.160   1.349  0.9568  0.2561  0.4796
 4750SOL    HW225884   3.926   0.089   1.362 -2.3003 -2.2056  3.3134
 4751SOL     OW25885   0.479   2.916  15.258 -0.1085 -0.4672 -0.0646
 4751SOL    HW125886   0.402   2.964  15.228  0.1868  0.8078  1.1988
 4751SOL    HW225887   0.541   2.986  15.280 -0.1771 -0.1468 -0.9012
 4752SOL     OW25888   0.200   0.335  14.227 -0.5665 -0.2800 -0.1866
 4752SOL    HW125889   0.141   0.263  14.203  2.5910 -3.2165  0.8892
 4752SOL    HW225890   0.220   0.359  14.137 -2.1985  0.9277 -0.2199
 4753SOL     OW25891   1.609   0.690   4.954 -0.1903  0.3164 -0.1635
 4753SOL    HW125892   1.653   0.696   4.869  0.7338 -2.2597  0.1125
 4753SOL    HW225893   1.546   0.762   4.956  0.0472  0.5371 -0.8459
 4754SOL     OW25894   2.156   0.936   5.552  0.4355  0.8794 -0.3558
 4754SOL    HW125895   2.228   0.976   5.600  0.7893  1.0784 -1.0522
 4754SOL    HW225896   2.195   0.869   5.496 -0.8096 -0.5542  0.4584
 4755SOL     OW25897   1.881   2.641  14.079  0.3490  0.1234 -0.2077
 4755SOL    HW125898   1.833   2.710  14.125  2.9375  0.6274  1.7356
 4755SOL    HW225899   1.913   2.697  14.008 -2.0515  1.5226 -0.2213
 4756SOL     OW25900   2.270   2.245   4.849  0.5488 -0.0564  0.5595
 4756SOL    HW125901   2.278   2.276   4.759 -0.1791  1.3098  0.9650
 4756SOL    HW225902   2.360   2.219   4.868  0.9549  0.3211 -0.8765
 4757SOL     OW25903   2.487   2.583   4.629  0.3871  0.6974  0.4936
 4757SOL    HW125904   2.475   2.641   4.553 -0.0102  0.8234  0.6545
 4757SOL    HW225905   2.549   2.637   4.678 -0.1154  0.0559  1.8073
 4758SOL     OW25906   0.874   2.417   2.876  0.2278 -0.0706  0.5169
 4758SOL    HW125907   0.952   2.368   2.849  1.2240 -0.1146  3.4812
 4758SOL    HW225908   0.904   2.505   2.896  0.3537 -0.4221  1.8870
 4759SOL     OW25909   4.340   3.528  10.052 -0.4261  0.4000  0.1866
 4759SOL    HW125910   4.319   3.553  10.142 -0.1251  0.4510  0.2448
 4759SOL    HW225911   4.275   3.464  10.025 -0.6179  0.6688  0.0048
 4760SOL     OW25912   3.251   1.945   8.404  0.4526  0.0271  1.0373
 4760SOL    HW125913   3.175   1.894   8.432 -1.2001  1.6559 -0.4952
 4760SOL    HW225914   3.327   1.889   8.419  1.6471  1.4056  0.1160
 4761SOL     OW25915   1.849   2.261   9.329  0.4447 -0.2514  0.8360
 4761SOL    HW125916   1.800   2.316   9.391  1.3219  1.0006  0.4163
 4761SOL    HW225917   1.906   2.214   9.390 -0.0738  0.1507  1.6295
 4762SOL     OW25918   3.078   1.330   0.547  0.1794  0.1111 -0.5734
 4762SOL    HW125919   3.112   1.284   0.470 -0.0284 -0.7703 -0.1429
 4762SOL    HW225920   3.047   1.407   0.500 -1.0841 -1.0261 -1.5928
 4763SOL     OW25921   1.208   1.963   8.960  0.2380  0.1134  0.0946
 4763SOL    HW125922   1.125   1.930   8.995  0.4147 -0.1750  0.2538
 4763SOL    HW225923   1.241   2.013   9.035  2.3785  1.8911 -2.0388
 4764SOL     OW25924   0.655   3.913   7.354 -0.3831 -0.1215 -0.1328
 4764SOL    HW125925   0.635   3.853   7.426 -2.5717  2.0088  1.0226
 4764SOL    HW225926   0.595   3.987   7.363  0.8399  1.0953 -1.9936
 4765SOL     OW25927   3.356   2.438  11.156 -0.0855 -0.4541 -0.1535
 4765SOL    HW125928   3.392   2.403  11.074  1.1729 -1.1701  0.7032
 4765SOL    HW225929   3.355   2.364  11.217 -0.3342 -0.6259 -0.3647
 4766SOL     OW25930   2.926   0.750  13.471 -0.1416  0.2228 -0.1173
 4766SOL    HW125931   2.967   0.686  13.528  0.0156  0.3191 -0.1199
 4766SOL    HW225932   2.835   0.739  13.497  0.3116  0.6095  1.6425
 4767SOL     OW25933   0.400   0.134   4.808  0.1331  0.2841 -0.2903
 4767SOL    HW125934   0.387   0.225   4.837 -3.4163 -0.6509  1.1139
 4767SOL    HW225935   0.368   0.073   4.875 -0.8677  0.4613 -0.6027
 4768SOL     OW25936   4.417   0.319  16.131  0.4725  0.2436 -0.5694
 4768SOL    HW125937   4.449   0.407  16.116  0.3408  0.4962  0.6338
 4768SOL    HW225938   4.424   0.278  16.044 -2.2665 -0.3178 -0.5238
 4769SOL     OW25939   4.165   0.212  14.206 -0.5060 -0.3372 -0.2609
 4769SOL    HW125940   4.249   0.195  14.164 -0.2333 -0.4005  0.3136
 4769SOL    HW225941   4.106   0.171  14.143 -0.8898  0.6535 -0.5472
 4770SOL     OW25942   1.759   0.085   2.462  0.6449  0.4599  0.3705
 4770SOL    HW125943   1.699   0.011   2.469  2.6583 -1.1619  0.7985
 4770SOL    HW225944   1.704   0.163   2.465  1.3244  0.9950 -0.9182
 4771SOL     OW25945   1.171   2.282   7.156  0.1404 -0.3316  0.2429
 4771SOL    HW125946   1.122   2.348   7.105 -1.4819 -1.0607  0.8742
 4771SOL    HW225947   1.094   2.240   7.194 -0.7918  1.3094  0.1987
 4772SOL     OW25948   3.825   0.509   3.938 -0.1725  0.4604 -0.1212
 4772SOL    HW125949   3.875   0.451   3.995 -0.5584 -0.0081 -0.2622
 4772SOL    HW225950   3.797   0.448   3.870  2.3369 -0.4612 -0.3181
 4773SOL     OW25951   3.334   2.126   6.547  0.4992  0.1037 -0.0050
 4773SOL    HW125952   3.386   2.076   6.610 -0.4063  1.2569  1.6668
 4773SOL    HW225953   3.396   2.166   6.486  1.1597 -0.4872  0.2765
 4774SOL     OW25954   3.267   1.314   9.189 -0.4138 -0.0119 -0.2528
 4774SOL    HW125955   3.321   1.246   9.148  0.1947  0.2135  0.1679
 4774SOL    HW225956   3.328   1.335   9.260  0.2497 -0.5293 -0.6714
 4775SOL     OW25957   0.642   2.029  16.721  0.3241 -0.2375 -0.2659
 4775SOL    HW125958   0.563   2.052  16.771  0.6702  1.7793 -0.6136
 4775SOL    HW225959   0.617   2.069  16.637  0.1773 -1.3027 -0.7271
 4776SOL     OW25960   2.704   0.281   7.790  0.1649 -0.6046 -0.1523
 4776SOL    HW125961   2.634   0.328   7.835  1.5860  1.5450 -0.1583
 4776SOL    HW225962   2.702   0.196   7.834  2.5322  0.8187  2.6870
 4777SOL     OW25963   0.365   4.515   1.927  0.3247  0.0658 -0.0514
 4777SOL    HW125964   0.360   4.426   1.962  0.2608  0.2530  0.4175
 4777SOL    HW225965   0.316   4.564   1.994  0.9385 -1.4217  1.5094
 4778SOL     OW25966   2.959   0.641  16.355  0.4339 -0.5459 -1.4033
 4778SOL    HW125967   2.953   0.551  16.385 -2.2827 -0.3188 -1.3040
 4778SOL    HW225968   3.055   0.648  16.362  0.1057  2.0937  0.5391
 4779SOL     OW25969   2.419   4.058   3.359  0.1812  0.5161 -0.0068
 4779SOL    HW125970   2.350   4.086   3.298  1.0081 -0.1953 -1.2802
 4779SOL    HW225971   2.418   3.966   3.333 -0.1972  0.6105 -0.3256
 4780SOL     OW25972   3.192   1.595   2.407  0.1983 -0.1813 -0.1173
 4780SOL    HW125973   3.215   1.521   2.351  0.6276 -0.3930  0.3442
 4780SOL    HW225974   3.219   1.664   2.346 -0.9327  1.8596  1.6974
 4781SOL     OW25975   3.498   3.270   7.373  0.0497 -0.0910 -0.4902
 4781SOL    HW125976   3.457   3.250   7.458 -3.1954  2.7327 -1.4105
 4781SOL    HW225977   3.503   3.181   7.338 -0.5714 -0.3752  0.1391
 4782SOL     OW25978   4.170   1.281   9.221 -0.1778 -0.1118 -0.1773
 4782SOL    HW125979   4.182   1.198   9.175 -1.3561  0.2203 -1.0749
 4782SOL    HW225980   4.238   1.266   9.287 -1.2001  2.1445  1.3960
 4783SOL     OW25981   3.618   2.453   8.331  0.3811  0.1030 -0.1554
 4783SOL    HW125982   3.608   2.361   8.357 -0.1714 -0.2045 -1.4775
 4783SOL    HW225983   3.657   2.449   8.244 -0.5451  0.6786 -0.6010
 4784SOL     OW25984   1.050   2.055   3.630  0.0571 -0.5908 -0.2929
 4784SOL    HW125985   1.141   2.028   3.618 -0.0884 -0.7479 -0.9887
 4784SOL    HW225986   1.047   2.030   3.722  3.3836  0.6398  0.1477
 4785SOL     OW25987   1.364   2.407   4.205 -0.2318 -0.0611  0.1295
 4785SOL    HW125988   1.450   2.377   4.233  0.1439  2.1779  1.4119
 4785SOL    HW225989   1.349   2.468   4.278  3.1878 -0.3899  1.1326
 4786SOL     OW25990   1.081   2.007   8.418  0.0850 -0.2486  0.3317
 4786SOL    HW125991   1.113   1.984   8.505 -0.6759  1.7537  1.1438
 4786SOL    HW225992   1.038   1.924   8.397 -1.6040  1.2099 -1.9138
 4787SOL     OW25993   0.033   0.542  15.693 -0.4611  0.5286  0.3071
 4787SOL    HW125994   0.101   0.609  15.687  2.0874 -2.2322 -1.8406
 4787SOL    HW225995   0.019   0.537  15.788  1.5927  1.7600  0.6701
 4788SOL     OW25996   1.934   0.180   2.662  0.2400  0.6685 -0.1053
 4788SOL    HW125997   1.874   0.130   2.607 -0.5612  3.2890 -1.5919
 4788SOL    HW225998   2.016   0.131   2.664  1.4442  2.6881 -0.8894
 4789SOL     OW25999   1.425   4.292   6.307 -0.2719  0.6774 -0.0835
 4789SOL    HW126000   1.476   4.329   6.234 -1.7020 -0.2501 -1.5531
 4789SOL    HW226001   1.333   4.307   6.287 -1.0213 -1.0459  2.0709
 4790SOL     OW26002   4.487   1.052  10.684 -0.1577 -0.2915  0.2849
 4790SOL    HW126003   4.431   1.007  10.621  0.5363  1.7325 -1.7949
 4790SOL    HW226004   4.425   1.110  10.727 -0.8616  0.5391 -1.8553
 4791SOL     OW26005   1.562   0.251   7.294 -0.2033  0.1239 -0.3501
 4791SOL    HW126006   1.562   0.346   7.305 -3.2235  0.0351  0.4193
 4791SOL    HW226007   1.579   0.213   7.380  0.8477  1.0022 -0.1730
 4792SOL     OW26008   3.217   0.751   4.748  0.2561 -0.0042 -0.0530
 4792SOL    HW126009   3.246   0.739   4.657 -0.7003  1.2688 -0.5128
 4792SOL    HW226010   3.303   0.762   4.788 -0.5309 -0.0721  1.6471
 4793SOL     OW26011   0.732   3.107  10.193 -0.3852 -0.1522  0.3435
 4793SOL    HW126012   0.786   3.173  10.236 -0.4704  0.8804 -1.1373
 4793SOL    HW226013   0.760   3.129  10.104  0.6178  3.2848  1.5321
 4794SOL     OW26014   2.229   1.774  10.367 -0.2882  0.2664  0.2708
 4794SOL    HW126015   2.233   1.759  10.461  0.0856  1.3676  0.4286
 4794SOL    HW226016   2.136   1.787  10.346 -0.6279  1.2267  2.3668
 4795SOL     OW26017   3.460   1.562   4.849  0.0072 -0.4068 -0.2665
 4795SOL    HW126018   3.369   1.580   4.828 -0.3300 -0.0085  1.4748
 4795SOL    HW226019   3.471   1.615   4.928  0.6654  1.6579 -1.7561
 4796SOL     OW26020   0.143   4.327   4.001 -0.1286 -0.3634 -0.0864
 4796SOL    HW126021   0.175   4.255   4.056 -1.4911  0.7231  2.0976
 4796SOL    HW226022   0.212   4.349   3.938 -1.2618  0.9859 -0.8633
 4797SOL     OW26023   0.687   0.279   3.322 -0.1349 -0.0517  0.5928
 4797SOL    HW126024   0.739   0.295   3.243  1.3357 -1.0086  1.3786
 4797SOL    HW226025   0.748   0.226   3.373  0.1513 -2.2601 -2.0017
 4798SOL     OW26026   1.773   3.013   1.936  0.1237 -0.3703  0.3200
 4798SOL    HW126027   1.684   3.032   1.967 -0.8953  0.0113 -2.8583
 4798SOL    HW226028   1.811   3.099   1.955 -2.2669  0.7996 -0.1031
 4799SOL     OW26029   1.306   2.037  15.686  0.1836 -0.1650 -0.0146
 4799SOL    HW126030   1.278   1.956  15.644 -0.7932 -0.0056  0.3201
 4799SOL    HW226031   1.232   2.091  15.658 -0.0536 -1.1939 -1.3466
 4800SOL     OW26032   0.899   3.306   8.520 -0.3188 -0.2127  0.3873
 4800SOL    HW126033   0.822   3.362   8.525 -1.0594 -1.3259  1.3822
 4800SOL    HW226034   0.879   3.250   8.595  0.9863 -0.3184  0.6708
 4801SOL     OW26035   4.647   4.598   3.499  0.0975 -1.2219  0.4291
 4801SOL    HW126036   4.675   4.508   3.511 -0.4037 -1.5064 -0.4397
 4801SOL    HW226037   4.556   4.577   3.475  0.1191  0.0571 -0.7582
 4802SOL     OW26038   1.407   3.215  15.222  0.1647  0.6741 -0.2633
 4802SOL    HW126039   1.316   3.214  15.193 -0.0331  1.8880  0.2800
 4802SOL    HW226040   1.448   3.257  15.146  0.5660  0.0677 -0.3795
 4803SOL     OW26041   4.095   2.531   6.606 -0.7445 -0.0856 -0.9272
 4803SOL    HW126042   4.081   2.455   6.549  1.2766 -0.9369 -0.2935
 4803SOL    HW226043   4.190   2.532   6.619 -0.9082 -2.6639  0.5421
 4804SOL     OW26044   4.062   4.459   6.359  0.0795 -0.3254  0.1151
 4804SOL    HW126045   4.066   4.484   6.266  0.9861  1.4140  0.6248
 4804SOL    HW226046   4.126   4.388   6.351 -1.2879 -1.4791 -0.4499
 4805SOL     OW26047   2.063   0.712   7.751  0.3660 -0.2494 -0.4821
 4805SOL    HW126048   1.970   0.691   7.743  0.1687  1.1041 -1.7797
 4805SOL    HW226049   2.051   0.793   7.800 -1.0654  0.5193 -2.0833
 4806SOL     OW26050   1.924   4.251   8.767 -0.5604 -0.6379  0.2612
 4806SOL    HW126051   1.894   4.163   8.742 -0.7198 -0.5611  0.1798
 4806SOL    HW226052   1.950   4.251   8.858  0.8462 -1.5079 -0.1438
 4807SOL     OW26053   0.045   3.242   3.668  0.5681 -0.4860  0.2667
 4807SOL    HW126054   0.075   3.304   3.735  1.1177  1.4045 -1.7235
 4807SOL    HW226055   4.706   3.286   3.641  1.1884  2.3341  3.0641
 4808SOL     OW26056   4.392   0.267   6.612 -0.1806 -0.2573 -0.4015
 4808SOL    HW126057   4.437   0.293   6.532 -0.4426 -0.9061 -0.7618
 4808SOL    HW226058   4.341   0.194   6.576 -0.1616 -0.4514 -0.0323
 4809SOL     OW26059   1.896   0.068   6.141  0.1228 -0.4214 -0.0695
 4809SOL    HW126060   1.927   0.023   6.220 -1.8037  0.7145  1.3364
 4809SOL    HW226061   1.933   0.155   6.154 -0.4699 -0.0071 -1.0907
 4810SOL     OW26062   2.075   0.427   1.907 -0.1824  0.2291 -0.4654
 4810SOL    HW126063   1.991   0.380   1.910 -0.3808  0.4964 -1.6947
 4810SOL    HW226064   2.042   0.515   1.889  1.4823  0.6777 -1.3005
 4811SOL     OW26065   2.990   3.153   0.073  0.1486  0.0133 -0.0109
 4811SOL    HW126066   2.928   3.186   0.138 -1.4442  0.1516 -1.5766
 4811SOL    HW226067   3.074   3.189   0.098 -2.3295  4.1388  2.3045
 4812SOL     OW26068   3.672   4.133  13.813 -0.7458  0.9019 -0.1543
 4812SOL    HW126069   3.620   4.211  13.835 -0.2311  1.0909  0.3826
 4812SOL    HW226070   3.622   4.055  13.838 -0.9274  0.5627 -1.5740
 4813SOL     OW26071   0.412   1.022   0.115 -0.5771  0.4000 -0.7411
 4813SOL    HW126072   0.326   1.064   0.112 -1.5372 -1.5721 -0.7886
 4813SOL    HW226073   0.377   0.935   0.100 -1.0489  0.5232 -0.3779
 4814SOL     OW26074   3.133   4.642   7.162  0.4575  0.6957  0.1251
 4814SOL    HW126075   3.174   4.720   7.124  0.0598  0.5122 -0.6907
 4814SOL    HW226076   3.208   4.594   7.196 -0.3757  0.5392  1.7220
 4815SOL     OW26077   3.719   0.951   9.769 -0.7726  0.4284  0.4554
 4815SOL    HW126078   3.698   0.872   9.819  0.4065 -0.7969 -0.9921
 4815SOL    HW226079   3.803   0.923   9.733 -1.1879 -2.0005  1.3946
 4816SOL     OW26080   3.197   3.930   5.949 -0.1241 -0.3664 -0.2231
 4816SOL    HW126081   3.134   3.919   5.877 -0.0812 -1.1989 -0.1355
 4816SOL    HW226082   3.140   3.983   6.005 -0.2958  0.9475 -1.6275
 4817SOL     OW26083   2.527   2.835   6.635 -0.3611  0.5254  0.0160
 4817SOL    HW126084   2.499   2.835   6.726  0.2708  0.1616  0.2135
 4817SOL    HW226085   2.504   2.921   6.601  0.7521  1.0712  0.6448
 4818SOL     OW26086   1.484   1.892   3.353  0.3480  0.4614 -0.2079
 4818SOL    HW126087   1.434   1.894   3.435 -0.3448  0.6867 -0.6392
 4818SOL    HW226088   1.570   1.920   3.385  0.6107  0.3128 -0.7823
 4819SOL     OW26089   1.750   0.121   0.464  0.3097  0.4157  0.5298
 4819SOL    HW126090   1.781   0.034   0.488  0.7830  0.5764  0.5059
 4819SOL    HW226091   1.832   0.159   0.431  0.9368 -0.9246  0.5612
 4820SOL     OW26092   0.277   2.326   4.947  0.1467 -0.0661 -0.4636
 4820SOL    HW126093   0.342   2.353   5.012 -0.0722 -0.8351  0.0684
 4820SOL    HW226094   0.326   2.256   4.902 -0.5411 -0.5764 -0.4228
 4821SOL     OW26095   1.623   3.893   0.465 -0.1089  0.7672  0.1742
 4821SOL    HW126096   1.618   3.933   0.378  1.6623 -0.5060 -0.5135
 4821SOL    HW226097   1.717   3.908   0.467  0.1847 -1.3076  2.2093
 4822SOL     OW26098   0.207   4.419   8.343  0.1357 -0.9516  0.0685
 4822SOL    HW126099   0.131   4.390   8.293 -0.3692  0.1493  0.1968
 4822SOL    HW226100   0.272   4.425   8.272 -0.2393  0.7122 -0.1514
 4823SOL     OW26101   2.458   4.091   7.194 -0.1936 -0.1880  0.0332
 4823SOL    HW126102   2.413   4.030   7.135 -1.7419  0.0140  1.0198
 4823SOL    HW226103   2.514   4.140   7.133  0.4865  1.7528  2.2156
 4824SOL     OW26104   2.789   3.813   5.555 -0.2616  0.3107  0.4699
 4824SOL    HW126105   2.717   3.751   5.568  1.7255 -1.9310  0.8130
 4824SOL    HW226106   2.780   3.857   5.639  0.8388  0.3965  0.5390
 4825SOL     OW26107   1.265   3.578   0.852  0.4380 -0.7262  0.3638
 4825SOL    HW126108   1.307   3.651   0.806 -1.8382  0.5133  0.2431
 4825SOL    HW226109   1.347   3.543   0.886  1.4976 -1.8721 -3.4030
 4826SOL     OW26110   0.168   4.673   2.098 -0.5652  0.6777  0.2332
 4826SOL    HW126111   0.208   0.015   2.123 -0.1890  0.3803  0.6199
 4826SOL    HW226112   0.138   4.690   2.009  0.2750 -0.5556 -0.2862
 4827SOL     OW26113   0.032   4.256   2.260 -0.3485 -0.9602  0.8560
 4827SOL    HW126114   0.090   4.308   2.317 -1.1241  1.0949 -0.2198
 4827SOL    HW226115   4.701   4.317   2.267 -0.2998 -0.7888 -0.2059
 4828SOL     OW26116   0.972   2.451  17.361  0.1822 -0.8087 -0.0979
 4828SOL    HW126117   1.010   2.528  17.404 -0.0761 -0.7550  0.0349
 4828SOL    HW226118   0.910   2.418  17.426  3.3254  1.4638  4.0327
 4829SOL     OW26119   3.157   0.965   6.584  0.1189  0.3600 -0.1016
 4829SOL    HW126120   3.117   0.911   6.652  1.6523  0.5742  0.9893
 4829SOL    HW226121   3.090   1.033   6.583  0.4169  0.6808  0.9522
 4830SOL     OW26122   0.584   0.725   7.582 -0.2346  0.4484  0.4144
 4830SOL    HW126123   0.533   0.805   7.595 -0.9811  0.2734 -1.3789
 4830SOL    HW226124   0.563   0.706   7.490  1.0258 -0.7370  0.3710
 4831SOL     OW26125   1.393   4.544   8.563  0.4381  0.1461  0.4757
 4831SOL    HW126126   1.469   4.495   8.593  0.2314 -0.9400 -0.7261
 4831SOL    HW226127   1.397   4.606   8.635  1.7242  1.8661 -1.0631
 4832SOL     OW26128   4.564   4.251   9.309 -0.2282  0.1461 -0.2554
 4832SOL    HW126129   4.660   4.244   9.315 -0.1703  0.8271 -0.4658
 4832SOL    HW226130   4.527   4.208   9.386  2.0912  2.6828  2.2486
 4833SOL     OW26131   1.460   1.720   8.855  0.6257  0.0791  0.3971
 4833SOL    HW126132   1.442   1.721   8.949  1.6181  1.7117  0.5604
 4833SOL    HW226133   1.504   1.636   8.844  2.4606  0.9648  1.0699
 4834SOL     OW26134   4.719   1.360   8.401 -0.2469  0.1547  0.2530
 4834SOL    HW126135   4.694   1.391   8.488 -0.4814  1.6059 -0.3302
 4834SOL    HW226136   0.042   1.295   8.428  0.4575  1.5362  1.8429
 4835SOL     OW26137   0.111   4.267   7.653 -0.0132 -0.6874 -1.3388
 4835SOL    HW126138   0.045   4.302   7.594 -0.7300 -0.0418 -0.1437
 4835SOL    HW226139   0.103   4.329   7.726  0.6068 -0.8258 -1.1519
 4836SOL     OW26140   4.683   3.831  15.442 -0.1641  0.5349 -0.0563
 4836SOL    HW126141   4.609   3.813  15.385 -1.2939 -0.3706  1.6908
 4836SOL    HW226142   4.689   3.922  15.413 -1.4073  0.2679 -1.1276
 4837SOL     OW26143   0.780   3.738   4.790 -0.0919 -0.5756 -0.0255
 4837SOL    HW126144   0.763   3.674   4.859  0.7899 -0.0824  0.6481
 4837SOL    HW226145   0.732   3.817   4.817  0.0134  0.0265 -1.6160
 4838SOL     OW26146   0.703   2.401   7.284  0.5546 -0.2823 -0.6409
 4838SOL    HW126147   0.617   2.412   7.324  2.4736  0.1899  3.3792
 4838SOL    HW226148   0.756   2.419   7.362 -0.4263 -2.2716  0.4835
 4839SOL     OW26149   1.571   4.121   8.263  0.2923  0.3006 -0.0229
 4839SOL    HW126150   1.629   4.196   8.276  0.6899  0.4519 -2.6659
 4839SOL    HW226151   1.494   4.166   8.230  1.6177  3.3380  1.0114
 4840SOL     OW26152   1.741   3.926   3.009  0.5434 -0.1130 -0.1678
 4840SOL    HW126153   1.794   4.004   2.992  0.5989 -0.4260 -1.4071
 4840SOL    HW226154   1.683   3.952   3.080 -0.3646  0.2091 -1.0271
 4841SOL     OW26155   4.139   0.979  14.729 -0.1592  0.0382 -0.6188
 4841SOL    HW126156   4.191   1.035  14.672  2.1339  0.6248  2.0625
 4841SOL    HW226157   4.195   0.902  14.744  0.6899  0.9870  1.0927
 4842SOL     OW26158   0.616   2.531   3.977  0.3196  0.0900 -0.4888
 4842SOL    HW126159   0.671   2.566   4.048  0.3674 -1.0617  0.0294
 4842SOL    HW226160   0.613   2.437   3.992 -0.7795 -0.1710 -2.4671
 4843SOL     OW26161   0.489   1.575   5.730  0.1761  0.1122 -0.7230
 4843SOL    HW126162   0.527   1.661   5.745  0.3081 -0.3247  1.4903
 4843SOL    HW226163   0.395   1.591   5.734  0.5941  2.1035  1.3160
 4844SOL     OW26164   1.270   4.007   6.653 -0.3566  0.0966  0.1733
 4844SOL    HW126165   1.335   4.074   6.630 -1.1557  1.3042  1.3852
 4844SOL    HW226166   1.232   4.036   6.736  1.4315  2.7803  0.0448
 4845SOL     OW26167   1.324   4.247   8.252 -0.4969  0.3986  0.2955
 4845SOL    HW126168   1.320   4.167   8.304  0.9362  0.2422  0.1697
 4845SOL    HW226169   1.262   4.301   8.302 -0.8303  2.5305 -2.4683
 4846SOL     OW26170   2.575   4.313   1.596 -0.1547  0.4311 -0.1380
 4846SOL    HW126171   2.616   4.392   1.561  0.4726 -0.1032 -0.5923
 4846SOL    HW226172   2.495   4.353   1.632  0.2183 -0.8618  2.0967
 4847SOL     OW26173   3.678   2.598   8.569  0.0733  0.1877  0.0309
 4847SOL    HW126174   3.652   2.547   8.493 -0.5288 -0.3584  0.6029
 4847SOL    HW226175   3.601   2.648   8.593 -1.2648 -1.8378 -0.0657
 4848SOL     OW26176   4.296   0.507   2.367  0.3098 -0.4752 -0.2448
 4848SOL    HW126177   4.269   0.499   2.276 -0.7916  1.2514 -0.0685
 4848SOL    HW226178   4.254   0.435   2.414 -1.8389  1.2496  0.5111
 4849SOL     OW26179   2.096   3.189   4.696 -0.3783  0.8640  0.0760
 4849SOL    HW126180   2.139   3.170   4.779  0.8741 -2.5220 -1.3280
 4849SOL    HW226181   2.152   3.144   4.633  0.8146  4.5202 -1.4617
 4850SOL     OW26182   4.310   0.143   5.614 -0.1711 -0.0587  0.5431
 4850SOL    HW126183   4.373   0.093   5.562 -0.4264  1.4594 -1.2167
 4850SOL    HW226184   4.371   0.207   5.650  1.5551 -0.0994 -2.3086
 4851SOL     OW26185   1.960   2.327   7.994 -0.0743 -0.3978  0.1427
 4851SOL    HW126186   1.999   2.414   7.996 -0.0403 -0.4448  2.3206
 4851SOL    HW226187   1.896   2.326   8.066  0.2635  1.8577  0.4758
 4852SOL     OW26188   2.484   0.444  12.322  0.6121  0.3028 -0.1859
 4852SOL    HW126189   2.441   0.387  12.258 -1.6302 -0.2609  1.8479
 4852SOL    HW226190   2.412   0.439  12.385 -1.2694  0.9260 -2.3187
 4853SOL     OW26191   4.394   1.244   8.254  0.5102 -0.2403 -0.5266
 4853SOL    HW126192   4.390   1.322   8.310 -0.5022 -0.7937  0.1700
 4853SOL    HW226193   4.486   1.247   8.226  0.7414  2.4464  0.4591
 4854SOL     OW26194   0.792   2.706   6.532 -0.0227 -0.7230 -0.7758
 4854SOL    HW126195   0.880   2.671   6.518 -0.0666 -0.9678 -0.4586
 4854SOL    HW226196   0.747   2.680   6.452  0.8536 -0.0857 -1.4711
 4855SOL     OW26197   3.058   0.243  14.616 -0.0211  0.3895 -0.2857
 4855SOL    HW126198   3.035   0.192  14.539 -0.8461  0.8031 -0.3135
 4855SOL    HW226199   2.980   0.295  14.635 -0.4512 -0.2432 -0.3388
 4856SOL     OW26200   4.149   2.580  13.130  0.0238 -0.0004 -0.0140
 4856SOL    HW126201   4.067   2.611  13.091  0.7337 -0.0671 -1.5727
 4856SOL    HW226202   4.198   2.557  13.051  0.5503  0.7014  0.1127
 4857SOL     OW26203   0.615   3.972  16.838 -0.3600  0.0406 -0.0386
 4857SOL    HW126204   0.531   4.015  16.850 -0.4595  0.0523 -0.7403
 4857SOL    HW226205   0.619   3.904  16.905 -1.8245 -0.9809 -0.9884
 4858SOL     OW26206   1.355   0.162   7.815  0.0770  0.3269 -0.4284
 4858SOL    HW126207   1.401   0.200   7.740 -0.3858  0.2276 -0.7565
 4858SOL    HW226208   1.326   0.079   7.777 -1.9743  1.4994 -1.4278
 4859SOL     OW26209   0.979   2.096   3.100 -0.3823  0.1132  0.2781
 4859SOL    HW126210   0.983   2.040   3.178 -0.4046  1.3355  1.1622
 4859SOL    HW226211   0.971   2.183   3.139  1.7022  0.6926 -0.6173
 4860SOL     OW26212   0.029   4.059  12.888 -0.2940  0.1647 -0.2630
 4860SOL    HW126213   4.723   3.987  12.847 -1.6055  1.0199 -0.2484
 4860SOL    HW226214   0.034   4.032  12.979 -0.8985 -0.6800 -0.4809
 4861SOL     OW26215   3.834   0.951   5.164  0.5730  0.2617  0.2298
 4861SOL    HW126216   3.880   0.871   5.141  0.5064  0.3860 -0.3385
 4861SOL    HW226217   3.809   0.929   5.254  1.2919  0.4610  0.4789
 4862SOL     OW26218   1.249   4.247   4.273  0.0835 -0.0662  0.3674
 4862SOL    HW126219   1.299   4.269   4.194  0.0681 -1.2280  0.0324
 4862SOL    HW226220   1.277   4.312   4.337 -1.2269  1.6059 -0.7722
 4863SOL     OW26221   0.650   4.496   2.248  0.1408 -0.2057  0.0797
 4863SOL    HW126222   0.645   4.412   2.203  4.5987  0.1368 -1.0389
 4863SOL    HW226223   0.640   4.461   2.337 -0.3852 -0.7798 -0.2097
 4864SOL     OW26224   1.027   2.837   1.904  0.3734 -0.5642 -0.3642
 4864SOL    HW126225   1.117   2.867   1.918 -0.3583  1.4451  0.0628
 4864SOL    HW226226   0.991   2.831   1.992 -0.3553  1.9566 -0.4923
 4865SOL     OW26227   4.245   1.481   3.042  0.4079  0.1697 -0.0347
 4865SOL    HW126228   4.160   1.452   3.075 -0.7548  2.8183 -0.6455
 4865SOL    HW226229   4.304   1.424   3.091 -0.3604 -1.1417 -0.6517
 4866SOL     OW26230   2.757   0.635  16.160 -0.8907  0.0728 -0.2017
 4866SOL    HW126231   2.827   0.647  16.224  0.8968  0.7120 -2.3237
 4866SOL    HW226232   2.798   0.629  16.074  0.7327  1.0514  0.5062
 4867SOL     OW26233   3.122   2.150   3.969  0.1182 -0.0981 -0.1888
 4867SOL    HW126234   3.172   2.074   3.939  0.4416  0.8110 -1.9946
 4867SOL    HW226235   3.115   2.189   3.881 -0.6182 -0.9892 -0.5271
 4868SOL     OW26236   0.652   2.590   5.698  0.1532  0.3358  0.0354
 4868SOL    HW126237   0.671   2.669   5.647  0.0397  0.5903  0.3878
 4868SOL    HW226238   0.716   2.537   5.651  1.4728  2.2702 -0.3530
 4869SOL     OW26239   4.399   3.937   5.631 -0.4123 -0.2950 -0.2986
 4869SOL    HW126240   4.316   3.913   5.672  1.0815 -2.9666  1.1424
 4869SOL    HW226241   4.436   3.854   5.602  0.6683 -0.3063  1.1049
 4870SOL     OW26242   0.911   3.266   5.649 -0.4092  0.1829 -0.7107
 4870SOL    HW126243   0.877   3.219   5.572  0.2649 -3.1034  0.9679
 4870SOL    HW226244   0.837   3.325   5.661 -1.6417 -1.2435 -1.1578
 4871SOL     OW26245   1.288   1.364   3.905 -0.9909 -0.6678 -0.1521
 4871SOL    HW126246   1.250   1.292   3.854 -1.9636 -0.9460  0.9591
 4871SOL    HW226247   1.260   1.434   3.845  0.7843  0.8819  0.8544
 4872SOL     OW26248   2.487   4.010   9.732 -0.1374  0.7701  0.0627
 4872SOL    HW126249   2.514   4.060   9.655  0.5335  3.1834  1.8300
 4872SOL    HW226250   2.572   3.970   9.749  0.4742  1.3650 -1.6506
 4873SOL     OW26251   2.258   4.460   6.864  0.1371  0.1786 -0.2529
 4873SOL    HW126252   2.343   4.468   6.820 -0.6904  0.6139 -1.7978
 4873SOL    HW226253   2.254   4.547   6.904  0.1205 -0.4184  1.0497
 4874SOL     OW26254   4.432   1.624   1.968 -0.4166  0.2800 -0.0501
 4874SOL    HW126255   4.426   1.686   1.895 -0.8616  1.3238  0.8601
 4874SOL    HW226256   4.492   1.669   2.028 -3.2579  4.9910 -0.7104
 4875SOL     OW26257   1.392   1.505   9.432 -0.5012  0.1168 -0.0471
 4875SOL    HW126258   1.412   1.492   9.524 -2.2576  0.3132  0.3778
 4875SOL    HW226259   1.475   1.517   9.386 -1.1655  2.3688 -0.6819
 4876SOL     OW26260   0.995   4.162   2.609 -0.8047 -0.2688  0.6340
 4876SOL    HW126261   0.953   4.144   2.525  0.8262 -1.4072  0.0551
 4876SOL    HW226262   0.945   4.237   2.640 -1.4175 -0.1501 -0.6616
 4877SOL     OW26263   2.536   4.131   8.798  0.6153 -0.1534 -0.2391
 4877SOL    HW126264   2.607   4.188   8.766  0.0239  0.0543 -1.1748
 4877SOL    HW226265   2.479   4.130   8.722 -0.8407 -1.3165  0.8854
 4878SOL     OW26266   1.586   1.715   7.774 -0.2394  0.2503 -0.2418
 4878SOL    HW126267   1.580   1.806   7.803 -1.0162  0.8061 -2.1276
 4878SOL    HW226268   1.518   1.674   7.827 -0.4812 -0.7530 -1.3390
 4879SOL     OW26269   3.353   2.668   7.049  0.4493  0.1434 -0.4002
 4879SOL    HW126270   3.364   2.662   6.954  1.7769  1.5056 -0.3266
 4879SOL    HW226271   3.302   2.591   7.075 -2.1608  1.3799 -1.8369
 4880SOL     OW26272   4.509   1.053   9.139 -0.1364  0.2998  0.3362
 4880SOL    HW126273   4.528   1.091   9.053  2.2636  2.3064  1.7481
 4880SOL    HW226274   4.588   1.000   9.145  0.1971  0.6267 -1.3533
 4881SOL     OW26275   0.634   2.269   1.555 -0.0812  0.4515 -0.0875
 4881SOL    HW126276   0.573   2.314   1.613 -0.4263 -1.1312  0.7711
 4881SOL    HW226277   0.719   2.265   1.599  0.2367 -3.0015 -1.0358
 4882SOL     OW26278   3.120   1.747  12.394 -0.6248  0.3148 -0.6363
 4882SOL    HW126279   3.130   1.721  12.485 -1.2787  2.5115  0.0651
 4882SOL    HW226280   3.190   1.811  12.384  1.3981 -1.8352 -0.1075
 4883SOL     OW26281   1.919   4.356   3.054  0.0058 -0.2437 -0.8848
 4883SOL    HW126282   1.940   4.449   3.047  1.6400 -0.5256  0.1745
 4883SOL    HW226283   1.954   4.316   2.974  2.7212 -0.5424  0.4491
 4884SOL     OW26284   2.216   4.199   9.547 -0.5103  0.1098 -0.7592
 4884SOL    HW126285   2.227   4.218   9.641 -0.5303 -0.9943 -0.5298
 4884SOL    HW226286   2.195   4.289   9.522  0.2223  0.3589 -0.4734
 4885SOL     OW26287   2.915   2.624  11.079  0.5355 -0.1700 -0.0421
 4885SOL    HW126288   2.940   2.703  11.032 -0.0966 -0.6806 -1.2439
 4885SOL    HW226289   2.931   2.653  11.169 -1.1012 -0.7274  0.4289
 4886SOL     OW26290   3.409   1.556   4.367 -0.1686 -0.3827  0.1050
 4886SOL    HW126291   3.487   1.576   4.316  0.5966  0.5514  1.6572
 4886SOL    HW226292   3.441   1.516   4.447  0.3026  0.3312  0.2775
 4887SOL     OW26293   3.928   3.995  13.328 -0.0527 -0.2738 -0.1304
 4887SOL    HW126294   3.980   4.075  13.335  0.7350 -0.8255  0.2671
 4887SOL    HW226295   3.847   4.021  13.284 -0.2255  0.1517  0.4386
 4888SOL     OW26296   3.717   0.886  17.114  0.5251 -0.2883  0.1582
 4888SOL    HW126297   3.669   0.821  17.062  0.2066  1.4609 -1.7153
 4888SOL    HW226298   3.791   0.897  17.055 -1.3713  1.6597 -1.8417
 4889SOL     OW26299   4.378   4.284   9.140  0.2084  0.3768  0.1699
 4889SOL    HW126300   4.393   4.378   9.134  0.6955  0.2984  0.1893
 4889SOL    HW226301   4.443   4.259   9.207  0.4069  2.3751  0.7170
 4890SOL     OW26302   3.805   1.506   1.108 -0.0512  0.2265  0.1550
 4890SOL    HW126303   3.783   1.599   1.105  0.8556  0.3903 -1.6090
 4890SOL    HW226304   3.811   1.495   1.013 -2.2148 -0.5440  0.1185
 4891SOL     OW26305   0.910   4.432   6.897 -0.1194  0.2812 -0.0291
 4891SOL    HW126306   0.996   4.463   6.926 -0.3868  0.9950 -0.0032
 4891SOL    HW226307   0.902   4.488   6.820  0.1492  1.9111  1.1235
 4892SOL     OW26308   2.241   1.094   7.387 -0.0400  0.0078 -0.2861
 4892SOL    HW126309   2.246   1.002   7.362 -2.7405 -0.3201  0.4172
 4892SOL    HW226310   2.162   1.122   7.341  0.8700  0.1004 -1.7972
 4893SOL     OW26311   4.588   1.494   1.435 -0.2259 -0.7700 -0.2565
 4893SOL    HW126312   4.520   1.450   1.487 -1.6846 -1.6649 -2.8825
 4893SOL    HW226313   4.542   1.518   1.355 -0.9527 -0.5412  0.2358
 4894SOL     OW26314   4.187   3.446   6.276 -0.2275 -0.3964  0.0315
 4894SOL    HW126315   4.249   3.399   6.333  0.0740  1.8769  1.5857
 4894SOL    HW226316   4.212   3.533   6.306 -0.8132 -0.2697  0.1345
 4895SOL     OW26317   1.075   3.865  13.546  0.0943  0.5082  0.6810
 4895SOL    HW126318   1.151   3.810  13.525 -0.7786 -0.0378 -1.1110
 4895SOL    HW226319   1.084   3.938  13.484 -1.8422  0.6053  0.5246
 4896SOL     OW26320   3.286   2.810   1.014  0.2263  0.1075 -0.6253
 4896SOL    HW126321   3.381   2.817   1.020  0.1813 -0.4934  0.7038
 4896SOL    HW226322   3.278   2.789   0.921 -1.5371  1.7252 -0.8446
 4897SOL     OW26323   0.957   3.530   8.233 -0.0734 -0.3823  0.5071
 4897SOL    HW126324   1.009   3.453   8.254  1.5607  0.6351  0.1538
 4897SOL    HW226325   1.015   3.599   8.266  0.3898  0.2254 -1.5853
 4898SOL     OW26326   2.617   2.571  15.460  0.6504  0.1800 -0.4810
 4898SOL    HW126327   2.708   2.571  15.489  1.0468 -0.1261 -1.7304
 4898SOL    HW226328   2.622   2.664  15.436 -3.4436 -0.7091 -4.7638
 4899SOL     OW26329   2.084   4.109  16.560  0.0642  0.4859  0.4301
 4899SOL    HW126330   2.118   4.108  16.470 -0.3560 -2.1227  0.3013
 4899SOL    HW226331   2.002   4.158  16.555 -0.8232 -0.8990  1.6191
 4900SOL     OW26332   0.468   0.627   0.926  0.1013 -0.0458 -0.1109
 4900SOL    HW126333   0.487   0.665   0.840  0.9694 -1.3768 -0.4989
 4900SOL    HW226334   0.375   0.611   0.912 -0.0001 -0.0654  0.6085
 4901SOL     OW26335   3.905   4.222   2.989 -0.2172 -0.0594 -0.6659
 4901SOL    HW126336   3.952   4.171   2.923 -0.9199 -0.2389 -1.0209
 4901SOL    HW226337   3.825   4.170   2.996 -0.3962  0.5909  2.3346
 4902SOL     OW26338   3.279   2.740   5.342 -0.3179  0.0657 -0.0061
 4902SOL    HW126339   3.349   2.798   5.311  1.4756 -2.2929 -0.3481
 4902SOL    HW226340   3.218   2.810   5.365 -0.4589 -0.2369  0.5174
 4903SOL     OW26341   0.181   4.370   9.938  0.9605  0.2045 -0.5407
 4903SOL    HW126342   0.248   4.372   9.870  1.0043  0.5771 -0.4909
 4903SOL    HW226343   0.200   4.460   9.967 -0.1708 -0.2838  1.7174
 4904SOL     OW26344   2.287   4.166   0.993  0.2966  0.3353  0.0354
 4904SOL    HW126345   2.366   4.143   0.943  1.1345 -0.1763  1.6001
 4904SOL    HW226346   2.295   4.109   1.070 -1.4894 -1.5271 -1.1611
 4905SOL     OW26347   3.579   1.338   1.353  0.0211  0.9189 -0.3707
 4905SOL    HW126348   3.595   1.420   1.398 -0.2902  0.3801  0.7095
 4905SOL    HW226349   3.667   1.311   1.327 -0.0191  0.2420  0.1931
 4906SOL     OW26350   0.382   1.336   6.719 -0.0524 -0.2719  0.2045
 4906SOL    HW126351   0.379   1.380   6.804  2.5427 -0.1284  0.2291
 4906SOL    HW226352   0.367   1.250   6.757 -1.4215  0.1505  0.6420
 4907SOL     OW26353   4.264   1.890   4.697  0.2804 -0.3764  0.6711
 4907SOL    HW126354   4.272   1.795   4.711  0.1024 -0.5668 -0.5387
 4907SOL    HW226355   4.185   1.909   4.749 -1.9756  0.0120 -2.8839
 4908SOL     OW26356   1.920   3.986   9.169  0.0220 -0.1150  0.4797
 4908SOL    HW126357   1.886   3.938   9.094  0.4220 -0.4263  0.4918
 4908SOL    HW226358   1.859   3.961   9.238  1.1695 -0.4200  1.3892
 4909SOL     OW26359   0.822   3.494   2.328 -0.0897  0.5789  0.0758
 4909SOL    HW126360   0.886   3.435   2.369 -1.7254 -0.2714  1.4354
 4909SOL    HW226361   0.799   3.555   2.399 -1.2755  0.2799 -0.0441
 4910SOL     OW26362   4.121   0.690   7.473  0.5152  0.3635 -0.1402
 4910SOL    HW126363   4.196   0.721   7.422 -0.4762  2.1995 -0.5019
 4910SOL    HW226364   4.106   0.769   7.526  1.0860  1.3114 -1.3891
 4911SOL     OW26365   2.351   0.614   5.661 -0.4833  0.1439  0.1420
 4911SOL    HW126366   2.294   0.641   5.588 -0.0486  0.3328 -0.1283
 4911SOL    HW226367   2.417   0.563   5.614 -0.9313 -1.7403  1.5548
 4912SOL     OW26368   1.603   2.286  11.345  0.8403  0.0427  0.4446
 4912SOL    HW126369   1.605   2.382  11.349  1.8124 -0.0096  1.2351
 4912SOL    HW226370   1.510   2.272  11.358  0.9178  0.9832  2.0324
 4913SOL     OW26371   3.713   1.461   6.877  0.1749  0.1631 -0.4529
 4913SOL    HW126372   3.759   1.467   6.794 -1.3283 -1.5123 -1.4220
 4913SOL    HW226373   3.627   1.437   6.842  1.5988 -1.6837 -2.6160
 4914SOL     OW26374   1.485   3.761   8.817  0.2951 -0.0040 -0.2208
 4914SOL    HW126375   1.536   3.833   8.853  2.5164 -1.7636  0.1787
 4914SOL    HW226376   1.442   3.717   8.890  0.8898  0.4648  0.4060
 4915SOL     OW26377   0.322   3.653   8.887 -0.6494  0.1815  0.1639
 4915SOL    HW126378   0.286   3.640   8.974  0.6664 -1.3257  0.4707
 4915SOL    HW226379   0.289   3.572   8.848 -1.8549  1.2021 -0.9556
 4916SOL     OW26380   3.482   0.131  13.896  0.1518 -0.7310 -0.1488
 4916SOL    HW126381   3.428   0.198  13.936 -1.4089 -0.0571 -3.3227
 4916SOL    HW226382   3.430   0.050  13.894  0.9731 -1.2859  1.1840
 4917SOL     OW26383   1.481   2.201  13.055  0.2943  0.1180  0.6368
 4917SOL    HW126384   1.513   2.277  13.104 -0.7542  0.3041  1.0357
 4917SOL    HW226385   1.561   2.150  13.049 -0.9744 -2.0491  1.9927
 4918SOL     OW26386   2.654   3.267   2.518 -0.1713 -0.4895 -0.1863
 4918SOL    HW126387   2.677   3.300   2.604 -0.5252 -0.3596 -0.1449
 4918SOL    HW226388   2.618   3.181   2.542  1.3115 -0.7656  1.0189
 4919SOL     OW26389   2.628   0.676   9.622  0.2670 -0.7690  0.1851
 4919SOL    HW126390   2.649   0.588   9.590 -1.1262 -0.6562 -1.0163
 4919SOL    HW226391   2.648   0.732   9.547 -0.9586  0.0592  0.4761
 4920SOL     OW26392   1.587   3.599   6.402 -0.1689 -0.5081  0.2674
 4920SOL    HW126393   1.547   3.677   6.439 -0.5849  0.0176 -1.2965
 4920SOL    HW226394   1.670   3.627   6.364 -0.9498  1.9884  0.4225
 4921SOL     OW26395   2.975   2.186   1.812 -0.0384 -0.5738 -0.5191
 4921SOL    HW126396   3.035   2.233   1.754 -0.5475  0.2823 -0.3478
 4921SOL    HW226397   2.927   2.256   1.855  1.0873 -0.8316  1.1984
 4922SOL     OW26398   1.223   4.200  14.940  0.5352  0.2648  0.0053
 4922SOL    HW126399   1.188   4.202  15.029 -2.0466  0.1611 -1.0326
 4922SOL    HW226400   1.178   4.268  14.890 -0.6755  0.7321  1.7135
 4923SOL     OW26401   0.018   1.658   3.791  0.2855  0.7114 -0.2709
 4923SOL    HW126402   0.073   1.731   3.762 -0.0254  1.0621  0.0265
 4923SOL    HW226403   4.706   1.644   3.713 -0.1679 -2.2304  0.5457
 4924SOL     OW26404   0.130   1.473  15.329 -0.1099 -0.4371 -0.2276
 4924SOL    HW126405   0.194   1.456  15.398 -0.5978  1.8227  0.7909
 4924SOL    HW226406   0.077   1.394  15.345 -2.5314  1.5976  1.7939
 4925SOL     OW26407   0.589   4.487   9.244  0.3648 -0.4363  0.4129
 4925SOL    HW126408   0.528   4.478   9.171  0.7740 -0.4373  0.0762
 4925SOL    HW226409   0.587   4.579   9.269  0.0968 -0.2586 -0.2826
 4926SOL     OW26410   1.601   4.613   9.241 -0.1826  0.0553 -0.3545
 4926SOL    HW126411   1.660   4.603   9.315 -0.0051 -3.5992 -1.0057
 4926SOL    HW226412   1.517   4.601   9.286  0.4724 -1.8718  0.3662
 4927SOL     OW26413   2.451   2.564   2.495 -0.4553  0.5992  0.1847
 4927SOL    HW126414   2.381   2.506   2.524 -0.8245  0.8393 -0.2223
 4927SOL    HW226415   2.451   2.549   2.400  0.8057  0.2638  0.2281
 4928SOL     OW26416   3.968   3.050   8.753 -0.1638  0.0105  0.1913
 4928SOL    HW126417   3.917   3.126   8.725 -1.3221 -0.4273  1.1215
 4928SOL    HW226418   3.971   3.069   8.847  0.5986  0.1690  0.1353
 4929SOL     OW26419   0.688   0.996   9.682 -0.1245  0.2500  0.3253
 4929SOL    HW126420   0.641   0.997   9.598  3.9762 -0.9250 -2.0357
 4929SOL    HW226421   0.759   1.061   9.682 -0.0080  0.1311 -0.2936
 4930SOL     OW26422   2.225   2.220  13.614 -0.4567 -0.3432 -0.4471
 4930SOL    HW126423   2.192   2.305  13.643 -0.6917 -0.7047  0.3457
 4930SOL    HW226424   2.194   2.217  13.524 -0.6954  0.2457 -0.3842
 4931SOL     OW26425   1.520   3.961  13.519  0.7222 -0.1930 -0.4731
 4931SOL    HW126426   1.566   4.044  13.515  1.3289 -0.4767  0.6848
 4931SOL    HW226427   1.580   3.909  13.572  0.9702  0.0195 -0.5503
 4932SOL     OW26428   3.279   0.510  10.711  0.2540  0.0522 -0.0473
 4932SOL    HW126429   3.275   0.434  10.654 -3.6057  0.6387 -0.5750
 4932SOL    HW226430   3.367   0.546  10.703  1.2303 -1.4892  3.6504
 4933SOL     OW26431   0.168   0.619   2.543 -0.1860  0.4288  0.1956
 4933SOL    HW126432   0.245   0.595   2.596 -0.2140 -2.4337 -1.0239
 4933SOL    HW226433   0.215   0.672   2.478 -0.0960  0.3148  0.1668
 4934SOL     OW26434   2.200   4.350   9.843 -0.7324 -0.1641 -0.1313
 4934SOL    HW126435   2.260   4.424   9.836 -0.3183 -0.5163 -0.2773
 4934SOL    HW226436   2.256   4.281   9.876 -1.2373 -2.2127 -3.5450
 4935SOL     OW26437   2.417   3.476   9.542 -0.9344  0.0002 -0.0368
 4935SOL    HW126438   2.447   3.399   9.492 -1.2395  0.3484 -0.7631
 4935SOL    HW226439   2.483   3.542   9.524 -0.5454 -0.8125 -1.6450
 4936SOL     OW26440   4.612   4.717   4.911  0.4892 -0.1390  0.2537
 4936SOL    HW126441   4.691   4.713   4.857 -1.5956  0.8943 -2.8507
 4936SOL    HW226442   4.554   4.667   4.854  0.7885 -1.1429  0.8273
 4937SOL     OW26443   0.608   3.115  17.484  0.8507  0.2023 -0.2409
 4937SOL    HW126444   0.586   3.145  17.572 -0.5553  1.6477 -1.0719
 4937SOL    HW226445   0.693   3.073  17.490  0.1840 -1.0953  0.2258
 4938SOL     OW26446   4.692   2.334  15.545  0.1854 -0.4563 -0.4321
 4938SOL    HW126447   4.711   2.397  15.615  1.4886  2.6341 -3.5498
 4938SOL    HW226448   0.042   2.306  15.546  0.8283  1.6435 -0.7048
 4939SOL     OW26449   0.933   1.735   1.148 -0.5740  0.4592  0.1004
 4939SOL    HW126450   0.925   1.641   1.161 -0.0730  0.4677  0.4821
 4939SOL    HW226451   0.897   1.765   1.232  0.4820 -0.7230  0.9744
 4940SOL     OW26452   2.574   1.422   9.142  0.6869 -0.0371  0.2796
 4940SOL    HW126453   2.585   1.448   9.051  1.4995 -0.7817  0.1668
 4940SOL    HW226454   2.666   1.425   9.169  1.2878  0.4989 -1.8114
 4941SOL     OW26455   3.360   2.143  11.860  0.4753 -0.8464  0.2707
 4941SOL    HW126456   3.319   2.213  11.911  0.3420 -0.5376 -0.2627
 4941SOL    HW226457   3.442   2.186  11.838 -0.7620  2.3962  1.9606
 4942SOL     OW26458   4.214   1.146   3.886  0.4514  0.2686 -0.0064
 4942SOL    HW126459   4.171   1.066   3.915 -0.2059  0.1044 -1.4113
 4942SOL    HW226460   4.150   1.212   3.912 -0.3450  0.6405 -2.8388
 4943SOL     OW26461   0.515   0.141   4.549  0.0037 -0.2913 -0.4865
 4943SOL    HW126462   0.483   0.225   4.516 -0.6746  0.0030  0.9269
 4943SOL    HW226463   0.447   0.109   4.608  0.0971 -2.3751 -1.4914
 4944SOL     OW26464   3.807   2.429  15.019  0.3477  0.0459  0.0860
 4944SOL    HW126465   3.754   2.477  14.955  1.0529  1.3795  0.5114
 4944SOL    HW226466   3.891   2.472  15.002 -0.0104 -0.1235 -2.1888
 4945SOL     OW26467   3.931   1.179   9.727  0.3378 -0.4646  0.2468
 4945SOL    HW126468   3.972   1.125   9.794  1.3407 -0.3502 -0.2694
 4945SOL    HW226469   3.841   1.182   9.758 -0.3883 -2.2251 -1.7390
 4946SOL     OW26470   3.747   3.991   3.964 -0.1081 -0.4311  0.0925
 4946SOL    HW126471   3.759   3.914   4.019 -0.3349 -0.2749  0.3601
 4946SOL    HW226472   3.714   3.947   3.886 -0.5814  1.6124 -0.8607
 4947SOL     OW26473   0.064   2.412   2.390  0.3883  0.2878 -0.0142
 4947SOL    HW126474   0.048   2.428   2.484 -0.2746 -0.2584 -0.0323
 4947SOL    HW226475   0.104   2.497   2.376  2.0246 -0.1850  1.7522
 4948SOL     OW26476   4.636   0.980  16.321  0.2134  0.5785  0.4030
 4948SOL    HW126477   4.576   1.014  16.255 -0.5685 -0.7919  0.4021
 4948SOL    HW226478   4.643   1.055  16.379 -0.2377  0.0187  1.1874
 4949SOL     OW26479   4.233   0.437   5.138 -0.0047 -0.4770 -0.4995
 4949SOL    HW126480   4.322   0.403   5.128  0.9115  1.3464  1.4742
 4949SOL    HW226481   4.240   0.513   5.196 -3.5359  0.6716 -1.6165
 4950SOL     OW26482   2.150   0.115   4.677  0.1962 -0.1815  0.5308
 4950SOL    HW126483   2.156   0.101   4.772  0.4941 -0.0201  0.5354
 4950SOL    HW226484   2.183   0.204   4.671  2.4246 -1.0037  0.3861
 4951SOL     OW26485   3.574   1.409   8.997 -0.0177 -0.2789 -0.2497
 4951SOL    HW126486   3.521   1.347   9.047 -0.7243  0.4181 -0.1300
 4951SOL    HW226487   3.609   1.476   9.055 -0.0345 -0.1585 -0.3790
 4952SOL     OW26488   3.107   0.890   9.690  0.2800  0.1257  0.0598
 4952SOL    HW126489   3.044   0.901   9.620 -1.8534 -0.6709  1.8456
 4952SOL    HW226490   3.185   0.865   9.641  0.5275  1.8678 -0.4455
 4953SOL     OW26491   2.520   1.259   6.614  0.0520 -0.3488  0.4737
 4953SOL    HW126492   2.523   1.336   6.670 -0.1739 -0.9998  1.3870
 4953SOL    HW226493   2.446   1.275   6.556 -0.5913 -0.8732  1.1532
 4954SOL     OW26494   0.825   4.025  16.701  0.5059  0.0063 -0.3349
 4954SOL    HW126495   0.804   4.115  16.723  0.4189 -0.0913 -0.0123
 4954SOL    HW226496   0.759   3.982  16.755  0.1364  0.2068 -0.6241
 4955SOL     OW26497   1.199   1.260  11.017  0.4886  0.3982  0.2519
 4955SOL    HW126498   1.213   1.303  10.932  1.6588 -0.4317  0.0246
 4955SOL    HW226499   1.280   1.267  11.067  0.6120 -0.8784  0.2363
 4956SOL     OW26500   2.847   1.028   9.276  0.2336  0.4643  0.0551
 4956SOL    HW126501   2.787   0.990   9.212  0.0439  1.3687 -0.3041
 4956SOL    HW226502   2.863   1.112   9.233 -0.1305  0.3490 -0.3089
 4957SOL     OW26503   3.253   4.715   6.071 -0.0592  0.8764 -0.1737
 4957SOL    HW126504   3.249   4.630   6.114 -0.7188  0.8151 -0.3446
 4957SOL    HW226505   3.256   0.021   6.154 -0.9606 -0.0889  0.4119
 4958SOL     OW26506   1.615   3.010   7.002  0.3665  0.0511 -0.0721
 4958SOL    HW126507   1.558   3.084   6.985 -1.3023 -0.8615  1.5559
 4958SOL    HW226508   1.620   3.002   7.098 -0.7081  0.3298  0.0062
 4959SOL     OW26509   2.268   2.084   4.426  0.3194 -0.3684 -0.3251
 4959SOL    HW126510   2.361   2.100   4.443  0.2078 -1.0260  0.9528
 4959SOL    HW226511   2.238   2.024   4.495  2.5998  1.0630  1.9477
 4960SOL     OW26512   3.207   1.125  16.011 -0.3731 -0.0662 -0.2050
 4960SOL    HW126513   3.238   1.087  15.929  0.4881 -3.0307  1.4760
 4960SOL    HW226514   3.258   1.206  16.004 -0.4661  0.0455  0.3529
 4961SOL     OW26515   1.022   2.499   3.206  0.2299 -0.3466  0.3315
 4961SOL    HW126516   1.076   2.428   3.240 -4.8525 -3.6353  1.4628
 4961SOL    HW226517   0.944   2.470   3.252  0.7325  0.1442  1.4958
 4962SOL     OW26518   1.710   3.214   2.250 -0.1472  0.5225  0.2344
 4962SOL    HW126519   1.725   3.290   2.307 -0.6133 -0.9971  2.3904
 4962SOL    HW226520   1.689   3.154   2.322 -0.0104 -0.9990 -0.9935
 4963SOL     OW26521   0.288   0.622  10.547 -0.2109  0.3915 -0.8619
 4963SOL    HW126522   0.326   0.621  10.459 -0.8423 -1.2670 -1.1152
 4963SOL    HW226523   0.311   0.708  10.583 -0.3810  0.5620 -1.1569
 4964SOL     OW26524   0.780   4.631   4.560 -0.2138  0.3269 -0.2142
 4964SOL    HW126525   0.717   4.573   4.603  0.0672  0.2383  0.0797
 4964SOL    HW226526   0.793   4.583   4.479  0.5227  0.5249 -0.2077
 4965SOL     OW26527   3.941   2.973   3.773  0.0697 -0.1095  0.0638
 4965SOL    HW126528   3.864   3.004   3.820 -0.1676  0.2814 -0.5814
 4965SOL    HW226529   3.902   2.909   3.712  0.9695 -0.6405  0.0539
 4966SOL     OW26530   3.044   2.887   2.381  0.2521 -0.3130 -0.1186
 4966SOL    HW126531   2.982   2.820   2.410  0.2315 -0.8237 -1.3432
 4966SOL    HW226532   2.998   2.938   2.314 -0.2703  1.0612  1.2730
 4967SOL     OW26533   2.341   1.730   5.530  0.5640  0.2640 -0.1416
 4967SOL    HW126534   2.432   1.712   5.510  0.3856  0.9492 -1.6118
 4967SOL    HW226535   2.341   1.794   5.602 -0.9013  1.8337 -1.5195
 4968SOL     OW26536   1.285   3.410   8.156 -0.4446  0.4901 -0.3045
 4968SOL    HW126537   1.269   3.328   8.109  1.2468  0.5941 -1.0787
 4968SOL    HW226538   1.224   3.472   8.115  0.6054  2.4785  1.1218
 4969SOL     OW26539   0.464   0.088   3.894  0.4188 -0.3809 -0.1570
 4969SOL    HW126540   0.440   0.116   3.805 -1.0628 -0.7144  0.1370
 4969SOL    HW226541   0.552   0.061   3.869  0.4298  0.0043 -0.5471
 4970SOL     OW26542   0.787   1.665   9.605 -0.2744 -0.1149 -0.5304
 4970SOL    HW126543   0.710   1.610   9.592  0.7525 -1.0767 -2.6212
 4970SOL    HW226544   0.747   1.743   9.567  0.4517  0.7962  0.5572
 4971SOL     OW26545   3.724   0.553  10.205  0.0348  0.0372 -0.0826
 4971SOL    HW126546   3.762   0.487  10.263  0.1726 -0.1496 -0.3790
 4971SOL    HW226547   3.684   0.612  10.268  0.2037 -0.9424  0.9514
 4972SOL     OW26548   3.934   0.870   2.045  0.2287 -0.0888  0.3723
 4972SOL    HW126549   3.842   0.844   2.045  0.2763 -0.2084 -2.7304
 4972SOL    HW226550   3.920   0.955   2.003  0.1446 -0.7211 -0.8510
 4973SOL     OW26551   3.864   0.847   6.956  0.6826 -0.6726  0.4990
 4973SOL    HW126552   3.909   0.791   6.893 -2.8732 -3.6218  0.5344
 4973SOL    HW226553   3.896   0.933   6.930  2.5764 -1.3118  0.7382
 4974SOL     OW26554   3.400   3.035   3.473 -0.2054 -0.0759 -0.1291
 4974SOL    HW126555   3.415   3.013   3.565  0.7515  1.9239  0.1998
 4974SOL    HW226556   3.472   2.983   3.438 -0.0391  0.0506  0.0286
 4975SOL     OW26557   2.517   3.448   7.950 -0.2924 -0.3646  0.0821
 4975SOL    HW126558   2.429   3.413   7.935  0.7427 -2.8177 -0.2712
 4975SOL    HW226559   2.531   3.498   7.869  1.8657  0.6387  1.0741
 4976SOL     OW26560   1.091   0.577   4.706  0.4222  0.1777  0.4062
 4976SOL    HW126561   1.147   0.505   4.677 -0.2525 -0.0421 -0.3623
 4976SOL    HW226562   1.064   0.535   4.788 -1.0052  0.3796  0.0490
 4977SOL     OW26563   3.501   2.887   5.293  0.1326  0.2688 -0.4580
 4977SOL    HW126564   3.522   2.845   5.377 -1.0020  1.5322  0.4585
 4977SOL    HW226565   3.584   2.879   5.246  0.6821  5.5187 -0.3819
 4978SOL     OW26566   2.638   4.140   3.883  0.4976 -0.1427 -0.4296
 4978SOL    HW126567   2.680   4.054   3.886  2.4124  0.7530 -1.3256
 4978SOL    HW226568   2.666   4.158   3.793  1.9446  0.1668  0.0753
 4979SOL     OW26569   1.629   1.122   6.179 -0.3215 -0.1479 -0.4437
 4979SOL    HW126570   1.607   1.137   6.271  0.8398 -0.7691 -0.0623
 4979SOL    HW226571   1.587   1.038   6.162 -1.7675 -0.0248  2.6281
 4980SOL     OW26572   4.232   1.063   4.503  0.8735  0.0075 -0.3850
 4980SOL    HW126573   4.202   0.972   4.508  0.2403  0.1945 -0.7812
 4980SOL    HW226574   4.172   1.102   4.439 -0.8093 -1.7403  0.1119
 4981SOL     OW26575   1.225   0.367   8.719  0.0413 -0.3315  0.4423
 4981SOL    HW126576   1.313   0.342   8.692  0.0134  0.1481 -0.0971
 4981SOL    HW226577   1.229   0.459   8.693 -2.1297 -0.2309  0.4275
 4982SOL     OW26578   4.535   3.439   6.177 -0.1232  0.4852  0.3633
 4982SOL    HW126579   4.449   3.441   6.220 -0.9194  2.1307 -1.2992
 4982SOL    HW226580   4.598   3.462   6.245  0.8953  1.4314 -0.9126
 4983SOL     OW26581   3.635   3.913  11.165  0.4094 -0.0956 -0.7611
 4983SOL    HW126582   3.711   3.900  11.108 -0.2415 -2.5909 -1.0691
 4983SOL    HW226583   3.576   3.959  11.104  1.5104  0.8384 -1.1192
 4984SOL     OW26584   0.241   4.060  11.016  0.1999 -0.6953  0.4014
 4984SOL    HW126585   0.223   3.966  11.006 -2.5207 -0.1443  0.0374
 4984SOL    HW226586   0.159   4.102  11.042  0.3850  0.0090 -0.1335
 4985SOL     OW26587   3.275   1.078  12.410 -0.1831 -0.1562  0.8588
 4985SOL    HW126588   3.242   1.057  12.323  2.4910 -1.7702  0.2364
 4985SOL    HW226589   3.211   1.033  12.467 -0.0530 -1.3712  0.0472
 4986SOL     OW26590   1.698   2.071  11.533  0.5165 -0.5415  0.5488
 4986SOL    HW126591   1.634   2.106  11.595 -1.3552 -1.6830 -0.7143
 4986SOL    HW226592   1.693   2.125  11.455  0.5667  0.3133  1.1319
 4987SOL     OW26593   1.362   1.389  11.894 -0.0912 -0.2448  0.4028
 4987SOL    HW126594   1.287   1.340  11.929 -0.3663  0.1741  0.4036
 4987SOL    HW226595   1.416   1.318  11.859 -2.2309 -1.6140 -0.1107
 4988SOL     OW26596   2.361   4.425   2.844 -0.4006 -0.0421 -0.3636
 4988SOL    HW126597   2.450   4.404   2.816 -0.8158  0.1260 -1.8017
 4988SOL    HW226598   2.367   4.395   2.934 -2.9871  0.7089  0.0593
 4989SOL     OW26599   4.565   0.867  17.599 -0.3079  0.1497 -0.2935
 4989SOL    HW126600   4.618   0.793  17.569 -0.9231 -0.5965  0.4498
 4989SOL    HW226601   4.490   0.823  17.640  0.7320 -1.4384 -0.1102
 4990SOL     OW26602   2.044   3.940   6.619 -0.5116  0.5475 -0.6068
 4990SOL    HW126603   2.063   3.877   6.550  0.0727  1.1433 -0.9820
 4990SOL    HW226604   1.952   3.957   6.598 -0.9411 -1.0216  0.0086
 4991SOL     OW26605   1.184   4.381  17.589 -0.4706 -0.0161  0.2174
 4991SOL    HW126606   1.260   4.412  17.638  0.3969 -4.8405  1.9878
 4991SOL    HW226607   1.178   4.310  17.653 -0.3437 -0.2302 -0.0059
 4992SOL     OW26608   2.297   1.901  16.563 -0.0441 -0.3894 -0.0585
 4992SOL    HW126609   2.327   1.985  16.597  0.1676 -0.3596 -0.3230
 4992SOL    HW226610   2.348   1.843  16.619 -1.3016 -1.5993 -0.1423
 4993SOL     OW26611   0.628   1.854   9.500 -0.0464 -0.0458 -0.4198
 4993SOL    HW126612   0.630   1.944   9.532  0.0660  0.6166 -2.3109
 4993SOL    HW226613   0.535   1.841   9.515  0.1625 -0.0251  0.9186
 4994SOL     OW26614   0.282   0.032   8.062  0.0524  0.2043  0.3077
 4994SOL    HW126615   0.195   0.062   8.033  0.9029  2.4515  0.1077
 4994SOL    HW226616   0.269   0.002   8.152 -1.7477  0.9299  0.3018
 4995SOL     OW26617   0.637   4.208   2.680 -0.0828 -0.0484 -0.0442
 4995SOL    HW126618   0.552   4.198   2.723 -0.7571  1.1753 -1.0852
 4995SOL    HW226619   0.695   4.150   2.729  1.3336  2.0059  0.7353
 4996SOL     OW26620   2.359   0.818   3.791  1.1713  0.2599  0.5813
 4996SOL    HW126621   2.289   0.792   3.850 -0.4810  1.4492 -0.8737
 4996SOL    HW226622   2.306   0.820   3.711 -0.1729  0.4567  1.4834
 4997SOL     OW26623   1.476   1.126  12.107  0.3694  0.3470 -0.5247
 4997SOL    HW126624   1.433   1.095  12.027  1.5611  0.0775 -1.0622
 4997SOL    HW226625   1.534   1.184  12.059  0.6642  1.1237  0.7758
 4998SOL     OW26626   1.837   2.164  16.235  0.4665  0.4695 -0.5002
 4998SOL    HW126627   1.891   2.109  16.292  3.0784  1.7574 -1.7605
 4998SOL    HW226628   1.878   2.250  16.240  1.5632 -0.0856 -0.1146
 4999SOL     OW26629   3.775   0.807  13.105  0.2788 -0.2890  0.8701
 4999SOL    HW126630   3.784   0.869  13.178 -0.4794 -0.0553  0.7711
 4999SOL    HW226631   3.680   0.797  13.107  0.0746  1.1821 -1.4674
 5000SOL     OW26632   3.595   1.377   4.001 -0.5986 -0.5876  0.6015
 5000SOL    HW126633   3.683   1.342   4.017 -0.4232 -1.6023 -2.5963
 5000SOL    HW226634   3.630   1.465   3.991 -0.1247 -0.7366  0.9332
 5001SOL     OW26635   2.881   2.766   9.549 -0.3038  0.3480 -0.1611
 5001SOL    HW126636   2.842   2.838   9.599 -0.7012  2.0750 -2.9126
 5001SOL    HW226637   2.908   2.699   9.611 -1.2269 -1.8566 -2.1537
 5002SOL     OW26638   1.966   0.681   9.380  0.1827  0.5317  0.2675
 5002SOL    HW126639   1.882   0.692   9.335  0.4331  1.9879  0.1555
 5002SOL    HW226640   1.957   0.589   9.404  1.1101  0.6718  1.1698
 5003SOL     OW26641   1.808   3.357   9.038  0.1458  0.2150  0.5912
 5003SOL    HW126642   1.736   3.362   8.976  1.5980  0.9379 -1.0321
 5003SOL    HW226643   1.799   3.280   9.094  2.4630 -0.2233  0.3779
 5004SOL     OW26644   1.706   2.425  11.614  0.4783 -0.5303 -0.5512
 5004SOL    HW126645   1.703   2.468  11.528  1.6755  0.7270  0.0294
 5004SOL    HW226646   1.774   2.360  11.598  0.2369 -0.7893 -0.5205
 5005SOL     OW26647   0.501   4.164   7.409 -0.3315  0.2973  0.1993
 5005SOL    HW126648   0.529   4.166   7.501  2.5451 -1.2772 -0.6535
 5005SOL    HW226649   0.405   4.172   7.415 -0.3840  0.6876 -1.4165
 5006SOL     OW26650   1.023   4.137   7.460  0.3991 -0.2377 -0.2542
 5006SOL    HW126651   0.943   4.161   7.507  1.1523  0.8796  0.4734
 5006SOL    HW226652   0.983   4.106   7.379  0.1982 -1.0724  0.1653
 5007SOL     OW26653   1.012   2.321  14.809 -0.0722 -0.0813 -0.6559
 5007SOL    HW126654   0.983   2.382  14.877 -1.5048  0.0497 -1.3917
 5007SOL    HW226655   0.929   2.288  14.776 -0.7754  0.5637  0.4741
 5008SOL     OW26656   3.313   2.216   8.418 -0.0915  0.4032 -0.0157
 5008SOL    HW126657   3.402   2.238   8.390  0.2657  0.1771  0.9505
 5008SOL    HW226658   3.315   2.120   8.412 -0.8854  0.4459 -0.9047
 5009SOL     OW26659   3.325   3.206   5.742  0.0591  0.6596  0.1337
 5009SOL    HW126660   3.282   3.260   5.808  2.3659  1.6965  0.7611
 5009SOL    HW226661   3.417   3.231   5.746 -0.1511  1.4518  0.0623
 5010SOL     OW26662   1.264   2.379   3.081 -0.1982  0.0112 -0.0834
 5010SOL    HW126663   1.290   2.287   3.092  1.4842  0.4383 -0.6373
 5010SOL    HW226664   1.230   2.373   2.992  2.0053 -2.2672 -0.7725
 5011SOL     OW26665   0.224   4.219  10.238  0.2055 -0.3796  0.1137
 5011SOL    HW126666   0.129   4.225  10.243  0.3087  1.8214 -0.5757
 5011SOL    HW226667   0.235   4.131  10.274 -2.0494 -1.7534 -2.5908
 5012SOL     OW26668   4.515   2.697   1.885 -0.0316 -0.0199 -0.0438
 5012SOL    HW126669   4.559   2.724   1.805 -0.8801 -0.2307 -0.5802
 5012SOL    HW226670   4.461   2.626   1.850  0.8169  0.5963 -2.5896
 5013SOL     OW26671   1.796   3.668   7.005 -0.2794  0.0450 -0.1694
 5013SOL    HW126672   1.740   3.737   7.039 -0.1463 -1.0113  2.2186
 5013SOL    HW226673   1.769   3.654   6.914 -1.1406  1.5476 -0.1338
 5014SOL     OW26674   0.230   0.652   8.851  0.2652  0.1766  0.5229
 5014SOL    HW126675   0.317   0.688   8.833 -0.2779  0.8265 -0.7928
 5014SOL    HW226676   0.225   0.580   8.787  1.4265 -1.6768  2.5365
 5015SOL     OW26677   0.682   3.502  11.527  0.4240 -0.3766 -0.3407
 5015SOL    HW126678   0.682   3.419  11.574  0.0028  0.7578  1.6991
 5015SOL    HW226679   0.760   3.483  11.475  0.1577 -2.8006  0.1516
 5016SOL     OW26680   1.652   3.523   2.124 -0.3874 -0.1980 -0.3117
 5016SOL    HW126681   1.694   3.484   2.200  0.3955  0.5529 -0.3609
 5016SOL    HW226682   1.592   3.591   2.156 -2.4525 -2.1034 -0.1588
 5017SOL     OW26683   0.678   2.935   9.902  0.2780 -0.2267 -0.3889
 5017SOL    HW126684   0.760   2.940   9.851  2.2876 -1.6989  2.7068
 5017SOL    HW226685   0.614   2.918   9.833 -0.0345  0.6752 -0.3248
 5018SOL     OW26686   0.277   1.067   5.369  0.3244  0.4070 -0.2466
 5018SOL    HW126687   0.331   1.046   5.293  2.5956  0.9725  1.1976
 5018SOL    HW226688   0.227   0.986   5.374 -0.5453  0.9153 -0.7638
 5019SOL     OW26689   0.839   4.063   7.736 -0.2940  0.3104  0.2959
 5019SOL    HW126690   0.844   3.976   7.695 -0.1700  1.0249 -1.1989
 5019SOL    HW226691   0.796   4.043   7.819  1.2629 -1.8447  0.5924
 5020SOL     OW26692   2.829   1.919   3.499  0.5289 -0.3182  0.1602
 5020SOL    HW126693   2.834   1.962   3.585  0.7502  0.9970 -0.5204
 5020SOL    HW226694   2.734   1.921   3.488  0.6305  1.3767 -0.3648
 5021SOL     OW26695   4.363   4.552   3.475 -0.0700 -0.6620 -0.5696
 5021SOL    HW126696   4.279   4.516   3.501  0.3672  0.1869  2.0539
 5021SOL    HW226697   4.353   4.573   3.382 -0.1140 -0.2607 -0.4734
 5022SOL     OW26698   4.255   4.206   5.572  0.5481 -0.5479 -0.0455
 5022SOL    HW126699   4.341   4.218   5.530 -1.1600 -0.1381 -3.4274
 5022SOL    HW226700   4.258   4.113   5.548  2.2160 -0.5913  0.3217
 5023SOL     OW26701   0.128   2.714   3.131 -0.1127  0.2569 -0.7466
 5023SOL    HW126702   0.212   2.736   3.171 -1.8201  1.4602  2.1833
 5023SOL    HW226703   0.071   2.727   3.208 -1.1574  0.4739 -1.5547
 5024SOL     OW26704   3.120   0.688   8.643 -0.4154 -0.1303 -0.3148
 5024SOL    HW126705   3.201   0.647   8.615 -0.3298 -2.5642  3.5479
 5024SOL    HW226706   3.147   0.722   8.728  0.1974 -0.4159 -0.3966
 5025SOL     OW26707   0.470   0.737   8.815  0.1542  0.5524  0.7031
 5025SOL    HW126708   0.529   0.684   8.869  0.3531 -1.3406 -1.3429
 5025SOL    HW226709   0.507   0.825   8.818  2.1642 -0.3579  2.2820
 5026SOL     OW26710   1.722   3.027   2.983 -0.0417  0.1893  0.3149
 5026SOL    HW126711   1.690   3.035   3.073 -0.4993 -0.3232  0.1941
 5026SOL    HW226712   1.646   3.049   2.929 -0.2608  0.5782  0.7751
 5027SOL     OW26713   2.624   2.142   5.679  0.2635 -0.3536 -0.0249
 5027SOL    HW126714   2.636   2.047   5.673 -0.5288 -0.4120 -0.6822
 5027SOL    HW226715   2.650   2.164   5.590  0.0305 -2.0635 -0.5214
 5028SOL     OW26716   0.091   1.212   9.775 -0.0901  0.5727  0.2635
 5028SOL    HW126717   0.129   1.254   9.853 -3.2717  1.6407  1.2388
 5028SOL    HW226718   0.147   1.253   9.709  0.0908  0.1124  0.1261
 5029SOL     OW26719   4.101   4.570   8.468  0.1696 -0.0188 -0.1239
 5029SOL    HW126720   4.064   4.493   8.512  1.7365 -0.3925  0.5345
 5029SOL    HW226721   4.187   4.539   8.440 -1.0102 -1.2972 -2.3251
 5030SOL     OW26722   2.123   2.023   8.287 -0.4530 -0.1195 -0.5498
 5030SOL    HW126723   2.112   2.035   8.193 -0.8412 -3.3051 -0.9214
 5030SOL    HW226724   2.052   1.960   8.301 -0.6663  0.1105 -0.6084
 5031SOL     OW26725   2.326   4.539   2.191 -0.4043 -0.2002 -0.2781
 5031SOL    HW126726   2.315   4.632   2.208  0.5677  0.0450 -1.0027
 5031SOL    HW226727   2.416   4.548   2.220 -0.5173  0.8786 -0.2492
 5032SOL     OW26728   1.609   3.451   9.443  0.1353  0.0104  0.0857
 5032SOL    HW126729   1.696   3.425   9.411  0.3915  1.7371 -0.6288
 5032SOL    HW226730   1.565   3.467   9.360 -1.8888  0.4179  1.2267
 5033SOL     OW26731   4.484   1.920   9.188 -0.0342  0.1149 -0.1270
 5033SOL    HW126732   4.527   1.899   9.105  2.8453 -0.8753  1.6174
 5033SOL    HW226733   4.442   1.834   9.194  2.0012 -0.8328  0.5662
 5034SOL     OW26734   2.937   0.016   8.513 -0.3308 -0.1295 -0.1335
 5034SOL    HW126735   2.998   0.088   8.525 -1.1312  0.2606  1.6207
 5034SOL    HW226736   2.855   0.050   8.549  0.3617  0.1842  1.1221
 5035SOL     OW26737   4.136   4.265   4.262 -0.5875 -0.4399 -0.8776
 5035SOL    HW126738   4.192   4.213   4.319  2.9759  0.3501 -3.6809
 5035SOL    HW226739   4.204   4.325   4.230 -1.1367  1.8213  2.1684
 5036SOL     OW26740   2.102   1.015   3.072  0.1321  0.1371 -0.3847
 5036SOL    HW126741   2.028   1.076   3.077 -0.6771 -0.9865  1.3314
 5036SOL    HW226742   2.155   1.055   3.141 -0.7940  1.4141 -0.4097
 5037SOL     OW26743   2.096   3.416   5.630  0.1929  0.2928 -0.3753
 5037SOL    HW126744   2.014   3.396   5.676  0.4775  1.1207  0.5051
 5037SOL    HW226745   2.114   3.325   5.606 -0.6370 -0.2895  1.2056
 5038SOL     OW26746   1.257   3.474   1.725  0.4081 -0.1259  0.1276
 5038SOL    HW126747   1.343   3.461   1.765  1.1897  2.1697 -0.7919
 5038SOL    HW226748   1.223   3.545   1.779 -2.3375 -1.0371 -0.4312
 5039SOL     OW26749   4.477   4.161   7.509 -0.4893  0.8618  0.1908
 5039SOL    HW126750   4.468   4.108   7.588  2.0800 -0.7180 -0.5599
 5039SOL    HW226751   4.447   4.111   7.433  1.7639 -0.1986 -0.0218
 5040SOL     OW26752   4.694   2.284   4.514 -0.1670 -0.2574 -0.1282
 5040SOL    HW126753   4.650   2.356   4.468 -0.9931 -0.5351  0.2249
 5040SOL    HW226754   4.741   2.336   4.579 -0.5614 -2.0226  1.5418
 5041SOL     OW26755   0.059   1.435   6.167  0.0692 -0.0006 -0.0860
 5041SOL    HW126756   0.112   1.477   6.100  0.2408 -1.1228 -0.6548
 5041SOL    HW226757   0.071   1.341   6.154 -3.6319 -0.0907 -2.8374
 5042SOL     OW26758   1.362   3.863   8.598  0.4700 -0.5932 -0.3006
 5042SOL    HW126759   1.392   3.837   8.685 -2.5714  0.2496  1.0015
 5042SOL    HW226760   1.271   3.884   8.617  1.5259  1.9849  1.7610
 5043SOL     OW26761   4.268   3.518  12.753  0.3050 -0.2335 -0.0724
 5043SOL    HW126762   4.249   3.460  12.827 -1.7519  0.4947 -0.0137
 5043SOL    HW226763   4.296   3.458  12.684 -0.8705  0.6815 -1.3438
 5044SOL     OW26764   3.501   4.318   3.106 -0.5635 -0.1847  0.4036
 5044SOL    HW126765   3.488   4.291   3.015  2.2687  1.9745 -0.6513
 5044SOL    HW226766   3.544   4.402   3.088  2.9837 -1.9186  0.7159
 5045SOL     OW26767   3.308   0.820   9.529 -0.6789  0.1650  0.0564
 5045SOL    HW126768   3.342   0.842   9.443 -0.7648  1.0139  0.2372
 5045SOL    HW226769   3.373   0.756   9.557 -1.3818 -0.2652  0.7160
 5046SOL     OW26770   2.101   1.928  10.080  0.5124  0.4564  0.1956
 5046SOL    HW126771   2.049   1.909  10.158  1.0354  2.2467  0.9821
 5046SOL    HW226772   2.163   1.990  10.118  2.2389  1.1208 -3.7220
 5047SOL     OW26773   0.897   3.888   6.631  0.1675 -0.3004 -0.1769
 5047SOL    HW126774   0.885   3.981   6.652 -2.3985 -0.3724 -1.3214
 5047SOL    HW226775   0.946   3.864   6.710  0.1986  1.2882  0.2947
 5048SOL     OW26776   2.256   3.428   1.791  0.0633 -0.0243  0.2502
 5048SOL    HW126777   2.164   3.452   1.802 -0.9710 -3.6948 -0.4255
 5048SOL    HW226778   2.278   3.401   1.880  0.9668 -0.6999 -0.1836
 5049SOL     OW26779   3.547   3.936  16.627 -0.0857  0.0252 -0.0289
 5049SOL    HW126780   3.630   3.915  16.668 -0.2226  2.7669  1.6586
 5049SOL    HW226781   3.508   4.006  16.680 -0.4843  0.9248 -1.5032
 5050SOL     OW26782   4.300   4.307   6.990  0.9840  0.1696 -0.0023
 5050SOL    HW126783   4.296   4.393   6.949  0.4187  0.7443  1.2818
 5050SOL    HW226784   4.211   4.297   7.023  0.3460 -1.9023 -2.3195
 5051SOL     OW26785   3.845   1.269   4.122 -0.4484  0.1402  0.1674
 5051SOL    HW126786   3.883   1.184   4.143  1.2357  0.9795  0.4948
 5051SOL    HW226787   3.792   1.295   4.198  1.5956  0.6451  1.4159
 5052SOL     OW26788   3.840   0.241  15.745 -0.1212  0.0258 -0.1028
 5052SOL    HW126789   3.921   0.206  15.782  0.7694  2.1100 -0.0589
 5052SOL    HW226790   3.856   0.336  15.752  0.8234 -0.1824  0.5904
 5053SOL     OW26791   2.164   0.291   9.481  0.1946 -0.0584 -0.2875
 5053SOL    HW126792   2.129   0.229   9.417  0.4146  0.0469 -0.5093
 5053SOL    HW226793   2.222   0.343   9.425 -0.9755  0.1038 -1.3716
 5054SOL     OW26794   0.966   3.167   7.571  0.1032 -0.0968  0.3633
 5054SOL    HW126795   0.882   3.193   7.533  0.9074 -0.8882 -1.9660
 5054SOL    HW226796   1.033   3.224   7.535 -0.4372  1.4849  1.8398
 5055SOL     OW26797   1.598   3.669   0.604 -0.0743  0.3741  0.4101
 5055SOL    HW126798   1.564   3.608   0.538 -1.6883 -0.3691  1.9306
 5055SOL    HW226799   1.610   3.750   0.555 -1.8793  0.8462  0.7619
 5056SOL     OW26800   1.645   4.238   5.537 -0.4885  0.1309 -0.1036
 5056SOL    HW126801   1.602   4.262   5.618 -0.0751  0.4947  0.0098
 5056SOL    HW226802   1.577   4.262   5.474  1.1063  3.3812 -0.5829
 5057SOL     OW26803   4.058   4.429   9.319 -0.3174  0.0477 -0.2437
 5057SOL    HW126804   4.108   4.438   9.237  1.2291 -0.3650  0.6480
 5057SOL    HW226805   4.132   4.393   9.369  1.4612  1.7319 -1.6349
 5058SOL     OW26806   3.046   1.819   3.318 -0.2084  0.4694 -0.2300
 5058SOL    HW126807   2.994   1.777   3.250 -1.8826  1.1621  0.6235
 5058SOL    HW226808   2.971   1.863   3.359 -1.4581 -0.1443 -1.8415
 5059SOL     OW26809   0.617   4.701  11.477  0.5805  0.2704  0.0457
 5059SOL    HW126810   0.535   4.676  11.436  0.0727  0.3499  1.0116
 5059SOL    HW226811   0.578   0.005  11.552 -3.7256 -2.5048 -0.5263
 5060SOL     OW26812   4.140   3.381  14.517 -0.5108 -0.0204 -0.5395
 5060SOL    HW126813   4.074   3.316  14.495  1.7027 -1.5422 -2.6673
 5060SOL    HW226814   4.192   3.369  14.437  0.5784 -0.0106  0.1597
 5061SOL     OW26815   1.697   3.877  10.070  0.4805 -0.3907 -0.1078
 5061SOL    HW126816   1.722   3.836  10.153  2.8387  0.4481 -0.4044
 5061SOL    HW226817   1.730   3.963  10.095  1.6105  0.3657 -4.2569
 5062SOL     OW26818   1.273   2.578   2.480 -0.4078 -0.3780  0.3814
 5062SOL    HW126819   1.305   2.514   2.543 -0.5819  2.0295  2.9306
 5062SOL    HW226820   1.340   2.573   2.412 -2.0465  0.2335 -1.2646
 5063SOL     OW26821   1.458   3.123  14.345  0.1611  0.3203 -0.4026
 5063SOL    HW126822   1.525   3.132  14.413  0.0910  1.3287 -0.4769
 5063SOL    HW226823   1.504   3.166  14.273  0.4453  2.0543  0.8295
 5064SOL     OW26824   4.138   0.238   4.779 -0.1969 -0.4698 -0.0400
 5064SOL    HW126825   4.167   0.236   4.688  1.8684 -0.9850  0.6245
 5064SOL    HW226826   4.081   0.161   4.784  1.1941 -1.4622  0.6590
 5065SOL     OW26827   4.321   4.201   1.026  0.1938 -0.0642  0.3707
 5065SOL    HW126828   4.253   4.155   0.976  1.5120 -0.3442 -1.1509
 5065SOL    HW226829   4.271   4.281   1.047 -1.7483 -0.9913 -0.7258
 5066SOL     OW26830   1.883   0.587   6.771 -0.4444 -0.0321  0.2141
 5066SOL    HW126831   1.899   0.532   6.694 -0.5044  0.3502 -0.0715
 5066SOL    HW226832   1.958   0.645   6.762  2.2112 -3.3591  1.0543
 5067SOL     OW26833   4.541   1.506   8.213  0.1897 -0.1525 -0.3043
 5067SOL    HW126834   4.600   1.459   8.273 -0.0488 -3.2388 -2.4440
 5067SOL    HW226835   4.572   1.596   8.216  1.6079 -0.6350 -0.0878
 5068SOL     OW26836   2.565   2.377   6.399 -0.4496  0.3419  0.6905
 5068SOL    HW126837   2.500   2.345   6.335 -0.6243 -1.7074  1.8934
 5068SOL    HW226838   2.535   2.456   6.442  1.1642  0.8806  0.8148
 5069SOL     OW26839   1.189   2.225   8.019 -0.0431  0.7030 -0.2124
 5069SOL    HW126840   1.159   2.231   8.109  0.1756  0.3795 -0.1177
 5069SOL    HW226841   1.115   2.259   7.970  0.6612  2.1011 -0.3194
 5070SOL     OW26842   4.519   3.751   1.770  0.0476  0.5721  0.7069
 5070SOL    HW126843   4.536   3.676   1.713  0.0676 -0.1938  1.7091
 5070SOL    HW226844   4.609   3.782   1.775  1.0871 -2.2371 -0.2325
 5071SOL     OW26845   0.329   0.908   6.056  0.4960 -0.2888 -0.3132
 5071SOL    HW126846   0.320   0.837   5.992  0.4929  0.4432 -1.1232
 5071SOL    HW226847   0.375   0.970   6.000  0.2528  0.9992  0.8999
 5072SOL     OW26848   3.558   1.085  12.192  0.1933 -0.3779 -0.5468
 5072SOL    HW126849   3.626   1.122  12.248 -0.6212  0.5841 -0.1799
 5072SOL    HW226850   3.486   1.069  12.252 -1.0438  0.8796 -1.6821
 5073SOL     OW26851   3.027   4.724  11.580  0.3080  0.4631 -0.0472
 5073SOL    HW126852   3.080   4.693  11.653  1.4685  0.3331 -0.9347
 5073SOL    HW226853   2.969   0.048  11.618  0.6872  0.4152  0.6072
 5074SOL     OW26854   1.961   3.165   8.476  0.1084  0.1138 -0.2068
 5074SOL    HW126855   1.976   3.091   8.534  1.3530  0.7941  0.3358
 5074SOL    HW226856   1.876   3.149   8.435 -0.4633 -0.3245  1.1573
 5075SOL     OW26857   0.331   2.611   4.004  0.0074  0.3104  0.1472
 5075SOL    HW126858   0.288   2.627   4.088 -0.9403  0.8824 -0.4446
 5075SOL    HW226859   0.423   2.611   4.029 -0.1265 -0.2916  0.6489
 5076SOL     OW26860   2.736   4.593  14.919  0.0842  0.4291  0.3363
 5076SOL    HW126861   2.643   4.600  14.938  0.2761 -0.1428  1.4993
 5076SOL    HW226862   2.753   4.508  14.960 -1.5857 -0.4991 -0.8925
 5077SOL     OW26863   4.535   1.321   3.528 -0.2971  0.2592 -0.6046
 5077SOL    HW126864   4.575   1.236   3.546 -1.8915 -0.6117 -1.1709
 5077SOL    HW226865   4.514   1.345   3.618 -0.4838 -0.0146 -0.5740
 5078SOL     OW26866   0.619   1.023   8.780 -0.4144 -0.4464  0.4546
 5078SOL    HW126867   0.591   1.074   8.857 -1.4998  2.8931 -2.1780
 5078SOL    HW226868   0.586   1.065   8.701 -2.0976 -1.3445  0.6778
 5079SOL     OW26869   4.018   3.615  11.165  0.6213 -0.0990 -0.0753
 5079SOL    HW126870   4.091   3.586  11.220  0.1750 -0.3375  0.3900
 5079SOL    HW226871   3.981   3.538  11.123 -0.3145  0.6452 -0.6248
 5080SOL     OW26872   0.868   0.567   8.814 -0.5879  0.3041  0.1493
 5080SOL    HW126873   0.932   0.616   8.866  0.5816 -0.9373 -0.1181
 5080SOL    HW226874   0.899   0.477   8.821  3.0877  1.3181 -3.4335
 5081SOL     OW26875   4.567   1.295   2.747 -0.0665 -0.1234  0.2524
 5081SOL    HW126876   4.578   1.327   2.836 -2.8560 -0.7994  0.8441
 5081SOL    HW226877   4.650   1.315   2.704 -0.8446 -1.9420 -2.1057
 5082SOL     OW26878   3.662   2.031   3.009 -0.1215 -0.2309 -0.1613
 5082SOL    HW126879   3.611   1.957   3.039 -2.9935  2.2588  1.1046
 5082SOL    HW226880   3.598   2.100   3.027 -0.1963 -0.3306 -0.0492
 5083SOL     OW26881   1.433   0.663   5.174  0.0774 -0.0141  0.3143
 5083SOL    HW126882   1.483   0.610   5.112  0.4891  0.8376 -0.0777
 5083SOL    HW226883   1.503   0.694   5.231  0.6588 -2.2496  0.8148
 5084SOL     OW26884   1.214   0.603   8.410  0.5637 -0.3396 -0.1673
 5084SOL    HW126885   1.276   0.545   8.366 -0.8022 -1.4776 -0.6159
 5084SOL    HW226886   1.150   0.609   8.339 -1.6793  1.2917  1.9473
 5085SOL     OW26887   2.161   4.060   8.398 -0.3814  0.6722  0.4533
 5085SOL    HW126888   2.200   3.979   8.364 -1.2617 -0.1269  1.3626
 5085SOL    HW226889   2.088   4.029   8.451 -1.8631 -0.0188 -1.9558
 5086SOL     OW26890   0.918   0.687   5.512 -0.0525 -0.5207 -0.3562
 5086SOL    HW126891   0.936   0.619   5.578 -0.2911  1.0607  1.3448
 5086SOL    HW226892   0.989   0.747   5.531 -1.8552  1.2354  0.8800
 5087SOL     OW26893   3.406   4.175   8.438 -0.2740 -0.1501  0.1516
 5087SOL    HW126894   3.395   4.233   8.513 -0.4043  0.0459 -0.0212
 5087SOL    HW226895   3.319   4.137   8.424 -0.0726 -1.3588  2.0628
 5088SOL     OW26896   2.350   3.783   0.122  0.0036 -0.1094  0.0064
 5088SOL    HW126897   2.343   3.739   0.037 -1.2103  0.8994 -0.4106
 5088SOL    HW226898   2.413   3.854   0.111  0.0276 -0.4944 -2.3743
 5089SOL     OW26899   4.330   3.144   8.845 -0.6153  0.0698 -0.3481
 5089SOL    HW126900   4.339   3.060   8.889  1.0454  0.2528 -0.3257
 5089SOL    HW226901   4.402   3.195   8.883 -0.7854  0.3201 -0.3672
 5090SOL     OW26902   0.597   2.975   8.307 -0.1858  0.6668 -0.6840
 5090SOL    HW126903   0.640   2.905   8.356 -1.5862 -0.1451 -0.6149
 5090SOL    HW226904   0.653   2.970   8.229  1.5419 -1.4326  0.6846
 5091SOL     OW26905   0.999   0.092   4.242  0.2860  0.0381 -0.4891
 5091SOL    HW126906   1.019   0.072   4.150  0.6992 -0.3357 -0.3191
 5091SOL    HW226907   0.974   0.184   4.237  2.2742  0.4659 -2.6017
 5092SOL     OW26908   4.273   4.513   4.163  0.0060  0.8206 -0.2566
 5092SOL    HW126909   4.225   4.595   4.153  0.9922  1.0136 -3.5215
 5092SOL    HW226910   4.308   4.505   4.074  0.5578  3.2681 -0.2684
 5093SOL     OW26911   2.449   1.412  12.515 -0.1274 -0.2154 -0.7488
 5093SOL    HW126912   2.474   1.321  12.496  0.1521 -0.5611  1.2651
 5093SOL    HW226913   2.536   1.451  12.519 -0.6013  0.7556  0.0360
 5094SOL     OW26914   2.207   2.003   9.377 -0.0263 -0.4266 -0.3731
 5094SOL    HW126915   2.165   1.918   9.389 -0.2531  0.0216  1.8256
 5094SOL    HW226916   2.281   1.982   9.319  0.4072 -0.1058  0.0639
 5095SOL     OW26917   4.120   4.070   3.749  0.4666 -0.4913  1.2859
 5095SOL    HW126918   4.070   4.001   3.705 -2.3480  0.4275  3.0311
 5095SOL    HW226919   4.046   4.118   3.785  0.8536 -0.2564  1.7711
 5096SOL     OW26920   2.986   0.952   4.433  0.0505 -1.0652 -0.0952
 5096SOL    HW126921   2.984   0.983   4.342  0.7855 -2.0956 -0.4602
 5096SOL    HW226922   3.080   0.964   4.447 -0.5095  1.1861  1.6752
 5097SOL     OW26923   4.126   3.504   5.740  0.3144 -0.6043 -0.0480
 5097SOL    HW126924   4.166   3.487   5.826 -1.7547  1.8204  1.4113
 5097SOL    HW226925   4.176   3.442   5.686  0.7544 -0.9596  0.7621
 5098SOL     OW26926   1.077   0.685   9.712  0.3487  0.0593 -0.8231
 5098SOL    HW126927   1.140   0.756   9.718  0.4343 -0.0098 -0.8984
 5098SOL    HW226928   1.128   0.612   9.747 -0.5842 -0.9703 -1.5864
 5099SOL     OW26929   2.403   2.053  15.630 -0.1444  0.0150 -0.1483
 5099SOL    HW126930   2.494   2.029  15.643  0.1034  1.0139  0.0043
 5099SOL    HW226931   2.393   2.031  15.538 -0.8835 -1.3180  0.2425
 5100SOL     OW26932   1.887   0.181   2.194 -0.0511  0.0800  0.0193
 5100SOL    HW126933   1.879   0.265   2.239 -2.3925 -0.3654  0.4254
 5100SOL    HW226934   1.977   0.154   2.209 -0.8790 -1.7236  1.7576
 5101SOL     OW26935   3.150   1.973   1.565  0.0701 -0.1644 -0.2804
 5101SOL    HW126936   3.180   1.894   1.520 -0.2930 -0.5639  0.1763
 5101SOL    HW226937   3.225   2.030   1.550  0.8610 -1.0688  0.2039
 5102SOL     OW26938   1.729   0.872  10.686  0.5389  0.4761 -0.4516
 5102SOL    HW126939   1.654   0.927  10.665 -1.0033 -1.3950  0.0865
 5102SOL    HW226940   1.735   0.806  10.616  2.5453 -0.0573  0.2243
 5103SOL     OW26941   1.248   2.966   7.024 -0.3341  0.0977 -0.6552
 5103SOL    HW126942   1.256   2.958   7.119 -0.0246  0.4497 -0.6533
 5103SOL    HW226943   1.320   3.026   7.005  0.1089  0.8089  3.3727
 5104SOL     OW26944   2.810   2.002  13.326 -0.1448 -0.1440  0.0767
 5104SOL    HW126945   2.782   1.931  13.384  2.2464 -0.8430  0.3881
 5104SOL    HW226946   2.730   2.041  13.290  0.0660 -0.9009 -1.2053
 5105SOL     OW26947   2.983   2.690   1.531  0.0210 -0.3443  0.1021
 5105SOL    HW126948   3.077   2.676   1.541 -0.1789 -1.2140  0.7412
 5105SOL    HW226949   2.954   2.616   1.584  0.1278  0.5622  1.4207
 5106SOL     OW26950   2.534   4.718   4.213 -0.4770  0.0111 -0.1209
 5106SOL    HW126951   2.591   0.000   4.140 -0.4587  0.5869  0.0793
 5106SOL    HW226952   2.450   0.007   4.179 -0.2191  1.0421  0.1460
 5107SOL     OW26953   1.405   2.368   7.505  0.5649  0.4138  0.2160
 5107SOL    HW126954   1.501   2.374   7.506  0.4738  2.1379 -0.1796
 5107SOL    HW226955   1.388   2.311   7.580  3.0955 -0.6840 -0.0360
 5108SOL     OW26956   0.615   2.926  13.164  0.2596  0.5074 -0.1710
 5108SOL    HW126957   0.524   2.914  13.137 -0.2398  0.5035  1.5538
 5108SOL    HW226958   0.642   2.848  13.212 -0.7655  0.8422  0.9318
 5109SOL     OW26959   2.533   3.216   5.015  0.2705 -0.3505  0.4057
 5109SOL    HW126960   2.608   3.161   5.038  0.8817 -0.4340 -1.7740
 5109SOL    HW226961   2.557   3.304   5.043 -1.2071 -0.6015  2.4917
 5110SOL     OW26962   4.623   1.750   2.130 -0.3494  0.3146 -0.1053
 5110SOL    HW126963   4.605   1.682   2.194  2.9373  2.1177  2.7405
 5110SOL    HW226964   4.701   1.714   2.087  1.0574  2.3569  0.7059
 5111SOL     OW26965   1.259   1.447   4.764 -0.2295 -0.5491  1.0694
 5111SOL    HW126966   1.259   1.479   4.674  4.4809 -1.2649  0.7819
 5111SOL    HW226967   1.213   1.364   4.754  0.2264 -0.8388  1.3442
 5112SOL     OW26968   3.381   0.962   3.742 -0.6804  0.1037  0.2199
 5112SOL    HW126969   3.390   1.057   3.738 -1.0562  0.1235 -0.0683
 5112SOL    HW226970   3.329   0.942   3.665 -0.1191  0.8895 -0.3656
 5113SOL     OW26971   1.704   0.480   3.338  0.5006 -0.1211 -0.0467
 5113SOL    HW126972   1.615   0.517   3.340  0.0168 -1.2368 -0.7746
 5113SOL    HW226973   1.690   0.429   3.418  1.8199  1.7358  1.3420
 5114SOL     OW26974   2.405   1.357   1.842  0.3074  0.0514  0.8829
 5114SOL    HW126975   2.365   1.295   1.903  0.7996 -0.5549  0.5904
 5114SOL    HW226976   2.382   1.437   1.890  0.6748  0.0439  1.0739
 5115SOL     OW26977   1.918   4.054   1.749  1.1292 -0.3480  0.3832
 5115SOL    HW126978   1.891   3.971   1.708 -0.9308 -0.3813  1.8202
 5115SOL    HW226979   2.011   4.051   1.728  0.7229 -0.3096 -1.4836
 5116SOL     OW26980   2.311   0.157   8.114  0.2400  0.8213 -0.2365
 5116SOL    HW126981   2.245   0.155   8.183  1.7781  0.2806  1.2111
 5116SOL    HW226982   2.349   0.070   8.124 -0.4488  0.5612  0.1510
 5117SOL     OW26983   0.358   3.072  15.796  0.3954  0.1816 -0.5898
 5117SOL    HW126984   0.363   3.104  15.706  0.3076 -0.8147 -0.9504
 5117SOL    HW226985   0.395   3.143  15.847 -0.7592  0.5083 -0.1916
 5118SOL     OW26986   2.424   3.359   2.348  0.7358 -0.0738  0.4407
 5118SOL    HW126987   2.501   3.391   2.396  1.0924 -1.6196  0.8943
 5118SOL    HW226988   2.455   3.276   2.310 -0.7502  0.8500 -2.7447
 5119SOL     OW26989   3.213   0.627   3.904  0.3288  0.0255 -0.6859
 5119SOL    HW126990   3.245   0.715   3.926 -0.1116 -0.0089  0.0779
 5119SOL    HW226991   3.134   0.634   3.957  2.4804  0.8078  2.4685
 5120SOL     OW26992   1.465   3.506   3.240 -0.5047  0.2903  0.2992
 5120SOL    HW126993   1.478   3.545   3.154  0.9673  0.7970  0.7508
 5120SOL    HW226994   1.527   3.561   3.288  1.0677  0.0026 -1.3983
 5121SOL     OW26995   4.384   3.637   7.905  0.3775 -0.4703  0.8084
 5121SOL    HW126996   4.347   3.703   7.846  0.6791  1.2304  2.5129
 5121SOL    HW226997   4.305   3.620   7.956  0.1869 -0.1290  0.6268
 5122SOL     OW26998   0.414   3.047  12.520  0.7521  0.0499 -0.4135
 5122SOL    HW126999   0.433   2.953  12.519  1.2872  0.1581 -0.7593
 5122SOL    HW227000   0.424   3.076  12.429 -2.8759  2.1663 -0.1022
 5123SOL     OW27001   1.438   4.552   2.099 -0.1688 -0.4288  0.4729
 5123SOL    HW127002   1.451   4.630   2.045 -0.9596 -0.3239  0.4351
 5123SOL    HW227003   1.362   4.578   2.152 -2.3739 -0.6841 -2.5551
 5124SOL     OW27004   4.448   0.097  16.291 -0.0984  0.1288  0.1630
 5124SOL    HW127005   4.453   0.178  16.240 -0.6424  1.2706  1.9111
 5124SOL    HW227006   4.399   0.049  16.224 -0.8400  1.3493 -0.1670
 5125SOL     OW27007   2.357   4.044   1.848  0.1636 -0.2672  0.3019
 5125SOL    HW127008   2.435   3.991   1.860  0.4692  0.5813  1.9932
 5125SOL    HW227009   2.356   4.047   1.752  0.0536  0.1285  0.3163
 5126SOL     OW27010   0.018   3.376   4.991  0.2328  0.4893  0.0061
 5126SOL    HW127011   4.685   3.332   5.032  1.4939  0.1103  1.8990
 5126SOL    HW227012   0.001   3.349   4.901  1.6381 -0.6035  0.0558
 5127SOL     OW27013   1.057   0.209   5.503 -0.2111  0.4579  0.5633
 5127SOL    HW127014   0.992   0.181   5.568 -1.1699 -0.2930 -0.7204
 5127SOL    HW227015   1.123   0.139   5.511 -1.4187 -0.8640 -1.1317
 5128SOL     OW27016   1.955   4.021   5.262  0.2376  0.3817  0.2505
 5128SOL    HW127017   1.911   4.017   5.177  1.3773  1.6777 -0.3804
 5128SOL    HW227018   2.033   3.969   5.241  1.3676  1.2814  2.3109
 5129SOL     OW27019   0.285   2.642   9.706  0.0836 -0.1221 -0.6186
 5129SOL    HW127020   0.285   2.637   9.801  0.3254 -2.5465 -0.7544
 5129SOL    HW227021   0.196   2.676   9.695  0.8669  2.1603  0.0434
 5130SOL     OW27022   4.207   2.412   8.130  0.0213  0.4312 -0.6119
 5130SOL    HW127023   4.125   2.412   8.180 -0.0126  1.1330 -0.6607
 5130SOL    HW227024   4.258   2.348   8.180  2.0889  0.8283 -2.2284
 5131SOL     OW27025   4.557   1.583   2.316 -0.6785  0.2688  0.0344
 5131SOL    HW127026   4.564   1.489   2.336  0.0829  0.5622  1.1315
 5131SOL    HW227027   4.469   1.600   2.351 -2.0105 -3.1829 -1.5823
 5132SOL     OW27028   3.898   4.316   5.506  0.4997  0.1824 -0.0028
 5132SOL    HW127029   3.857   4.238   5.544 -1.8345  0.9102 -1.0323
 5132SOL    HW227030   3.921   4.276   5.422 -0.8473 -1.0244  0.2004
 5133SOL     OW27031   4.510   2.925   4.119 -0.2347 -1.0256 -0.0197
 5133SOL    HW127032   4.452   2.948   4.046 -1.2034  1.9620  1.6887
 5133SOL    HW227033   4.593   2.901   4.078 -0.8440 -0.7385 -1.4422
 5134SOL     OW27034   3.434   2.666   5.800  0.0672  0.5292 -0.3212
 5134SOL    HW127035   3.433   2.755   5.835  0.0551 -0.8151  3.1197
 5134SOL    HW227036   3.447   2.614   5.879  0.3157 -2.4330 -2.3048
 5135SOL     OW27037   0.635   4.672   5.827  0.0878 -0.0902  0.0566
 5135SOL    HW127038   0.701   4.611   5.793  0.7617  1.1822 -0.9006
 5135SOL    HW227039   0.583   4.698   5.751 -0.4032 -1.6792 -0.1628
 5136SOL     OW27040   2.449   1.337   4.459  0.0735  0.2171 -0.4105
 5136SOL    HW127041   2.472   1.377   4.375  1.1355  0.4580 -0.0076
 5136SOL    HW227042   2.384   1.268   4.442  1.0656 -0.3821 -1.7366
 5137SOL     OW27043   1.117   1.730   4.251 -0.0733 -0.0020 -0.4187
 5137SOL    HW127044   1.059   1.743   4.326 -0.3330 -0.3828 -0.5572
 5137SOL    HW227045   1.096   1.807   4.197  0.0769  0.1379 -0.2806
 5138SOL     OW27046   1.995   0.312   9.842 -0.1961  0.1838  0.0998
 5138SOL    HW127047   1.912   0.300   9.888  1.1019 -4.0163  1.3977
 5138SOL    HW227048   2.061   0.290   9.908  0.8543 -1.5370 -1.5224
 5139SOL     OW27049   1.518   0.470  16.663 -0.0390 -0.2275  0.1827
 5139SOL    HW127050   1.482   0.472  16.752  0.3104  1.5536  0.2826
 5139SOL    HW227051   1.504   0.558  16.627  1.5900 -0.4514 -0.9636
 5140SOL     OW27052   3.129   2.191   6.316  0.4730  0.0964 -0.8193
 5140SOL    HW127053   3.065   2.186   6.245  0.6458 -0.1943 -0.9554
 5140SOL    HW227054   3.192   2.122   6.294  1.5038  0.7844 -0.0087
 5141SOL     OW27055   0.239   0.845   5.603 -0.3281  0.0378 -0.2557
 5141SOL    HW127056   0.234   0.920   5.664  2.5539 -1.1424  1.4331
 5141SOL    HW227057   0.320   0.798   5.620 -1.1855 -1.3585 -0.0976
 5142SOL     OW27058   3.935   3.404   0.224  0.1100 -0.0344 -0.0167
 5142SOL    HW127059   3.962   3.450   0.304  0.2849 -0.0866 -0.0443
 5142SOL    HW227060   3.969   3.473   0.168 -0.3673  0.2985  0.1124
 5143SOL     OW27061   3.768   4.326  14.357  0.2663 -0.3653 -0.7294
 5143SOL    HW127062   3.836   4.392  14.372 -0.3055  0.4766 -1.8162
 5143SOL    HW227063   3.721   4.333  14.440  2.3036 -0.2703  0.4206
 5144SOL     OW27064   0.824   1.882   9.294  0.3285 -0.0041  0.9951
 5144SOL    HW127065   0.765   1.850   9.362  0.2039  0.4158  1.0865
 5144SOL    HW227066   0.896   1.903   9.354  1.3410 -0.2876 -0.1145
 5145SOL     OW27067   3.481   2.001  17.558 -0.2767 -0.0804  0.5643
 5145SOL    HW127068   3.497   2.060  17.631  0.4675  1.5953 -0.9574
 5145SOL    HW227069   3.525   2.039  17.483 -1.2951 -0.5014 -0.2482
 5146SOL     OW27070   3.257   0.411  14.506  0.0203  0.2762  0.3849
 5146SOL    HW127071   3.199   0.420  14.431  1.8451 -3.1593 -1.4543
 5146SOL    HW227072   3.197   0.355  14.554  0.2426 -0.3986 -0.1192
 5147SOL     OW27073   3.870   3.132   6.921 -0.0161  0.2044 -0.0777
 5147SOL    HW127074   3.907   3.218   6.901 -0.2688  0.1927 -0.5923
 5147SOL    HW227075   3.950   3.079   6.921  0.1216  0.3773  2.2377
 5148SOL     OW27076   3.848   3.976   1.808 -0.3221 -0.3487  0.4136
 5148SOL    HW127077   3.782   3.912   1.834 -1.3617  0.8380  0.7185
 5148SOL    HW227078   3.924   3.922   1.786  1.6984  2.8184 -0.3693
 5149SOL     OW27079   2.659   1.418   8.255 -0.0036  0.3752  0.1829
 5149SOL    HW127080   2.698   1.382   8.176  0.2843  1.5310 -0.1953
 5149SOL    HW227081   2.676   1.343   8.312 -0.8310  2.0350  2.6446
 5150SOL     OW27082   1.684   2.879   9.641 -0.2008  0.0927  0.1335
 5150SOL    HW127083   1.722   2.811   9.584  1.0339  1.6828 -0.9439
 5150SOL    HW227084   1.662   2.837   9.724 -1.6814 -0.1137 -0.3649
 5151SOL     OW27085   2.698   1.347   1.807  0.4833  0.1905  0.3360
 5151SOL    HW127086   2.609   1.343   1.771 -0.1069 -1.4172  2.0066
 5151SOL    HW227087   2.669   1.362   1.897  2.2230 -0.1040  0.9331
 5152SOL     OW27088   0.068   0.329  13.165  0.3596 -0.2867 -0.0827
 5152SOL    HW127089   0.157   0.330  13.129  0.5548 -1.9762  0.3469
 5152SOL    HW227090   0.014   0.338  13.087  1.5984  1.9802 -0.6589
 5153SOL     OW27091   0.651   0.382  15.143 -0.1650  0.2122 -0.2155
 5153SOL    HW127092   0.633   0.298  15.100 -1.7981 -0.4806  1.8396
 5153SOL    HW227093   0.566   0.424  15.128 -0.3121 -0.2959 -0.7982
 5154SOL     OW27094   1.832   3.537  13.033  0.3519 -0.2099 -0.0577
 5154SOL    HW127095   1.755   3.487  13.060 -0.6238  2.7484  2.6891
 5154SOL    HW227096   1.796   3.591  12.962  2.9724 -0.2800 -1.4597
 5155SOL     OW27097   1.778   0.580   9.907  0.1575 -0.1077  0.4753
 5155SOL    HW127098   1.712   0.530   9.859  0.4299 -1.2024  1.2379
 5155SOL    HW227099   1.713   0.637   9.948 -0.4414 -0.5259  0.1207
 5156SOL     OW27100   1.552   1.211  16.664  0.0746  0.3099  0.6757
 5156SOL    HW127101   1.612   1.186  16.593 -2.8675 -1.3838 -1.2491
 5156SOL    HW227102   1.590   1.161  16.736 -2.9960 -0.1033  1.9893
 5157SOL     OW27103   4.097   2.062   7.348  0.0608 -0.2019 -0.2012
 5157SOL    HW127104   4.121   2.132   7.288 -1.4115  1.2311  0.8776
 5157SOL    HW227105   4.010   2.090   7.376 -0.1502 -0.7872 -0.2546
 5158SOL     OW27106   3.944   4.409   4.140  0.3460  0.0559 -0.0128
 5158SOL    HW127107   4.016   4.355   4.172 -0.4473 -0.6961  0.4854
 5158SOL    HW227108   3.979   4.446   4.059  0.8941  1.2092  0.7499
 5159SOL     OW27109   1.100   0.862   8.693 -0.4550  0.2842 -0.2462
 5159SOL    HW127110   1.037   0.915   8.743 -1.8703 -1.2670 -0.3712
 5159SOL    HW227111   1.047   0.803   8.638 -0.7429 -0.6862  1.0695
 5160SOL     OW27112   0.199   1.584  14.850 -0.1051  0.3284  0.3668
 5160SOL    HW127113   0.130   1.532  14.891 -2.3629  1.0683 -2.5058
 5160SOL    HW227114   0.258   1.597  14.924  0.3988  2.1433 -0.3564
 5161SOL     OW27115   2.072   4.428   4.412 -0.0429  0.0511 -0.2765
 5161SOL    HW127116   2.128   4.505   4.423 -0.9140  0.7809 -0.8841
 5161SOL    HW227117   2.130   4.370   4.461  3.1190  2.7084 -0.8657
 5162SOL     OW27118   1.911   0.906   0.464 -0.3720  0.4873 -0.0245
 5162SOL    HW127119   1.843   0.882   0.527  1.3071 -1.7894  0.9338
 5162SOL    HW227120   1.897   0.837   0.400 -1.2263  0.6037  0.0342
 5163SOL     OW27121   0.228   1.387  16.885  0.4258  0.1786 -0.3162
 5163SOL    HW127122   0.318   1.419  16.877  0.4792  0.1735  0.2291
 5163SOL    HW227123   0.228   1.293  16.868 -0.0366  0.3431 -1.2375
 5164SOL     OW27124   2.491   3.383   9.274 -0.0657  0.1598  0.4218
 5164SOL    HW127125   2.487   3.301   9.224  0.6813 -0.2866  1.0900
 5164SOL    HW227126   2.579   3.373   9.311 -1.5827 -0.3802  3.8729
 5165SOL     OW27127   2.595   0.901   2.964 -0.0915 -0.4558 -0.0526
 5165SOL    HW127128   2.597   0.930   3.055 -1.5243 -0.7401  0.0811
 5165SOL    HW227129   2.512   0.936   2.929  0.1430 -0.6536 -0.8174
 5166SOL     OW27130   4.440   2.106   9.802 -0.2609  0.2848 -0.1554
 5166SOL    HW127131   4.372   2.140   9.744 -0.6753 -1.6855 -0.8287
 5166SOL    HW227132   4.399   2.116   9.888 -0.6373 -0.1174 -0.2920
 5167SOL     OW27133   1.570   3.472  10.310 -0.1258 -0.6630  0.0423
 5167SOL    HW127134   1.661   3.463  10.280 -0.3059 -2.8232  0.1426
 5167SOL    HW227135   1.538   3.382  10.298 -2.5166  0.4886 -1.9907
 5168SOL     OW27136   0.528   1.895  10.852 -0.8514  0.7185 -0.2226
 5168SOL    HW127137   0.539   1.815  10.802  0.5111  1.6466 -1.4046
 5168SOL    HW227138   0.455   1.933  10.802  0.1546  0.2617 -2.0239
 5169SOL     OW27139   3.678   4.204   1.771  0.2132 -0.0476  0.8194
 5169SOL    HW127140   3.705   4.124   1.817 -0.5087 -1.3816 -1.0691
 5169SOL    HW227141   3.761   4.238   1.737 -0.0746 -1.5486 -1.4185
 5170SOL     OW27142   2.390   4.344   6.065 -0.2010 -0.0754  0.1453
 5170SOL    HW127143   2.418   4.426   6.024 -0.9133  0.1477  0.0940
 5170SOL    HW227144   2.409   4.280   5.996 -1.6574  0.1921 -0.5053
 5171SOL     OW27145   0.745   3.336   5.132 -0.4840 -0.2254  0.3124
 5171SOL    HW127146   0.805   3.352   5.059 -0.9984  0.2749  0.0018
 5171SOL    HW227147   0.678   3.391   5.093 -0.9558 -2.1878 -1.6093
 5172SOL     OW27148   0.371   1.250   4.632  0.1455 -0.2956  0.3437
 5172SOL    HW127149   0.303   1.186   4.610  0.7268  0.0209 -2.4133
 5172SOL    HW227150   0.338   1.339   4.618  3.6711  1.0688  0.6284
 5173SOL     OW27151   0.517   3.921   9.373 -0.0823 -0.0671 -0.5418
 5173SOL    HW127152   0.591   3.949   9.428  0.7062 -1.8629 -0.6805
 5173SOL    HW227153   0.505   3.830   9.398  0.8338 -0.6504 -2.2059
 5174SOL     OW27154   1.023   2.178  12.627 -0.3615  0.5515  0.9182
 5174SOL    HW127155   1.082   2.242  12.587 -0.4924 -1.3943 -2.3650
 5174SOL    HW227156   0.949   2.238  12.629  0.3931  1.5288 -0.6764
 5175SOL     OW27157   3.828   1.399   2.823  0.4321  0.8400 -0.1900
 5175SOL    HW127158   3.899   1.357   2.775 -1.8458 -1.5862 -1.4691
 5175SOL    HW227159   3.828   1.349   2.905 -0.9017  1.7607  0.3836
 5176SOL     OW27160   3.277   0.951  10.577 -0.2978  0.5164 -0.3531
 5176SOL    HW127161   3.341   1.023  10.583  0.7822 -0.3381 -1.5105
 5176SOL    HW227162   3.197   0.990  10.611 -0.7967 -0.9108  0.0643
 5177SOL     OW27163   2.257   1.022   6.067 -0.2860  0.4469  0.5516
 5177SOL    HW127164   2.173   1.066   6.054 -1.0012 -1.7280 -1.9589
 5177SOL    HW227165   2.241   0.930   6.086  2.9874 -0.1967  0.2768
 5178SOL     OW27166   0.184   2.618   9.170  0.8016 -0.0174  0.2251
 5178SOL    HW127167   0.171   2.527   9.144 -2.4928  0.1139  1.4103
 5178SOL    HW227168   0.119   2.662   9.114  0.7210 -0.3127  0.0870
 5179SOL     OW27169   4.652   1.333  14.485 -0.0717 -0.7905  0.0426
 5179SOL    HW127170   4.652   1.286  14.402 -1.2427 -1.1441  0.2382
 5179SOL    HW227171   4.572   1.295  14.522 -0.2407  0.1001  0.5845
 5180SOL     OW27172   2.524   3.348   7.395 -0.0171  0.3070 -0.1848
 5180SOL    HW127173   2.603   3.383   7.437  1.3493 -2.3423 -0.5753
 5180SOL    HW227174   2.555   3.297   7.321 -0.2496 -0.8910  0.5470
 5181SOL     OW27175   2.563   3.312   4.147  0.1984 -0.0127 -0.0655
 5181SOL    HW127176   2.572   3.237   4.088 -1.9419 -0.5256  0.2425
 5181SOL    HW227177   2.547   3.389   4.094  1.1052  0.2151 -0.0090
 5182SOL     OW27178   1.999   2.058   6.330  0.7485 -0.2257 -0.8216
 5182SOL    HW127179   1.957   1.973   6.321  1.6472 -0.6538 -0.9717
 5182SOL    HW227180   1.998   2.071   6.425  1.6549  0.8084 -0.9474
 5183SOL     OW27181   3.609   2.281   5.764 -0.2104  0.3812  0.1248
 5183SOL    HW127182   3.515   2.299   5.764 -0.4172 -0.6625  0.6589
 5183SOL    HW227183   3.641   2.337   5.694  0.4367  0.3057  0.3621
 5184SOL     OW27184   1.831   3.303   9.381 -0.2400 -0.5398  0.0204
 5184SOL    HW127185   1.870   3.314   9.468 -0.9207  1.4632  0.0778
 5184SOL    HW227186   1.899   3.261   9.329  0.0858  0.3919 -0.3121
 5185SOL     OW27187   1.984   3.895  12.494  0.2239 -0.1055  0.2268
 5185SOL    HW127188   1.914   3.959  12.508 -0.9473 -1.4473  0.4754
 5185SOL    HW227189   2.041   3.915  12.568 -0.7920 -0.5341  1.1328
 5186SOL     OW27190   4.307   1.510   8.437 -0.6733  0.5181  0.5259
 5186SOL    HW127191   4.290   1.526   8.345 -0.4063 -1.3593  0.1560
 5186SOL    HW227192   4.216   1.502   8.466 -0.3853 -2.1816  0.7084
 5187SOL     OW27193   1.156   2.945  12.257 -0.0898 -0.7084  0.2329
 5187SOL    HW127194   1.108   2.913  12.180  1.3223 -2.0447 -0.0867
 5187SOL    HW227195   1.247   2.920  12.242 -0.6531 -2.5775 -0.1377
 5188SOL     OW27196   0.981   2.056  13.013 -0.3101  0.0623  0.2013
 5188SOL    HW127197   1.008   2.078  13.102 -0.8807 -1.0387  0.6554
 5188SOL    HW227198   1.063   2.073  12.968 -0.0363 -0.7350  0.3958
 5189SOL     OW27199   2.808   3.701  16.991  0.0534 -0.1525  0.4770
 5189SOL    HW127200   2.743   3.653  16.940  0.7350 -1.2569  0.6443
 5189SOL    HW227201   2.840   3.765  16.927 -2.6486  0.4439 -0.3079
 5190SOL     OW27202   1.460   1.096  14.467 -0.6183 -0.1405  0.1615
 5190SOL    HW127203   1.414   1.133  14.392 -0.1041  0.1897  0.0096
 5190SOL    HW227204   1.552   1.095  14.440 -0.5626  1.1134  0.3119
 5191SOL     OW27205   1.402   4.379   8.004 -0.1714 -0.7465 -0.1566
 5191SOL    HW127206   1.493   4.407   8.014 -0.1168 -0.7542 -0.6300
 5191SOL    HW227207   1.375   4.350   8.091  1.3737  0.7247  0.8092
 5192SOL     OW27208   0.399   0.104  13.294 -0.0319  0.3283  0.4389
 5192SOL    HW127209   0.343   0.120  13.370  1.8208  0.3672  1.8114
 5192SOL    HW227210   0.366   0.017  13.272  1.7028 -0.2205  0.0129
 5193SOL     OW27211   1.750   3.014   7.860 -0.3363 -0.2170 -0.4990
 5193SOL    HW127212   1.682   2.955   7.827  2.2693 -2.8737 -1.2262
 5193SOL    HW227213   1.789   2.960   7.929  2.6270  2.1546 -0.3187
 5194SOL     OW27214   4.234   0.360   3.922  0.5589  0.3852 -0.0047
 5194SOL    HW127215   4.159   0.342   3.979 -1.8258  1.0253 -2.9536
 5194SOL    HW227216   4.284   0.280   3.928  0.5158  0.2537 -1.5194
 5195SOL     OW27217   3.232   1.756   4.299  0.3097  0.2206  0.0465
 5195SOL    HW127218   3.257   1.820   4.366  0.5922  0.1158  0.0414
 5195SOL    HW227219   3.279   1.678   4.327 -0.7172  0.7215  3.1763
 5196SOL     OW27220   2.816   1.210   3.436 -0.4226  0.0317  0.1230
 5196SOL    HW127221   2.745   1.159   3.474 -3.0638  1.5764 -2.7754
 5196SOL    HW227222   2.890   1.152   3.457  0.6982  0.6819 -2.0862
 5197SOL     OW27223   2.815   2.639   8.273 -0.5142  0.0396  0.2038
 5197SOL    HW127224   2.891   2.616   8.219 -1.4341 -1.2281 -0.5417
 5197SOL    HW227225   2.748   2.629   8.207 -0.5672 -0.4728  0.3328
 5198SOL     OW27226   0.494   1.720  10.266 -0.1534  0.0926  0.1799
 5198SOL    HW127227   0.498   1.785  10.196 -1.8836 -0.1641 -0.1546
 5198SOL    HW227228   0.411   1.733  10.312 -0.2443  2.0528 -0.5345
 5199SOL     OW27229   4.302   1.336   2.244  0.1274 -0.1750 -0.3499
 5199SOL    HW127230   4.327   1.263   2.187  2.1768 -0.0435  0.3828
 5199SOL    HW227231   4.385   1.344   2.289 -0.2830  1.8582  0.0370
 5200SOL     OW27232   1.517   2.693   6.078 -0.1385  0.1578 -0.1476
 5200SOL    HW127233   1.476   2.616   6.038  0.2034  0.1079 -0.3980
 5200SOL    HW227234   1.508   2.668   6.170  1.1727  1.4795  0.3381
 5201SOL     OW27235   4.309   4.610   6.242  0.1693  0.4368 -0.0057
 5201SOL    HW127236   4.306   4.594   6.147 -0.7835 -0.4619  0.1756
 5201SOL    HW227237   4.246   4.681   6.249 -1.9023 -1.4386  0.4673
 5202SOL     OW27238   0.960   1.690   0.104 -0.1053 -0.6330  0.6136
 5202SOL    HW127239   0.986   1.751   0.035 -0.3788  2.2917  3.1662
 5202SOL    HW227240   1.013   1.724   0.175 -2.1872 -1.0010  2.3519
 5203SOL     OW27241   0.146   2.668   5.140 -0.3639  0.2436  0.7115
 5203SOL    HW127242   0.056   2.690   5.117  0.2367  0.3964 -1.4973
 5203SOL    HW227243   0.184   2.666   5.053 -0.5100 -1.1605  0.6837
 5204SOL     OW27244   2.262   0.336   3.258 -0.0033  0.1421 -0.0693
 5204SOL    HW127245   2.266   0.419   3.211 -0.3909  0.1713 -0.0491
 5204SOL    HW227246   2.170   0.316   3.243 -0.0174 -0.0537  0.2726
 5205SOL     OW27247   1.968   2.398   5.267 -0.6874  0.2363  0.0505
 5205SOL    HW127248   1.888   2.391   5.319 -0.4618  0.9123  0.4950
 5205SOL    HW227249   1.933   2.452   5.195 -0.3718  0.9239  0.4102
 5206SOL     OW27250   4.165   0.302   2.907  0.2884  0.4663 -0.1627
 5206SOL    HW127251   4.121   0.387   2.906  0.8172  0.7642  1.5650
 5206SOL    HW227252   4.158   0.261   2.821 -0.5747  0.1896  0.0427
 5207SOL     OW27253   0.417   0.972   2.895 -0.0823 -0.6951  0.0173
 5207SOL    HW127254   0.504   1.012   2.897 -0.2247 -0.3444 -0.6070
 5207SOL    HW227255   0.357   1.046   2.890  0.3474 -0.4494 -1.4840
 5208SOL     OW27256   2.421   4.703  17.148  0.0847  0.1509  0.4724
 5208SOL    HW127257   2.384   4.658  17.224  1.3122  1.0386  1.5776
 5208SOL    HW227258   2.355   0.030  17.141  2.2397  2.3403  1.5601
 5209SOL     OW27259   0.795   2.551   5.946  0.3439 -0.3113 -0.1760
 5209SOL    HW127260   0.821   2.461   5.969 -0.0581 -0.1603  0.8658
 5209SOL    HW227261   0.750   2.548   5.862  0.2483 -1.1771 -0.0945
 5210SOL     OW27262   2.310   2.845  13.882  0.1730  0.0622  0.0100
 5210SOL    HW127263   2.301   2.750  13.889  1.9198  0.0481  1.9995
 5210SOL    HW227264   2.225   2.857  13.839 -0.6916  1.1467  2.0312
 5211SOL     OW27265   0.293   2.067   4.712  0.2851 -0.6709 -0.2185
 5211SOL    HW127266   0.349   2.054   4.635  0.7512  3.1411 -0.5264
 5211SOL    HW227267   0.355   2.100   4.777 -1.3581  0.6822  0.6698
 5212SOL     OW27268   4.282   0.835   8.575 -0.8678 -0.0596  0.1739
 5212SOL    HW127269   4.338   0.784   8.633  1.8092  1.4954 -1.0567
 5212SOL    HW227270   4.336   0.852   8.498  1.4941 -1.2812  1.5659
 5213SOL     OW27271   1.791   0.403   3.092  0.2426 -0.9248  0.0838
 5213SOL    HW127272   1.745   0.460   3.155  0.3231 -0.8399  0.0652
 5213SOL    HW227273   1.730   0.330   3.086  1.3514 -1.8973  0.7164
 5214SOL     OW27274   1.598   4.589   2.939 -0.2375 -0.3203  0.1839
 5214SOL    HW127275   1.643   4.541   2.869 -0.4915  3.1076 -2.3343
 5214SOL    HW227276   1.511   4.550   2.933  0.2556 -1.2362 -1.0764
 5215SOL     OW27277   0.043   1.861   9.261  0.4095 -0.3593  0.0646
 5215SOL    HW127278   4.721   1.828   9.325  0.2087 -1.0843 -0.5089
 5215SOL    HW227279   0.006   1.947   9.241  2.1639 -0.3340 -3.0433
 5216SOL     OW27280   2.844   1.315   0.714 -0.8869  0.0814  0.5863
 5216SOL    HW127281   2.901   1.338   0.640 -1.0893 -0.7771  0.1579
 5216SOL    HW227282   2.783   1.388   0.714  0.2131  0.9844 -3.7516
 5217SOL     OW27283   1.083   1.869   6.720  0.0166 -0.2753 -0.0836
 5217SOL    HW127284   1.114   1.793   6.769 -2.2874 -0.6875  0.7372
 5217SOL    HW227285   1.104   1.947   6.771  0.7380  0.5723 -1.6661
 5218SOL     OW27286   4.726   0.371  13.401  0.2557  0.0620  0.2020
 5218SOL    HW127287   0.073   0.373  13.437  0.3985  1.5126 -0.2408
 5218SOL    HW227288   0.010   0.346  13.313  2.3906 -1.7627  1.3356
 5219SOL     OW27289   3.429   0.118  10.701 -0.3065  0.4149  0.0768
 5219SOL    HW127290   3.354   0.091  10.648  1.1570 -3.2277 -0.1526
 5219SOL    HW227291   3.480   0.037  10.702 -1.4453 -0.2942 -0.2182
 5220SOL     OW27292   3.209   2.623   1.866 -0.3148 -0.1891  0.1780
 5220SOL    HW127293   3.191   2.717   1.861 -1.4356 -0.4459 -0.5681
 5220SOL    HW227294   3.121   2.602   1.898 -0.9557  0.3880 -1.2185
 5221SOL     OW27295   4.190   1.021   6.974 -0.1542  0.3202 -0.0952
 5221SOL    HW127296   4.264   1.068   7.012 -0.4372  0.9054 -0.2750
 5221SOL    HW227297   4.116   1.078   6.995 -0.3833  0.1918 -0.5518
 5222SOL     OW27298   1.953   4.524   5.652 -0.2085 -0.1059  0.5492
 5222SOL    HW127299   1.909   4.568   5.725  1.4179 -0.2517  1.6166
 5222SOL    HW227300   2.025   4.481   5.699  1.8136  3.5789  0.7980
 5223SOL     OW27301   2.616   0.663   6.311  0.0066 -0.1162  0.7309
 5223SOL    HW127302   2.571   0.658   6.227  3.1964 -2.8968 -0.7979
 5223SOL    HW227303   2.661   0.747   6.311  2.7347 -1.6037 -1.8362
 5224SOL     OW27304   2.880   3.455   1.178 -0.0328 -0.0736 -0.8445
 5224SOL    HW127305   2.803   3.509   1.157 -1.1385 -0.8656  1.1728
 5224SOL    HW227306   2.834   3.398   1.240 -2.1216  1.9297 -0.5583
 5225SOL     OW27307   2.992   2.153   8.100 -0.7153  0.0642  0.2252
 5225SOL    HW127308   2.931   2.194   8.161  1.3596  1.1569  1.5672
 5225SOL    HW227309   2.943   2.156   8.018  1.0809  2.1589 -0.7696
 5226SOL     OW27310   3.426   0.999  17.643  0.5198  0.6937  0.0688
 5226SOL    HW127311   3.458   0.910  17.625  0.8288  0.5767  1.2070
 5226SOL    HW227312   3.331   0.994  17.640  0.4563  1.2066  1.6837
 5227SOL     OW27313   3.513   2.559   2.516 -0.2312  0.3551  0.0191
 5227SOL    HW127314   3.536   2.471   2.486  0.0816  0.4255  0.0519
 5227SOL    HW227315   3.418   2.556   2.520 -0.2104 -0.4766 -0.0227
 5228SOL     OW27316   1.781   1.019   2.374 -0.6364 -0.2134  0.0992
 5228SOL    HW127317   1.740   0.976   2.299  0.5450 -4.0131  1.6253
 5228SOL    HW227318   1.711   1.012   2.438 -0.5944 -0.7020  0.0924
 5229SOL     OW27319   0.121   1.124   5.755 -0.2056  0.7137 -0.2859
 5229SOL    HW127320   0.198   1.170   5.788 -0.2962 -0.3307  1.3511
 5229SOL    HW227321   0.066   1.162   5.823  0.6404 -1.2371  1.5019
 5230SOL     OW27322   3.020   3.314   2.471 -0.0383 -0.3500  0.3827
 5230SOL    HW127323   3.101   3.270   2.448  0.3626 -0.1863  1.5169
 5230SOL    HW227324   2.967   3.235   2.465 -1.3714  0.5081  0.7408
 5231SOL     OW27325   4.495   1.972   2.854 -0.1624  0.2299 -0.5774
 5231SOL    HW127326   4.521   2.061   2.830  1.6266 -0.0548  0.2825
 5231SOL    HW227327   4.486   1.986   2.948  2.2662  3.0719 -0.7687
 5232SOL     OW27328   1.874   1.947   7.213  0.2943 -0.1317  0.2038
 5232SOL    HW127329   1.880   1.955   7.309  0.3684 -2.9453  0.4209
 5232SOL    HW227330   1.951   1.995   7.181 -0.6231  1.0655 -0.2377
 5233SOL     OW27331   2.356   1.944  15.044  0.4493  0.6282 -0.4131
 5233SOL    HW127332   2.341   2.036  15.024  1.7285  1.2875  1.6199
 5233SOL    HW227333   2.301   1.941  15.122  0.1840 -0.5158 -0.6427
 5234SOL     OW27334   2.573   0.605   5.455 -0.4621 -0.1147 -0.9296
 5234SOL    HW127335   2.655   0.586   5.501 -0.2322 -0.4603 -1.4866
 5234SOL    HW227336   2.573   0.544   5.381  2.4843 -0.2234 -0.8473
 5235SOL     OW27337   3.109   2.593   4.392  0.3255 -0.0595 -0.6508
 5235SOL    HW127338   3.022   2.563   4.419  0.2058 -1.2985 -2.3556
 5235SOL    HW227339   3.123   2.562   4.302  2.4354 -0.9330 -0.0456
 5236SOL     OW27340   3.954   1.310   4.981 -0.1073 -0.0327 -0.2305
 5236SOL    HW127341   4.028   1.368   4.959  0.3608 -0.2856  0.7021
 5236SOL    HW227342   3.981   1.281   5.068 -0.0493  1.8731  0.3858
 5237SOL     OW27343   0.502   3.310   3.449  0.5209  0.2491 -0.3248
 5237SOL    HW127344   0.573   3.349   3.397  0.7010  0.5627  0.1543
 5237SOL    HW227345   0.438   3.294   3.380 -0.6874 -1.4576  1.2045
 5238SOL     OW27346   1.932   3.571   5.422  0.3079  0.3131 -0.2610
 5238SOL    HW127347   1.994   3.641   5.403  0.3739 -0.5441 -3.2152
 5238SOL    HW227348   1.968   3.540   5.506 -0.0076 -2.9039 -1.3214
 5239SOL     OW27349   4.488   3.595   2.975 -0.3158  0.5897 -0.5088
 5239SOL    HW127350   4.583   3.587   2.961  0.0548 -0.4539  2.5383
 5239SOL    HW227351   4.496   3.632   3.063  1.3879 -1.6227  0.2800
 5240SOL     OW27352   0.412   3.492   9.913 -0.4664 -0.5574  0.9211
 5240SOL    HW127353   0.318   3.499   9.926 -0.5730 -1.5071  0.7033
 5240SOL    HW227354   0.427   3.405   9.951  0.6546 -0.9365 -0.3746
 5241SOL     OW27355   2.067   3.660   8.851  0.0565  0.2591 -0.1004
 5241SOL    HW127356   2.105   3.602   8.917 -1.4531 -0.1595  0.4046
 5241SOL    HW227357   2.150   3.695   8.818  0.5524 -1.6539 -0.8923
 5242SOL     OW27358   4.558   0.482   7.069 -0.3152  0.1963  0.3255
 5242SOL    HW127359   4.524   0.489   7.159  0.2738  1.7186  0.4370
 5242SOL    HW227360   4.508   0.554   7.030 -1.8863 -0.1725  1.6018
 5243SOL     OW27361   2.416   1.401   4.203 -0.4723 -0.7754  0.3006
 5243SOL    HW127362   2.442   1.490   4.182 -0.3803 -0.7950  0.3333
 5243SOL    HW227363   2.495   1.365   4.163 -0.3959 -0.6401  0.3316
 5244SOL     OW27364   3.453   3.360  12.058  0.0448  0.4443 -0.0125
 5244SOL    HW127365   3.513   3.417  12.010  1.4922 -2.0088 -1.0853
 5244SOL    HW227366   3.440   3.409  12.140  0.2046  0.4038  0.0365
 5245SOL     OW27367   1.444   2.069  14.106 -0.1806 -0.5376 -0.1400
 5245SOL    HW127368   1.467   2.127  14.179  1.2006  0.6987 -1.5588
 5245SOL    HW227369   1.380   2.016  14.154  0.6627 -1.3892  0.0196
 5246SOL     OW27370   0.798   2.037  14.650  0.5962  0.2159  0.1403
 5246SOL    HW127371   0.817   1.944  14.644 -0.5052 -0.0815  1.2354
 5246SOL    HW227372   0.754   2.048  14.735 -0.5012 -2.0381 -0.1572
 5247SOL     OW27373   2.754   3.494   7.473  0.5931  0.3135 -0.5235
 5247SOL    HW127374   2.801   3.494   7.390  0.7129  0.3163 -0.4561
 5247SOL    HW227375   2.793   3.575   7.507  0.4948  1.0965 -2.2948
 5248SOL     OW27376   3.305   1.508   6.683  0.1813  0.0315 -0.5743
 5248SOL    HW127377   3.356   1.460   6.749  0.2419  2.7836  1.3827
 5248SOL    HW227378   3.347   1.467   6.607 -2.1928 -0.8729 -1.4043
 5249SOL     OW27379   4.687   0.323  15.116  0.4237 -0.2450 -0.1630
 5249SOL    HW127380   4.739   0.286  15.045 -0.6405 -0.9626 -0.5744
 5249SOL    HW227381   0.013   0.352  15.177 -1.4061  0.0884  1.6994
 5250SOL     OW27382   2.388   1.553   7.330  0.2605 -0.1801 -0.2237
 5250SOL    HW127383   2.326   1.485   7.357  0.7663 -1.1533 -1.4690
 5250SOL    HW227384   2.452   1.555   7.401 -2.1741 -1.2554  1.9944
 5251SOL     OW27385   0.710   3.211   2.656  0.5160  0.0776 -0.6444
 5251SOL    HW127386   0.760   3.134   2.683  0.1326  0.4743  1.1489
 5251SOL    HW227387   0.757   3.231   2.574 -0.4280  0.7121 -1.0283
 5252SOL     OW27388   2.187   4.105   9.231  0.0025 -0.3629 -0.2788
 5252SOL    HW127389   2.098   4.077   9.255  0.0224 -0.5824 -0.4600
 5252SOL    HW227390   2.203   4.178   9.291 -1.2965  0.6885 -1.1971
 5253SOL     OW27391   1.429   2.606   4.418  0.3808 -0.1077  0.1677
 5253SOL    HW127392   1.403   2.553   4.494  0.2391  0.4859  0.5357
 5253SOL    HW227393   1.401   2.694   4.444  1.1447 -0.3206  1.7285
 5254SOL     OW27394   0.252   0.921   7.928 -0.3702  0.1225 -0.0687
 5254SOL    HW127395   0.225   0.852   7.988 -0.2979 -0.5724 -0.8279
 5254SOL    HW227396   0.270   0.875   7.845  1.5108 -0.6805  0.7916
 5255SOL     OW27397   4.211   4.008  14.477 -0.1792 -0.3230 -0.3255
 5255SOL    HW127398   4.220   3.962  14.560 -4.4357 -0.7666 -0.1217
 5255SOL    HW227399   4.153   3.951  14.427 -2.3927 -0.0847  1.9781
 5256SOL     OW27400   0.448   0.233   5.507 -0.3692 -0.1484  0.5141
 5256SOL    HW127401   0.360   0.264   5.488 -0.9846 -2.2006 -0.0654
 5256SOL    HW227402   0.478   0.319   5.537  0.6189 -1.0221  2.0443
 5257SOL     OW27403   3.888   4.432   7.279  0.7990  0.0687  0.3616
 5257SOL    HW127404   3.828   4.479   7.221 -0.0856 -0.5804  0.7433
 5257SOL    HW227405   3.839   4.449   7.359 -1.4458 -3.3055 -0.2747
 5258SOL     OW27406   1.257   3.017   0.805 -0.0937 -0.0236 -0.2299
 5258SOL    HW127407   1.270   3.025   0.900  1.2811 -1.6527 -0.2889
 5258SOL    HW227408   1.272   2.923   0.798 -0.7767 -0.2876  1.8528
 5259SOL     OW27409   1.085   2.875   9.471 -0.2694 -0.1674 -0.8183
 5259SOL    HW127410   1.001   2.914   9.448 -1.0042 -2.0584 -1.3319
 5259SOL    HW227411   1.129   2.910   9.393  0.8186 -1.1798 -0.6739
 5260SOL     OW27412   1.142   0.234   7.467 -0.1409 -0.2335  0.4006
 5260SOL    HW127413   1.050   0.206   7.466 -0.2641  0.2527 -2.2739
 5260SOL    HW227414   1.185   0.152   7.489  1.6136  1.5482  3.6093
 5261SOL     OW27415   0.678   1.068  11.354 -0.1667 -0.5656  0.7649
 5261SOL    HW127416   0.703   1.051  11.444 -0.4125 -0.9101  0.7678
 5261SOL    HW227417   0.729   1.143  11.325  0.4273 -0.9284  0.8753
 5262SOL     OW27418   2.916   1.555   6.783  0.0269  0.1510  0.0738
 5262SOL    HW127419   2.831   1.512   6.783 -0.4818  1.1656  1.0826
 5262SOL    HW227420   2.957   1.525   6.702  0.3435  0.6947  0.0363
 5263SOL     OW27421   4.153   0.084   6.521  0.5078 -0.1996  0.5056
 5263SOL    HW127422   4.174   0.110   6.431 -0.1554 -3.2771 -0.5622
 5263SOL    HW227423   4.172   4.732   6.527  0.1393 -0.2519  0.8477
 5264SOL     OW27424   2.292   0.836   7.610  0.0440  0.3887 -0.2185
 5264SOL    HW127425   2.338   0.800   7.686  0.2711  2.1565  0.4686
 5264SOL    HW227426   2.209   0.795   7.636  0.4355 -0.7103 -0.7010
 5265SOL     OW27427   2.653   4.242   3.313 -0.1204  0.5722  0.1426
 5265SOL    HW127428   2.579   4.192   3.346  0.3480  0.3883  0.9255
 5265SOL    HW227429   2.692   4.169   3.266 -2.0444  0.0822 -0.6713
 5266SOL     OW27430   2.848   1.339   8.814  0.5083  0.1109 -0.8205
 5266SOL    HW127431   2.790   1.407   8.780 -1.3944 -0.9165  0.3022
 5266SOL    HW227432   2.935   1.371   8.791  0.0821  1.5238 -0.4495
 5267SOL     OW27433   0.412   1.005   5.142  0.1267 -0.1255  0.6062
 5267SOL    HW127434   0.397   1.052   5.060 -0.0539 -0.9807  0.1504
 5267SOL    HW227435   0.397   0.915   5.115  0.7934  0.0432 -0.3445
 5268SOL     OW27436   2.898   4.360   1.217 -0.1006 -0.1997 -0.3410
 5268SOL    HW127437   2.861   4.447   1.234  0.9950  0.0068  0.9487
 5268SOL    HW227438   2.916   4.330   1.306  0.2002  0.7408 -0.0814
 5269SOL     OW27439   2.620   0.587  16.996  0.0109 -0.2733  0.4516
 5269SOL    HW127440   2.633   0.655  17.061 -0.9914  0.7830 -0.4345
 5269SOL    HW227441   2.601   0.642  16.920  1.8899 -0.6012 -0.2393
 5270SOL     OW27442   3.975   4.700   7.593  0.2777  0.0725  0.1429
 5270SOL    HW127443   3.884   4.720   7.571  0.9670  0.0540 -2.7248
 5270SOL    HW227444   4.017   4.679   7.510 -1.3873 -1.1759 -0.3957
 5271SOL     OW27445   1.782   0.816   8.714 -0.1292  0.5568  0.1109
 5271SOL    HW127446   1.740   0.733   8.740 -0.2851  0.8240  0.7286
 5271SOL    HW227447   1.804   0.851   8.800  1.2976  0.4859 -0.2362
 5272SOL     OW27448   0.778   4.581  10.987  0.5625 -0.0570 -0.2275
 5272SOL    HW127449   0.758   4.493  11.019 -3.6336  2.2066  3.1994
 5272SOL    HW227450   0.785   4.630  11.069  0.3290  0.3984 -0.4797
 5273SOL     OW27451   4.194   2.756  15.520 -0.3268  0.1708 -0.6438
 5273SOL    HW127452   4.202   2.717  15.433  1.1251 -1.2447  0.0990
 5273SOL    HW227453   4.281   2.728  15.552 -0.6354 -1.6979 -1.4152
 5274SOL     OW27454   3.247   2.132  13.169  0.7374  0.8187 -0.2962
 5274SOL    HW127455   3.155   2.157  13.181  0.3741 -0.7733  0.1911
 5274SOL    HW227456   3.249   2.060  13.232 -3.5173  0.9272 -0.0285
 5275SOL     OW27457   4.673   4.112   4.943 -0.1346 -0.1175 -0.4505
 5275SOL    HW127458   4.655   4.151   4.857  1.0730 -1.0786 -1.1230
 5275SOL    HW227459   0.026   4.108   4.931  0.0744  1.3362  0.6505
 5276SOL     OW27460   0.090   2.397   1.137  0.0266  0.2256  0.1697
 5276SOL    HW127461   0.143   2.458   1.085  0.9706 -1.0250 -0.3348
 5276SOL    HW227462   0.003   2.404   1.098 -0.3971 -1.1225  0.8965
 5277SOL     OW27463   3.807   0.166   7.350 -0.4314 -0.4631  0.5228
 5277SOL    HW127464   3.862   0.129   7.280  0.1529  1.0347  0.1948
 5277SOL    HW227465   3.755   0.230   7.302 -0.9949 -0.0462  1.6877
 5278SOL     OW27466   2.649   1.582  12.465  0.4745 -0.4893 -0.1049
 5278SOL    HW127467   2.647   1.615  12.375  0.7860 -1.9139 -0.6317
 5278SOL    HW227468   2.655   1.663  12.516 -3.6624  0.5361 -1.2759
 5279SOL     OW27469   0.011   1.232  15.399 -0.5222 -0.2050  0.4647
 5279SOL    HW127470   4.723   1.232  15.490  2.3563 -2.0171  1.3962
 5279SOL    HW227471   4.692   1.181  15.345 -0.7016  1.4791 -0.9713
 5280SOL     OW27472   3.513   4.013   1.965 -0.1407 -0.3043 -0.5884
 5280SOL    HW127473   3.431   4.006   1.915  0.0900 -0.4128 -0.9477
 5280SOL    HW227474   3.564   3.945   1.922  3.1406  0.0660  2.6961
 5281SOL     OW27475   3.668   1.137   9.351 -0.0611 -0.3410  0.2551
 5281SOL    HW127476   3.716   1.205   9.303  0.6414 -0.9686  0.0589
 5281SOL    HW227477   3.741   1.117   9.409 -0.3561  0.1125  0.7772
 5282SOL     OW27478   4.016   0.712  10.840 -0.4148 -0.0941 -0.2320
 5282SOL    HW127479   4.110   0.692  10.846 -0.4545  0.1531  1.2250
 5282SOL    HW227480   3.985   0.621  10.841  4.0352 -1.6454 -1.4885
 5283SOL     OW27481   1.383   4.463   4.375  0.0557 -0.4292 -0.1447
 5283SOL    HW127482   1.476   4.461   4.396  0.0920  1.4589 -0.1183
 5283SOL    HW227483   1.372   4.557   4.360  0.5340 -0.0562  1.8218
 5284SOL     OW27484   2.011   3.837  14.328  1.1325 -0.1776  0.2066
 5284SOL    HW127485   1.990   3.877  14.244  1.0378 -1.3865 -0.3368
 5284SOL    HW227486   2.037   3.749  14.301  0.5842 -0.2838  0.0267
 5285SOL     OW27487   0.399   4.737   5.658  0.0428 -0.3736 -0.2987
 5285SOL    HW127488   0.355   0.007   5.742 -0.7593 -0.4308 -0.7124
 5285SOL    HW227489   0.393   0.084   5.622 -1.1588 -0.7795 -1.0818
 5286SOL     OW27490   2.352   4.686   2.769 -0.2660  0.0388 -0.2188
 5286SOL    HW127491   2.344   4.592   2.786  1.2298 -0.1584 -0.5750
 5286SOL    HW227492   2.329   4.722   2.854  2.8471  0.6027  0.3954
 5287SOL     OW27493   2.393   2.705   3.165 -0.1524  0.2236  0.2311
 5287SOL    HW127494   2.350   2.644   3.105  0.4131  1.1112 -1.0734
 5287SOL    HW227495   2.353   2.789   3.142 -1.6299 -0.4683  0.2679
 5288SOL     OW27496   4.345   0.204   5.973  0.2008  0.5031 -0.0276
 5288SOL    HW127497   4.368   0.245   5.889  1.6482 -0.1387  0.0512
 5288SOL    HW227498   4.378   0.115   5.963 -0.3292  0.4004 -0.8795
 5289SOL     OW27499   2.491   1.384   4.804 -0.5898 -0.0399  0.0578
 5289SOL    HW127500   2.547   1.311   4.833 -0.7947  0.0129  0.5763
 5289SOL    HW227501   2.418   1.333   4.769  0.5423 -0.0457 -2.3492
 5290SOL     OW27502   3.164   0.967   4.186 -0.4234 -0.0168 -0.2451
 5290SOL    HW127503   3.229   0.921   4.131 -1.1330 -1.7119  0.3238
 5290SOL    HW227504   3.221   1.040   4.206  1.2568 -0.8035 -2.1151
 5291SOL     OW27505   3.462   1.119   1.849 -0.4488  0.5299 -0.1178
 5291SOL    HW127506   3.384   1.076   1.886 -0.1544 -0.5038 -0.7089
 5291SOL    HW227507   3.430   1.174   1.778 -1.4112 -0.3712 -0.3919
 5292SOL     OW27508   1.340   3.216   5.457  0.6806  0.5353 -0.4482
 5292SOL    HW127509   1.367   3.158   5.529 -1.9366 -1.0702 -0.7674
 5292SOL    HW227510   1.271   3.271   5.494 -0.3687 -0.8141 -0.3972
 5293SOL     OW27511   2.812   3.632   3.345  0.0388 -0.3259  0.2865
 5293SOL    HW127512   2.907   3.641   3.348 -0.0466  0.0700  1.8400
 5293SOL    HW227513   2.801   3.594   3.258  2.6163 -0.1566 -0.1294
 5294SOL     OW27514   1.948   0.932   8.007 -0.0715 -0.7959  0.0422
 5294SOL    HW127515   1.997   0.867   8.056  1.3887 -0.1685 -0.5905
 5294SOL    HW227516   2.023   0.971   7.961 -0.8520 -1.3684 -1.7270
 5295SOL     OW27517   2.528   4.175   0.252 -0.0592  0.5671 -0.0178
 5295SOL    HW127518   2.493   4.184   0.164 -1.3444 -1.9821  0.2346
 5295SOL    HW227519   2.601   4.114   0.241 -0.5065  0.1366 -0.6086
 5296SOL     OW27520   2.285   0.286   9.174 -0.2727 -0.4978  0.4538
 5296SOL    HW127521   2.329   0.349   9.118  0.2900 -1.4656 -0.1840
 5296SOL    HW227522   2.326   0.315   9.255 -1.4828 -0.4096  1.0433
 5297SOL     OW27523   4.135   2.794   9.007  0.0864 -0.6981  0.6873
 5297SOL    HW127524   4.072   2.851   8.964  0.4075 -0.9112 -0.0612
 5297SOL    HW227525   4.126   2.721   8.946 -3.7305 -1.6226  2.3602
 5298SOL     OW27526   1.910   1.090  12.835  0.0417  0.5920 -0.0093
 5298SOL    HW127527   1.928   1.118  12.925 -0.6416 -2.3107  1.0513
 5298SOL    HW227528   1.990   1.105  12.785 -2.0861 -0.3041 -3.6591
 5299SOL     OW27529   2.120   1.232  16.450 -0.0620  0.0611  0.0574
 5299SOL    HW127530   2.095   1.310  16.499 -1.9589 -0.0266 -0.7712
 5299SOL    HW227531   2.102   1.257  16.359  2.0890  0.0072 -0.3850
 5300SOL     OW27532   0.225   1.428   8.549 -0.0430 -0.0701 -0.4311
 5300SOL    HW127533   0.238   1.358   8.485  1.1254 -0.5103  0.2872
 5300SOL    HW227534   0.299   1.484   8.528 -0.8805  1.8262  1.7376
 5301SOL     OW27535   1.007   2.252  13.748  0.0671 -0.8635  0.4791
 5301SOL    HW127536   1.028   2.164  13.717  0.3749 -0.6833  0.1864
 5301SOL    HW227537   1.063   2.302  13.690 -1.6961 -0.3452 -0.7874
 5302SOL     OW27538   2.128   0.779   8.967  0.4835 -0.5075 -0.5049
 5302SOL    HW127539   2.122   0.711   8.900 -0.0363 -1.6258  0.6743
 5302SOL    HW227540   2.131   0.852   8.904  3.0030  1.0137  1.3828
 5303SOL     OW27541   0.979   4.482   6.056 -0.5633  0.1982  0.2584
 5303SOL    HW127542   1.041   4.426   6.009 -0.5869  0.1461  0.2898
 5303SOL    HW227543   1.041   4.548   6.085 -0.2680  0.7547 -1.6447
 5304SOL     OW27544   2.708   1.812   1.524 -0.5005 -0.2479 -0.2457
 5304SOL    HW127545   2.769   1.773   1.462 -0.0997  1.7499 -1.1070
 5304SOL    HW227546   2.764   1.856   1.587 -0.5519  1.0548 -1.1081
 5305SOL     OW27547   3.493   2.873   2.839 -0.0410 -0.2036  0.2980
 5305SOL    HW127548   3.493   2.968   2.825  1.3817 -0.4163 -1.1530
 5305SOL    HW227549   3.518   2.845   2.751 -0.7119  0.9459 -0.2669
 5306SOL     OW27550   3.330   0.538   8.561 -0.4240 -0.6131 -0.6559
 5306SOL    HW127551   3.366   0.459   8.602 -0.4037  1.2815  3.0530
 5306SOL    HW227552   3.351   0.523   8.469 -1.7422  0.2893 -1.1018
 5307SOL     OW27553   4.464   2.021   7.683  0.0313  0.3072  0.5128
 5307SOL    HW127554   4.454   2.092   7.746  2.2344  0.1474  1.0415
 5307SOL    HW227555   4.380   2.040   7.640  1.5211  2.2628 -1.5301
 5308SOL     OW27556   4.225   0.730   7.963  0.3435 -0.4549  0.2784
 5308SOL    HW127557   4.148   0.675   7.946 -0.6223  0.3863  1.9927
 5308SOL    HW227558   4.271   0.659   8.007  0.6235 -0.3565  0.1460
 5309SOL     OW27559   4.130   2.555   7.323 -0.7681  0.7129  0.3560
 5309SOL    HW127560   4.045   2.599   7.323 -2.3212 -2.2696  1.8843
 5309SOL    HW227561   4.166   2.564   7.411  1.0539  0.1208 -0.3121
 5310SOL     OW27562   4.426   1.697   7.255 -0.5272  0.7712  0.5624
 5310SOL    HW127563   4.347   1.748   7.235 -1.0564 -0.7217 -1.0759
 5310SOL    HW227564   4.493   1.739   7.201  0.2480  0.2539  1.1247
 5311SOL     OW27565   0.075   2.593   6.017 -0.2945  0.0372 -0.6135
 5311SOL    HW127566   0.106   2.678   5.984 -1.1174  0.4889 -0.2374
 5311SOL    HW227567   0.020   2.566   5.943 -0.1644  3.1714 -1.8473
 5312SOL     OW27568   3.276   3.165   3.804  0.1445  0.0433  0.2007
 5312SOL    HW127569   3.228   3.152   3.886 -0.0537  0.8475  0.2089
 5312SOL    HW227570   3.202   3.210   3.764  1.1610  0.6787 -0.9365
 5313SOL     OW27571   3.368   0.173   7.766  0.0019  0.1703 -0.1143
 5313SOL    HW127572   3.327   0.086   7.770  2.1077 -0.7626  1.0086
 5313SOL    HW227573   3.391   0.194   7.856 -0.0623  0.3988 -0.1502
 5314SOL     OW27574   3.584   2.102   3.572  0.2231 -0.5368 -0.2153
 5314SOL    HW127575   3.513   2.166   3.570  1.1808  0.5974  2.1338
 5314SOL    HW227576   3.662   2.149   3.543 -0.4654  0.5333 -0.3375
 5315SOL     OW27577   1.559   4.335   5.778  0.4395 -0.0931 -0.5144
 5315SOL    HW127578   1.554   4.278   5.855 -1.2712  0.0092 -0.5621
 5315SOL    HW227579   1.645   4.373   5.795  0.1184  1.3654 -2.1368
 5316SOL     OW27580   2.158   0.069   2.968  0.4263 -0.0112 -0.1391
 5316SOL    HW127581   2.093   0.030   2.909  0.0576 -1.8923  1.4980
 5316SOL    HW227582   2.145   0.163   2.964  1.0710  0.0596 -0.6250
 5317SOL     OW27583   1.874   4.414   7.243 -0.2833  0.1061 -0.3032
 5317SOL    HW127584   1.935   4.464   7.298  0.2811  0.2269 -1.0315
 5317SOL    HW227585   1.796   4.468   7.252  1.0706  2.1068 -0.4376
 5318SOL     OW27586   3.732   2.751   1.202 -0.0088 -0.2931 -0.8078
 5318SOL    HW127587   3.713   2.725   1.292 -1.6208 -1.1699 -1.4007
 5318SOL    HW227588   3.826   2.767   1.208 -0.2998  0.2031  2.1757
 5319SOL     OW27589   2.057   2.734   4.340 -0.0438  0.0205 -0.4269
 5319SOL    HW127590   2.020   2.648   4.321 -0.3042  0.5330 -2.2646
 5319SOL    HW227591   2.071   2.780   4.257  0.8811  1.1408  0.3519
 5320SOL     OW27592   2.967   0.539   9.931 -0.5212 -0.1748  0.0669
 5320SOL    HW127593   3.019   0.528  10.011 -2.2758  0.9010  1.3455
 5320SOL    HW227594   3.020   0.607   9.889  0.3879 -0.3262  0.9802
 5321SOL     OW27595   2.398   4.082   6.769 -0.1144  0.0722  0.2704
 5321SOL    HW127596   2.463   4.018   6.741  1.2928  1.1193  1.1449
 5321SOL    HW227597   2.439   4.166   6.749  2.2464 -1.5123 -1.5253
 5322SOL     OW27598   4.222   4.151   8.951  0.4162  0.0591 -0.1338
 5322SOL    HW127599   4.155   4.217   8.928 -0.9620 -0.7857  1.4340
 5322SOL    HW227600   4.258   4.199   9.025 -2.2009 -1.0410  1.8585
 5323SOL     OW27601   2.215   3.374   5.926 -0.0858 -0.8193 -0.6851
 5323SOL    HW127602   2.249   3.288   5.901  1.5777 -0.1379 -0.7364
 5323SOL    HW227603   2.124   3.361   5.953  0.3870  1.2443  1.8289
 5324SOL     OW27604   1.037   3.469   8.704 -0.0389 -0.0233  0.1800
 5324SOL    HW127605   1.021   3.415   8.627  0.1174  0.0996  0.0618
 5324SOL    HW227606   0.946   3.493   8.722  1.0889  3.4349  1.2487
 5325SOL     OW27607   4.293   1.250   8.001  0.4906 -0.1017  0.0287
 5325SOL    HW127608   4.319   1.209   8.084 -0.7817 -2.6939 -0.8742
 5325SOL    HW227609   4.364   1.233   7.939  1.9739 -0.1260  1.7375
 5326SOL     OW27610   3.145   3.379   0.128  0.3033 -0.0790 -0.3575
 5326SOL    HW127611   3.068   3.430   0.154 -0.0979 -0.3439 -1.0457
 5326SOL    HW227612   3.214   3.442   0.109 -0.5674  1.5636  1.9165
 5327SOL     OW27613   0.511   0.549  14.381  0.2531  0.5149  0.3923
 5327SOL    HW127614   0.601   0.575  14.403  0.8603 -0.5204 -0.9150
 5327SOL    HW227615   0.483   0.633  14.344 -3.0869 -0.9118 -0.2788
 5328SOL     OW27616   2.081   3.638  11.081  0.6384 -0.5397 -0.1499
 5328SOL    HW127617   2.137   3.653  11.157 -0.1896  0.3979  0.2726
 5328SOL    HW227618   2.143   3.655  11.010 -2.7704  1.5917 -2.6098
 5329SOL     OW27619   3.306   3.108  11.230 -0.3680 -0.0196  0.2049
 5329SOL    HW127620   3.390   3.063  11.219 -0.1341  0.3315  0.5466
 5329SOL    HW227621   3.265   3.041  11.285 -1.8999 -0.1596 -1.0959
 5330SOL     OW27622   3.808   2.329   5.014 -0.3483 -0.7510  0.2155
 5330SOL    HW127623   3.891   2.355   4.976 -2.2584  0.1161 -3.3231
 5330SOL    HW227624   3.836   2.288   5.096  1.6041  0.2779  0.0601
 5331SOL     OW27625   1.762   3.899   3.664  0.0231  0.5662  0.0114
 5331SOL    HW127626   1.823   3.846   3.714 -0.5206  0.7853  0.8973
 5331SOL    HW227627   1.810   3.891   3.581 -1.4331  1.2106 -0.9131
 5332SOL     OW27628   3.276   0.654   6.232  0.0495  0.2113 -0.5421
 5332SOL    HW127629   3.288   0.644   6.138 -0.3705  0.5369 -0.6265
 5332SOL    HW227630   3.366   0.667   6.262  0.5026 -3.1612 -0.4491
 5333SOL     OW27631   1.322   3.872   6.212  0.4747 -0.4615 -0.6746
 5333SOL    HW127632   1.402   3.922   6.227 -0.0998  0.1868  0.1892
 5333SOL    HW227633   1.293   3.913   6.130  0.1319  1.1753  0.2719
 5334SOL     OW27634   1.888   1.197   1.525 -0.0571 -0.1898  0.7802
 5334SOL    HW127635   1.889   1.292   1.512  0.0093 -0.3020 -0.0280
 5334SOL    HW227636   1.918   1.168   1.439 -2.6233 -2.8298  0.7688
 5335SOL     OW27637   2.266   3.043   7.112 -0.1541 -0.1835  0.2000
 5335SOL    HW127638   2.319   3.119   7.136  0.3636  0.0878 -1.8077
 5335SOL    HW227639   2.183   3.083   7.086 -0.2736 -2.0036 -2.1903
 5336SOL     OW27640   1.130   4.171   8.459  0.5944  0.3596 -0.0546
 5336SOL    HW127641   1.137   4.132   8.546  1.0303 -1.6092 -0.9763
 5336SOL    HW227642   1.046   4.217   8.463 -0.8442 -1.9751 -3.3294
 5337SOL     OW27643   0.045   0.369  16.113 -0.2063 -0.2782  0.0337
 5337SOL    HW127644   0.026   0.275  16.110 -0.0249 -0.3796  2.1115
 5337SOL    HW227645   0.029   0.386  16.206  1.5522 -3.2409  0.9105
 5338SOL     OW27646   3.848   1.662   5.717  0.1369 -0.2306  0.3159
 5338SOL    HW127647   3.775   1.602   5.729  0.0232 -0.1701 -0.0735
 5338SOL    HW227648   3.795   1.741   5.706  1.0236 -0.0850 -2.8184
 5339SOL     OW27649   2.263   3.160   4.441  0.1613 -0.5811 -0.1958
 5339SOL    HW127650   2.343   3.110   4.455  1.0616  0.1155 -2.7425
 5339SOL    HW227651   2.294   3.243   4.476 -0.6641 -0.4939  0.3406
 5340SOL     OW27652   4.681   4.433   4.560 -0.6656  0.7119 -0.6113
 5340SOL    HW127653   4.702   4.497   4.492 -0.9839 -0.4108 -1.7670
 5340SOL    HW227654   4.609   4.488   4.591 -1.7711 -1.6854  1.1090
 5341SOL     OW27655   4.068   2.776   5.501  0.1856  0.2502  0.0683
 5341SOL    HW127656   4.052   2.689   5.464  1.6926  0.1278 -0.2702
 5341SOL    HW227657   4.043   2.754   5.591 -2.4887  2.1404 -0.2167
 5342SOL     OW27658   0.365   2.813  15.592 -0.6669 -0.1625 -0.5229
 5342SOL    HW127659   0.459   2.825  15.604 -0.6087 -0.1803 -0.9585
 5342SOL    HW227660   0.361   2.768  15.507 -1.2692 -1.2735  0.0889
 5343SOL     OW27661   2.147   4.530   6.005  0.2530  0.2744 -0.2760
 5343SOL    HW127662   2.195   4.606   6.037  1.9144  0.2454 -2.6810
 5343SOL    HW227663   2.089   4.568   5.939 -1.4201  0.0774  1.0569
 5344SOL     OW27664   3.071   2.514   2.293  0.3475  0.7777  0.4897
 5344SOL    HW127665   3.067   2.546   2.383  1.0068 -1.0212  1.1663
 5344SOL    HW227666   2.980   2.488   2.284  0.0613  1.8485  0.3855
 5345SOL     OW27667   2.780   0.969   5.831  0.1326  0.8781 -0.6511
 5345SOL    HW127668   2.781   1.064   5.828  0.8326  0.8982  0.1502
 5345SOL    HW227669   2.688   0.950   5.848  0.5055  0.3998  0.8542
 5346SOL     OW27670   0.848   4.229   4.937 -0.6316  1.0230 -0.5445
 5346SOL    HW127671   0.786   4.283   4.888 -1.7184 -0.3314 -0.6634
 5346SOL    HW227672   0.807   4.227   5.023  1.0992  0.3706  0.2730
 5347SOL     OW27673   2.607   2.666   2.683  0.5231 -0.0512 -0.1815
 5347SOL    HW127674   2.561   2.626   2.609  0.3174 -0.0524 -0.0527
 5347SOL    HW227675   2.631   2.749   2.642 -0.8462  0.5694  0.2674
 5348SOL     OW27676   4.517   4.241   6.434 -0.1622 -0.0105 -0.0915
 5348SOL    HW127677   4.529   4.146   6.440 -1.6845 -0.1392  0.9665
 5348SOL    HW227678   4.427   4.256   6.463 -0.0427  0.1131  0.2098
 5349SOL     OW27679   2.179   1.763   7.756 -0.0752  0.3884  0.1999
 5349SOL    HW127680   2.223   1.680   7.737 -1.3910 -0.1326 -0.5172
 5349SOL    HW227681   2.157   1.779   7.664 -1.8243 -0.5463  0.4631
 5350SOL     OW27682   0.278   1.337   5.501  0.3383  0.1576 -0.8966
 5350SOL    HW127683   0.287   1.244   5.479 -1.2618 -0.1252 -0.3164
 5350SOL    HW227684   0.328   1.375   5.428  0.8723  0.7551 -0.2215
 5351SOL     OW27685   3.225   0.271   3.531  0.0991 -0.2102 -0.0994
 5351SOL    HW127686   3.225   0.339   3.463 -0.2134 -2.0539 -1.9527
 5351SOL    HW227687   3.205   0.325   3.607 -0.6714  0.2569 -0.6367
 5352SOL     OW27688   3.482   2.287   4.464  0.4148  0.2304 -0.0217
 5352SOL    HW127689   3.446   2.254   4.547 -1.5966  0.0081 -0.9871
 5352SOL    HW227690   3.538   2.361   4.487  1.5465  0.1831 -2.6586
 5353SOL     OW27691   3.732   1.224  10.091 -0.2516  0.1862 -0.6335
 5353SOL    HW127692   3.757   1.300  10.143  0.0491 -0.0181 -0.4787
 5353SOL    HW227693   3.766   1.239  10.002  0.7615 -1.0511 -0.4599
 5354SOL     OW27694   1.478   2.490  14.554 -1.0259 -0.0398 -0.0893
 5354SOL    HW127695   1.392   2.449  14.564 -1.0274  0.0457  0.2527
 5354SOL    HW227696   1.449   2.582  14.557 -0.5797  0.1135 -0.4594
 5355SOL     OW27697   3.729   2.231   3.950  0.0388  0.0659  0.0138
 5355SOL    HW127698   3.824   2.243   3.949 -0.0457  0.8020  2.3958
 5355SOL    HW227699   3.720   2.144   3.911  1.4825 -0.1896  0.2329
 5356SOL     OW27700   1.533   2.817   1.864 -0.0309 -0.2271 -0.0054
 5356SOL    HW127701   1.559   2.728   1.840 -0.6982 -0.2370 -0.6981
 5356SOL    HW227702   1.477   2.844   1.791 -2.6063 -1.3325  1.5810
 5357SOL     OW27703   1.163   0.472   3.546 -0.7806 -0.2698 -0.2830
 5357SOL    HW127704   1.198   0.401   3.492 -0.5333 -0.9924  0.8334
 5357SOL    HW227705   1.156   0.541   3.480 -0.3374  0.8899  0.8794
 5358SOL     OW27706   0.808   0.296   9.493 -0.5706  0.3910 -0.2387
 5358SOL    HW127707   0.903   0.292   9.502 -0.5641  2.9219  0.7051
 5358SOL    HW227708   0.783   0.223   9.549 -0.0769  1.0392  0.8276
 5359SOL     OW27709   1.337   2.796   9.021 -0.2641  0.6451 -0.0080
 5359SOL    HW127710   1.393   2.857   9.069 -1.1454  2.1049 -0.8233
 5359SOL    HW227711   1.262   2.783   9.080 -0.7455  2.9571 -0.1066
 5360SOL     OW27712   1.774   1.292   2.404 -0.0966  0.0939  0.6493
 5360SOL    HW127713   1.803   1.302   2.494  1.3825 -1.4341  0.3514
 5360SOL    HW227714   1.798   1.199   2.396 -1.3397 -0.0665 -1.1654
 5361SOL     OW27715   1.492   1.429   2.127 -0.2025  0.0511 -0.2552
 5361SOL    HW127716   1.418   1.486   2.106  0.3656 -0.0753 -2.5608
 5361SOL    HW227717   1.484   1.364   2.057  0.7911  0.7556 -1.0195
 5362SOL     OW27718   0.795   4.651  11.256  0.8783  0.6608  0.6001
 5362SOL    HW127719   0.710   4.658  11.300  0.5891  1.4684 -0.0775
 5362SOL    HW227720   0.826   4.567  11.291 -1.0830 -1.4708 -2.7933
 5363SOL     OW27721   1.567   0.910   2.584 -0.2933  0.3270 -0.7872
 5363SOL    HW127722   1.472   0.908   2.597 -0.2279  0.0370 -0.3632
 5363SOL    HW227723   1.582   0.817   2.597 -0.4686  0.2736 -0.9581
 5364SOL     OW27724   3.778   4.582   3.570  0.1217  0.4032 -0.2429
 5364SOL    HW127725   3.839   4.612   3.503  1.0465  0.1566  0.4802
 5364SOL    HW227726   3.800   4.489   3.578  5.0686  1.5157 -1.0362
 5365SOL     OW27727   4.049   0.000  15.101 -0.1911  0.3866 -0.3645
 5365SOL    HW127728   4.011   0.087  15.083  0.6360  1.2285  1.9635
 5365SOL    HW227729   4.104   4.730  15.024 -2.2370  0.0375 -1.7555
 5366SOL     OW27730   0.885   4.531  10.306 -0.1629  0.2528 -0.1823
 5366SOL    HW127731   0.877   4.436  10.294  2.3571  0.0949 -0.5594
 5366SOL    HW227732   0.793   4.559  10.309 -0.4548 -0.3897 -3.6503
 5367SOL     OW27733   1.407   3.650   8.307 -0.1011 -0.2800 -0.2473
 5367SOL    HW127734   1.420   3.703   8.386  4.9770 -1.7639 -0.0374
 5367SOL    HW227735   1.348   3.585   8.342  0.2563 -0.9531 -0.8886
 5368SOL     OW27736   3.167   2.182   7.765 -0.5124  0.1177 -0.0689
 5368SOL    HW127737   3.204   2.156   7.850  1.7823  0.0978 -1.0636
 5368SOL    HW227738   3.073   2.185   7.783 -0.0987 -0.4438  2.2089
 5369SOL     OW27739   3.662   4.297  13.422  0.3862 -0.5680 -0.1044
 5369SOL    HW127740   3.701   4.209  13.416  2.2953  0.3181 -0.5917
 5369SOL    HW227741   3.727   4.341  13.476 -1.2771  0.6588  0.8988
 5370SOL     OW27742   2.316   3.144   8.937  0.1998  0.3313 -0.5783
 5370SOL    HW127743   2.265   3.202   8.881  1.9333  2.2887 -0.1383
 5370SOL    HW227744   2.341   3.074   8.877  0.0925  1.1931 -1.6260
 5371SOL     OW27745   2.041   3.270   8.917  0.1923 -0.0751  0.8966
 5371SOL    HW127746   2.090   3.332   8.970  0.6890  0.1834  0.1378
 5371SOL    HW227747   1.957   3.275   8.962  0.4414  0.2688  1.3096
 5372SOL     OW27748   0.878   4.147   6.745 -0.2096  0.0111 -0.4248
 5372SOL    HW127749   0.851   4.139   6.837  1.3625  0.7567  0.1063
 5372SOL    HW227750   0.802   4.200   6.719 -0.2492  0.6562  0.9798
 5373SOL     OW27751   0.490   1.473   2.522  0.1711 -0.0565 -0.5843
 5373SOL    HW127752   0.487   1.506   2.433 -2.5228  0.1776 -0.4277
 5373SOL    HW227753   0.551   1.399   2.523 -1.7212 -1.6309 -1.6512
 5374SOL     OW27754   2.780   0.033  13.843 -0.1372 -0.0893  0.1937
 5374SOL    HW127755   2.728   4.739  13.772  1.0231  1.3367 -1.3998
 5374SOL    HW227756   2.726   0.001  13.914  1.2029 -0.9539  0.8231
 5375SOL     OW27757   1.175   2.025   2.913 -0.2688 -0.4097  0.9878
 5375SOL    HW127758   1.093   2.044   2.959  0.8355 -0.1312  2.8705
 5375SOL    HW227759   1.225   2.041   2.993  0.3362 -0.1181  0.5504
 5376SOL     OW27760   2.795   3.264   6.083 -0.8107 -0.4953 -0.1842
 5376SOL    HW127761   2.881   3.298   6.108 -1.3905  0.9599 -0.1836
 5376SOL    HW227762   2.777   3.215   6.164 -1.2649  1.2559  0.7708
 5377SOL     OW27763   4.286   1.496   8.093  0.0293 -0.2930  0.3919
 5377SOL    HW127764   4.282   1.401   8.085  0.9438 -0.2916 -0.0722
 5377SOL    HW227765   4.382   1.500   8.101  0.1999 -0.0593 -1.8124
 5378SOL     OW27766   2.363   1.227   7.865  0.0001 -0.5419 -0.3223
 5378SOL    HW127767   2.433   1.210   7.928  1.2040 -1.6412 -1.9651
 5378SOL    HW227768   2.397   1.193   7.782  1.6563  0.2676  0.0214
 5379SOL     OW27769   0.822   1.983   4.631  0.1591 -0.0136  0.1050
 5379SOL    HW127770   0.755   2.036   4.588 -0.2317  0.2333  1.0332
 5379SOL    HW227771   0.783   1.949   4.711  1.1477 -1.7470 -0.1365
 5380SOL     OW27772   3.281   0.933   2.374  0.2015 -0.4551 -0.7627
 5380SOL    HW127773   3.231   1.007   2.407  1.4494 -0.5438  1.3441
 5380SOL    HW227774   3.341   0.914   2.446 -0.6505  0.3054  0.1458
 5381SOL     OW27775   0.309   0.434   5.164 -0.0203 -0.4433 -0.4010
 5381SOL    HW127776   0.327   0.449   5.257  1.2053 -0.7796 -0.5811
 5381SOL    HW227777   0.378   0.370   5.144 -1.4815 -1.3947 -2.4023
 5382SOL     OW27778   4.534   1.953   0.287  0.0825  0.1316 -0.7429
 5382SOL    HW127779   4.440   1.965   0.294  0.0018 -0.8246 -0.1661
 5382SOL    HW227780   4.543   1.972   0.194 -1.0339  1.5495 -0.5576
 5383SOL     OW27781   0.900   1.127   3.941  0.5827  0.1986 -0.4639
 5383SOL    HW127782   0.936   1.177   3.867  0.5133  1.7184  0.5338
 5383SOL    HW227783   0.965   1.134   4.011  0.3709 -1.0605 -0.1511
 5384SOL     OW27784   2.887   2.580  15.808  0.8736 -0.0749  0.4452
 5384SOL    HW127785   2.797   2.601  15.834  1.3924 -0.9614  2.9528
 5384SOL    HW227786   2.876   2.554  15.716 -2.6821 -0.1319  0.8978
 5385SOL     OW27787   1.858   4.643   3.287 -0.2979  0.1996  0.5713
 5385SOL    HW127788   1.941   4.635   3.333  0.9223  3.2387 -1.0533
 5385SOL    HW227789   1.807   4.576   3.333  0.3659 -1.6619 -1.4103
 5386SOL     OW27790   3.574   0.255  10.553 -0.4090 -0.6537  0.7290
 5386SOL    HW127791   3.532   0.229  10.472  0.3046  0.3591  0.0283
 5386SOL    HW227792   3.536   0.199  10.621 -0.9530 -2.2206 -0.8665
 5387SOL     OW27793   2.352   0.241   6.817 -0.6707 -0.0961  0.3230
 5387SOL    HW127794   2.341   0.314   6.756  1.6921  1.0675  1.2895
 5387SOL    HW227795   2.334   0.284   6.901 -0.0070 -2.2559  1.5838
 5388SOL     OW27796   2.506   3.599   3.265 -0.3664 -0.6188  0.0656
 5388SOL    HW127797   2.456   3.542   3.207 -1.4569  0.2915  0.1255
 5388SOL    HW227798   2.595   3.593   3.229 -1.0922 -0.3373 -1.7240
 5389SOL     OW27799   4.467   4.344   8.812 -0.1171 -0.1496  0.1725
 5389SOL    HW127800   4.482   4.287   8.888 -1.1085 -0.0020  0.4723
 5389SOL    HW227801   4.555   4.377   8.791 -0.9993  1.8377 -0.3953
 5390SOL     OW27802   4.440   1.578  10.312  0.9590 -0.1426  0.0785
 5390SOL    HW127803   4.402   1.640  10.374  0.4357  0.4244 -0.8222
 5390SOL    HW227804   4.494   1.526  10.373 -0.4503 -2.4060 -0.6044
 5391SOL     OW27805   0.730   0.499   8.089  0.0366 -0.1475 -0.4184
 5391SOL    HW127806   0.801   0.475   8.030  0.3261 -1.1542  0.3549
 5391SOL    HW227807   0.716   0.416   8.134  2.0833 -1.4478 -2.2272
 5392SOL     OW27808   2.954   2.684   5.129 -0.6733  0.0361 -0.1598
 5392SOL    HW127809   2.953   2.778   5.113  1.9818 -0.2468 -2.0424
 5392SOL    HW227810   2.863   2.669   5.157 -1.2936  2.1795 -1.0327
 5393SOL     OW27811   0.651   0.208   2.191  0.5012 -0.3920  0.2940
 5393SOL    HW127812   0.645   0.167   2.105 -1.1795  2.5703 -1.0154
 5393SOL    HW227813   0.586   0.164   2.247 -1.0030  0.7093 -0.5792
 5394SOL     OW27814   3.800   3.226   2.612 -0.3641  0.1045  0.5583
 5394SOL    HW127815   3.755   3.150   2.576 -0.3524  1.7743 -3.0248
 5394SOL    HW227816   3.822   3.277   2.534  1.4046 -2.5208 -0.6709
 5395SOL     OW27817   3.359   1.930   2.887 -0.3737  0.1178 -0.1525
 5395SOL    HW127818   3.390   1.997   2.947  1.9610 -0.6069 -0.5426
 5395SOL    HW227819   3.294   1.887   2.942 -0.6151  2.8196  1.6292
 5396SOL     OW27820   4.598   3.792  11.557  0.9608 -0.6468 -0.3233
 5396SOL    HW127821   4.514   3.808  11.515  0.9287 -0.4998 -0.2015
 5396SOL    HW227822   4.569   3.740  11.632  0.9005  1.3945  1.0956
 5397SOL     OW27823   2.984   4.234  15.728  0.2888  0.3650 -0.5584
 5397SOL    HW127824   3.050   4.194  15.785 -0.5118  0.4892  0.4587
 5397SOL    HW227825   3.027   4.317  15.709 -0.6958  0.5369 -2.0740
 5398SOL     OW27826   2.249   2.624   1.492  0.0992 -1.1854  0.2991
 5398SOL    HW127827   2.154   2.641   1.492  0.3348  0.0989  0.6649
 5398SOL    HW227828   2.287   2.711   1.490 -0.3056 -1.0341 -0.5887
 5399SOL     OW27829   4.544   3.811   2.043  0.0439 -0.1855 -0.5014
 5399SOL    HW127830   4.598   3.885   2.071  0.8492 -1.9067  2.4925
 5399SOL    HW227831   4.525   3.828   1.951 -1.0389  1.3356  0.0046
 5400SOL     OW27832   3.815   2.529  14.616  0.5132 -0.4101 -0.1470
 5400SOL    HW127833   3.911   2.522  14.614  0.4306 -1.0956 -1.9349
 5400SOL    HW227834   3.789   2.437  14.624  1.4920 -0.8010 -1.3310
 5401SOL     OW27835   2.212   4.537  16.563 -0.3457 -0.7642  0.7042
 5401SOL    HW127836   2.239   4.449  16.536  0.1278 -0.9815  1.8759
 5401SOL    HW227837   2.129   4.512  16.603 -0.3394 -0.9431  0.6076
 5402SOL     OW27838   0.072   4.705   2.916  0.0750  0.3253  0.3587
 5402SOL    HW127839   0.164   4.712   2.891 -0.0632  0.3428 -0.1423
 5402SOL    HW227840   0.049   0.055   2.902 -1.8297 -0.5575 -2.2259
 5403SOL     OW27841   2.481   1.262  12.860 -0.3185  0.6872 -0.1204
 5403SOL    HW127842   2.396   1.301  12.838 -0.3106  0.8685  0.1661
 5403SOL    HW227843   2.483   1.254  12.956  0.4867 -0.9901 -0.2837
 5404SOL     OW27844   2.189   2.168   1.602  0.1470 -0.2923  0.1132
 5404SOL    HW127845   2.279   2.147   1.625 -1.1302 -3.3404  2.2767
 5404SOL    HW227846   2.151   2.081   1.614 -2.1326  0.7063  0.0941
 5405SOL     OW27847   1.859   0.395   4.832 -0.0881  0.0660 -0.4778
 5405SOL    HW127848   1.828   0.334   4.899  0.9431  0.7256  0.6148
 5405SOL    HW227849   1.924   0.450   4.877 -0.5929  0.6512 -0.4588
 5406SOL     OW27850   1.534   0.641  10.028 -0.1008 -0.1258  0.2267
 5406SOL    HW127851   1.491   0.725  10.043  0.5665  0.2951 -0.1743
 5406SOL    HW227852   1.498   0.592  10.102 -0.8358  1.2422  0.7744
 5407SOL     OW27853   4.469   1.766   6.477  0.6090  0.4343 -0.3818
 5407SOL    HW127854   4.490   1.677   6.503 -0.0198  0.0229 -1.2468
 5407SOL    HW227855   4.495   1.774   6.385 -2.1686 -0.0959 -1.2275
 5408SOL     OW27856   2.076   4.715   3.458 -0.4464 -0.1773  0.5398
 5408SOL    HW127857   2.151   0.012   3.413 -2.2670 -0.1457 -2.4614
 5408SOL    HW227858   2.119   4.681   3.537 -0.0555  0.6521  0.6817
 5409SOL     OW27859   3.725   3.774   7.424  0.6168 -0.0487 -0.6609
 5409SOL    HW127860   3.787   3.762   7.496  1.3831 -0.6361 -1.4183
 5409SOL    HW227861   3.691   3.685   7.415  0.7809 -0.2698  0.8295
 5410SOL     OW27862   1.411   1.907   5.540  0.1236  0.4679 -0.3619
 5410SOL    HW127863   1.507   1.902   5.537 -0.0329 -2.2781 -1.1289
 5410SOL    HW227864   1.390   1.871   5.626  0.3598  1.8514  0.2743
 5411SOL     OW27865   0.018   3.067   5.846  0.5417  0.2694 -0.6909
 5411SOL    HW127866   0.034   3.032   5.758 -0.0978  0.2555 -0.8036
 5411SOL    HW227867   0.110   3.078   5.871  0.2368 -0.4798  0.7828
 5412SOL     OW27868   1.076   3.761   9.333  0.3941 -0.5924 -0.1304
 5412SOL    HW127869   1.109   3.680   9.294  2.0554  0.1180 -0.1873
 5412SOL    HW227870   1.146   3.788   9.392 -1.2766  2.4212  0.4902
 5413SOL     OW27871   3.690   3.305   3.945  0.2747  0.1796 -0.5126
 5413SOL    HW127872   3.709   3.212   3.958 -0.5712 -0.1401 -1.6244
 5413SOL    HW227873   3.598   3.307   3.969  0.1538 -1.7779 -0.8232
 5414SOL     OW27874   0.963   3.806  13.961 -0.4138 -0.5034  0.4207
 5414SOL    HW127875   0.943   3.853  13.880  2.7671 -0.2786 -0.2357
 5414SOL    HW227876   0.896   3.840  14.021  0.8311 -1.7988  2.5412
 5415SOL     OW27877   1.960   0.909  14.388 -0.1436  0.1657  0.3541
 5415SOL    HW127878   1.959   0.958  14.306  2.4682 -1.8032 -0.8594
 5415SOL    HW227879   1.872   0.923  14.424  0.1678  2.1133  0.3546
 5416SOL     OW27880   4.406   4.521  17.040  0.8113  0.5422 -0.4985
 5416SOL    HW127881   4.425   4.462  16.968 -1.8447  0.8317 -1.4206
 5416SOL    HW227882   4.371   4.588  16.982 -1.4904  0.2425  0.5401
 5417SOL     OW27883   1.819   1.440   0.623 -0.2273  0.1236 -0.5662
 5417SOL    HW127884   1.870   1.364   0.598  0.9374  0.6883  0.1027
 5417SOL    HW227885   1.730   1.407   0.609 -0.3902 -0.4768  1.7869
 5418SOL     OW27886   2.959   0.110  16.549  0.0469  0.0995  0.7525
 5418SOL    HW127887   2.921   0.122  16.636  0.2867  0.1219  0.8549
 5418SOL    HW227888   3.046   0.073  16.562  0.5569  1.3394  0.8577
 5419SOL     OW27889   1.413   2.448   5.974  0.1962  0.0633 -0.3932
 5419SOL    HW127890   1.467   2.408   6.042 -3.0022 -1.1260  1.4390
 5419SOL    HW227891   1.434   2.398   5.895  0.0048 -1.7378  0.7125
 5420SOL     OW27892   2.391   0.598   1.728  0.7402 -0.1347  0.0698
 5420SOL    HW127893   2.453   0.650   1.677  0.4752 -0.6043 -0.7349
 5420SOL    HW227894   2.322   0.660   1.752  0.6572 -0.0652 -0.3449
 5421SOL     OW27895   2.472   4.712  15.581  0.0785  0.6426 -0.3077
 5421SOL    HW127896   2.445   4.622  15.562 -0.0622  0.6820 -0.2917
 5421SOL    HW227897   2.414   4.737  15.653  0.3117 -1.3197  0.5523
 5422SOL     OW27898   1.117   1.348   2.516  0.8052 -0.3579  0.6363
 5422SOL    HW127899   1.136   1.420   2.575 -1.0728  2.6814 -2.4652
 5422SOL    HW227900   1.200   1.301   2.515  0.6126 -0.6913  0.0612
 5423SOL     OW27901   1.313   3.380  10.069  0.4196 -0.5656  0.6229
 5423SOL    HW127902   1.406   3.394  10.048  0.1416 -0.9860 -0.8763
 5423SOL    HW227903   1.272   3.414   9.989  0.9608 -0.9643  0.1710
 5424SOL     OW27904   3.757   1.210   7.473  0.0015  0.0513 -0.0574
 5424SOL    HW127905   3.843   1.249   7.464 -0.7582  2.0304  1.3448
 5424SOL    HW227906   3.694   1.279   7.451 -1.5090 -1.1298  0.5088
 5425SOL     OW27907   3.930   3.131  10.404  0.1561  0.0940  0.5147
 5425SOL    HW127908   3.951   3.202  10.463  0.2328 -0.1557  0.7890
 5425SOL    HW227909   3.969   3.059  10.454 -0.7813 -1.0025 -0.3300
 5426SOL     OW27910   0.162   1.590   9.241  0.0197 -0.4704 -0.1356
 5426SOL    HW127911   0.150   1.590   9.146  1.5763  0.0680 -0.3323
 5426SOL    HW227912   0.127   1.677   9.264 -2.1091 -0.7316 -2.3871
 5427SOL     OW27913   2.723   4.463   6.423 -0.4347 -0.2717 -0.0589
 5427SOL    HW127914   2.728   4.516   6.344  0.6498  0.2392  0.3522
 5427SOL    HW227915   2.633   4.481   6.450 -0.7977 -2.1475  0.0042
 5428SOL     OW27916   4.728   4.335   5.348  0.2342 -0.3667 -0.1119
 5428SOL    HW127917   0.053   4.298   5.406  1.9162  2.6632 -0.0523
 5428SOL    HW227918   4.720   4.426   5.379  0.6676 -0.3183 -0.1383
 5429SOL     OW27919   2.251   2.867   2.842 -0.5651  0.3380 -0.5612
 5429SOL    HW127920   2.346   2.858   2.849 -0.8765 -2.6016 -0.3810
 5429SOL    HW227921   2.250   2.958   2.872  1.2380 -0.9342  3.3310
 5430SOL     OW27922   4.285   1.933   3.106  0.2808 -0.0504 -0.4308
 5430SOL    HW127923   4.229   1.870   3.151 -0.9568  1.4738  0.1878
 5430SOL    HW227924   4.329   1.971   3.183  1.3104  0.4127 -1.2527
 5431SOL     OW27925   4.520   2.031  17.757 -0.1170  0.0381 -0.0498
 5431SOL    HW127926   4.603   2.031  17.709  0.3283 -3.0788  0.7334
 5431SOL    HW227927   4.466   2.103  17.725 -1.5521 -0.1290  1.9705
 5432SOL     OW27928   1.429   1.447   6.802  0.0315 -0.6395  0.2402
 5432SOL    HW127929   1.464   1.358   6.795 -2.1030 -1.3761 -0.8621
 5432SOL    HW227930   1.433   1.464   6.896 -2.2958 -2.5154  0.6680
 5433SOL     OW27931   0.531   1.467  14.615  0.4647 -0.5586 -0.6460
 5433SOL    HW127932   0.545   1.416  14.535  0.5038  0.9220 -1.5792
 5433SOL    HW227933   0.608   1.439  14.664 -1.4797 -1.1498  2.0421
 5434SOL     OW27934   0.060   2.923   5.618  0.2492  0.0727  0.2068
 5434SOL    HW127935   0.021   2.872   5.546  0.4871  1.1562 -0.6870
 5434SOL    HW227936   0.125   2.856   5.638  2.6627  1.7998 -1.9405
 5435SOL     OW27937   3.243   1.651  10.036  0.2396 -0.2016 -0.0390
 5435SOL    HW127938   3.334   1.645  10.005  0.4915  0.8945  0.4811
 5435SOL    HW227939   3.213   1.710   9.967 -1.3681  0.8705  1.5843
 5436SOL     OW27940   4.009   2.030   6.568 -0.3118  0.7339 -0.4886
 5436SOL    HW127941   3.945   2.004   6.502 -2.7686  4.0467  0.5683
 5436SOL    HW227942   4.075   1.965   6.547 -0.3767  0.9029 -1.2070
 5437SOL     OW27943   3.705   2.453   6.829  0.0134  0.5560 -0.0155
 5437SOL    HW127944   3.710   2.540   6.789 -0.2976  1.2518  1.4773
 5437SOL    HW227945   3.612   2.433   6.827 -0.2940  1.8644  1.7014
 5438SOL     OW27946   1.342   0.764   9.855  0.2350 -0.1886  0.6433
 5438SOL    HW127947   1.360   0.836   9.916 -2.4995  1.0254 -0.0129
 5438SOL    HW227948   1.387   0.802   9.780 -1.7253  0.8274 -0.0169
 5439SOL     OW27949   3.135   1.631   5.510  0.7976 -0.3095 -0.2659
 5439SOL    HW127950   3.114   1.538   5.520  0.4276 -0.1590  0.3461
 5439SOL    HW227951   3.174   1.650   5.595  2.7090  3.1573 -1.8854
 5440SOL     OW27952   4.466   2.136   0.588  0.4436 -0.0135 -0.0131
 5440SOL    HW127953   4.393   2.181   0.545  1.9771  0.2746 -2.3046
 5440SOL    HW227954   4.460   2.056   0.535  0.1304  0.7590 -1.1457
 5441SOL     OW27955   2.112   2.417   9.374 -0.1931 -0.3322  0.0236
 5441SOL    HW127956   2.061   2.363   9.314 -2.8343 -2.0350  3.7884
 5441SOL    HW227957   2.091   2.364   9.451  2.9802 -1.6113  0.0101
 5442SOL     OW27958   2.054   0.546   1.109  0.3725  0.0039 -0.0222
 5442SOL    HW127959   2.109   0.468   1.109 -0.3297 -0.4872  0.9635
 5442SOL    HW227960   1.969   0.504   1.093  1.5357 -1.7577 -1.4686
 5443SOL     OW27961   1.970   0.306   8.116 -0.3263  0.2066 -0.5975
 5443SOL    HW127962   1.895   0.311   8.056 -1.3513  0.6175  0.7260
 5443SOL    HW227963   1.988   0.213   8.127  1.3807  0.6474  0.3171
 5444SOL     OW27964   0.587   2.512   7.505 -0.3999  0.0521 -0.0453
 5444SOL    HW127965   0.569   2.600   7.472  0.0689  0.8541  1.8622
 5444SOL    HW227966   0.618   2.535   7.592 -1.4630  0.0075  0.3548
 5445SOL     OW27967   3.276   1.817   5.265 -0.4125  0.0942 -0.6146
 5445SOL    HW127968   3.313   1.731   5.282  2.2144  1.5839  1.3315
 5445SOL    HW227969   3.199   1.786   5.219  0.1915 -0.7853 -1.0232
 5446SOL     OW27970   1.430   2.393   2.664  0.4938  0.0979  0.4486
 5446SOL    HW127971   1.473   2.475   2.688  1.5570 -0.1696 -0.5341
 5446SOL    HW227972   1.503   2.330   2.671  0.7588  0.3467 -0.1284
 5447SOL     OW27973   0.241   0.185   9.936 -0.4884  0.2400 -0.2962
 5447SOL    HW127974   0.327   0.215   9.905 -0.3859  0.8541  0.5854
 5447SOL    HW227975   0.238   0.242  10.013 -0.3486 -0.3056  0.1126
 5448SOL     OW27976   2.623   0.039   2.704 -0.0044 -0.4659  0.3498
 5448SOL    HW127977   2.565   0.087   2.644 -2.4531 -1.6025  1.7937
 5448SOL    HW227978   2.559   0.008   2.768  1.2131 -0.8282  1.3777
 5449SOL     OW27979   2.591   1.025   1.500 -0.6305 -0.0394  0.0502
 5449SOL    HW127980   2.585   0.962   1.572 -2.6709  1.6166  1.3254
 5449SOL    HW227981   2.682   1.052   1.510 -0.2846 -0.9662 -0.5716
 5450SOL     OW27982   0.023   3.828   4.373 -0.3104  1.0579  0.1496
 5450SOL    HW127983   4.692   3.847   4.314 -0.7680 -0.1225  0.3268
 5450SOL    HW227984   0.095   3.853   4.315 -0.5873 -2.0008 -1.4767
 5451SOL     OW27985   1.223   4.112  10.860  0.0825  0.5799  0.1204
 5451SOL    HW127986   1.232   4.109  10.765 -1.5804 -1.3711  0.0146
 5451SOL    HW227987   1.257   4.023  10.877  0.2097  1.0298  2.2659
 5452SOL     OW27988   1.997   0.144   5.218 -0.0222 -0.2017  0.5388
 5452SOL    HW127989   1.926   0.174   5.162  2.1538  0.7870 -1.6880
 5452SOL    HW227990   2.078   0.182   5.184  1.2848  1.0268  4.9410
 5453SOL     OW27991   0.799   3.067   5.486  0.0448 -0.5665 -0.3211
 5453SOL    HW127992   0.757   3.044   5.402  3.3502  1.2629 -2.4496
 5453SOL    HW227993   0.891   3.073   5.462  0.3374  2.5571  1.6516
 5454SOL     OW27994   3.715   2.476   8.067 -0.2064 -0.3429 -0.6768
 5454SOL    HW127995   3.649   2.497   8.002 -1.6955 -0.9459  0.6502
 5454SOL    HW227996   3.761   2.404   8.022  0.9993  0.7342 -1.1612
 5455SOL     OW27997   3.903   1.614  16.782 -1.2164 -0.0324  0.1921
 5455SOL    HW127998   3.960   1.593  16.857  3.3320 -0.6063 -3.4529
 5455SOL    HW227999   3.841   1.672  16.826  1.1996  0.6986  2.6794
 5456SOL     OW28000   2.998   3.248   5.660  0.2624  0.3284  0.0781
 5456SOL    HW128001   2.994   3.163   5.706  1.8268  0.6044  0.7425
 5456SOL    HW228002   3.092   3.264   5.663  0.4284 -0.3914 -1.4914
 5457SOL     OW28003   1.802   3.299  11.333 -0.1077 -0.1022  0.7439
 5457SOL    HW128004   1.886   3.259  11.308 -0.9635 -1.0183 -0.6133
 5457SOL    HW228005   1.813   3.391  11.309  1.4318 -0.8683 -1.5403
 5458SOL     OW28006   1.456   0.322  12.204 -0.0629 -0.0521  0.8276
 5458SOL    HW128007   1.450   0.411  12.241 -0.0584  0.7826 -1.2165
 5458SOL    HW228008   1.544   0.312  12.170  0.0574 -0.9618  1.4046
 5459SOL     OW28009   4.106   1.259  17.566  0.0731  0.3965 -0.0669
 5459SOL    HW128010   4.012   1.251  17.550  0.5821 -1.6783 -1.9756
 5459SOL    HW228011   4.110   1.275  17.661  1.0451  0.3285 -0.0949
 5460SOL     OW28012   3.241   3.804   3.585 -0.4455 -0.1976  0.2565
 5460SOL    HW128013   3.185   3.842   3.653  0.9178 -1.1381  1.9000
 5460SOL    HW228014   3.233   3.879   3.526  0.5562  0.7686  1.3742
 5461SOL     OW28015   3.940   0.852  11.591 -0.2379  0.0348 -0.2147
 5461SOL    HW128016   3.879   0.840  11.518 -1.0144  1.8568  0.1406
 5461SOL    HW228017   4.021   0.825  11.547  0.8002 -0.6606  2.1226
 5462SOL     OW28018   1.435   1.641   4.902 -0.3179 -0.2622 -0.3517
 5462SOL    HW128019   1.348   1.611   4.876 -1.0326  0.9939  0.5911
 5462SOL    HW228020   1.470   1.570   4.956  1.2083  2.3000  2.0291
 5463SOL     OW28021   4.062   1.727   2.237 -0.2261 -0.0076 -0.1896
 5463SOL    HW128022   4.048   1.822   2.241 -1.4760 -0.0337 -4.4264
 5463SOL    HW228023   4.024   1.708   2.323 -1.6070  1.3559 -0.4928
 5464SOL     OW28024   3.449   4.335   4.868  1.0188 -0.3855  0.0831
 5464SOL    HW128025   3.502   4.372   4.939 -0.8359  0.7089  0.9079
 5464SOL    HW228026   3.380   4.297   4.923  0.9413 -1.4543 -0.7586
 5465SOL     OW28027   0.853   1.733   7.391 -0.0296 -0.1113 -0.8072
 5465SOL    HW128028   0.886   1.809   7.342 -0.1543  0.7057  0.3856
 5465SOL    HW228029   0.917   1.732   7.462 -0.9602 -1.7942  0.0029
 5466SOL     OW28030   0.352   3.605   3.498 -0.0223 -0.5486  0.1369
 5466SOL    HW128031   0.437   3.649   3.498 -1.4034  2.0744  0.2233
 5466SOL    HW228032   0.368   3.534   3.562 -0.5821 -1.1792 -0.4256
 5467SOL     OW28033   0.176   4.054   7.929  0.4387 -0.3927  0.1770
 5467SOL    HW128034   0.114   4.070   8.001 -1.8115 -0.1640 -1.8189
 5467SOL    HW228035   0.209   4.143   7.932  0.7369 -0.5066  0.3060
 5468SOL     OW28036   2.195   0.135   7.504 -0.6539 -0.0970 -0.1626
 5468SOL    HW128037   2.137   0.071   7.464 -2.8910  2.2585 -0.6457
 5468SOL    HW228038   2.259   0.164   7.439 -0.9412  2.7068  0.7967
 5469SOL     OW28039   0.135   0.149   6.796 -0.4243 -0.1680 -0.4344
 5469SOL    HW128040   0.055   0.197   6.817 -0.4600 -0.9284  1.1125
 5469SOL    HW228041   0.109   0.057   6.793  0.3171 -0.3200 -2.9653
 5470SOL     OW28042   2.639   1.970   3.997  0.1607 -0.0053 -0.6925
 5470SOL    HW128043   2.699   2.034   4.037 -0.3845  1.2411 -1.8588
 5470SOL    HW228044   2.599   1.939   4.078 -0.0536  1.7112 -0.1404
 5471SOL     OW28045   0.445   3.677   9.531  0.1051  0.1373  0.0446
 5471SOL    HW128046   0.402   3.614   9.589  0.9220 -1.2536 -0.8626
 5471SOL    HW228047   0.461   3.744   9.597 -0.1218 -0.7992  1.0402
 5472SOL     OW28048   3.525   0.325   4.082  0.4607 -0.3314 -0.1872
 5472SOL    HW128049   3.503   0.375   4.161  1.3819 -0.1187 -0.0658
 5472SOL    HW228050   3.483   0.240   4.093 -2.2377  0.9762 -0.5148
 5473SOL     OW28051   2.361   1.778  16.009 -0.1558  0.0367 -0.9525
 5473SOL    HW128052   2.289   1.754  15.951 -0.1651 -0.5226 -0.7179
 5473SOL    HW228053   2.383   1.691  16.045  2.5450  0.8852 -0.5398
 5474SOL     OW28054   0.523   3.185   4.040  0.4170 -0.6237  0.9333
 5474SOL    HW128055   0.592   3.176   3.974 -1.8043 -0.0142 -1.4389
 5474SOL    HW228056   0.563   3.243   4.106 -1.6450  0.4052  1.2556
 5475SOL     OW28057   0.043   2.911   2.481 -0.1642 -0.1443  0.4574
 5475SOL    HW128058   0.044   2.815   2.484 -0.6355 -0.2466 -2.3478
 5475SOL    HW228059   0.110   2.946   2.540  0.0238  0.5045 -0.1508
 5476SOL     OW28060   0.027   2.212  12.329 -0.1781  0.5251 -0.1866
 5476SOL    HW128061   4.716   2.260  12.394 -0.3807  0.5903 -0.3999
 5476SOL    HW228062   0.097   2.179  12.386 -1.9883 -0.5588  1.4193
 5477SOL     OW28063   0.173   1.027   1.630  0.5306 -0.4686 -0.2833
 5477SOL    HW128064   0.103   1.092   1.639  0.5307 -0.7475  1.5781
 5477SOL    HW228065   0.145   0.975   1.555  1.1222  1.2928 -1.7373
 5478SOL     OW28066   2.346   1.358   2.490  0.5237 -0.0203 -0.0809
 5478SOL    HW128067   2.413   1.369   2.557  0.8571  1.2470 -0.6159
 5478SOL    HW228068   2.264   1.376   2.536  1.2266  0.6847  0.8990
 5479SOL     OW28069   0.258   3.383   4.125  0.2199 -0.1400  0.0463
 5479SOL    HW128070   0.335   3.433   4.097 -0.5448  0.5403 -0.8602
 5479SOL    HW228071   0.287   3.293   4.116  3.0558  0.6799  0.9149
 5480SOL     OW28072   4.492   1.209   7.786 -0.4008 -0.0724 -0.0123
 5480SOL    HW128073   4.440   1.227   7.708  0.4172  1.1016 -0.2933
 5480SOL    HW228074   4.581   1.223   7.754 -0.8244 -4.3498 -3.0001
 5481SOL     OW28075   3.183   4.248   9.717  0.4602  0.0882  0.1062
 5481SOL    HW128076   3.173   4.256   9.812  3.6714 -2.8170  0.7081
 5481SOL    HW228077   3.278   4.240   9.716  0.5807  1.7222 -0.0624
 5482SOL     OW28078   3.435   0.236   8.944  0.1291 -0.0901 -0.3423
 5482SOL    HW128079   3.499   0.252   8.875 -1.3913 -0.7985 -1.9142
 5482SOL    HW228080   3.457   0.313   8.996  1.1918 -2.0285  2.0913
 5483SOL     OW28081   1.513   3.354   1.195  0.4433  0.0623 -0.0548
 5483SOL    HW128082   1.483   3.331   1.283 -0.5047  1.1799 -0.0863
 5483SOL    HW228083   1.582   3.288   1.193 -0.5156 -0.8872 -2.0935
 5484SOL     OW28084   2.047   4.194   0.885  0.5972 -0.1284  0.5314
 5484SOL    HW128085   2.005   4.159   0.964  0.2683  0.9856  0.8496
 5484SOL    HW228086   2.137   4.194   0.920  1.1329 -0.1098 -0.8597
 5485SOL     OW28087   2.754   1.746   1.834 -0.2151  0.6953  0.5550
 5485SOL    HW128088   2.808   1.821   1.809 -0.4762  0.3708 -0.9354
 5485SOL    HW228089   2.728   1.715   1.748  0.6519  0.0373  0.5302
 5486SOL     OW28090   0.287   3.260   3.219  0.1360 -0.1206 -0.3674
 5486SOL    HW128091   0.347   3.203   3.170  1.0276  2.0028 -1.7157
 5486SOL    HW228092   0.220   3.195   3.241  0.7972  0.0582  2.1979
 5487SOL     OW28093   2.299   2.044   4.147  0.1196 -0.3678 -0.5123
 5487SOL    HW128094   2.253   1.963   4.126  0.1279 -0.4398 -0.2599
 5487SOL    HW228095   2.285   2.041   4.242 -1.7332  1.7249 -0.7200
 5488SOL     OW28096   3.045   1.227   2.101  0.1237 -0.3047 -0.7130
 5488SOL    HW128097   2.991   1.191   2.171 -1.7664  0.5032 -1.7555
 5488SOL    HW228098   3.100   1.291   2.147  0.6643 -0.6084 -0.9434
 5489SOL     OW28099   2.010   0.539   8.525 -0.3823  0.2623 -0.0222
 5489SOL    HW128100   1.970   0.452   8.526  0.8560 -0.3000  1.0834
 5489SOL    HW228101   1.930   0.590   8.539  0.7478  1.1374  3.2629
 5490SOL     OW28102   3.186   4.537   1.184  0.2199 -0.9629 -0.0153
 5490SOL    HW128103   3.182   4.509   1.276 -0.5991  2.9071  1.1312
 5490SOL    HW228104   3.209   4.630   1.184 -1.4063 -0.5765 -2.1289
 5491SOL     OW28105   1.005   2.497   4.072  0.3860 -0.1653 -0.1618
 5491SOL    HW128106   0.991   2.440   4.148 -0.8314 -0.8270 -0.8852
 5491SOL    HW228107   1.021   2.579   4.119 -2.1051  0.3948 -0.2669
 5492SOL     OW28108   2.798   3.847   8.358 -0.1154 -0.0930 -0.3471
 5492SOL    HW128109   2.806   3.892   8.442 -3.3014 -0.9118  0.3868
 5492SOL    HW228110   2.862   3.776   8.367 -0.3476 -0.4026 -1.1215
 5493SOL     OW28111   2.693   1.551   2.039  0.3194  0.6106 -0.0899
 5493SOL    HW128112   2.694   1.610   1.964  2.9266  0.9412  0.1902
 5493SOL    HW228113   2.603   1.540   2.070  0.8903 -1.4557  0.8366
 5494SOL     OW28114   1.043   3.623   3.614 -0.5394  0.2106 -0.2841
 5494SOL    HW128115   1.001   3.636   3.699 -0.3373 -0.1900 -0.1209
 5494SOL    HW228116   1.067   3.530   3.621  1.1414  0.7538  1.3245
 5495SOL     OW28117   1.816   2.242   7.294  0.2983  0.0108 -0.0921
 5495SOL    HW128118   1.762   2.227   7.216 -1.4546  0.4878  1.0331
 5495SOL    HW228119   1.759   2.200   7.359 -1.4338  0.5168 -1.2603
 5496SOL     OW28120   2.190   0.111  17.051 -0.3266 -0.4625 -0.1855
 5496SOL    HW128121   2.124   0.074  17.110  0.5497  0.9645  1.6773
 5496SOL    HW228122   2.135   0.171  17.001 -1.5178 -0.3693  1.2549
 5497SOL     OW28123   4.737   2.581   3.692  0.7194 -0.3990 -0.6536
 5497SOL    HW128124   4.689   2.638   3.632  1.4262 -0.8346 -1.6282
 5497SOL    HW228125   0.068   2.633   3.726 -0.5584  0.1726  1.2157
 5498SOL     OW28126   3.874   3.872  13.707  0.2050  0.0702 -0.7089
 5498SOL    HW128127   3.914   3.785  13.701 -1.5854 -0.7557 -0.6276
 5498SOL    HW228128   3.836   3.873  13.795 -0.6758  2.8154 -1.1082
 5499SOL     OW28129   3.537   4.109   7.471 -0.0108 -0.4410 -0.2599
 5499SOL    HW128130   3.531   4.023   7.511  0.0292 -0.6321 -0.6684
 5499SOL    HW228131   3.626   4.121   7.439  0.3888  2.1372  1.7640
 5500SOL     OW28132   2.836   1.900   2.670 -0.3192  0.4644  0.2036
 5500SOL    HW128133   2.914   1.955   2.665 -0.4163  0.5993  0.1653
 5500SOL    HW228134   2.811   1.893   2.578 -0.9710  0.0360  0.4114
 5501SOL     OW28135   2.285   2.637   6.744 -0.3349 -0.1958  0.2063
 5501SOL    HW128136   2.272   2.730   6.765 -0.1116  0.0798 -0.8940
 5501SOL    HW228137   2.243   2.587   6.814  0.3066 -0.2647  0.5373
 5502SOL     OW28138   3.434   3.394   9.420  0.3011  0.6981  0.5205
 5502SOL    HW128139   3.466   3.314   9.380 -0.2448  0.5386  0.4118
 5502SOL    HW228140   3.500   3.462   9.403  1.8818 -0.6369  1.2913
 5503SOL     OW28141   0.137   1.692   2.038  0.1133 -0.1893 -0.0887
 5503SOL    HW128142   0.205   1.657   2.095  0.6834  0.9956 -0.0368
 5503SOL    HW228143   0.182   1.688   1.953  2.8482  0.3489  1.3530
 5504SOL     OW28144   0.043   0.717   7.392 -0.2697  0.3603 -0.0512
 5504SOL    HW128145   0.139   0.717   7.392 -0.2691  0.9723 -0.6192
 5504SOL    HW228146   0.033   0.703   7.297 -0.4308  0.4714 -0.0495
 5505SOL     OW28147   3.016   0.348   3.228  0.5126 -0.0894  0.4747
 5505SOL    HW128148   2.984   0.305   3.149  0.4329  1.3814 -0.2996
 5505SOL    HW228149   3.109   0.325   3.230  0.3620 -0.3869  4.0911
 5506SOL     OW28150   0.104   3.059   3.301 -0.3345 -0.0912  0.6085
 5506SOL    HW128151   0.040   3.000   3.263  1.5766 -0.0585 -2.6013
 5506SOL    HW228152   0.127   3.007   3.378 -0.1005 -1.3089 -0.2971
 5507SOL     OW28153   2.292   3.533  10.408  0.4076 -0.3317  0.4644
 5507SOL    HW128154   2.207   3.499  10.435  0.2911 -0.0957  0.3888
 5507SOL    HW228155   2.349   3.495  10.475  1.3602  0.5866  0.1731
 5508SOL     OW28156   4.337   3.861  11.462  0.1399 -0.5784  0.5173
 5508SOL    HW128157   4.267   3.924  11.444  1.3602 -0.2510 -3.1064
 5508SOL    HW228158   4.321   3.843  11.554 -0.4683 -0.4511  0.4409
 5509SOL     OW28159   4.005   1.864   6.816 -0.2118 -0.2271 -0.1931
 5509SOL    HW128160   4.090   1.898   6.789 -0.5141 -0.4268 -1.4107
 5509SOL    HW228161   4.038   1.794   6.872  0.0279 -0.0375 -0.0989
 5510SOL     OW28162   2.429   3.304  11.532 -0.0052 -0.2167 -0.2592
 5510SOL    HW128163   2.342   3.327  11.563 -0.7532 -3.0627 -0.2475
 5510SOL    HW228164   2.479   3.378  11.499 -0.1984  0.1840  0.3542
 5511SOL     OW28165   4.325   3.025  15.500  0.4468  0.1204 -0.1457
 5511SOL    HW128166   4.286   3.112  15.509  0.5852  0.0446  1.1803
 5511SOL    HW228167   4.344   3.006  15.591  0.6167  0.4987 -0.1010
 5512SOL     OW28168   3.832   3.548   8.917 -0.2442  0.6811 -0.1295
 5512SOL    HW128169   3.819   3.539   9.011  0.9007  1.2135  0.0752
 5512SOL    HW228170   3.746   3.573   8.883 -0.4406 -1.0220 -0.9088
 5513SOL     OW28171   0.613   2.316   3.506  0.1516 -0.2883  0.7142
 5513SOL    HW128172   0.627   2.262   3.584 -0.8364  0.8704  1.6828
 5513SOL    HW228173   0.520   2.336   3.514  0.3420  0.6919  0.4969
 5514SOL     OW28174   2.153   4.324   5.473 -0.8536  0.1370 -0.7017
 5514SOL    HW128175   2.188   4.392   5.530 -2.5490  1.7669 -1.6086
 5514SOL    HW228176   2.063   4.352   5.454 -0.8255  1.0621  0.5492
 5515SOL     OW28177   3.575   2.290   7.569  0.5032  0.0547 -0.1539
 5515SOL    HW128178   3.633   2.229   7.614 -0.0463  0.2398  0.7988
 5515SOL    HW228179   3.622   2.372   7.584 -0.7057  0.7365 -0.1137
 5516SOL     OW28180   2.459   0.677  17.276  0.0287  0.2247  0.3024
 5516SOL    HW128181   2.531   0.734  17.250  0.7211 -0.0634  1.5957
 5516SOL    HW228182   2.443   0.687  17.370  0.1528 -0.8481  0.4316
 5517SOL     OW28183   4.043   4.228   2.179 -0.2978  0.1827  0.4650
 5517SOL    HW128184   4.052   4.217   2.084 -0.7571  1.1932  0.3076
 5517SOL    HW228185   3.988   4.152   2.197  0.3939 -0.4860 -0.2562
 5518SOL     OW28186   0.296   2.636   7.479 -0.1833 -0.3661 -0.6419
 5518SOL    HW128187   0.316   2.644   7.572 -1.3620 -0.3940 -0.3833
 5518SOL    HW228188   0.205   2.608   7.476 -0.1516 -0.4599 -0.7546
 5519SOL     OW28189   4.737   0.899   9.164  0.4330 -0.0811 -0.7277
 5519SOL    HW128190   0.036   0.850   9.236 -0.3709 -0.4940 -0.5592
 5519SOL    HW228191   0.067   0.924   9.106  1.3431 -0.2998  0.3126
 5520SOL     OW28192   3.251   0.546  16.278  0.4951  0.3315  0.1752
 5520SOL    HW128193   3.244   0.611  16.209 -1.2861  2.1461  2.0241
 5520SOL    HW228194   3.302   0.594  16.343  2.4342 -1.2476 -0.2034
 5521SOL     OW28195   3.380   4.600  10.360  0.4895 -0.2139 -0.5139
 5521SOL    HW128196   3.315   4.569  10.423  0.0988  0.0589 -0.7871
 5521SOL    HW228197   3.322   4.622  10.288  1.2840  1.8412 -0.5191
 5522SOL     OW28198   0.055   3.739   0.699  0.7619  0.1572  0.5921
 5522SOL    HW128199   0.123   3.788   0.654  1.4116 -0.3162  1.0631
 5522SOL    HW228200   4.736   3.804   0.735  0.5626 -0.3061  1.1029
 5523SOL     OW28201   1.777   1.915  15.767  0.4225  0.6257  0.4175
 5523SOL    HW128202   1.749   1.865  15.844  0.1867  0.6617  0.3542
 5523SOL    HW228203   1.851   1.862  15.737 -0.6532 -1.1397  0.8906
 5524SOL     OW28204   2.700   3.221  10.344  0.1452  0.4864 -0.3294
 5524SOL    HW128205   2.614   3.185  10.364  0.5888 -1.3144 -1.6760
 5524SOL    HW228206   2.756   3.151  10.380 -0.4874  0.4814  0.6525
 5525SOL     OW28207   4.488   4.578   4.693 -0.1082  0.4240  0.2290
 5525SOL    HW128208   4.437   4.509   4.736  2.3196 -0.0895  2.3544
 5525SOL    HW228209   4.414   4.632   4.666  0.0522  0.1972 -0.6381
 5526SOL     OW28210   2.597   2.466   1.876 -0.0504 -0.2111  0.4958
 5526SOL    HW128211   2.544   2.402   1.923 -1.6841  0.6756 -0.1523
 5526SOL    HW228212   2.530   2.488   1.812 -0.0933  1.3266  1.0616
 5527SOL     OW28213   1.505   3.901   9.608  0.1148 -0.3600 -0.3086
 5527SOL    HW128214   1.591   3.860   9.599  0.2288 -0.4902  1.4496
 5527SOL    HW228215   1.467   3.859   9.685  0.9818 -1.1390 -0.3106
 5528SOL     OW28216   4.695   0.396   6.043  0.1159 -0.0509 -0.0112
 5528SOL    HW128217   4.641   0.329   6.001  1.6450 -1.0846 -0.3295
 5528SOL    HW228218   0.018   0.347   6.095 -1.6425 -2.3598  0.0094
 5529SOL     OW28219   3.708   0.296  16.950 -0.5234 -0.2309 -0.5310
 5529SOL    HW128220   3.618   0.318  16.929 -0.9550 -1.8592 -0.3677
 5529SOL    HW228221   3.730   0.210  16.914  1.2217 -0.1253  0.2860
 5530SOL     OW28222   4.113   2.882  16.767  0.0848 -0.2538  0.0779
 5530SOL    HW128223   4.026   2.865  16.803 -0.3718 -0.4218 -1.0910
 5530SOL    HW228224   4.097   2.888  16.673  0.8006 -0.0109 -0.0265
 5531SOL     OW28225   3.240   2.490   2.529 -0.2328  0.1393 -0.0060
 5531SOL    HW128226   3.278   2.433   2.462  2.8118  0.4996  1.4500
 5531SOL    HW228227   3.244   2.424   2.598 -1.1971  1.2456  1.1091
 5532SOL     OW28228   4.630   4.048   9.791  0.1590 -0.4952 -0.3444
 5532SOL    HW128229   4.700   4.082   9.847  0.8960 -1.0496 -0.9230
 5532SOL    HW228230   4.653   4.103   9.715 -2.6201  1.1490  0.0201
 5533SOL     OW28231   2.668   0.442   9.192 -0.0762  0.5675  0.7420
 5533SOL    HW128232   2.691   0.363   9.240 -2.0307  0.4108  1.3998
 5533SOL    HW228233   2.746   0.494   9.215  1.0880 -1.0396  0.4343
 5534SOL     OW28234   0.983   4.665   3.387  0.3443  0.0132 -0.3167
 5534SOL    HW128235   1.050   4.605   3.421  1.4068  2.1810  1.4859
 5534SOL    HW228236   0.915   4.614   3.345 -0.3169 -0.6514  1.5483
 5535SOL     OW28237   4.012   1.257   4.447 -0.0717  0.5246  0.0492
 5535SOL    HW128238   4.014   1.245   4.542  1.2855  0.9084  0.0704
 5535SOL    HW228239   3.941   1.197   4.426 -0.4379  1.1491 -0.5082
 5536SOL     OW28240   2.115   1.676   9.405 -0.8209 -0.2727 -0.8608
 5536SOL    HW128241   2.119   1.617   9.329  1.5517  0.8928 -1.6207
 5536SOL    HW228242   2.025   1.675   9.437 -0.3179  2.1546  0.6080
 5537SOL     OW28243   3.719   2.900   9.709 -0.1905  0.2784  0.4569
 5537SOL    HW128244   3.634   2.933   9.738 -1.1206 -2.1692  0.5502
 5537SOL    HW228245   3.786   2.934   9.769  2.5880 -0.5634 -2.2100
 5538SOL     OW28246   0.721   0.954   2.209  0.0475 -0.4445 -0.0313
 5538SOL    HW128247   0.763   0.998   2.135  2.3168 -3.0738 -0.2949
 5538SOL    HW228248   0.631   0.987   2.203  0.8296  1.4100 -1.4532
 5539SOL     OW28249   1.898   0.154   8.581 -0.1646 -0.1774  0.3786
 5539SOL    HW128250   1.952   0.081   8.550  2.4326  2.7691 -2.0707
 5539SOL    HW228251   1.896   0.130   8.673 -0.8586  0.1985  0.4580
 5540SOL     OW28252   3.810   4.565   1.945  0.2046  0.0503  0.0717
 5540SOL    HW128253   3.792   4.607   2.029  0.1939  4.0724 -1.9788
 5540SOL    HW228254   3.721   4.534   1.929  0.0715 -0.7903  2.3985
 5541SOL     OW28255   0.517   2.970   4.403 -0.2681  0.0235 -0.3379
 5541SOL    HW128256   0.533   2.887   4.448  2.1337  1.1206  0.8373
 5541SOL    HW228257   0.498   2.937   4.315  0.5864  0.1352 -0.5639
 5542SOL     OW28258   0.884   2.139  11.545 -0.1160 -0.4859 -0.0729
 5542SOL    HW128259   0.945   2.075  11.582  1.4941  0.0195 -1.8428
 5542SOL    HW228260   0.918   2.222  11.580 -1.4349  1.0756 -2.4941
 5543SOL     OW28261   3.798   0.428   7.637  1.0348 -1.3418 -0.0211
 5543SOL    HW128262   3.799   0.432   7.541 -0.6414  1.4295  0.0888
 5543SOL    HW228263   3.787   0.520   7.662 -1.6036 -1.5105 -0.5424
 5544SOL     OW28264   4.705   2.894   7.682  0.2100 -0.6902  0.2750
 5544SOL    HW128265   0.035   2.957   7.698 -1.0127  0.9467 -0.6783
 5544SOL    HW228266   4.690   2.915   7.590 -0.1458  1.2400  0.7606
 5545SOL     OW28267   0.993   4.739  10.139 -0.2452  0.1456 -0.4320
 5545SOL    HW128268   0.975   4.660  10.189  1.5934 -0.4181 -0.6683
 5545SOL    HW228269   0.951   0.061  10.196 -0.4952  0.0766 -0.5382
 5546SOL     OW28270   4.353   2.283   4.499 -0.3071 -0.1515  0.3849
 5546SOL    HW128271   4.273   2.335   4.500 -0.5377 -0.5140  1.5363
 5546SOL    HW228272   4.411   2.345   4.543  0.5449  0.4625 -1.6190
 5547SOL     OW28273   2.819   0.618   8.007  0.8612  0.0108  0.0671
 5547SOL    HW128274   2.884   0.654   7.946 -0.0940  1.6064 -0.0361
 5547SOL    HW228275   2.832   0.529   7.976 -0.1869  0.6825 -2.3996
 5548SOL     OW28276   1.263   1.037   4.566 -0.6178 -0.0622  0.1073
 5548SOL    HW128277   1.248   1.001   4.654  0.7083  0.1024  0.4038
 5548SOL    HW228278   1.172   1.059   4.548 -0.3703  0.4168 -0.5183
 5549SOL     OW28279   2.835   4.713   5.155 -0.1704  0.3793  0.1047
 5549SOL    HW128280   2.874   4.725   5.242  0.2524  2.6799 -0.4085
 5549SOL    HW228281   2.820   4.618   5.155  2.9354 -0.0919 -0.8246
 5550SOL     OW28282   1.180   1.521   3.694  0.1200 -0.0407 -0.5950
 5550SOL    HW128283   1.110   1.565   3.743  2.3288 -1.6583  4.0531
 5550SOL    HW228284   1.181   1.565   3.609 -0.9002  0.2239 -0.4691
 5551SOL     OW28285   1.014   1.971   9.933  0.4247  0.2290  0.0530
 5551SOL    HW128286   1.066   1.952  10.011 -1.5451 -1.1573  1.0153
 5551SOL    HW228287   0.928   1.958   9.973  0.0696 -0.1269 -0.8287
 5552SOL     OW28288   2.575   3.454  12.460  0.3188  0.2653  0.2430
 5552SOL    HW128289   2.495   3.490  12.423 -0.3074 -1.0088  0.3492
 5552SOL    HW228290   2.582   3.383  12.396  0.1012  1.3530 -1.0002
 5553SOL     OW28291   3.801   1.190  16.070 -0.1111 -0.3488 -0.1673
 5553SOL    HW128292   3.822   1.261  16.130  0.8434  1.1596 -2.3051
 5553SOL    HW228293   3.884   1.142  16.069  1.0040  1.5398  2.3391
 5554SOL     OW28294   0.186   3.770   5.497 -0.0398 -0.2835 -0.5036
 5554SOL    HW128295   0.143   3.714   5.562  0.6619 -0.1354  0.0895
 5554SOL    HW228296   0.231   3.708   5.438 -0.8421 -1.1319 -0.2276
 5555SOL     OW28297   2.140   2.120   8.024  0.2853  0.3086  0.4756
 5555SOL    HW128298   2.229   2.157   8.025  0.2141  0.5014 -0.3430
 5555SOL    HW228299   2.081   2.190   7.997  0.6955  0.8336  0.9190
 5556SOL     OW28300   2.513   3.746  10.727 -0.0110 -0.2016  0.3159
 5556SOL    HW128301   2.564   3.686  10.671 -2.4915 -3.4146  1.4804
 5556SOL    HW228302   2.475   3.797  10.656 -0.0448 -2.4003 -1.2612
 5557SOL     OW28303   3.470   4.470  12.407  0.0620  0.3312 -0.0360
 5557SOL    HW128304   3.430   4.432  12.485  0.1955  2.4549  1.0368
 5557SOL    HW228305   3.533   4.403  12.381  1.7643  2.0042 -0.2301
 5558SOL     OW28306   2.224   4.049   8.863  0.0624  0.1516 -0.0310
 5558SOL    HW128307   2.255   4.136   8.840  0.8966  0.1395  1.0550
 5558SOL    HW228308   2.135   4.068   8.893  0.5571  0.0808  1.4711
 5559SOL     OW28309   2.001   4.048   9.709  0.0765  0.4295 -0.2994
 5559SOL    HW128310   2.009   4.011   9.621 -1.1981  0.2305 -0.3158
 5559SOL    HW228311   2.077   4.001   9.744  0.4874 -1.1058 -3.3112
 5560SOL     OW28312   4.214   3.641  10.722 -0.2118 -0.0947  0.4402
 5560SOL    HW128313   4.246   3.634  10.812  1.5137  0.5464 -0.1288
 5560SOL    HW228314   4.261   3.566  10.684  1.6322 -0.3359  3.2533
 5561SOL     OW28315   2.242   2.247   6.551 -0.7960 -0.8393  0.0324
 5561SOL    HW128316   2.316   2.300   6.521 -0.3685 -1.9141 -0.8190
 5561SOL    HW228317   2.193   2.319   6.591 -0.5765 -1.8987  2.2373
 5562SOL     OW28318   3.063   3.296   4.495  0.0053  0.5375  0.7831
 5562SOL    HW128319   3.085   3.348   4.418 -0.3332  0.7501  0.8295
 5562SOL    HW228320   2.992   3.243   4.457  1.5186 -0.5661 -0.5048
 5563SOL     OW28321   0.728   1.387   8.518  0.0902  0.3256  0.2704
 5563SOL    HW128322   0.804   1.445   8.533  0.5759 -0.4138  0.6813
 5563SOL    HW228323   0.691   1.436   8.445 -1.1990  0.9888  1.3577
 5564SOL     OW28324   4.416   3.779   3.878 -0.0494  0.1032 -0.0013
 5564SOL    HW128325   4.434   3.721   3.803  1.0194  0.5558 -0.0949
 5564SOL    HW228326   4.326   3.754   3.899  0.2085  0.6439  1.7270
 5565SOL     OW28327   3.423   2.098   4.270  0.1646 -0.5641 -0.1420
 5565SOL    HW128328   3.437   2.162   4.339  1.3231  1.3840 -2.1805
 5565SOL    HW228329   3.332   2.075   4.285  0.1317  0.7794  1.6766
 5566SOL     OW28330   1.976   4.320   5.190  0.2946 -0.3932 -0.0383
 5566SOL    HW128331   1.919   4.344   5.263 -0.5258 -0.8114 -0.5395
 5566SOL    HW228332   2.010   4.237   5.223 -1.3204 -0.6350  1.0066
 5567SOL     OW28333   2.759   4.544  15.247 -0.5636  0.4113 -0.0635
 5567SOL    HW128334   2.804   4.524  15.166  0.8330  2.7217  0.1336
 5567SOL    HW228335   2.735   4.637  15.242  0.3275  0.5026 -2.4481
 5568SOL     OW28336   2.818   1.611  14.278  0.5770 -0.0881  0.0023
 5568SOL    HW128337   2.814   1.658  14.195  2.4669  1.4263  0.7795
 5568SOL    HW228338   2.829   1.520  14.250  2.3887 -0.5754  2.3339
 5569SOL     OW28339   4.264   3.624   2.813 -0.3119  0.1770  0.1978
 5569SOL    HW128340   4.206   3.550   2.833 -0.1663  0.6085  2.2671
 5569SOL    HW228341   4.317   3.637   2.892 -0.2136  1.6089 -0.1145
 5570SOL     OW28342   2.390   1.579  13.644 -0.2597  0.1075  0.5901
 5570SOL    HW128343   2.365   1.511  13.707  1.2100 -2.7243 -1.8956
 5570SOL    HW228344   2.439   1.646  13.691 -0.0585 -0.0359  0.5830
 5571SOL     OW28345   1.591   0.020   5.767  0.2391 -0.0493  0.0218
 5571SOL    HW128346   1.658   0.084   5.743 -1.5123  2.1478  1.0176
 5571SOL    HW228347   1.525   0.077   5.806  0.6995  1.1117 -0.9045
 5572SOL     OW28348   1.900   1.682  10.470  0.1149 -0.4163 -0.1930
 5572SOL    HW128349   1.984   1.638  10.485  1.4794  2.3192  0.2194
 5572SOL    HW228350   1.926   1.758  10.418 -0.0666  0.6278  1.2388
 5573SOL     OW28351   1.124   0.653   3.331  0.6525  0.6652 -0.0210
 5573SOL    HW128352   1.177   0.691   3.261  0.9232  2.3339  1.0754
 5573SOL    HW228353   1.045   0.705   3.345  0.2572  0.1690 -0.4233
 5574SOL     OW28354   3.163   4.444  15.710 -0.1886  0.1500  0.2257
 5574SOL    HW128355   3.222   4.392  15.765 -0.8966 -0.9610 -0.0664
 5574SOL    HW228356   3.163   4.526  15.759 -0.1853  0.0855  0.3352
 5575SOL     OW28357   0.864   4.278   9.463 -0.4664 -0.2334  0.2595
 5575SOL    HW128358   0.889   4.204   9.518 -1.5694 -0.1993  0.7996
 5575SOL    HW228359   0.872   4.343   9.533 -0.3480  0.0317  0.0020
 5576SOL     OW28360   3.514   3.639   3.451 -0.1455 -0.0353  0.4685
 5576SOL    HW128361   3.453   3.620   3.380  0.7158 -0.6988 -0.0930
 5576SOL    HW228362   3.463   3.601   3.523 -1.3707  0.6749 -0.0237
 5577SOL     OW28363   2.570   1.500   5.930  0.0145  0.1574 -0.5677
 5577SOL    HW128364   2.540   1.451   6.007 -0.0920  0.2268 -0.5644
 5577SOL    HW228365   2.561   1.591   5.960  1.9238 -0.3021  1.3702
 5578SOL     OW28366   0.747   0.288  13.059  0.3217 -0.0544 -0.2630
 5578SOL    HW128367   0.667   0.340  13.049 -0.5240 -1.5831 -1.3914
 5578SOL    HW228368   0.786   0.338  13.130  3.0532 -0.9808 -1.1297
 5579SOL     OW28369   0.620   0.509   9.529  0.0250 -0.7603  0.5161
 5579SOL    HW128370   0.689   0.445   9.513 -0.3665 -1.2504  0.8069
 5579SOL    HW228371   0.668   0.575   9.579  1.5178 -1.3312 -0.1898
 5580SOL     OW28372   0.465   1.080   5.898  0.6339 -0.5733  0.2788
 5580SOL    HW128373   0.493   1.081   5.807 -0.3755 -2.1175 -0.0441
 5580SOL    HW228374   0.458   1.174   5.914  0.8475 -0.5905  0.4796
 5581SOL     OW28375   1.464   3.770   5.065 -0.6086 -0.2594  0.0612
 5581SOL    HW128376   1.430   3.829   5.132 -1.3085 -0.0315 -0.4895
 5581SOL    HW228377   1.399   3.700   5.069 -0.0979 -0.7824 -0.7341
 5582SOL     OW28378   2.099   3.124   8.103 -0.4716 -0.1502  0.4235
 5582SOL    HW128379   2.023   3.171   8.135 -1.9285 -1.5989 -0.8812
 5582SOL    HW228380   2.069   3.033   8.103  0.1451 -0.3533  1.2600
 5583SOL     OW28381   4.077   4.020   8.230 -0.1181 -0.0134 -0.5281
 5583SOL    HW128382   4.059   3.926   8.228  0.4678 -0.0623 -3.1145
 5583SOL    HW228383   4.124   4.028   8.313  2.2430 -1.5098 -1.7261
 5584SOL     OW28384   3.443   0.985   5.230  0.0752  0.1756 -0.1626
 5584SOL    HW128385   3.513   0.977   5.165  0.9359  0.6067  0.6918
 5584SOL    HW228386   3.446   0.899   5.272  0.2750 -0.1109 -0.7610
 5585SOL     OW28387   0.089   0.178   2.621  0.1247 -0.1758  0.4862
 5585SOL    HW128388   0.185   0.176   2.622  0.1995  0.4156 -3.4355
 5585SOL    HW228389   0.074   0.236   2.695  0.3371 -1.3450  1.4450
 5586SOL     OW28390   4.650   0.967   7.409  0.8239 -0.0586 -0.0893
 5586SOL    HW128391   4.657   0.881   7.368  3.8608  1.6805 -3.2200
 5586SOL    HW228392   4.617   1.019   7.336  0.8688  0.4294  0.2313
 5587SOL     OW28393   2.412   3.193   6.321  0.1529  0.6830 -0.3817
 5587SOL    HW128394   2.332   3.230   6.283  0.9588  0.7373 -2.0076
 5587SOL    HW228395   2.476   3.240   6.269  1.3962 -0.3080  0.2484
 5588SOL     OW28396   0.043   0.606   1.027 -0.1109  0.2202 -0.2829
 5588SOL    HW128397   0.047   0.688   0.978  0.6404  0.0435 -0.5240
 5588SOL    HW228398   0.120   0.564   0.989  0.7401 -0.2065  1.9087
 5589SOL     OW28399   2.759   1.635  11.157  0.0605 -0.4709 -0.1145
 5589SOL    HW128400   2.847   1.618  11.191  0.0703  0.0961  0.1303
 5589SOL    HW228401   2.765   1.727  11.134 -0.1811 -0.3193  0.4452
 5590SOL     OW28402   3.771   4.158   2.641  0.2389 -0.5357 -0.5524
 5590SOL    HW128403   3.730   4.204   2.568 -1.6231  2.2705  2.2481
 5590SOL    HW228404   3.787   4.068   2.613 -0.8212 -1.5824  2.2021
 5591SOL     OW28405   3.862   3.649  15.571 -0.2307  0.5364  0.7334
 5591SOL    HW128406   3.857   3.703  15.650  5.0754  1.5401  0.3874
 5591SOL    HW228407   3.771   3.624  15.559 -0.4067  1.2350  0.6527
 5592SOL     OW28408   2.901   3.563   4.556  0.4301  0.0128 -0.1906
 5592SOL    HW128409   2.842   3.516   4.497 -0.4840  2.2190 -1.0505
 5592SOL    HW228410   2.982   3.538   4.511  1.0350  1.5745  0.0373
 5593SOL     OW28411   1.114   0.949   8.071 -0.2543 -0.4033  0.1648
 5593SOL    HW128412   1.156   0.894   8.137  0.8869  1.6000  1.1012
 5593SOL    HW228413   1.100   1.031   8.118 -0.3593 -0.8177  0.8565
 5594SOL     OW28414   2.326   1.113   8.509 -0.4685 -0.0114 -0.1185
 5594SOL    HW128415   2.316   1.037   8.565  1.4196 -0.1047  0.0866
 5594SOL    HW228416   2.327   1.070   8.424 -0.4392 -2.2862  1.0449
 5595SOL     OW28417   4.211   1.913   0.931 -0.5673 -0.1939 -0.6028
 5595SOL    HW128418   4.139   1.969   0.960 -0.5559 -0.0266 -0.9050
 5595SOL    HW228419   4.260   1.897   1.012  2.2907  2.7118 -1.7444
 5596SOL     OW28420   1.237   2.174  12.936  0.0478  0.4154  0.1336
 5596SOL    HW128421   1.321   2.199  12.975  0.6774  1.5111 -1.9075
 5596SOL    HW228422   1.194   2.259  12.923 -0.6759  0.0033 -0.1304
 5597SOL     OW28423   1.909   4.301   9.680 -0.6765 -0.0581 -0.5814
 5597SOL    HW128424   1.982   4.360   9.661  0.0123 -0.5037  0.6960
 5597SOL    HW228425   1.955   4.226   9.717  1.0153  0.1409 -2.2555
 5598SOL     OW28426   0.851   0.198  13.475  0.2112 -0.4827 -0.4793
 5598SOL    HW128427   0.763   0.204  13.437  0.9867 -0.6167 -2.2870
 5598SOL    HW228428   0.845   0.281  13.523 -2.1127 -0.8269 -0.1512
 5599SOL     OW28429   0.448   1.144   2.293  0.1177  0.2630 -0.1578
 5599SOL    HW128430   0.387   1.218   2.301  0.0476  0.0431  1.3976
 5599SOL    HW228431   0.509   1.189   2.235 -0.6531 -0.9828 -1.9357
 5600SOL     OW28432   4.641   2.768   4.765 -0.4870  0.1417  0.1060
 5600SOL    HW128433   4.696   2.841   4.741  0.0568 -0.4222 -0.3554
 5600SOL    HW228434   4.657   2.709   4.692  0.9720 -0.2079  0.7218
 5601SOL     OW28435   4.645   2.889  14.468  0.1236 -0.3561 -0.5539
 5601SOL    HW128436   4.566   2.942  14.478  0.2086 -0.1916 -0.7573
 5601SOL    HW228437   4.656   2.868  14.376  1.4683  0.4122 -0.5807
 5602SOL     OW28438   0.221   2.729  13.464 -0.7271  0.3928 -0.6204
 5602SOL    HW128439   0.253   2.771  13.543 -2.8140 -1.5214  1.2201
 5602SOL    HW228440   0.143   2.781  13.444 -0.1829  1.7884  0.8922
 5603SOL     OW28441   4.656   2.060   1.714  0.3043  0.3390 -0.5884
 5603SOL    HW128442   4.734   2.096   1.672  0.4571 -0.8212 -1.2976
 5603SOL    HW228443   4.662   2.098   1.802  2.6064 -2.4299  0.4302
 5604SOL     OW28444   0.333   1.886   9.412  0.1469 -0.0304  0.3027
 5604SOL    HW128445   0.393   1.859   9.343  0.3490  1.7454 -0.2157
 5604SOL    HW228446   0.277   1.948   9.366  2.2116 -0.8101 -3.2560
 5605SOL     OW28447   4.029   0.236   5.604  0.1382  0.0319 -0.1312
 5605SOL    HW128448   4.121   0.210   5.612  0.2490 -0.1025 -1.8819
 5605SOL    HW228449   3.984   0.154   5.624 -0.5570  0.3319 -0.5039
 5606SOL     OW28450   2.463   2.532   7.754  0.0575  0.6562  1.1111
 5606SOL    HW128451   2.409   2.611   7.751 -0.8799  0.0514  1.8033
 5606SOL    HW228452   2.419   2.508   7.836  1.0055 -0.1407  1.3872
 5607SOL     OW28453   0.537   3.146   8.600  0.1653  0.4744 -0.4794
 5607SOL    HW128454   0.488   3.065   8.610  0.2950  0.7809  2.6411
 5607SOL    HW228455   0.585   3.121   8.521 -0.5078  0.1276 -0.7740
 5608SOL     OW28456   0.050   2.424  16.654  0.1619  0.2167  0.2001
 5608SOL    HW128457   0.103   2.349  16.683 -0.2712  0.8183  2.5074
 5608SOL    HW228458   0.088   2.444  16.568  1.3586 -3.2833 -0.0873
 5609SOL     OW28459   0.720   0.721   3.532  0.1214 -0.2374  0.2693
 5609SOL    HW128460   0.769   0.694   3.610 -1.3247  0.3962  1.3956
 5609SOL    HW228461   0.631   0.715   3.568  0.6275 -0.0197  1.5392
 5610SOL     OW28462   0.473   1.021   2.545  0.3092 -0.1628 -0.1595
 5610SOL    HW128463   0.568   1.028   2.558  0.2862  0.3945 -0.2995
 5610SOL    HW228464   0.454   1.085   2.477  1.6545  1.7335  1.2482
 5611SOL     OW28465   1.726   1.926  13.473  0.0330 -0.0548 -0.5168
 5611SOL    HW128466   1.775   1.957  13.549  0.8642 -1.4153 -0.4943
 5611SOL    HW228467   1.668   1.864  13.517 -2.5783  3.0237  0.4645
 5612SOL     OW28468   4.694   3.250   7.360 -0.3465  0.0589 -0.3994
 5612SOL    HW128469   0.006   3.179   7.394  0.2065  1.4391  1.5977
 5612SOL    HW228470   4.625   3.195   7.323 -0.4198  0.6039 -1.0814
 5613SOL     OW28471   3.585   0.532   5.931 -0.7422  0.2675 -0.1157
 5613SOL    HW128472   3.651   0.477   5.972 -1.4536 -0.7008 -0.2657
 5613SOL    HW228473   3.648   0.594   5.895 -0.1507 -0.4426 -0.2853
 5614SOL     OW28474   0.164   0.210   4.531  0.2026 -0.6901  0.9591
 5614SOL    HW128475   0.115   0.278   4.485  0.0572 -1.5768 -0.1778
 5614SOL    HW228476   0.209   0.171   4.457  1.5925  0.8308  1.0080
 5615SOL     OW28477   1.865   4.322   1.665 -0.2390  0.0788  0.3734
 5615SOL    HW128478   1.808   4.366   1.729  0.8635  1.0900  0.6477
 5615SOL    HW228479   1.868   4.231   1.696 -0.3833 -0.3219 -0.7748
 5616SOL     OW28480   2.226   3.198   0.846 -0.1766 -0.1185 -0.3451
 5616SOL    HW128481   2.316   3.168   0.845 -0.2251 -0.1473 -2.9897
 5616SOL    HW228482   2.174   3.124   0.816 -1.8728 -0.3178  3.0582
 5617SOL     OW28483   4.664   3.152  11.734  0.1986 -0.2094 -0.1085
 5617SOL    HW128484   4.645   3.089  11.803  0.0763  0.0947  0.1385
 5617SOL    HW228485   4.698   3.097  11.663  1.1058 -0.5898  0.6355
 5618SOL     OW28486   2.174   0.016   7.183  0.2456 -0.0429 -0.0782
 5618SOL    HW128487   2.180   0.111   7.196 -1.9844  0.0384  0.3094
 5618SOL    HW228488   2.108   4.725   7.244 -0.6154 -0.1299 -1.0562
 5619SOL     OW28489   2.248   0.990  16.476 -0.2455 -0.5818  0.4423
 5619SOL    HW128490   2.218   0.980  16.386  2.3873  0.7565 -0.5969
 5619SOL    HW228491   2.203   1.074  16.486  2.4611  1.0186 -0.8603
 5620SOL     OW28492   2.789   2.525   1.628  0.1949 -0.0260  0.0649
 5620SOL    HW128493   2.751   2.575   1.700 -2.6131 -1.2536 -0.5598
 5620SOL    HW228494   2.720   2.464   1.603  0.1155  0.2108 -0.2843
 5621SOL     OW28495   2.585   2.895   1.921 -0.1310  0.6094  0.3310
 5621SOL    HW128496   2.516   2.958   1.903  1.9090  2.4871 -0.9069
 5621SOL    HW228497   2.567   2.829   1.854  0.5234  0.1863  0.5706
 5622SOL     OW28498   0.261   1.314  15.964 -0.0560  0.0305 -0.0799
 5622SOL    HW128499   0.234   1.320  15.873 -1.4418  1.3841  0.3941
 5622SOL    HW228500   0.196   1.255  16.003 -1.1531  1.0670 -0.3248
 5623SOL     OW28501   4.430   2.068   9.405 -0.0524  0.1741 -0.1589
 5623SOL    HW128502   4.463   2.012   9.334  0.4976 -0.6228  0.7275
 5623SOL    HW228503   4.419   2.004   9.475  0.0066  1.5751  1.1247
 5624SOL     OW28504   2.942   2.170  15.251 -0.2466 -0.0049 -0.1487
 5624SOL    HW128505   2.894   2.219  15.184 -1.8337 -2.6663 -0.9679
 5624SOL    HW228506   2.899   2.197  15.332 -0.0230 -1.1396  0.3550
 5625SOL     OW28507   3.913   4.535  13.481  0.3330 -0.0831  0.3918
 5625SOL    HW128508   3.880   4.484  13.555 -0.5748  1.6428  1.1630
 5625SOL    HW228509   4.006   4.522  13.503  0.1559 -1.5221  0.2990
 5626SOL     OW28510   4.689   3.238   4.726 -0.2780  0.6503  0.0179
 5626SOL    HW128511   4.605   3.193   4.739 -0.6218  1.1291 -0.5210
 5626SOL    HW228512   0.018   3.174   4.727 -0.6956  0.1808 -0.5490
 5627SOL     OW28513   4.208   1.893   5.063  0.6968 -0.0514 -0.1670
 5627SOL    HW128514   4.187   1.933   4.979 -3.5134  1.4428  1.5530
 5627SOL    HW228515   4.171   1.956   5.125 -2.3405 -1.5214 -0.4537
 5628SOL     OW28516   1.258   3.322   9.296 -0.3659  0.1190 -0.2245
 5628SOL    HW128517   1.286   3.386   9.361  1.2757 -1.7705  0.9496
 5628SOL    HW228518   1.191   3.375   9.253  2.3300  3.0628 -0.7380
 5629SOL     OW28519   1.328   0.260  16.814 -0.0598  0.3159 -0.5649
 5629SOL    HW128520   1.299   0.351  16.806  1.5206  0.7822 -0.9864
 5629SOL    HW228521   1.331   0.234  16.722  0.7914  0.4141 -0.5665
 5630SOL     OW28522   3.350   1.693   0.195 -0.0901  0.6758 -0.1133
 5630SOL    HW128523   3.282   1.715   0.259 -0.6609 -0.7113 -0.2385
 5630SOL    HW228524   3.292   1.700   0.119  1.3305  0.5458 -1.2105
 5631SOL     OW28525   1.143   2.325  13.492  1.4195  0.0633 -0.1309
 5631SOL    HW128526   1.185   2.243  13.517  1.1395  1.0233  3.4950
 5631SOL    HW228527   1.154   2.329  13.397 -3.8053 -0.6662 -0.7912
 5632SOL     OW28528   1.957   3.852  16.076 -0.1279 -0.1791  0.2198
 5632SOL    HW128529   2.037   3.903  16.061 -0.3013  0.1619  0.4444
 5632SOL    HW228530   1.965   3.800  15.996 -0.6574 -0.2785  0.2332
 5633SOL     OW28531   0.889   0.145  11.307 -0.0567 -0.2950 -0.3920
 5633SOL    HW128532   0.853   0.057  11.300 -0.3141 -0.2208  0.0032
 5633SOL    HW228533   0.870   0.168  11.398 -2.4348  0.1789 -1.0158
 5634SOL     OW28534   3.997   3.125   4.599 -0.2386  0.0025  0.1457
 5634SOL    HW128535   4.032   3.212   4.579  0.0482 -0.5628 -1.7748
 5634SOL    HW228536   4.077   3.082   4.630  1.2811  2.9748  0.3028
 5635SOL     OW28537   0.101   2.473   3.011 -0.1109 -0.3115  0.6046
 5635SOL    HW128538   0.193   2.468   3.037 -0.1022  0.0023  0.6308
 5635SOL    HW228539   0.089   2.563   3.041 -4.3032  0.0186 -2.0541
 5636SOL     OW28540   2.035   1.737   8.859  0.1071  0.4993  0.0930
 5636SOL    HW128541   2.010   1.741   8.766  1.2353 -1.0353 -0.2806
 5636SOL    HW228542   1.957   1.696   8.896 -0.7531  0.4874 -1.7061
 5637SOL     OW28543   4.433   0.311  14.330  0.0253  0.4112 -0.3148
 5637SOL    HW128544   4.434   0.279  14.240  2.1883  0.3534 -0.2619
 5637SOL    HW228545   4.486   0.390  14.319  0.5556  0.1135  0.0568
 5638SOL     OW28546   2.923   0.226   6.951 -0.5972 -0.2142 -0.6258
 5638SOL    HW128547   2.981   0.180   6.891 -0.7742 -0.4880 -0.5864
 5638SOL    HW228548   2.877   0.284   6.890 -2.5534 -2.9358 -1.7486
 5639SOL     OW28549   3.960   0.976   3.281 -0.3937 -0.2923  0.3739
 5639SOL    HW128550   4.002   1.014   3.358 -2.1274 -1.8124  2.0855
 5639SOL    HW228551   3.924   0.893   3.314 -2.0916  0.3720  0.1860
 5640SOL     OW28552   1.503   2.945   3.644 -0.3482 -0.0084  0.2936
 5640SOL    HW128553   1.428   2.923   3.698 -0.3380  2.0741  1.1736
 5640SOL    HW228554   1.580   2.927   3.699  0.5322  0.5405 -0.7498
 5641SOL     OW28555   4.210   0.084   3.291  0.2272 -0.0273  0.4931
 5641SOL    HW128556   4.268   0.127   3.354  2.2859 -0.7765 -0.8960
 5641SOL    HW228557   4.261   0.097   3.212 -2.9603 -0.3670 -1.6250
 5642SOL     OW28558   1.925   3.563  14.060 -0.3211 -0.3127 -0.5847
 5642SOL    HW128559   1.987   3.578  14.132 -0.2806 -1.5293 -0.3611
 5642SOL    HW228560   1.983   3.517  13.999  1.0998  0.1358  0.4304
 5643SOL     OW28561   2.648   3.726   3.043  0.3118 -0.3647  0.0863
 5643SOL    HW128562   2.700   3.647   3.055  0.8809  0.0574  0.3697
 5643SOL    HW228563   2.595   3.700   2.967 -0.5070 -0.4208  0.6797
 5644SOL     OW28564   0.054   0.724   2.787 -0.0710 -0.1832  0.2299
 5644SOL    HW128565   0.063   0.818   2.777  0.4379 -0.0733  1.5764
 5644SOL    HW228566   0.085   0.695   2.702  2.3453  0.0795  1.0219
 5645SOL     OW28567   0.446   4.092   5.584  0.1396  0.3900 -0.5989
 5645SOL    HW128568   0.507   4.165   5.587 -2.5528  2.5335  2.4243
 5645SOL    HW228569   0.391   4.100   5.506 -0.5585  0.1449 -0.1295
 5646SOL     OW28570   4.300   1.386   1.043 -0.1106 -0.2131  0.4746
 5646SOL    HW128571   4.272   1.438   0.967  1.0832  0.1360  0.2670
 5646SOL    HW228572   4.373   1.439   1.075 -1.1841  0.9476  1.0272
 5647SOL     OW28573   4.201   2.495   3.611 -1.3022  0.7668  0.0725
 5647SOL    HW128574   4.188   2.403   3.587 -0.9881  0.7612 -0.0704
 5647SOL    HW228575   4.248   2.479   3.693 -1.0505 -0.6634 -0.3453
 5648SOL     OW28576   1.301   2.327  17.402 -0.3930  0.6041  0.0642
 5648SOL    HW128577   1.253   2.409  17.389 -1.8045 -0.4176 -1.2434
 5648SOL    HW228578   1.267   2.304  17.489 -0.0411 -2.2590 -0.5550
 5649SOL     OW28579   2.336   1.232   5.592 -0.0749  0.1540 -0.4901
 5649SOL    HW128580   2.289   1.251   5.673  0.3597 -0.1033 -0.1766
 5649SOL    HW228581   2.301   1.300   5.534  1.0219  0.3239 -0.9546
 5650SOL     OW28582   2.310   2.245   5.508 -0.3824  0.3297  1.0946
 5650SOL    HW128583   2.247   2.271   5.576 -3.7224 -2.6251 -0.9021
 5650SOL    HW228584   2.251   2.202   5.446 -0.6836  1.5017  0.5799
 5651SOL     OW28585   2.637   3.629   9.482 -0.0206 -0.0672 -0.2318
 5651SOL    HW128586   2.707   3.692   9.500  0.5953 -1.1430  1.0798
 5651SOL    HW228587   2.590   3.678   9.414 -1.8122  0.6198  1.5084
 5652SOL     OW28588   2.184   3.182   8.699 -0.7422  0.3571  0.2541
 5652SOL    HW128589   2.135   3.169   8.618 -0.4072 -1.3768  0.3200
 5652SOL    HW228590   2.106   3.178   8.755 -3.0125  3.4093 -2.7459
 5653SOL     OW28591   3.906   4.581   5.488 -0.5154 -0.6479 -0.4762
 5653SOL    HW128592   3.877   4.497   5.524 -1.4190 -0.5049 -0.8605
 5653SOL    HW228593   3.991   4.551   5.456  0.5175  0.4638  1.1807
 5654SOL     OW28594   2.152   2.276   7.701 -0.1418  0.3988 -0.2216
 5654SOL    HW128595   2.092   2.350   7.690  0.8484  1.3616  0.7308
 5654SOL    HW228596   2.113   2.212   7.760  0.8000 -2.4667 -2.7107
 5655SOL     OW28597   0.963   0.544   7.477  0.0052 -0.0753  1.0880
 5655SOL    HW128598   0.972   0.459   7.436 -1.5316  0.8402 -1.1584
 5655SOL    HW228599   1.026   0.546   7.549 -0.2124 -0.7936  1.2984
 5656SOL     OW28600   2.914   1.900  17.611 -0.7750  0.4966  0.9691
 5656SOL    HW128601   3.006   1.923  17.627 -0.5906  0.2211  0.3218
 5656SOL    HW228602   2.919   1.807  17.589 -1.8438  0.7447 -0.3367
 5657SOL     OW28603   0.676   2.678   9.358  0.3264  0.0605  0.2356
 5657SOL    HW128604   0.582   2.688   9.368  0.4509  1.6806 -0.1829
 5657SOL    HW228605   0.702   2.715   9.443 -3.1687 -2.8794  2.5683
 5658SOL     OW28606   1.061   0.239  14.072  0.1294 -0.3417  0.2796
 5658SOL    HW128607   1.148   0.255  14.035  0.1577 -3.3151 -0.9979
 5658SOL    HW228608   1.038   0.151  14.041  0.2950 -0.2311 -0.1549
 5659SOL     OW28609   3.746   0.582  11.604 -0.0548 -0.2320  0.1768
 5659SOL    HW128610   3.751   0.486  11.603  0.1777 -0.2162 -0.4291
 5659SOL    HW228611   3.689   0.610  11.676 -1.6254 -1.5379 -0.5483
 5660SOL     OW28612   0.895   2.873  14.267 -0.6905  0.5852  0.1339
 5660SOL    HW128613   0.935   2.896  14.183  0.2765 -3.1461 -0.4071
 5660SOL    HW228614   0.804   2.851  14.248 -1.2385  1.4715  1.7027
 5661SOL     OW28615   0.620   2.155   0.542  0.2049  0.2970  0.1487
 5661SOL    HW128616   0.536   2.197   0.559 -0.6717 -1.3584 -0.1335
 5661SOL    HW228617   0.621   2.074   0.593 -4.5063  1.6763  2.3684
 5662SOL     OW28618   3.006   2.524   8.787  0.0934  0.5846  0.1661
 5662SOL    HW128619   3.039   2.577   8.715  0.8249  0.0393  0.1005
 5662SOL    HW228620   3.084   2.472   8.807  0.0959  1.0544  1.3693
 5663SOL     OW28621   4.437   0.370   8.853 -0.4532  0.3637  0.5497
 5663SOL    HW128622   4.376   0.348   8.924  0.8753 -0.9686  1.2657
 5663SOL    HW228623   4.519   0.357   8.900 -0.2129 -0.3369 -0.0752
 5664SOL     OW28624   0.524   2.056   8.259 -0.2630 -0.4971 -0.1561
 5664SOL    HW128625   0.511   2.090   8.170  0.1077  2.4980  0.9482
 5664SOL    HW228626   0.470   1.977   8.256  1.4290 -1.6989  1.3127
 5665SOL     OW28627   0.232   1.616   5.781  0.4183 -0.2360 -0.0667
 5665SOL    HW128628   0.236   1.597   5.875  0.3709  2.1326  0.4195
 5665SOL    HW228629   0.165   1.683   5.773  1.5648  0.7193 -1.6825
 5666SOL     OW28630   1.224   0.157   9.869 -0.0245 -0.5490  0.3697
 5666SOL    HW128631   1.177   0.233   9.903  0.8810 -0.0668  0.5391
 5666SOL    HW228632   1.199   0.156   9.776 -1.3912  1.3084  0.7338
 5667SOL     OW28633   0.756   4.575   4.129  0.2225  0.6150 -0.6301
 5667SOL    HW128634   0.786   4.524   4.053  0.2693  1.1622 -0.9794
 5667SOL    HW228635   0.762   4.665   4.097  0.3913  0.3165 -1.4548
 5668SOL     OW28636   3.771   1.772   0.050 -0.0193  0.3745  0.5191
 5668SOL    HW128637   3.857   1.735   0.034  0.1323  1.3811 -0.9769
 5668SOL    HW228638   3.738   1.791  17.726  0.5695  0.2079  0.2627
 5669SOL     OW28639   2.148   2.015   9.808  0.3167  0.3368 -0.3730
 5669SOL    HW128640   2.097   2.030   9.887  0.3545  0.3778 -0.3567
 5669SOL    HW228641   2.116   1.928   9.783 -0.2544  1.0553 -2.1286
 5670SOL     OW28642   4.156   0.418  14.374  0.0962 -0.6926  0.0912
 5670SOL    HW128643   4.096   0.482  14.335 -1.9901 -1.7699  1.5811
 5670SOL    HW228644   4.165   0.352  14.306 -0.4608 -0.9526  0.2764
 5671SOL     OW28645   1.090   1.174   4.149  0.7463 -0.2933  0.4193
 5671SOL    HW128646   1.146   1.218   4.214  1.1679 -2.9722  1.8975
 5671SOL    HW228647   1.119   1.085   4.169  0.9364 -0.2790  0.2046
 5672SOL     OW28648   0.842   0.029  16.457 -0.2095  0.0051  0.7030
 5672SOL    HW128649   0.813   0.021  16.366  2.1121 -1.5097  0.0970
 5672SOL    HW228650   0.765   0.000  16.506 -0.6633  1.6095  0.9302
 5673SOL     OW28651   4.468   1.841   0.517 -0.4857  0.3853  0.2839
 5673SOL    HW128652   4.531   1.813   0.583  0.1583  0.2111 -0.3996
 5673SOL    HW228653   4.523   1.849   0.439 -2.8621  1.5447 -1.3088
 5674SOL     OW28654   1.610   3.097   1.290  0.0643 -0.1491 -0.2228
 5674SOL    HW128655   1.608   3.020   1.347  0.4540 -0.1751 -0.2441
 5674SOL    HW228656   1.694   3.129   1.322 -0.1817  0.7160 -0.4300
 5675SOL     OW28657   0.911   1.340   6.711 -0.4979  0.7744 -0.2838
 5675SOL    HW128658   0.983   1.382   6.757 -0.9005  0.8040  0.3105
 5675SOL    HW228659   0.830   1.377   6.747 -1.1860 -0.6472 -0.3793
 5676SOL     OW28660   2.380   3.166  16.617 -0.6800 -0.2196  0.7492
 5676SOL    HW128661   2.432   3.230  16.665  0.3165 -0.8733  0.5486
 5676SOL    HW228662   2.446   3.096  16.608  1.2174  1.9677 -2.1485
 5677SOL     OW28663   2.094   3.010   9.500 -0.1758  0.0179  0.0915
 5677SOL    HW128664   2.045   3.039   9.423  0.5632  1.8786  0.3021
 5677SOL    HW228665   2.088   3.089   9.555 -0.0003  0.5598 -0.6610
 5678SOL     OW28666   4.409   2.117   1.652 -0.2780  0.4271 -0.3140
 5678SOL    HW128667   4.391   2.120   1.746 -1.4293 -0.9807 -0.5002
 5678SOL    HW228668   4.503   2.097   1.647 -0.3038 -0.1304  1.5270
 5679SOL     OW28669   4.025   4.323   3.261 -0.4082 -0.7442 -0.5651
 5679SOL    HW128670   3.937   4.336   3.296 -0.3312  1.7939 -1.3394
 5679SOL    HW228671   4.011   4.278   3.177 -2.4742 -1.5751  0.2275
 5680SOL     OW28672   3.460   3.963  13.884  0.1901  0.4024  0.2529
 5680SOL    HW128673   3.455   3.930  13.974 -2.5258 -0.6733 -0.2786
 5680SOL    HW228674   3.376   3.936  13.846  0.2197  2.2071 -1.1222
 5681SOL     OW28675   0.854   1.302   0.792  0.4522 -0.3601 -0.1788
 5681SOL    HW128676   0.787   1.321   0.859 -0.6033 -2.3640 -0.6695
 5681SOL    HW228677   0.874   1.211   0.812 -1.7522 -0.9492 -0.6804
 5682SOL     OW28678   3.875   0.100   9.262 -0.3875  0.3406  0.5325
 5682SOL    HW128679   3.920   0.061   9.337  0.7759  0.2625 -0.2128
 5682SOL    HW228680   3.867   0.187   9.302  2.4587  1.3101 -0.9931
 5683SOL     OW28681   4.471   3.938   5.003 -0.0380  0.0863 -0.1065
 5683SOL    HW128682   4.530   3.866   4.984  0.3738 -0.0319  1.6448
 5683SOL    HW228683   4.531   4.010   4.983  0.7115  0.6110  3.8699
 5684SOL     OW28684   3.170   0.110   4.409 -0.5417 -0.1670  0.1402
 5684SOL    HW128685   3.146   0.118   4.502 -1.3467  0.7744 -0.1520
 5684SOL    HW228686   3.255   0.066   4.420  0.2288  1.1366 -0.5769
 5685SOL     OW28687   2.690   2.493  15.162 -0.2005 -0.0413  0.4365
 5685SOL    HW128688   2.683   2.398  15.158 -2.3529  0.0486  2.3973
 5685SOL    HW228689   2.699   2.510  15.256  1.4045  0.5259  0.1916
 5686SOL     OW28690   3.306   0.673   8.901 -0.1533  0.4957  0.6265
 5686SOL    HW128691   3.301   0.578   8.912 -1.4937  0.4290 -0.5876
 5686SOL    HW228692   3.263   0.689   8.985 -0.6081  0.4025  0.4112
 5687SOL     OW28693   4.660   1.677   5.640  0.8370  0.1788  0.2905
 5687SOL    HW128694   4.718   1.609   5.605  0.8815 -0.1103  0.9143
 5687SOL    HW228695   4.579   1.663   5.591  1.7793 -2.7951 -0.4481
 5688SOL     OW28696   2.416   3.562   6.642 -1.0722 -0.2075  0.9534
 5688SOL    HW128697   2.366   3.481   6.655 -1.2381 -0.3595 -0.6417
 5688SOL    HW228698   2.345   3.620   6.671 -0.1618  1.0716  0.6199
 5689SOL     OW28699   2.976   1.819  10.164  0.1703  0.5722  0.3398
 5689SOL    HW128700   2.996   1.730  10.192 -3.1553 -1.1689 -2.7396
 5689SOL    HW228701   2.891   1.824  10.208  0.2127 -0.3108  0.5251
 5690SOL     OW28702   3.735   2.093   7.684 -0.1903 -0.4342 -0.0775
 5690SOL    HW128703   3.824   2.109   7.714 -0.6757  1.0313  0.5825
 5690SOL    HW228704   3.702   2.018   7.733 -1.5001  0.0693 -0.1749
 5691SOL     OW28705   2.232   3.137   2.896  0.1531  0.4244  0.4206
 5691SOL    HW128706   2.137   3.147   2.891  0.0834 -0.8907 -0.7969
 5691SOL    HW228707   2.265   3.220   2.860 -0.6233  0.7716  0.4941
 5692SOL     OW28708   2.269   0.616   7.205 -0.3142  0.2492  0.6939
 5692SOL    HW128709   2.241   0.561   7.278 -1.4758  0.3097  0.2870
 5692SOL    HW228710   2.312   0.693   7.243  0.1056  0.1410  0.4372
 5693SOL     OW28711   3.792   2.326   1.615 -0.8396  0.2958  0.1582
 5693SOL    HW128712   3.719   2.329   1.553 -0.3384  2.8873 -0.3203
 5693SOL    HW228713   3.855   2.262   1.581 -2.3109 -0.1497 -1.7639
 5694SOL     OW28714   2.007   4.042   4.977  0.3975  0.4773  0.1450
 5694SOL    HW128715   2.017   4.083   4.891  2.6822 -1.3787 -0.5046
 5694SOL    HW228716   1.926   3.992   4.961  0.5845  0.3245 -0.3238
 5695SOL     OW28717   2.357   3.680   1.112 -0.2793 -0.4999 -0.3530
 5695SOL    HW128718   2.394   3.691   1.025 -0.2808  2.8269  0.0644
 5695SOL    HW228719   2.294   3.615   1.080  0.5301  0.1869 -3.2654
 5696SOL     OW28720   3.976   1.966  17.699 -0.0599 -0.0707  0.2619
 5696SOL    HW128721   4.035   1.951   0.009 -0.7883  0.4438  0.9582
 5696SOL    HW228722   4.013   1.909  17.631 -1.1630 -0.7778  0.2509
 5697SOL     OW28723   1.330   2.571   9.781 -0.4203  0.5316  0.4900
 5697SOL    HW128724   1.282   2.646   9.745 -0.0497  0.0477 -1.0064
 5697SOL    HW228725   1.253   2.515   9.790  1.7031 -2.1804  1.4977
 5698SOL     OW28726   0.662   3.783   6.545 -0.3166  0.0276  0.5294
 5698SOL    HW128727   0.680   3.690   6.555 -1.5663 -0.2042  0.6592
 5698SOL    HW228728   0.743   3.821   6.577  1.2852 -1.0161 -2.2506
 5699SOL     OW28729   0.258   0.010  12.961  0.2185  0.1371  0.0219
 5699SOL    HW128730   0.210   4.676  12.927  0.5587 -0.0980  0.0668
 5699SOL    HW228731   0.289   4.723  13.047 -0.0298  0.3807  0.1966
 5700SOL     OW28732   0.719   3.852  17.734  0.2091 -0.0239 -0.1117
 5700SOL    HW128733   0.640   3.852   0.024 -1.2482 -1.6614 -2.2693
 5700SOL    HW228734   0.711   3.764  17.697 -1.3133 -0.3306  0.9572
 5701SOL     OW28735   0.531   4.459   6.421  0.0942 -0.0694 -0.0412
 5701SOL    HW128736   0.468   4.395   6.389  2.3865 -2.7962  0.9782
 5701SOL    HW228737   0.541   4.514   6.342  0.5418 -1.1118 -0.7028
 5702SOL     OW28738   3.969   3.913  11.173 -0.0507 -0.3387  0.2211
 5702SOL    HW128739   3.976   3.818  11.166  1.0904 -0.3036  0.8198
 5702SOL    HW228740   3.944   3.931  11.083 -1.2126 -0.0580  0.5968
 5703SOL     OW28741   3.220   2.737   4.776 -0.0715 -0.0879  0.2115
 5703SOL    HW128742   3.127   2.747   4.755 -0.1930 -2.3130 -0.3286
 5703SOL    HW228743   3.242   2.824   4.809 -2.7696 -0.4508  3.0068
 5704SOL     OW28744   0.685   2.052   7.472  0.4176  0.0797  0.2481
 5704SOL    HW128745   0.615   2.060   7.408  2.0596 -0.8156 -1.6564
 5704SOL    HW228746   0.764   2.053   7.418  0.6660 -0.7204  0.5999
 5705SOL     OW28747   3.757   3.318   8.380 -0.4608 -0.3229 -0.3324
 5705SOL    HW128748   3.789   3.300   8.292 -1.1431  0.2381 -0.7009
 5705SOL    HW228749   3.829   3.287   8.435 -0.7487  1.0102  0.7921
 5706SOL     OW28750   1.639   3.915   2.640 -0.3600 -0.1919 -0.2716
 5706SOL    HW128751   1.624   3.899   2.547 -3.7682 -0.9519  0.4308
 5706SOL    HW228752   1.598   4.000   2.658  0.9183  0.5202 -0.6446
 5707SOL     OW28753   2.487   1.441   3.497 -0.0970  0.0617  0.0012
 5707SOL    HW128754   2.533   1.437   3.580  0.9277 -0.1797 -0.5801
 5707SOL    HW228755   2.402   1.398   3.506  0.0858 -0.1253  0.7830
 5708SOL     OW28756   3.768   4.410   7.992  0.4502  0.7668 -0.1510
 5708SOL    HW128757   3.808   4.350   8.055 -1.4997 -0.6928 -0.2776
 5708SOL    HW228758   3.686   4.424   8.040  0.4647  0.1728  0.0500
 5709SOL     OW28759   4.662   0.530  14.847 -0.5320 -0.3152 -0.4195
 5709SOL    HW128760   4.577   0.530  14.891  0.2642  1.4384  1.1297
 5709SOL    HW228761   4.709   0.595  14.899  3.0423 -1.7669 -1.8243
 5710SOL     OW28762   2.802   3.258   1.329 -0.4006  0.2948  0.6209
 5710SOL    HW128763   2.841   3.264   1.417 -2.7618 -1.6065  1.7998
 5710SOL    HW228764   2.776   3.167   1.318 -2.2870  1.0094 -0.7631
 5711SOL     OW28765   3.379   1.138   3.036  0.1697 -0.7304 -0.0106
 5711SOL    HW128766   3.434   1.196   2.982  0.1415 -0.4325  0.2841
 5711SOL    HW228767   3.341   1.202   3.096 -3.0036 -0.9226 -1.7924
 5712SOL     OW28768   4.099   1.201  10.945  0.4132 -0.0600  0.1261
 5712SOL    HW128769   4.036   1.273  10.953  0.8649  0.4723 -1.2072
 5712SOL    HW228770   4.056   1.154  10.874 -1.3786 -0.4862  1.5198
 5713SOL     OW28771   1.882   1.873  11.079 -0.0146  0.2805 -0.4172
 5713SOL    HW128772   1.853   1.965  11.074 -2.3679 -0.4296  0.1105
 5713SOL    HW228773   1.969   1.894  11.112 -0.5974  2.4026 -0.1766
 5714SOL     OW28774   1.590   3.047  11.049  0.4894 -0.0426  0.0503
 5714SOL    HW128775   1.645   3.125  11.035 -1.3655  0.9858 -1.5197
 5714SOL    HW228776   1.526   3.092  11.104  0.3717  0.8930 -0.8389
 5715SOL     OW28777   0.867   0.455   2.980  0.7867  0.6012  0.0540
 5715SOL    HW128778   0.815   0.531   2.955  1.5758  1.0923 -0.1052
 5715SOL    HW228779   0.875   0.465   3.075  1.2525 -1.6059  0.2373
 5716SOL     OW28780   3.196   2.341   6.656 -0.8995  0.0137  0.2996
 5716SOL    HW128781   3.236   2.260   6.622  1.4755  1.5747 -0.6826
 5716SOL    HW228782   3.191   2.400   6.580  2.6632  0.2110  0.1818
 5717SOL     OW28783   0.518   1.488   9.942  0.6192  0.3789 -0.6382
 5717SOL    HW128784   0.587   1.443   9.895  2.7255  1.9112  1.0005
 5717SOL    HW228785   0.565   1.506  10.023  0.9136 -1.1168 -0.4874
 5718SOL     OW28786   0.095   2.232   6.524  0.7059 -0.3727 -0.1145
 5718SOL    HW128787   0.042   2.311   6.515  2.4153  0.6721 -1.1767
 5718SOL    HW228788   0.170   2.247   6.466  0.3693  0.3310 -0.3735
 5719SOL     OW28789   3.443   3.630  13.670  0.4220 -0.2624 -0.3307
 5719SOL    HW128790   3.498   3.586  13.735  1.3813  1.5239  0.0840
 5719SOL    HW228791   3.507   3.680  13.618 -3.2280  1.5855 -3.0415
 5720SOL     OW28792   1.560   3.154   2.034 -0.3061 -0.0062 -0.4619
 5720SOL    HW128793   1.467   3.173   2.041 -0.4080 -0.9101  0.5203
 5720SOL    HW228794   1.595   3.194   2.113 -2.1295  0.4741  0.0908
 5721SOL     OW28795   4.206   0.255   0.343 -0.3515 -0.0528 -0.5494
 5721SOL    HW128796   4.113   0.271   0.329 -0.2392  0.6628 -0.4587
 5721SOL    HW228797   4.222   0.168   0.306  0.3244 -0.0504 -0.2682
 5722SOL     OW28798   1.521   2.150   9.666 -0.0517  0.2071  0.5134
 5722SOL    HW128799   1.445   2.179   9.616  1.4575 -0.3872 -2.0903
 5722SOL    HW228800   1.556   2.082   9.610 -1.2909 -0.6622  0.7977
 5723SOL     OW28801   2.141   3.637   8.343 -0.6410 -1.0069  0.1900
 5723SOL    HW128802   2.160   3.658   8.434 -0.2490  0.3882 -0.2199
 5723SOL    HW228803   2.191   3.557   8.326 -0.6232 -1.8763  4.2294
 5724SOL     OW28804   3.008   0.655   7.842  0.0193 -0.7056 -0.1169
 5724SOL    HW128805   3.017   0.738   7.796  1.5156 -0.8865 -0.1665
 5724SOL    HW228806   3.045   0.598   7.774  3.0406 -0.1516  1.0729
 5725SOL     OW28807   1.903   1.324  12.107 -0.3954 -0.3507 -0.1583
 5725SOL    HW128808   1.868   1.394  12.051 -1.6979 -1.0624 -0.2371
 5725SOL    HW228809   1.844   1.344  12.179 -0.0827  0.6528 -0.1864
 5726SOL     OW28810   1.165   4.728   7.766  0.3340 -0.1701 -0.6562
 5726SOL    HW128811   1.137   4.682   7.686 -1.5478  1.9145 -1.1965
 5726SOL    HW228812   1.148   4.662   7.833 -2.3635  2.3414  1.1479
 5727SOL     OW28813   2.992   0.985   8.542 -0.5696 -0.1207  0.6186
 5727SOL    HW128814   3.006   0.891   8.554 -0.9793 -0.0494  1.6455
 5727SOL    HW228815   3.080   1.021   8.533 -0.4845 -0.7167 -0.9949
 5728SOL     OW28816   1.730   2.486  16.524 -0.8506  0.0670  0.0787
 5728SOL    HW128817   1.788   2.456  16.594 -2.4482 -1.5969  0.6719
 5728SOL    HW228818   1.685   2.405  16.501  1.5720 -0.9566 -1.0283
 5729SOL     OW28819   1.421   2.339   9.441  0.0446  0.1563  0.1356
 5729SOL    HW128820   1.371   2.400   9.385 -0.1215  0.3848  0.5266
 5729SOL    HW228821   1.354   2.306   9.500  0.3663 -0.7224 -0.0014
 5730SOL     OW28822   2.172   2.654   3.784  0.3350  0.1058  0.2675
 5730SOL    HW128823   2.135   2.571   3.752  2.1551 -0.9726  0.9454
 5730SOL    HW228824   2.214   2.612   3.859  1.2714  0.0880 -0.2765
 5731SOL     OW28825   2.112   1.285   9.269 -0.0216  0.5338  0.1391
 5731SOL    HW128826   2.189   1.249   9.224 -0.4532 -0.9429  0.5626
 5731SOL    HW228827   2.136   1.261   9.358 -0.0280 -0.5251 -0.1357
 5732SOL     OW28828   4.015   0.730  12.988 -0.1468 -0.4454 -0.3792
 5732SOL    HW128829   3.952   0.765  13.051 -1.4820  1.8225 -2.9569
 5732SOL    HW228830   3.954   0.669  12.947  0.6718 -1.5638  0.0712
 5733SOL     OW28831   2.089   1.733   9.690 -0.7771  0.1105  0.3492
 5733SOL    HW128832   2.056   1.644   9.675 -0.0802 -0.4556  2.1571
 5733SOL    HW228833   2.104   1.754   9.598 -1.2214  0.7191  0.4135
 5734SOL     OW28834   2.821   1.046  10.260 -0.6167 -0.4710 -0.0286
 5734SOL    HW128835   2.805   1.124  10.208  1.6662  0.4215  0.6619
 5734SOL    HW228836   2.914   1.026  10.257 -0.6756 -0.4108 -1.9719
 5735SOL     OW28837   4.563   0.913   8.778 -0.0737 -0.3914 -0.5184
 5735SOL    HW128838   4.613   0.871   8.708 -0.3127 -2.3237  0.4696
 5735SOL    HW228839   4.561   0.844   8.845 -0.6319  0.3909  0.2705
 5736SOL     OW28840   1.946   1.232   0.517 -0.8032  0.1068 -0.4882
 5736SOL    HW128841   2.029   1.228   0.564 -0.9783  1.5578 -0.0767
 5736SOL    HW228842   1.979   1.262   0.432  0.1125  0.0737 -0.1506
 5737SOL     OW28843   2.326   2.266  16.119  0.3136 -0.3053 -0.2525
 5737SOL    HW128844   2.236   2.263  16.086 -0.5114  0.1990  2.0040
 5737SOL    HW228845   2.368   2.188  16.081 -1.7906 -0.5739 -1.9968
 5738SOL     OW28846   0.353   2.903  16.853 -0.6297  0.2952  0.3307
 5738SOL    HW128847   0.331   2.978  16.797 -0.7825  0.8326  1.1135
 5738SOL    HW228848   0.339   2.945  16.938  0.7245 -1.6311  1.4949
 5739SOL     OW28849   0.414   0.318   8.884 -0.1463 -0.0753  0.0754
 5739SOL    HW128850   0.487   0.380   8.873 -0.3601  0.1346 -0.1457
 5739SOL    HW228851   0.349   0.340   8.817 -0.7063 -0.7858  0.3896
 5740SOL     OW28852   2.536   0.224  16.670  0.0729  0.0718  0.0633
 5740SOL    HW128853   2.481   0.195  16.743  0.9715  0.4571  0.8921
 5740SOL    HW228854   2.571   0.139  16.642  1.1510  0.5375  0.0220
 5741SOL     OW28855   0.171   4.112  15.244  0.7107 -0.1137 -0.3589
 5741SOL    HW128856   0.223   4.174  15.193 -0.7676  1.4014 -0.0109
 5741SOL    HW228857   0.111   4.071  15.181  0.1616  1.1347 -0.6474
 5742SOL     OW28858   3.488   1.794  14.029  0.1602  0.9040 -0.0308
 5742SOL    HW128859   3.471   1.793  14.124 -3.5051  1.0923 -0.6800
 5742SOL    HW228860   3.547   1.868  14.042  1.8841 -0.4717 -0.1198
 5743SOL     OW28861   1.542   0.285   8.849  0.7116  0.9010  0.5374
 5743SOL    HW128862   1.507   0.261   8.763 -0.7211  1.1105  1.0519
 5743SOL    HW228863   1.536   0.200   8.893 -0.4710  0.8473  0.2835
 5744SOL     OW28864   1.565   0.012   8.430 -0.4276  0.1393 -0.3589
 5744SOL    HW128865   1.491   4.694   8.419 -0.2210  0.0109 -1.0321
 5744SOL    HW228866   1.600   4.712   8.509  0.1474  0.5340 -0.4073
 5745SOL     OW28867   0.272   3.536  16.058  0.7352 -0.2439 -0.2067
 5745SOL    HW128868   0.285   3.462  15.998 -1.3017  0.4728 -1.5165
 5745SOL    HW228869   0.219   3.602  16.014 -0.9804 -1.4062  0.1129
 5746SOL     OW28870   2.265   2.164  16.342  0.2772 -0.2855  0.5961
 5746SOL    HW128871   2.291   2.229  16.277 -2.3733  0.3725  0.1979
 5746SOL    HW228872   2.215   2.102  16.289  2.1880  0.8469 -2.4977
 5747SOL     OW28873   3.004   0.588  15.094  0.2619 -0.2709  0.2091
 5747SOL    HW128874   3.005   0.522  15.164  2.2731 -1.9251 -1.3991
 5747SOL    HW228875   3.038   0.663  15.143  0.0541  0.0108 -0.0799
 5748SOL     OW28876   4.219   1.430  16.644 -0.2727 -0.2434  0.3541
 5748SOL    HW128877   4.200   1.484  16.721 -3.0168  0.3700 -0.7439
 5748SOL    HW228878   4.283   1.367  16.678  0.4028 -0.5871 -1.5748
 5749SOL     OW28879   0.988   1.908  11.239  0.3279  0.1151  0.2729
 5749SOL    HW128880   0.916   1.869  11.190  1.2265 -1.5604  0.2769
 5749SOL    HW228881   1.032   1.831  11.275 -0.9198 -0.8023 -0.1802
 5750SOL     OW28882   0.997   4.505   5.323 -0.1526 -0.3162  0.3341
 5750SOL    HW128883   1.051   4.474   5.251  0.5677  2.2230 -0.1960
 5750SOL    HW228884   1.040   4.581   5.361 -1.7573  0.3014  0.9458
 5751SOL     OW28885   2.439   2.350   2.794  0.0789 -0.3353 -0.1278
 5751SOL    HW128886   2.385   2.412   2.745 -0.0141  0.6855  1.2852
 5751SOL    HW228887   2.526   2.364   2.757 -0.6081  0.1813 -1.5380
 5752SOL     OW28888   2.264   0.369   4.659  0.2153  0.0615  0.0408
 5752SOL    HW128889   2.339   0.371   4.600  0.4309 -0.1481  0.3031
 5752SOL    HW228890   2.261   0.462   4.682 -0.1961 -0.0270  0.3406
 5753SOL     OW28891   1.535   0.815   7.881  0.2992  0.0960 -0.5793
 5753SOL    HW128892   1.511   0.851   7.966 -0.9813  1.2334 -1.4111
 5753SOL    HW228893   1.525   0.892   7.824 -0.2578  0.1067 -0.4734
 5754SOL     OW28894   0.109   0.627   6.694 -0.2059 -0.6711  0.0166
 5754SOL    HW128895   0.075   0.572   6.624 -1.0830  1.6947 -1.4315
 5754SOL    HW228896   0.178   0.572   6.730 -0.4000 -0.5700  0.5512
 5755SOL     OW28897   3.289   1.757   6.796  0.3451  0.0288  0.3705
 5755SOL    HW128898   3.210   1.731   6.843  0.8815  0.3370  1.4592
 5755SOL    HW228899   3.295   1.681   6.739  0.7496 -0.1047  0.5875
 5756SOL     OW28900   1.297   0.107   2.869  0.3015  0.2057  0.1406
 5756SOL    HW128901   1.380   0.060   2.861  0.4515  0.2653  1.3421
 5756SOL    HW228902   1.236   0.062   2.929  1.3791 -0.8150  0.4692
 5757SOL     OW28903   3.549   3.342  16.032 -0.5311  0.0428 -0.1826
 5757SOL    HW128904   3.461   3.379  16.021 -0.3354  0.1154 -1.4115
 5757SOL    HW228905   3.567   3.305  15.946  0.6329  1.0105 -0.3512
 5758SOL     OW28906   3.277   0.508   7.257 -0.5139  0.0664  0.0050
 5758SOL    HW128907   3.214   0.448   7.219 -1.2669  0.4540  0.6451
 5758SOL    HW228908   3.333   0.529   7.182 -0.5455 -0.2907 -0.1195
 5759SOL     OW28909   1.508   2.505   5.146  0.6777  0.4001  0.3511
 5759SOL    HW128910   1.441   2.465   5.091  2.0750  0.5660 -1.4822
 5759SOL    HW228911   1.455   2.536   5.219  0.7838  0.4668  0.4004
 5760SOL     OW28912   1.160   3.942  11.320 -0.0962  0.0549 -0.1420
 5760SOL    HW128913   1.081   3.963  11.369  0.3666 -0.6553  0.8823
 5760SOL    HW228914   1.209   4.023  11.304 -2.1348  1.5416  1.1514
 5761SOL     OW28915   3.843   1.558   4.723 -0.0090 -0.2672  0.3453
 5761SOL    HW128916   3.900   1.588   4.652 -0.4843  0.5640  0.3059
 5761SOL    HW228917   3.802   1.637   4.760 -3.9068 -0.7287 -2.9234
 5762SOL     OW28918   1.801   3.397   5.677  0.2943  0.1785  0.2041
 5762SOL    HW128919   1.775   3.448   5.601 -2.8307 -0.3820  0.9035
 5762SOL    HW228920   1.764   3.437   5.756  0.4640  0.1174  0.3172
 5763SOL     OW28921   1.922   2.379   8.983  0.0455 -0.2288  0.5191
 5763SOL    HW128922   1.854   2.312   8.995 -1.3347  0.8867 -1.1151
 5763SOL    HW228923   1.864   2.435   8.932 -0.1765 -1.2305 -0.3249
 5764SOL     OW28924   3.334   3.733   4.440 -0.2115  0.1771  0.1674
 5764SOL    HW128925   3.288   3.712   4.359 -0.8127  1.6961  0.1109
 5764SOL    HW228926   3.308   3.672   4.510  0.4837  0.9767  1.1236
 5765SOL     OW28927   1.206   3.174   4.714  0.0332  0.2517 -0.1349
 5765SOL    HW128928   1.130   3.121   4.737  0.7205 -0.4506  0.4844
 5765SOL    HW228929   1.252   3.170   4.798 -0.3849 -1.1400  0.0249
 5766SOL     OW28930   1.750   1.376   3.580  0.0918 -0.3676 -0.3212
 5766SOL    HW128931   1.708   1.387   3.666  1.9282 -0.5790  0.6066
 5766SOL    HW228932   1.733   1.284   3.562 -1.9855  0.1559 -1.0512
 5767SOL     OW28933   0.795   0.590   3.270 -0.7211  0.0307  0.8741
 5767SOL    HW128934   0.763   0.660   3.213  0.9590  1.3213  1.5052
 5767SOL    HW228935   0.745   0.615   3.348 -0.2152 -0.0188  1.2179
 5768SOL     OW28936   4.645   4.418   9.868  0.1320 -0.4588  0.1298
 5768SOL    HW128937   4.739   4.404   9.871  0.2307  0.3826  1.3343
 5768SOL    HW228938   4.618   4.357   9.938 -1.1269  0.9477  0.8843
 5769SOL     OW28939   0.724   1.925  11.036  0.1934  0.2253  0.1145
 5769SOL    HW128940   0.666   1.913  10.961 -0.6549 -0.2508  0.8475
 5769SOL    HW228941   0.736   2.020  11.028  1.4754 -0.0313 -0.9686
 5770SOL     OW28942   2.118   1.365   2.972 -0.3588  0.3156 -0.5218
 5770SOL    HW128943   2.139   1.437   2.913  0.6329  0.3834 -0.0745
 5770SOL    HW228944   2.026   1.385   2.988 -0.9403 -1.8057 -1.1517
 5771SOL     OW28945   1.080   1.210   4.735  0.3172  0.0927 -0.5036
 5771SOL    HW128946   1.038   1.161   4.665 -0.7010  1.4746 -0.8728
 5771SOL    HW228947   1.000   1.262   4.745 -0.8059 -2.0899  1.8579
 5772SOL     OW28948   0.331   1.994   4.167  0.3996 -0.4053 -1.0250
 5772SOL    HW128949   0.272   1.957   4.233  0.3120 -2.6237 -2.3423
 5772SOL    HW228950   0.284   2.075   4.144 -1.6375 -1.4783 -0.6449
 5773SOL     OW28951   3.784   1.432  17.757 -0.2066 -0.6152  0.0298
 5773SOL    HW128952   3.722   1.489   0.038  2.3222  1.2469  1.1572
 5773SOL    HW228953   3.772   1.343   0.027 -0.7757 -0.9812 -1.1558
 5774SOL     OW28954   1.185   0.370   5.673  0.6380  0.2216  0.4728
 5774SOL    HW128955   1.277   0.353   5.693  1.1560  2.2108 -0.1799
 5774SOL    HW228956   1.172   0.330   5.587 -1.0992  1.0238  0.3741
 5775SOL     OW28957   0.230   3.709   8.263  0.7570 -0.0873 -0.1320
 5775SOL    HW128958   0.184   3.790   8.240 -1.2044 -1.5041 -1.2238
 5775SOL    HW228959   0.320   3.729   8.239  0.7401 -0.1647 -0.2574
 5776SOL     OW28960   3.063   2.189   6.838 -0.2083 -0.4421  0.2926
 5776SOL    HW128961   3.103   2.226   6.759  1.0944  1.5385  1.8663
 5776SOL    HW228962   3.140   2.188   6.896 -1.8458  1.0034  2.4887
 5777SOL     OW28963   2.672   1.058  16.954 -0.1107  0.0387  0.2606
 5777SOL    HW128964   2.707   1.015  16.876 -2.2306 -1.2986  0.0447
 5777SOL    HW228965   2.732   1.132  16.962  3.4046 -2.4003 -3.3344
 5778SOL     OW28966   2.003   2.732   1.582 -0.5632  0.0408  0.2562
 5778SOL    HW128967   1.925   2.789   1.586 -0.3073  0.3308  1.2309
 5778SOL    HW228968   2.061   2.794   1.627 -0.5641 -0.3859  0.8381
 5779SOL     OW28969   1.264   1.961   1.511 -0.6231 -0.1947  0.4192
 5779SOL    HW128970   1.354   1.967   1.544 -0.2011 -0.0504 -0.7503
 5779SOL    HW228971   1.289   1.967   1.418  1.8305  1.2157  1.1645
 5780SOL     OW28972   1.478   2.049   6.852 -0.5000  0.4455  0.0824
 5780SOL    HW128973   1.477   2.069   6.946 -0.9429  1.9269 -0.2421
 5780SOL    HW228974   1.384   2.037   6.839 -0.8855  2.6392  0.9463
 5781SOL     OW28975   3.193   4.609   3.918 -0.8656  0.4324 -0.1170
 5781SOL    HW128976   3.124   4.675   3.908 -1.5209  0.1000  2.3249
 5781SOL    HW228977   3.268   4.654   3.879  1.2252 -2.1543  0.9404
 5782SOL     OW28978   2.930   2.666   2.006 -0.4318 -1.3958 -0.1128
 5782SOL    HW128979   2.868   2.642   2.075  0.9575 -2.5919  0.7234
 5782SOL    HW228980   2.919   2.761   1.998  1.6794 -1.0493  1.0174
 5783SOL     OW28981   1.989   4.153   6.074 -0.0461 -0.1261  0.0210
 5783SOL    HW128982   1.914   4.201   6.110  1.9358  0.1578  3.8107
 5783SOL    HW228983   1.958   4.140   5.984  0.5688  0.2538 -0.2441
 5784SOL     OW28984   1.099   1.047  10.688 -0.0842 -0.2615  0.2674
 5784SOL    HW128985   1.052   0.972  10.724  1.9182 -1.0806  1.1800
 5784SOL    HW228986   1.190   1.020  10.698  0.6629  2.0506 -0.2840
 5785SOL     OW28987   1.675   1.512   1.444  0.3171  0.5007 -0.0005
 5785SOL    HW128988   1.651   1.545   1.357 -1.7248 -0.5234  0.1724
 5785SOL    HW228989   1.768   1.497   1.429  0.0327  0.4291 -1.7772
 5786SOL     OW28990   4.487   0.807  13.928 -0.1321  0.1285 -0.3093
 5786SOL    HW128991   4.521   0.777  13.844  1.3080  0.2428  0.2381
 5786SOL    HW228992   4.440   0.729  13.958 -0.7774  0.6383  0.0267
 5787SOL     OW28993   0.122   3.923   4.605  0.4958  0.7247 -0.2252
 5787SOL    HW128994   0.072   3.876   4.538  0.5229 -0.3920  0.5375
 5787SOL    HW228995   0.137   3.850   4.664 -0.2158  1.7020  1.1687
 5788SOL     OW28996   1.900   1.353   9.104  0.3079 -0.1611  0.5838
 5788SOL    HW128997   1.959   1.283   9.129  1.9851  1.6877  1.7681
 5788SOL    HW228998   1.953   1.432   9.111  1.8277 -1.0658 -0.8143
 5789SOL     OW28999   4.671   0.942   5.671 -0.0760  0.1821  0.3700
 5789SOL    HW129000   4.740   1.004   5.694  1.6861 -1.1085 -1.4021
 5789SOL    HW229001   4.622   0.929   5.752 -1.6686  2.1787 -0.2604
 5790SOL     OW29002   2.616   1.339   3.897 -0.7188 -0.3329 -0.1161
 5790SOL    HW129003   2.575   1.268   3.847  0.5191 -0.3718 -1.0709
 5790SOL    HW229004   2.648   1.395   3.827 -0.8151 -0.0242  0.0902
 5791SOL     OW29005   2.872   1.537   7.761 -0.6755 -0.7679 -0.3196
 5791SOL    HW129006   2.898   1.447   7.743  1.1052 -0.1648 -0.7139
 5791SOL    HW229007   2.874   1.550   7.855  2.3816  0.1565 -0.5294
 5792SOL     OW29008   1.982   0.766   3.041 -0.0077 -0.0416  0.0143
 5792SOL    HW129009   2.026   0.850   3.028  0.6314 -0.4994 -0.8023
 5792SOL    HW229010   1.977   0.763   3.136 -2.2487  0.9573 -0.0714
 5793SOL     OW29011   2.419   2.566   9.066 -0.3654  0.2137  0.2934
 5793SOL    HW129012   2.510   2.575   9.095 -1.1370  0.9303  2.4900
 5793SOL    HW229013   2.399   2.486   9.115 -4.0745  0.1365 -1.3954
 5794SOL     OW29014   3.285   3.411   2.614  0.6997  0.3801  0.6445
 5794SOL    HW129015   3.301   3.372   2.700 -2.1018 -3.5879 -0.6705
 5794SOL    HW229016   3.344   3.362   2.556  0.0998 -0.6587  0.9180
 5795SOL     OW29017   1.294   1.474   8.947 -0.0802 -0.3163 -0.1587
 5795SOL    HW129018   1.366   1.474   8.884 -0.3602 -1.6140 -0.4809
 5795SOL    HW229019   1.253   1.388   8.944 -1.8373  0.5664 -1.1303
 5796SOL     OW29020   1.640   0.692   9.511 -0.1663 -0.0108 -0.5191
 5796SOL    HW129021   1.673   0.678   9.423 -1.8383 -2.1051 -0.7973
 5796SOL    HW229022   1.577   0.763   9.498  0.7997  1.2601  1.6510
 5797SOL     OW29023   2.425   0.067   5.373  0.1269  0.1559 -0.3836
 5797SOL    HW129024   2.431   4.715   5.354  1.1020 -0.0410  0.9365
 5797SOL    HW229025   2.514   0.098   5.354 -1.0997  2.1345 -2.8880
 5798SOL     OW29026   1.500   2.399   5.704 -0.6504  0.1530  0.3271
 5798SOL    HW129027   1.580   2.422   5.752 -0.7845  0.4938  0.3932
 5798SOL    HW229028   1.478   2.485   5.667 -1.9974 -0.2032  0.3033
 5799SOL     OW29029   0.246   2.832  16.576  0.4988 -0.0169  0.2896
 5799SOL    HW129030   0.332   2.822  16.617  0.3848 -0.2594  0.4690
 5799SOL    HW229031   0.195   2.889  16.633  0.3887  0.3289 -0.1529
 5800SOL     OW29032   2.379   2.737  13.368  0.4082  0.0096 -0.1015
 5800SOL    HW129033   2.371   2.643  13.383 -1.7776  0.1351 -0.5884
 5800SOL    HW229034   2.320   2.745  13.294 -0.8815  0.4395  0.9715
 5801SOL     OW29035   3.546   0.280   3.355  0.3193  0.1135 -0.1642
 5801SOL    HW129036   3.542   0.327   3.438  2.7286  0.2200 -0.1053
 5801SOL    HW229037   3.600   0.206   3.384 -0.1065 -0.6495 -1.3250
 5802SOL     OW29038   1.950   2.668   9.195  0.5328 -0.1427  0.1165
 5802SOL    HW129039   2.030   2.707   9.230 -1.2107 -0.3434  4.3979
 5802SOL    HW229040   1.976   2.576   9.194  1.5049  0.1574 -3.0702
 5803SOL     OW29041   2.622   3.098  16.354  0.3482  0.5786 -0.4386
 5803SOL    HW129042   2.610   3.047  16.434  0.4033 -0.6676 -1.2423
 5803SOL    HW229043   2.566   3.058  16.288  0.1630 -1.3538  0.8938
 5804SOL     OW29044   0.941   1.985   3.345  0.1000  0.2216  0.2499
 5804SOL    HW129045   0.906   1.942   3.422  0.9492 -3.5343 -1.4498
 5804SOL    HW229046   1.000   2.045   3.390  0.0053  0.5043  0.0008
 5805SOL     OW29047   1.347   0.743   8.603  0.0575 -0.0491 -0.0045
 5805SOL    HW129048   1.283   0.814   8.613  0.0215 -0.1561  0.5424
 5805SOL    HW229049   1.315   0.708   8.520 -1.1868  0.9454  0.0559
 5806SOL     OW29050   2.862   4.462   4.226  0.4970  0.6578 -0.1139
 5806SOL    HW129051   2.903   4.546   4.203  1.5225 -0.4925 -2.4944
 5806SOL    HW229052   2.789   4.488   4.283  0.6621 -2.4965  1.5360
 5807SOL     OW29053   1.852   0.903   3.873 -0.3385 -0.1308  0.6707
 5807SOL    HW129054   1.839   0.914   3.967 -0.6939 -0.7227  0.6853
 5807SOL    HW229055   1.762   0.879   3.848  0.5606 -1.8591 -0.8887
 5808SOL     OW29056   0.960   2.714   8.232 -0.2000  1.0737 -0.1459
 5808SOL    HW129057   0.980   2.681   8.144 -2.9318  0.2056 -0.4372
 5808SOL    HW229058   1.048   2.743   8.259  0.7830 -1.6416 -0.4454
 5809SOL     OW29059   3.856   2.622   7.267  0.0002 -0.4354 -0.2661
 5809SOL    HW129060   3.812   2.680   7.329  1.7156 -0.3502  0.8615
 5809SOL    HW229061   3.790   2.555   7.248  1.9384 -2.3580 -0.1341
 5810SOL     OW29062   1.828   3.714   3.260 -0.7172  0.1003 -0.5397
 5810SOL    HW129063   1.781   3.749   3.185  0.3200 -0.9342 -1.6703
 5810SOL    HW229064   1.758   3.714   3.325  0.5286  0.6870  0.7991
 5811SOL     OW29065   0.821   2.015   2.299 -0.3902 -0.1027  0.2112
 5811SOL    HW129066   0.755   1.966   2.250  2.3107 -3.3160 -0.2564
 5811SOL    HW229067   0.874   1.958   2.355 -2.5992 -0.2358  2.1486
 5812SOL     OW29068   3.780   3.472  16.075  0.2551 -0.4046  0.3391
 5812SOL    HW129069   3.828   3.391  16.056  1.1935 -0.0178  1.0654
 5812SOL    HW229070   3.694   3.430  16.083 -0.1706  1.1748  3.8890
 5813SOL     OW29071   1.835   4.585   5.103  0.1414 -0.2048  0.6368
 5813SOL    HW129072   1.760   4.644   5.096 -0.0850 -0.3510  1.8433
 5813SOL    HW229073   1.801   4.496   5.113  3.5285 -1.3643  1.5909
 5814SOL     OW29074   0.099   2.011   0.634 -0.2068 -0.1079  0.0588
 5814SOL    HW129075   0.062   2.040   0.718  1.4820  1.9563  0.1042
 5814SOL    HW229076   0.036   2.049   0.573  0.9187  0.3704 -0.8011
 5815SOL     OW29077   1.582   2.391  14.316  0.5710 -0.3056 -0.0899
 5815SOL    HW129078   1.575   2.296  14.324  0.3219 -0.2195  0.6799
 5815SOL    HW229079   1.539   2.409  14.400  2.1238 -2.5201  1.1693
 5816SOL     OW29080   0.511   1.733   8.138  0.0199  0.1804  0.3612
 5816SOL    HW129081   0.572   1.741   8.211 -0.7817 -0.1933  1.0665
 5816SOL    HW229082   0.528   1.650   8.094 -2.1769  0.4328 -0.9825
 5817SOL     OW29083   4.182   1.867   2.860 -0.1180 -0.1113  0.1165
 5817SOL    HW129084   4.240   1.878   2.936  0.3349  1.1914 -0.4088
 5817SOL    HW229085   4.208   1.777   2.839 -2.4600 -0.9556  0.8180
 5818SOL     OW29086   3.469   1.011   6.283  0.2805 -0.0558 -0.1353
 5818SOL    HW129087   3.511   1.091   6.251  0.1453 -0.0577 -0.3214
 5818SOL    HW229088   3.379   1.023   6.251  0.8390  4.4520 -0.0937
 5819SOL     OW29089   3.225   0.770   7.653  0.2716  0.6459  0.6385
 5819SOL    HW129090   3.215   0.785   7.559  2.5311 -0.4832  0.2263
 5819SOL    HW229091   3.283   0.695   7.648 -1.2415 -0.3021 -2.4934
 5820SOL     OW29092   3.118   0.719   2.371  0.0153  0.1443  0.3293
 5820SOL    HW129093   3.181   0.791   2.365 -1.3191  1.2933 -0.1708
 5820SOL    HW229094   3.048   0.766   2.325 -1.7278 -0.4713  2.3598
 5821SOL     OW29095   2.688   0.435   9.901 -0.6177 -0.1580 -0.1397
 5821SOL    HW129096   2.647   0.512   9.861  0.0403  0.8346  1.1088
 5821SOL    HW229097   2.774   0.473   9.883  0.1621 -2.4369 -1.2288
 5822SOL     OW29098   4.562   3.757   8.085 -0.4726  0.0811 -0.0224
 5822SOL    HW129099   4.512   3.828   8.127 -0.9700 -0.4861  0.3432
 5822SOL    HW229100   4.501   3.711   8.029 -0.3825  0.1877 -0.2082
 5823SOL     OW29101   4.526   4.646  17.676  0.1423 -0.0751 -0.3304
 5823SOL    HW129102   4.582   4.580  17.718 -2.2648 -2.3266 -0.6718
 5823SOL    HW229103   4.499   4.699  17.750 -0.2474 -1.9620  0.8917
 5824SOL     OW29104   2.234   0.600   3.172  0.2234 -0.0990  0.4926
 5824SOL    HW129105   2.148   0.596   3.213 -0.9975  3.8901 -1.7147
 5824SOL    HW229106   2.277   0.673   3.217  1.2739 -0.2726 -0.2184
 5825SOL     OW29107   0.638   1.207   9.943 -0.5352  0.1101  0.1481
 5825SOL    HW129108   0.644   1.243   9.855  1.2069  0.4969  0.4347
 5825SOL    HW229109   0.587   1.126   9.936 -0.6957  0.2428 -0.2322
 5826SOL     OW29110   2.574   3.923   7.965 -0.2277  0.4954  0.5482
 5826SOL    HW129111   2.512   3.995   7.981 -2.0921 -1.1011  0.5531
 5826SOL    HW229112   2.649   3.960   8.010  0.0974 -0.1780  0.5521
 5827SOL     OW29113   3.224   2.133   9.607  0.1270  0.7695  0.0691
 5827SOL    HW129114   3.296   2.195   9.598 -0.1437  0.8591 -1.4095
 5827SOL    HW229115   3.240   2.084   9.526 -1.1165  1.3570 -0.5283
 5828SOL     OW29116   1.946   1.524   5.939  0.3602 -0.5524  0.3999
 5828SOL    HW129117   1.920   1.451   5.883  0.0624  0.7621 -1.1425
 5828SOL    HW229118   1.871   1.536   5.997  0.0903  0.0248 -0.0772
 5829SOL     OW29119   0.832   3.691   2.506  0.5299 -0.2196 -0.3875
 5829SOL    HW129120   0.809   3.782   2.528  1.5392 -0.6609  2.4292
 5829SOL    HW229121   0.824   3.651   2.592 -0.0034 -1.5865 -1.0664
 5830SOL     OW29122   0.903   2.475   8.434 -0.2913  0.3515 -0.1863
 5830SOL    HW129123   0.960   2.532   8.485  0.1612 -0.2427 -0.0375
 5830SOL    HW229124   0.813   2.508   8.440 -0.4202  0.5805 -3.0820
 5831SOL     OW29125   3.920   2.365   2.572 -0.1213  0.0238  0.2192
 5831SOL    HW129126   4.009   2.398   2.557 -0.1032 -0.3083 -0.4254
 5831SOL    HW229127   3.879   2.407   2.496  2.2196 -1.3161 -1.8167
 5832SOL     OW29128   4.278   1.496   7.534 -0.1612  0.2955  0.0959
 5832SOL    HW129129   4.275   1.468   7.626 -1.6980  2.0763  0.5953
 5832SOL    HW229130   4.372   1.488   7.517 -0.2457 -1.0736  0.3141
 5833SOL     OW29131   4.356   2.104   6.336  0.3375  0.0012  0.1252
 5833SOL    HW129132   4.364   2.183   6.389  0.4981  0.9026 -1.2421
 5833SOL    HW229133   4.449   2.085   6.320  0.4014  0.5446 -0.1453
 5834SOL     OW29134   1.861   3.811   2.467 -0.6114 -0.4238  0.1407
 5834SOL    HW129135   1.774   3.832   2.432  0.4410  1.8426 -1.1247
 5834SOL    HW229136   1.853   3.846   2.556 -0.6899  0.8516 -0.3581
 5835SOL     OW29137   2.396   1.140  16.168 -0.0052  0.0508 -0.0182
 5835SOL    HW129138   2.488   1.161  16.185  0.5084  0.3628 -3.0827
 5835SOL    HW229139   2.395   1.050  16.200  2.9388 -0.2147 -0.6474
 5836SOL     OW29140   4.037   3.940   2.531  0.0554  0.1850  0.0410
 5836SOL    HW129141   3.980   3.871   2.564  0.4770 -1.1234 -1.9983
 5836SOL    HW229142   3.991   3.959   2.449 -0.3824 -0.5557  0.1172
 5837SOL     OW29143   2.731   0.992   8.577 -0.3840  0.0689 -0.2293
 5837SOL    HW129144   2.822   0.981   8.603 -0.1933 -0.1112 -0.9844
 5837SOL    HW229145   2.736   0.929   8.505 -0.1572  0.1271 -0.2618
 5838SOL     OW29146   3.017   3.594   2.381 -0.1212  0.0891 -0.2358
 5838SOL    HW129147   2.999   3.501   2.391  1.1107  0.0152  1.3612
 5838SOL    HW229148   3.087   3.594   2.315  0.4035  3.2139  0.3018
 5839SOL     OW29149   4.615   3.492  16.761  0.5267  0.1210 -0.5431
 5839SOL    HW129150   4.608   3.533  16.847 -3.0842  0.6841 -1.1045
 5839SOL    HW229151   4.671   3.416  16.781  0.8516  0.1639 -1.2905
 5840SOL     OW29152   1.754   1.371   5.103  0.8864 -0.5587  0.2068
 5840SOL    HW129153   1.830   1.371   5.045 -0.0663 -0.2169 -1.0271
 5840SOL    HW229154   1.790   1.418   5.178  3.6423 -0.4311 -1.1907
 5841SOL     OW29155   0.155   4.453   2.430  0.3623  0.1541 -0.2904
 5841SOL    HW129156   0.215   4.515   2.388  0.9181  1.1501  1.9815
 5841SOL    HW229157   0.178   4.449   2.523  1.3037  0.4819 -0.5071
 5842SOL     OW29158   2.214   2.190  14.466 -0.1315  0.2398 -0.2162
 5842SOL    HW129159   2.238   2.227  14.382  0.1615 -1.1607 -0.7565
 5842SOL    HW229160   2.201   2.097  14.445  0.1316 -0.1460  1.2839
 5843SOL     OW29161   2.222   0.809   1.655 -0.3373  0.2682  0.5910
 5843SOL    HW129162   2.240   0.878   1.719 -0.3872 -1.1994  2.1756
 5843SOL    HW229163   2.189   0.861   1.582 -0.0691  0.9835  0.9833
 5844SOL     OW29164   2.986   2.867   4.475  0.0517 -0.0185 -0.1636
 5844SOL    HW129165   3.074   2.840   4.451 -0.2768 -1.5765  0.3731
 5844SOL    HW229166   2.987   2.855   4.570 -1.3573  1.7890  0.1000
 5845SOL     OW29167   2.295   1.256   3.585 -0.0510 -0.0891  0.1945
 5845SOL    HW129168   2.207   1.222   3.572  0.8644 -2.6462  0.6447
 5845SOL    HW229169   2.335   1.196   3.648  0.8955  1.3901  1.0099
 5846SOL     OW29170   0.832   4.225  16.327  0.0619  0.1742 -0.3284
 5846SOL    HW129171   0.793   4.266  16.250 -0.4246  1.3729  0.5663
 5846SOL    HW229172   0.827   4.287  16.399 -0.8686  0.5325 -0.7077
 5847SOL     OW29173   1.370   3.839   1.871 -0.5358  0.4742 -0.3615
 5847SOL    HW129174   1.361   3.879   1.957  0.7582  0.7524 -0.3549
 5847SOL    HW229175   1.289   3.788   1.861 -0.7410  0.6942  0.1914
 5848SOL     OW29176   4.099   2.877  11.927  0.3356  0.2455  0.1049
 5848SOL    HW129177   4.122   2.893  11.836 -0.5154  2.5274  0.2908
 5848SOL    HW229178   4.060   2.790  11.930  0.6173  0.1410  0.7946
 5849SOL     OW29179   2.864   2.985   6.449 -0.4017 -0.8364 -0.3289
 5849SOL    HW129180   2.783   3.002   6.497 -0.0517 -1.9349  0.6476
 5849SOL    HW229181   2.830   2.996   6.360 -3.2670 -2.1333  0.6078
 5850SOL     OW29182   1.703   0.234   8.041  0.1595  0.0817 -0.0633
 5850SOL    HW129183   1.667   0.179   7.971  1.4223  0.4270 -0.9746
 5850SOL    HW229184   1.718   0.163   8.104 -1.0508 -0.1150  0.0185
 5851SOL     OW29185   1.344   1.693   5.335 -0.3792 -0.0071  0.4753
 5851SOL    HW129186   1.251   1.695   5.311 -0.1351 -1.6445 -0.5907
 5851SOL    HW229187   1.337   1.728   5.424  3.1792  0.3407  0.6100
 5852SOL     OW29188   1.809   1.188   6.562  0.0025  0.2829 -0.0286
 5852SOL    HW129189   1.811   1.257   6.628  0.0684 -3.2997  3.7357
 5852SOL    HW229190   1.903   1.176   6.545 -0.3449 -0.0791 -1.6887
 5853SOL     OW29191   0.793   3.893   8.935  0.0722 -0.2478 -0.4389
 5853SOL    HW129192   0.720   3.838   8.905 -0.4794  0.8590 -1.1730
 5853SOL    HW229193   0.782   3.973   8.883 -0.2613 -1.4483 -2.2492
 5854SOL     OW29194   1.067   3.294   5.194  0.0049  0.7576 -1.0271
 5854SOL    HW129195   0.972   3.293   5.193 -0.0127  2.3563 -0.7444
 5854SOL    HW229196   1.088   3.377   5.238  3.2129 -0.1086 -0.8606
 5855SOL     OW29197   3.371   0.980  15.830  0.3227  0.2536  0.1235
 5855SOL    HW129198   3.324   0.896  15.828  0.0708  0.4159 -1.0328
 5855SOL    HW229199   3.445   0.963  15.772  1.8278  0.9941  1.8593
 5856SOL     OW29200   1.038   0.315   6.762  1.0725  0.2942 -0.4642
 5856SOL    HW129201   1.096   0.241   6.780  1.6041  0.5450 -1.1518
 5856SOL    HW229202   1.068   0.366   6.686 -3.1318  1.4259 -1.3679
 5857SOL     OW29203   3.082   1.674   0.295 -0.0953 -0.1389 -0.4654
 5857SOL    HW129204   3.056   1.766   0.294  0.8029  0.0705 -3.5974
 5857SOL    HW229205   3.032   1.629   0.363 -0.8318  0.3832 -0.6685
 5858SOL     OW29206   0.517   1.595  15.558  0.3575 -0.0235  0.8469
 5858SOL    HW129207   0.470   1.584  15.641 -0.4554  0.3955  0.4449
 5858SOL    HW229208   0.545   1.511  15.523  1.0529  0.0590  1.2168
 5859SOL     OW29209   4.376   0.801   5.139 -0.8397 -0.0725 -0.5780
 5859SOL    HW129210   4.452   0.859   5.130 -1.2803  0.5133 -0.4662
 5859SOL    HW229211   4.408   0.725   5.187  1.2759  0.2403 -1.5036
 5860SOL     OW29212   3.652   0.545   9.367 -0.4214 -0.6100 -0.1296
 5860SOL    HW129213   3.589   0.598   9.318 -0.0703  2.0228  2.2947
 5860SOL    HW229214   3.723   0.552   9.303  0.1471  0.2210  0.5882
 5861SOL     OW29215   2.288   4.238   2.291 -0.5646 -0.2716 -0.0830
 5861SOL    HW129216   2.314   4.328   2.268 -1.9608  0.0953 -0.2129
 5861SOL    HW229217   2.218   4.218   2.229 -1.1524 -1.9271  1.1135
 5862SOL     OW29218   1.703   3.010   8.858 -0.3686  0.9757  0.1578
 5862SOL    HW129219   1.734   2.957   8.932 -0.9573  0.6986  0.2015
 5862SOL    HW229220   1.635   3.060   8.904 -1.5609 -0.9576  0.5182
 5863SOL     OW29221   3.247   4.206  13.331  0.0204 -0.2077 -0.1954
 5863SOL    HW129222   3.220   4.281  13.279  1.5432  0.1489 -0.4809
 5863SOL    HW229223   3.284   4.247  13.409  1.5042 -1.2966 -0.3253
 5864SOL     OW29224   0.611   2.855   7.658 -0.5756  0.1136 -0.2056
 5864SOL    HW129225   0.689   2.910   7.669 -0.2061 -0.1661 -1.4183
 5864SOL    HW229226   0.572   2.894   7.580 -1.3737 -0.0293  0.1203
 5865SOL     OW29227   3.438   1.964   6.126  0.5263 -0.7399 -0.0362
 5865SOL    HW129228   3.426   1.878   6.165 -1.0595 -0.3178  0.4022
 5865SOL    HW229229   3.352   2.005   6.121  1.1256  0.4835 -0.3821
 5866SOL     OW29230   2.621   2.655   5.075 -0.5721  0.3157  0.5602
 5866SOL    HW129231   2.611   2.702   5.158  2.6244 -2.6184  2.6469
 5866SOL    HW229232   2.548   2.593   5.079  0.7117 -1.4030 -2.7748
 5867SOL     OW29233   0.127   1.313   2.074 -0.3079  0.4811  0.0281
 5867SOL    HW129234   0.083   1.371   2.012  1.9417  2.8774  0.6960
 5867SOL    HW229235   0.088   1.227   2.061  1.7000 -0.5583  0.8680
 5868SOL     OW29236   1.335   3.267   2.904 -0.0106 -0.3430  0.2797
 5868SOL    HW129237   1.270   3.220   2.851  1.1296  0.7308 -2.0583
 5868SOL    HW229238   1.420   3.231   2.878 -0.6608 -2.1145  0.5807
 5869SOL     OW29239   3.454   0.580   7.071 -0.5949 -0.4377 -0.3941
 5869SOL    HW129240   3.504   0.577   6.990 -2.9934 -2.5740 -1.7902
 5869SOL    HW229241   3.462   0.670   7.102  0.4385 -1.2739  1.8241
 5870SOL     OW29242   1.703   4.434   2.718  0.1026  0.0595 -0.1184
 5870SOL    HW129243   1.748   4.370   2.663 -1.2211 -1.1733  0.2435
 5870SOL    HW229244   1.629   4.455   2.661  0.0074 -2.2131 -0.8617
 5871SOL     OW29245   2.843   2.596   4.453 -0.2763  0.0197  0.5108
 5871SOL    HW129246   2.759   2.617   4.413  1.9096  1.7080 -3.1875
 5871SOL    HW229247   2.879   2.685   4.456 -3.3661  1.2537  0.8263
 5872SOL     OW29248   3.881   2.263   2.139  0.0347  0.2070  0.7075
 5872SOL    HW129249   3.905   2.322   2.068  0.0683 -0.2000  0.3820
 5872SOL    HW229250   3.788   2.249   2.124  0.5587  0.2270 -2.4273
 5873SOL     OW29251   2.371   3.017   9.437  0.1655 -0.1726  0.4236
 5873SOL    HW129252   2.306   2.946   9.435 -0.1876  0.0947  2.0146
 5873SOL    HW229253   2.314   3.077   9.388 -0.3775 -0.6059  0.5203
 5874SOL     OW29254   2.099   4.378   3.321 -0.3047  0.1464  0.2557
 5874SOL    HW129255   2.081   4.441   3.251 -2.3990 -0.2974  0.4048
 5874SOL    HW229256   2.087   4.294   3.278  0.0123  0.0573  0.3386
 5875SOL     OW29257   1.555   2.234   3.130  0.0063  0.2528 -0.0111
 5875SOL    HW129258   1.582   2.309   3.077 -1.6985  0.7446 -0.2014
 5875SOL    HW229259   1.591   2.253   3.216 -0.2521 -0.7690  0.3252
 5876SOL     OW29260   2.313   4.550   4.389  0.1462  0.4533  0.5281
 5876SOL    HW129261   2.337   4.461   4.364  4.0308  1.3849  0.8760
 5876SOL    HW229262   2.391   4.582   4.436 -1.3770  2.5904  1.6026
 5877SOL     OW29263   2.784   3.012   6.206 -0.6448 -1.1600 -0.1022
 5877SOL    HW129264   2.783   2.932   6.153  2.4840 -1.2927  0.0531
 5877SOL    HW229265   2.704   3.047   6.167 -0.4471  0.3696  0.8770
 5878SOL     OW29266   3.243   3.188   2.329  0.2113 -0.0485 -0.3163
 5878SOL    HW129267   3.272   3.146   2.410  1.8148 -1.6491 -1.7367
 5878SOL    HW229268   3.318   3.227   2.284 -1.3518  0.6707 -2.2840
 5879SOL     OW29269   0.766   4.689   2.089 -0.2238  0.5209  0.2211
 5879SOL    HW129270   0.738   4.623   2.152  0.3558  1.7166  1.7397
 5879SOL    HW229271   0.707   4.674   2.015 -2.2781  2.5929  1.4258
 5880SOL     OW29272   0.438   2.563   8.146  0.5706 -0.4406  0.2039
 5880SOL    HW129273   0.427   2.499   8.216  0.6160  1.0913  1.6270
 5880SOL    HW229274   0.351   2.601   8.136  0.1860 -1.2921  0.3338
 5881SOL     OW29275   1.548   3.562   8.077  0.1475  0.7097  0.6931
 5881SOL    HW129276   1.634   3.527   8.100  0.1304 -0.5147 -1.1788
 5881SOL    HW229277   1.508   3.572   8.164  0.6242 -1.8221  1.1929
 5882SOL     OW29278   3.710   2.461   0.649 -0.5296 -0.0963  0.4957
 5882SOL    HW129279   3.766   2.525   0.605  0.8842 -1.4565  0.3343
 5882SOL    HW229280   3.643   2.453   0.581 -0.0895 -0.5100  0.1132
 5883SOL     OW29281   0.599   1.477   1.122  0.4159 -0.0557 -0.1269
 5883SOL    HW129282   0.695   1.479   1.120  0.3763  0.7392 -1.1845
 5883SOL    HW229283   0.571   1.470   1.031 -0.0480  1.3101 -0.0884
 5884SOL     OW29284   0.087   4.658   1.262 -0.1530 -0.4602 -0.4499
 5884SOL    HW129285   0.064   0.009   1.256  0.1917 -0.4891 -2.2567
 5884SOL    HW229286   0.058   4.623   1.177 -0.1354  2.0236 -1.4682
 5885SOL     OW29287   1.147   1.196   8.172  0.6781  0.6805  0.8108
 5885SOL    HW129288   1.141   1.201   8.267  0.5512  1.4521  0.7617
 5885SOL    HW229289   1.143   1.290   8.154 -0.2370  0.0954 -2.0914
 5886SOL     OW29290   4.531   1.210  14.771 -0.1771 -0.4627  0.7703
 5886SOL    HW129291   4.553   1.189  14.680 -2.0469 -0.6821  0.3585
 5886SOL    HW229292   4.557   1.301  14.781  0.6343 -0.6724  0.6056
 5887SOL     OW29293   3.954   1.836   2.674 -0.0696 -0.3788  0.4944
 5887SOL    HW129294   3.894   1.762   2.672  2.6021 -2.5287  0.7236
 5887SOL    HW229295   3.997   1.834   2.760 -1.2026 -1.8595  1.0349
 5888SOL     OW29296   0.096   1.531  11.502  0.6084 -0.3353  0.5914
 5888SOL    HW129297   0.001   1.519  11.492  0.3379  2.2324 -0.0637
 5888SOL    HW229298   0.103   1.627  11.501 -1.8416 -0.1586  0.9387
 5889SOL     OW29299   4.113   0.262   8.018  0.3646 -0.5298 -0.0892
 5889SOL    HW129300   4.078   0.259   8.107 -2.1848 -0.2124 -1.0609
 5889SOL    HW229301   4.047   0.206   7.977  0.1461  0.3374 -0.9385
 5890SOL     OW29302   4.618   2.966   3.110  0.0574  0.3392 -0.2119
 5890SOL    HW129303   4.572   3.001   3.186  1.1610 -0.1184  0.6648
 5890SOL    HW229304   4.633   3.048   3.062  1.0700 -0.4575 -1.2511
 5891SOL     OW29305   4.534   3.378   3.880 -0.0759  0.4236  0.4573
 5891SOL    HW129306   4.602   3.438   3.852  1.5733 -1.6177  0.1291
 5891SOL    HW229307   4.511   3.412   3.967 -1.5725 -0.7791  0.5378
 5892SOL     OW29308   0.742   3.259   9.576 -0.2092  0.3613  0.0739
 5892SOL    HW129309   0.713   3.350   9.568  0.2380  0.6731  2.0657
 5892SOL    HW229310   0.681   3.234   9.646 -0.4675 -1.3388 -0.7560
 5893SOL     OW29311   1.721   0.952  16.190  0.2710 -0.1719  0.1525
 5893SOL    HW129312   1.644   0.911  16.151  0.2763 -1.5164  1.5730
 5893SOL    HW229313   1.721   1.031  16.135 -2.0183  0.3830  0.9392
 5894SOL     OW29314   4.586   2.778  15.189  0.0137 -0.2904 -0.3518
 5894SOL    HW129315   4.633   2.855  15.221  0.2264 -0.0394 -1.2699
 5894SOL    HW229316   4.617   2.766  15.099  0.4249  0.1490 -0.2675
 5895SOL     OW29317   1.273   4.738   5.494 -0.3704 -0.0483  0.1794
 5895SOL    HW129318   1.285   4.651   5.532  1.4153  0.4678  0.7605
 5895SOL    HW229319   1.355   0.041   5.475 -1.0247  1.0979  0.0006
 5896SOL     OW29320   0.414   0.120   2.337  0.3929  0.1754 -0.0862
 5896SOL    HW129321   0.411   0.133   2.242  0.6476 -0.3566 -0.1664
 5896SOL    HW229322   0.395   0.027   2.339  1.2201  0.0218  0.8025
 5897SOL     OW29323   3.494   3.855  11.416 -0.2312 -0.2675  0.1254
 5897SOL    HW129324   3.564   3.821  11.471 -0.3426  1.7165  1.4955
 5897SOL    HW229325   3.537   3.867  11.331  2.6525 -0.1043  1.6153
 5898SOL     OW29326   1.289   0.629  13.178  0.4403 -0.5660  0.7074
 5898SOL    HW129327   1.350   0.649  13.107 -0.8473  0.3912 -0.1191
 5898SOL    HW229328   1.318   0.545  13.214 -2.2963 -2.3374 -1.1754
 5899SOL     OW29329   2.471   3.957  14.854  0.1904  0.3466 -0.0264
 5899SOL    HW129330   2.496   3.879  14.804  0.9591  0.5494  0.0473
 5899SOL    HW229331   2.396   3.927  14.905  0.7270 -0.3322  0.3618
 5900SOL     OW29332   2.648   2.592  10.995  0.4055 -0.1011  0.3735
 5900SOL    HW129333   2.625   2.681  10.970 -1.1010 -0.5167  0.2534
 5900SOL    HW229334   2.735   2.601  11.032  1.1692 -2.1023 -0.9266
 5901SOL     OW29335   0.844   1.976  16.422 -0.5696 -0.5378 -0.4251
 5901SOL    HW129336   0.764   2.027  16.411  0.7510  1.6039 -0.3127
 5901SOL    HW229337   0.889   2.034  16.484 -3.0335  0.0497  0.8262
 5902SOL     OW29338   3.601   3.830   5.885  0.1083  0.6041  0.1148
 5902SOL    HW129339   3.620   3.913   5.841 -2.1287  0.7890 -0.5062
 5902SOL    HW229340   3.572   3.773   5.814 -0.6230 -0.0954  0.9782
 5903SOL     OW29341   3.623   4.728  16.424  0.7573 -0.5101  0.0453
 5903SOL    HW129342   3.543   0.039  16.425  3.6390  3.8348  1.2981
 5903SOL    HW229343   3.613   4.692  16.512 -1.7744  0.2419  0.0859
 5904SOL     OW29344   2.191   1.587   3.531  0.5067 -0.2105  0.1004
 5904SOL    HW129345   2.188   1.551   3.442  2.0311  0.1160 -0.0770
 5904SOL    HW229346   2.255   1.658   3.529 -2.2769  2.2843 -0.6106
 5905SOL     OW29347   0.871   3.206  11.195 -0.3382 -0.1028 -0.1070
 5905SOL    HW129348   0.874   3.149  11.272  1.4290 -0.2192 -0.2523
 5905SOL    HW229349   0.849   3.289  11.238 -1.8058  0.6831 -2.3828
 5906SOL     OW29350   1.388   3.160   4.922  0.4516 -0.2711 -0.5825
 5906SOL    HW129351   1.370   3.106   4.999  1.3830  0.0563 -0.1441
 5906SOL    HW229352   1.432   3.230   4.969 -0.4804 -0.2034  0.1965
 5907SOL     OW29353   0.423   2.835  15.891 -0.0124 -0.2658  0.1612
 5907SOL    HW129354   0.421   2.921  15.849  0.1408  0.6360  2.0345
 5907SOL    HW229355   0.372   2.846  15.970  0.8575 -0.0855  0.7023
 5908SOL     OW29356   1.747   1.485   7.747 -0.5402  0.0513  0.1778
 5908SOL    HW129357   1.799   1.493   7.827 -1.2461  0.7751  0.5621
 5908SOL    HW229358   1.711   1.574   7.749  0.5979  0.5058  1.0535
 5909SOL     OW29359   3.260   3.361   2.923 -0.2922  0.1394 -0.3403
 5909SOL    HW129360   3.262   3.371   3.019 -0.6988 -0.5191 -0.2648
 5909SOL    HW229361   3.200   3.432   2.903 -1.7440 -0.6638  1.1771
 5910SOL     OW29362   1.426   0.490  12.598  0.1322  0.1972  0.0635
 5910SOL    HW129363   1.471   0.433  12.660 -2.6404 -1.1774  0.8177
 5910SOL    HW229364   1.339   0.474  12.636 -0.2358  0.0781 -0.8377
 5911SOL     OW29365   3.253   0.449   7.886 -0.4297  0.0140  0.0813
 5911SOL    HW129366   3.310   0.407   7.950 -0.1846 -1.4875 -1.1292
 5911SOL    HW229367   3.186   0.380   7.888  0.0482 -0.5258 -2.4681
 5912SOL     OW29368   4.399   3.254  12.006 -0.2753 -0.2488 -0.1457
 5912SOL    HW129369   4.484   3.269  11.965 -0.1512  0.7214  0.4683
 5912SOL    HW229370   4.364   3.203  11.934  0.8094 -1.8863  0.4972
 5913SOL     OW29371   1.810   2.620  12.128 -0.2331 -0.0143  0.2302
 5913SOL    HW129372   1.889   2.658  12.089 -1.6882  0.4529 -2.2778
 5913SOL    HW229373   1.811   2.534  12.087 -1.3161 -0.9521  2.1688
 5914SOL     OW29374   1.306   0.581   5.530  0.2775 -0.2372  0.0725
 5914SOL    HW129375   1.332   0.508   5.474 -2.1847  0.1064 -1.5209
 5914SOL    HW229376   1.315   0.539   5.616  0.1726  1.5642  0.9728
 5915SOL     OW29377   2.866   4.507  11.822 -0.2614  0.4432 -0.1962
 5915SOL    HW129378   2.806   4.485  11.750  0.9926  2.2022 -1.7720
 5915SOL    HW229379   2.825   4.459  11.893 -0.4687 -1.8982 -1.9036
 5916SOL     OW29380   1.301   3.843   5.779  0.5466  0.1515 -0.9318
 5916SOL    HW129381   1.233   3.822   5.843  0.7475  1.8236 -0.1723
 5916SOL    HW229382   1.378   3.861   5.833 -0.0164  0.3808 -0.2063
 5917SOL     OW29383   1.184   4.628   6.144  0.1565 -0.0965 -0.1697
 5917SOL    HW129384   1.205   4.596   6.232  0.7996 -0.3233 -0.4058
 5917SOL    HW229385   1.265   4.672   6.117 -0.2814  0.7663 -0.0536
 5918SOL     OW29386   3.459   1.759   1.600  0.2987  0.3450 -0.1189
 5918SOL    HW129387   3.402   1.783   1.526 -0.9482 -1.8154  0.1272
 5918SOL    HW229388   3.395   1.759   1.672 -1.2376 -1.7284 -1.4701
 5919SOL     OW29389   4.001   1.824  13.222  0.3128 -0.2205  0.3086
 5919SOL    HW129390   4.078   1.791  13.177  0.4082  3.9758 -2.5469
 5919SOL    HW229391   3.990   1.906  13.173  0.4186 -0.2412  0.2501
 5920SOL     OW29392   3.615   4.534  10.064  0.2377 -0.2954  0.0165
 5920SOL    HW129393   3.564   4.563   9.988 -0.4995  0.4515  0.7918
 5920SOL    HW229394   3.546   4.532  10.131  1.1012 -1.6826  0.8446
 5921SOL     OW29395   2.112   3.356   7.758 -0.7465  0.2950 -0.4151
 5921SOL    HW129396   2.095   3.447   7.735 -0.8840  0.3042 -0.2794
 5921SOL    HW229397   2.022   3.324   7.768 -1.7781  2.5415 -2.3976
 5922SOL     OW29398   2.273   3.484   4.716  0.7872  0.3362  0.4615
 5922SOL    HW129399   2.311   3.524   4.794 -0.4258  0.5413  0.9533
 5922SOL    HW229400   2.181   3.479   4.744 -0.2842 -0.0911 -3.1692
 5923SOL     OW29401   3.643   0.610   3.051 -0.0109 -0.4339  0.1978
 5923SOL    HW129402   3.660   0.528   3.097  1.0713 -1.3081 -1.7576
 5923SOL    HW229403   3.550   0.628   3.063  0.4153  0.2458  2.5033
 5924SOL     OW29404   0.584   1.417   9.036 -0.2973  0.2034 -0.0784
 5924SOL    HW129405   0.572   1.449   8.946 -1.0555 -0.9541 -0.3990
 5924SOL    HW229406   0.526   1.340   9.035 -1.1189  0.8149  2.1528
 5925SOL     OW29407   1.776   4.002   8.678 -0.3626 -0.0050  0.5887
 5925SOL    HW129408   1.705   4.006   8.613  0.3434 -2.0914 -0.2970
 5925SOL    HW229409   1.736   4.002   8.765  1.7862  3.0411  1.5861
 5926SOL     OW29410   0.825   4.290   0.519  0.0378  0.1496 -0.1701
 5926SOL    HW129411   0.906   4.327   0.555 -0.5175 -0.0569  1.3191
 5926SOL    HW229412   0.804   4.358   0.455 -0.9908  0.0585  0.0744
 5927SOL     OW29413   0.736   4.660  14.968  0.0965  0.3919 -0.8084
 5927SOL    HW129414   0.812   4.719  14.969  0.9600 -0.7520  0.4098
 5927SOL    HW229415   0.679   4.703  14.904  0.3031  0.3366 -1.0325
 5928SOL     OW29416   3.950   0.044   0.748  0.6314 -0.5478 -0.3860
 5928SOL    HW129417   3.914   0.132   0.736  2.0633  0.5099  3.3071
 5928SOL    HW229418   4.030   0.064   0.700  0.0352  2.1808 -0.2342
 5929SOL     OW29419   0.170   3.974   2.277 -0.1505  0.1087 -0.5003
 5929SOL    HW129420   0.200   4.060   2.309 -2.1359  1.0742 -1.2189
 5929SOL    HW229421   0.238   3.917   2.312 -0.0138 -0.3819 -1.5534
 5930SOL     OW29422   0.277   1.621  13.228 -0.4214  0.1313  0.0915
 5930SOL    HW129423   0.303   1.707  13.193 -0.9531  0.6066  0.8563
 5930SOL    HW229424   0.321   1.627  13.312  0.4627  1.2151 -0.4515
 5931SOL     OW29425   4.558   4.045   7.961  0.4548  0.1699  0.6022
 5931SOL    HW129426   4.480   4.024   8.013 -0.5618 -0.0567 -1.0110
 5931SOL    HW229427   4.528   3.999   7.883  0.0447  2.4377 -0.5751
 5932SOL     OW29428   2.649   2.061   1.156  0.6655 -0.3117 -0.0464
 5932SOL    HW129429   2.707   2.137   1.157 -0.5473  0.5779  2.9696
 5932SOL    HW229430   2.616   2.063   1.246  0.4406  2.3269 -0.1853
 5933SOL     OW29431   3.052   0.085   1.590 -0.3076 -0.0794 -0.2291
 5933SOL    HW129432   3.119   0.052   1.650 -0.5837 -0.0464  0.0984
 5933SOL    HW229433   3.078   0.176   1.574 -3.1195  0.5158 -1.4471
 5934SOL     OW29434   1.546   1.157   6.475 -0.1162 -0.4772  0.4989
 5934SOL    HW129435   1.637   1.169   6.504 -0.0706  0.6093 -0.1002
 5934SOL    HW229436   1.531   1.248   6.447  1.4531 -0.2088  0.5444
 5935SOL     OW29437   3.546   2.490   7.185  0.6165  0.4383  0.2508
 5935SOL    HW129438   3.490   2.429   7.233 -2.5935  2.1978 -1.2362
 5935SOL    HW229439   3.510   2.474   7.098 -0.2763 -0.1660  0.7325
 5936SOL     OW29440   1.166   2.374  12.526 -0.6536 -0.2496  0.1886
 5936SOL    HW129441   1.198   2.447  12.578 -0.2076 -0.5783  0.3693
 5936SOL    HW229442   1.202   2.394  12.440  0.1372 -2.2453  0.0645
 5937SOL     OW29443   2.223   2.745   1.878 -0.2142 -0.2770 -0.6235
 5937SOL    HW129444   2.277   2.667   1.875 -0.4403 -0.3468 -2.4452
 5937SOL    HW229445   2.168   2.731   1.955 -1.0232  2.1501 -0.7394
 5938SOL     OW29446   0.551   2.304   1.294  0.0821 -0.1665  0.7301
 5938SOL    HW129447   0.560   2.292   1.389 -2.7035  1.6194  1.2039
 5938SOL    HW229448   0.548   2.399   1.295  0.4080 -0.1740  2.5101
 5939SOL     OW29449   4.516   2.487   7.474 -0.3332 -0.2592  0.4357
 5939SOL    HW129450   4.508   2.408   7.421 -2.5609 -0.5263  1.1977
 5939SOL    HW229451   4.452   2.473   7.544  1.1551  0.6302  1.9768
 5940SOL     OW29452   4.666   0.983   2.346 -0.2363  0.5661  0.4048
 5940SOL    HW129453   4.711   0.915   2.295 -2.0341 -0.2872 -0.0423
 5940SOL    HW229454   4.728   1.055   2.333  1.7701 -0.7735  2.5415
 5941SOL     OW29455   2.411   2.301   6.888 -0.1692 -0.2146 -0.0804
 5941SOL    HW129456   2.321   2.289   6.860  0.8366 -2.0387 -2.5305
 5941SOL    HW229457   2.431   2.392   6.864 -0.6542 -0.0040  0.3064
 5942SOL     OW29458   4.371   3.295   2.532 -0.8677 -0.6034  0.1029
 5942SOL    HW129459   4.460   3.329   2.540  0.2026 -3.0356 -1.7267
 5942SOL    HW229460   4.389   3.207   2.500  0.8272  0.6878 -2.4506
 5943SOL     OW29461   2.892   3.922   3.622 -0.5875 -0.4070 -0.0684
 5943SOL    HW129462   2.915   3.929   3.529  1.5808  1.2383  0.5937
 5943SOL    HW229463   2.960   3.980   3.657 -1.8990  0.4677  1.0148
 5944SOL     OW29464   1.840   2.426   8.615  0.5528 -0.2455  0.1887
 5944SOL    HW129465   1.795   2.457   8.693 -0.1938  0.9484 -0.7161
 5944SOL    HW229466   1.868   2.338   8.640  0.7311 -0.1021  0.4937
 5945SOL     OW29467   2.634   4.449   2.010 -0.3727  0.3125  0.3231
 5945SOL    HW129468   2.652   4.490   1.925  1.9235 -1.6128 -0.1553
 5945SOL    HW229469   2.565   4.387   1.987  0.1918  0.7520 -2.5979
 5946SOL     OW29470   3.313   1.515   9.474  0.1281  0.0417 -0.6182
 5946SOL    HW129471   3.309   1.592   9.530  1.4551 -0.8758  0.7592
 5946SOL    HW229472   3.248   1.544   9.410  0.7097 -1.3051 -1.8383
 5947SOL     OW29473   0.751   2.171   5.653 -0.4524 -0.1061  0.2882
 5947SOL    HW129474   0.744   2.080   5.680  0.3598 -0.1298  0.4367
 5947SOL    HW229475   0.660   2.199   5.653 -0.2677  0.5200 -0.9844
 5948SOL     OW29476   4.042   2.590   5.109  0.0928  0.1671  0.2041
 5948SOL    HW129477   4.041   2.524   5.040  2.4372  1.9249 -1.5138
 5948SOL    HW229478   3.973   2.652   5.084 -1.1246 -1.9227 -1.5372
 5949SOL     OW29479   0.705   4.291   8.201  0.0799  0.2750  0.2383
 5949SOL    HW129480   0.789   4.332   8.217 -0.4390  1.1826  0.6092
 5949SOL    HW229481   0.702   4.218   8.263  1.9828 -1.5910 -1.8599
 5950SOL     OW29482   3.427   2.732   6.536 -0.0585  0.3118  0.6606
 5950SOL    HW129483   3.510   2.775   6.558  0.2625  0.6467 -1.2037
 5950SOL    HW229484   3.460   2.680   6.463 -0.0540  1.1779  0.0388
 5951SOL     OW29485   3.545   3.270   9.027 -0.5457 -0.1965  0.4682
 5951SOL    HW129486   3.486   3.224   8.968 -0.1558  1.1912 -0.9933
 5951SOL    HW229487   3.531   3.223   9.109  0.4159 -1.6338 -0.2033
 5952SOL     OW29488   4.480   3.305   2.961 -0.0882  0.0774 -0.1397
 5952SOL    HW129489   4.471   3.353   3.043  0.0763 -0.9920  0.5104
 5952SOL    HW229490   4.448   3.371   2.900  0.9739 -0.0934 -0.8688
 5953SOL     OW29491   1.672   4.455   1.869 -0.5260  0.1533 -0.4693
 5953SOL    HW129492   1.641   4.482   1.956  1.3173  0.1328  0.1878
 5953SOL    HW229493   1.631   4.371   1.851 -0.6273 -0.0623  0.7694
 5954SOL     OW29494   3.173   1.386  13.539  0.1764  0.0367  0.1690
 5954SOL    HW129495   3.212   1.299  13.526  1.6515  0.9837 -1.6986
 5954SOL    HW229496   3.161   1.390  13.634  3.0856 -1.0761  0.5969
 5955SOL     OW29497   3.184   2.503   0.390 -0.3475  0.0335 -0.4804
 5955SOL    HW129498   3.166   2.592   0.420  0.5509 -0.6107  1.9629
 5955SOL    HW229499   3.235   2.528   0.313 -0.1645 -1.5341 -0.8603
 5956SOL     OW29500   2.331   1.465   9.610 -0.2226  0.3625 -0.2018
 5956SOL    HW129501   2.333   1.511   9.693 -1.7811 -2.3652  1.3423
 5956SOL    HW229502   2.250   1.502   9.577  0.2701  1.7409  0.1348
 5957SOL     OW29503   2.313   0.813   3.320  0.1254 -0.1282  0.1282
 5957SOL    HW129504   2.266   0.822   3.403 -0.8484 -2.8981 -0.1228
 5957SOL    HW229505   2.328   0.908   3.314 -1.4240  0.1446  0.4418
 5958SOL     OW29506   1.559   0.179   3.396 -0.0408  0.0275 -0.2705
 5958SOL    HW129507   1.562   0.086   3.419  4.2675  0.2714  0.0580
 5958SOL    HW229508   1.584   0.161   3.305 -2.2456  2.4019 -1.3423
 5959SOL     OW29509   3.018   1.183  10.599 -0.6890  0.3911  0.5616
 5959SOL    HW129510   3.044   1.263  10.552  0.1222 -0.9655 -1.2864
 5959SOL    HW229511   2.963   1.158  10.525  1.0878  2.2358 -1.3846
 5960SOL     OW29512   1.103   3.125   9.016  0.4366  0.3484 -0.3258
 5960SOL    HW129513   1.083   3.119   8.923 -3.2907 -0.8668  0.5455
 5960SOL    HW229514   1.189   3.164   9.029  0.2585  0.6375 -0.0100
 5961SOL     OW29515   2.697   3.782   4.132  0.2246  0.3650 -0.0371
 5961SOL    HW129516   2.609   3.769   4.167  0.5392 -0.2156  0.5211
 5961SOL    HW229517   2.716   3.867   4.174 -0.1837  0.2262  0.4308
 5962SOL     OW29518   3.607   0.312  11.177 -0.5629 -0.1609 -0.0418
 5962SOL    HW129519   3.628   0.243  11.114 -0.6743 -0.4729  0.2670
 5962SOL    HW229520   3.685   0.366  11.165  0.8826 -1.9156  1.3815
 5963SOL     OW29521   4.410   1.481   0.104  0.0749  0.0816  0.1734
 5963SOL    HW129522   4.342   1.545   0.124  0.9829  0.6930  1.2763
 5963SOL    HW229523   4.484   1.505   0.159 -1.9412  3.0837  1.5646
 5964SOL     OW29524   4.446   3.704   5.453 -1.0380  0.1171  0.1777
 5964SOL    HW129525   4.520   3.683   5.395 -0.6013 -0.9330  1.0971
 5964SOL    HW229526   4.400   3.620   5.459  0.3603 -0.8536 -2.5459
 5965SOL     OW29527   2.181   3.426   2.199  0.5410  0.4444 -0.2231
 5965SOL    HW129528   2.190   3.517   2.229  0.4447 -0.0362  1.2460
 5965SOL    HW229529   2.213   3.387   2.280 -3.9727  0.9571  1.7987
 5966SOL     OW29530   4.478   4.157   5.796 -0.3470  0.3348  0.5284
 5966SOL    HW129531   4.405   4.197   5.749 -0.4069  0.9984  1.1922
 5966SOL    HW229532   4.501   4.091   5.730 -0.7432 -0.8918  1.6287
 5967SOL     OW29533   4.256   3.192   4.960  0.1265  0.3779  0.2884
 5967SOL    HW129534   4.189   3.158   5.019  0.6282 -1.3219 -0.1114
 5967SOL    HW229535   4.234   3.146   4.879  0.9973 -0.8592  0.7495
 5968SOL     OW29536   3.921   1.595   3.033  0.4174 -0.2702  0.0387
 5968SOL    HW129537   3.921   1.504   3.063  0.4401 -0.7559 -1.4413
 5968SOL    HW229538   3.838   1.593   2.986 -1.1655  1.5157  2.7474
 5969SOL     OW29539   1.232   0.293   2.683 -0.1306  0.9204  0.2915
 5969SOL    HW129540   1.255   0.230   2.752 -0.3621 -0.2029 -0.6700
 5969SOL    HW229541   1.140   0.297   2.710 -0.0918  1.3282  0.3701
 5970SOL     OW29542   0.557   1.879   6.475 -0.3275 -0.3829  0.4016
 5970SOL    HW129543   0.599   1.855   6.557 -0.6065  0.3202  0.7458
 5970SOL    HW229544   0.564   1.974   6.467 -1.7580 -0.1906  1.5693
 5971SOL     OW29545   3.349   0.135   8.480 -0.1490  0.0172 -0.3674
 5971SOL    HW129546   3.437   0.171   8.491  0.0003 -0.1788 -0.8779
 5971SOL    HW229547   3.355   0.042   8.505  0.5585 -0.0003 -0.6087
 5972SOL     OW29548   4.025   0.341   8.488  0.3667 -0.1338  0.2590
 5972SOL    HW129549   4.116   0.361   8.510 -0.1637  1.8453  0.6538
 5972SOL    HW229550   3.982   0.370   8.569 -0.7990  1.6836 -1.0078
 5973SOL     OW29551   0.174   0.160   6.455  0.5936 -0.3873  0.3198
 5973SOL    HW129552   0.246   0.133   6.398 -0.4319 -1.1957 -0.5760
 5973SOL    HW229553   0.173   0.088   6.518 -0.3647  0.1203  0.8800
 5974SOL     OW29554   0.638   1.143  14.176  0.0094 -0.1852 -0.1486
 5974SOL    HW129555   0.581   1.075  14.140  1.0545 -0.2799 -1.6579
 5974SOL    HW229556   0.576   1.216  14.173  0.6060  0.2732 -1.1369
 5975SOL     OW29557   4.372   3.556   1.002 -0.3832  0.3659 -0.3246
 5975SOL    HW129558   4.430   3.504   1.057 -2.1079 -0.4932  0.6656
 5975SOL    HW229559   4.376   3.647   1.029  0.2177 -0.0129  0.8676
 5976SOL     OW29560   0.930   3.844   5.719  0.0475  0.3514 -0.2578
 5976SOL    HW129561   0.841   3.877   5.716  0.4079  1.5003  1.4102
 5976SOL    HW229562   0.920   3.781   5.648 -2.6375 -0.8320  1.1682
 5977SOL     OW29563   1.468   2.814   4.759 -0.4098 -0.8075  0.5577
 5977SOL    HW129564   1.491   2.808   4.851  1.3399  1.0627  0.2492
 5977SOL    HW229565   1.519   2.743   4.721  1.3834  0.2611  0.9635
 5978SOL     OW29566   3.495   4.534   5.962  0.0972 -0.4955 -0.2861
 5978SOL    HW129567   3.451   4.593   5.900  3.3000  1.1461 -0.9971
 5978SOL    HW229568   3.431   4.464   5.973 -1.8234  1.3252  0.0068
 5979SOL     OW29569   0.518   0.687   0.678 -0.1751 -0.5214 -0.0534
 5979SOL    HW129570   0.556   0.600   0.667  0.6359 -0.5248  2.8233
 5979SOL    HW229571   0.572   0.741   0.620 -1.2574  0.7173  0.0889
 5980SOL     OW29572   3.873   4.147  13.636 -0.0976  0.1075  0.0947
 5980SOL    HW129573   3.897   4.055  13.635  0.1531  0.1478  2.7937
 5980SOL    HW229574   3.791   4.150  13.684 -0.3797 -1.1597 -0.3267
 5981SOL     OW29575   0.230   1.633  15.115 -0.2398 -0.2094 -0.1989
 5981SOL    HW129576   0.233   1.726  15.137 -0.8108 -0.9771  3.0949
 5981SOL    HW229577   0.191   1.596  15.194  2.3758  0.0622  1.2119
 5982SOL     OW29578   1.335   1.693   9.938  0.1724 -0.2844  0.0928
 5982SOL    HW129579   1.366   1.764   9.993 -1.8972  0.1935  0.6447
 5982SOL    HW229580   1.397   1.697   9.865 -1.4130  0.9449 -1.2110
 5983SOL     OW29581   2.050   0.541   4.967  0.1327  0.0303 -0.9567
 5983SOL    HW129582   2.104   0.583   4.899 -2.2302  2.4581 -1.3222
 5983SOL    HW229583   2.102   0.557   5.045 -1.4000 -1.5104  0.3755
 5984SOL     OW29584   0.861   1.383   4.435  0.1610  0.1002  0.1979
 5984SOL    HW129585   0.939   1.427   4.402  0.0459 -0.8375 -1.3433
 5984SOL    HW229586   0.875   1.296   4.397  0.0495 -0.5039  1.5504
 5985SOL     OW29587   3.559   1.188  11.136 -0.4778 -0.2706 -0.3531
 5985SOL    HW129588   3.526   1.217  11.221 -2.4155 -0.1450 -1.1368
 5985SOL    HW229589   3.472   1.165  11.101  1.0520 -0.4212 -4.0940
 5986SOL     OW29590   3.831   1.595   6.022 -0.1975 -0.5912 -0.1047
 5986SOL    HW129591   3.812   1.518   5.969 -0.4115 -0.1173 -0.7117
 5986SOL    HW229592   3.772   1.659   5.982 -0.5983 -0.8313  0.1005
 5987SOL     OW29593   3.121   3.346   4.764 -0.3600  0.0746  0.1142
 5987SOL    HW129594   3.099   3.330   4.672 -1.7586 -0.9376  0.6275
 5987SOL    HW229595   3.094   3.437   4.775 -1.0135 -0.2335  0.9996
 5988SOL     OW29596   4.476   3.189   3.540  0.0017 -0.1377 -0.0254
 5988SOL    HW129597   4.509   3.266   3.495 -0.8632  0.5440  0.5069
 5988SOL    HW229598   4.485   3.125   3.469  1.6546 -0.3798  0.4009
 5989SOL     OW29599   4.525   3.971   6.497  0.0148 -0.0184 -0.2828
 5989SOL    HW129600   4.573   3.889   6.482 -1.2233 -0.7634 -0.1543
 5989SOL    HW229601   4.436   3.940   6.511  0.2779 -0.0292  1.4366
 5990SOL     OW29602   0.560   4.728   1.897 -0.0687 -0.0804  0.1643
 5990SOL    HW129603   0.580   0.025   1.811 -0.6348  0.4427  0.2693
 5990SOL    HW229604   0.493   4.663   1.877 -1.6183  1.9265 -1.2530
 5991SOL     OW29605   4.325   3.376   0.522  0.1120 -0.0902  0.6335
 5991SOL    HW129606   4.328   3.461   0.566  0.2269 -0.0378  0.5226
 5991SOL    HW229607   4.294   3.326   0.598 -0.4931 -1.1859 -0.3302
 5992SOL     OW29608   3.314   3.120   4.633  0.0338 -0.3933  0.0273
 5992SOL    HW129609   3.314   3.080   4.720 -1.0553 -0.5991 -0.0683
 5992SOL    HW229610   3.247   3.188   4.647 -1.6132 -2.0876  0.3013
 5993SOL     OW29611   3.964   0.475   3.169  0.3449 -0.1294  0.1789
 5993SOL    HW129612   3.939   0.538   3.102  1.8070  1.6919  1.3546
 5993SOL    HW229613   4.060   0.476   3.170  0.3355  0.3922  0.2335
 5994SOL     OW29614   1.197   1.303  16.456 -0.1378 -0.3531 -0.0235
 5994SOL    HW129615   1.103   1.323  16.449 -0.0015  0.2767 -0.0118
 5994SOL    HW229616   1.209   1.271  16.546  0.3021 -1.3627 -0.4399
 5995SOL     OW29617   2.189   0.165   6.551 -0.1354 -0.1327 -0.4661
 5995SOL    HW129618   2.222   0.075   6.556  0.5699  0.1383 -0.2298
 5995SOL    HW229619   2.109   0.167   6.604  0.1709  1.2925 -0.0638
 5996SOL     OW29620   0.907   4.472   8.415  0.3805 -0.1898  0.0950
 5996SOL    HW129621   0.820   4.462   8.453  0.1857 -0.4347 -0.4219
 5996SOL    HW229622   0.925   4.564   8.431  2.2641 -0.4099 -0.6546
 5997SOL     OW29623   3.762   0.090   4.431 -0.0774 -0.5667  0.2340
 5997SOL    HW129624   3.727   0.168   4.475  0.1518 -0.7239  0.6935
 5997SOL    HW229625   3.708   0.096   4.352 -0.2109 -2.6889  0.1655
 5998SOL     OW29626   0.259   2.487  12.946  0.1341 -0.0737 -0.5593
 5998SOL    HW129627   0.248   2.416  12.883 -1.3810 -0.6375  0.3424
 5998SOL    HW229628   0.198   2.549  12.906  1.1696  0.1509 -1.8178
 5999SOL     OW29629   0.272   4.645  10.006 -0.7717  0.3686  0.1229
 5999SOL    HW129630   0.282   4.681  10.095 -0.0173  0.9718 -0.2075
 5999SOL    HW229631   0.270   4.729   9.962  1.0906  0.7820  0.8003
 6000SOL     OW29632   4.109   4.693   2.265  0.1765 -0.6107 -0.7433
 6000SOL    HW129633   4.185   4.704   2.322  0.2389  0.8433 -1.0928
 6000SOL    HW229634   4.056   4.640   2.325  1.1736  2.3202  2.7136
 6001SOL     OW29635   3.803   1.847   1.914 -0.0765 -0.1766  0.3965
 6001SOL    HW129636   3.850   1.764   1.910 -0.7626 -0.6331  1.8918
 6001SOL    HW229637   3.757   1.851   1.830 -1.5119  0.5807  1.2094
 6002SOL     OW29638   4.185   3.753  14.877  0.3422  0.4123 -0.7831
 6002SOL    HW129639   4.171   3.667  14.838  0.6003  0.6637 -1.4336
 6002SOL    HW229640   4.243   3.790  14.810  0.2652 -2.6197 -2.4996
 6003SOL     OW29641   0.593   2.615   1.653 -0.1047  0.0522  0.2941
 6003SOL    HW129642   0.682   2.591   1.628 -0.2139 -1.5947  1.4863
 6003SOL    HW229643   0.588   2.707   1.625  2.4770 -0.1726 -0.9236
 6004SOL     OW29644   3.141   2.142   2.168 -0.1650  0.3608 -0.5376
 6004SOL    HW129645   3.218   2.100   2.130 -1.2586  0.4864 -2.8712
 6004SOL    HW229646   3.164   2.235   2.158  0.5614 -0.0936 -2.9505
 6005SOL     OW29647   1.574   2.586   9.071  0.2252  0.7869 -0.1680
 6005SOL    HW129648   1.550   2.679   9.069 -1.0819  0.4482 -0.4241
 6005SOL    HW229649   1.602   2.578   9.162 -0.0000  2.5687  0.0563
 6006SOL     OW29650   4.204   1.347   4.259  0.2624 -0.4166  0.1037
 6006SOL    HW129651   4.161   1.390   4.184  0.7287  0.8940  0.5876
 6006SOL    HW229652   4.134   1.319   4.317  1.8850 -1.1785  1.6697
 6007SOL     OW29653   2.814   3.760   1.972  0.3457 -0.4807  0.5829
 6007SOL    HW129654   2.806   3.665   1.974  1.8762 -0.5924  1.5783
 6007SOL    HW229655   2.851   3.773   2.059  1.6267 -0.3058  0.0134
 6008SOL     OW29656   4.328   1.260   5.215  0.1323  0.5846 -0.3012
 6008SOL    HW129657   4.414   1.285   5.250  0.6612 -2.0795  0.3192
 6008SOL    HW229658   4.281   1.248   5.298 -0.3636  0.3782 -0.6083
 6009SOL     OW29659   0.708   1.125   6.307  0.3038  0.2922  0.0589
 6009SOL    HW129660   0.702   1.098   6.399  0.8940 -1.8999 -0.5517
 6009SOL    HW229661   0.621   1.108   6.272 -0.5129  2.7881  0.9054
 6010SOL     OW29662   3.283   4.274   4.344 -0.9598 -0.2441 -0.4837
 6010SOL    HW129663   3.363   4.222   4.335 -0.4874  1.2500 -4.8590
 6010SOL    HW229664   3.304   4.323   4.424  0.0392 -1.6793  0.1418
 6011SOL     OW29665   0.847   4.455   6.292  0.4406 -0.5078  0.3401
 6011SOL    HW129666   0.887   4.456   6.204 -2.1924 -0.7557 -0.8457
 6011SOL    HW229667   0.830   4.362   6.309  0.0460 -0.4896  0.0373
 6012SOL     OW29668   0.449   4.433   3.315 -0.2219 -0.0459 -0.3534
 6012SOL    HW129669   0.438   4.377   3.393 -0.0379  0.6162  0.1472
 6012SOL    HW229670   0.467   4.366   3.250 -0.9186  0.1080 -0.7025
 6013SOL     OW29671   3.574   2.868   8.129 -0.2745 -0.3038  0.0270
 6013SOL    HW129672   3.567   2.857   8.034 -3.9070 -0.2272  0.2946
 6013SOL    HW229673   3.481   2.889   8.143  0.3048  2.5706 -0.4662
 6014SOL     OW29674   0.054   0.510   2.994 -0.5868 -0.3888  0.4767
 6014SOL    HW129675   0.037   0.572   2.923 -0.9681 -0.3480  0.6008
 6014SOL    HW229676   0.064   0.579   3.060  1.5777 -0.6476  0.4055
 6015SOL     OW29677   3.841   2.521   3.781 -0.0898 -0.3398 -0.5611
 6015SOL    HW129678   3.838   2.601   3.730 -3.3497  0.8536  1.5005
 6015SOL    HW229679   3.761   2.521   3.834 -0.5346 -2.7586 -1.2033
 6016SOL     OW29680   3.727   1.567   3.859 -0.0007 -0.1728  0.2648
 6016SOL    HW129681   3.745   1.525   3.775 -0.4253 -0.2970  0.2362
 6016SOL    HW229682   3.813   1.606   3.872 -0.4319  0.6411  0.6286
 6017SOL     OW29683   3.432   1.301   5.627  0.0905 -0.1363 -0.6778
 6017SOL    HW129684   3.424   1.302   5.531  2.2850  0.1939 -0.8745
 6017SOL    HW229685   3.368   1.369   5.644  0.7901  0.5023 -0.5849
 6018SOL     OW29686   0.282   3.273   0.489  0.0337  0.3208 -0.0947
 6018SOL    HW129687   0.245   3.292   0.575 -2.2080  2.7872 -1.6145
 6018SOL    HW229688   0.359   3.330   0.488  1.4355 -1.5266  2.1704
 6019SOL     OW29689   1.714   4.723   2.140 -0.0510 -0.8624 -0.6158
 6019SOL    HW129690   1.622   4.739   2.120 -0.4798  0.2906  2.2466
 6019SOL    HW229691   1.735   0.065   2.182  2.9359 -1.3313 -1.1904
 6020SOL     OW29692   3.030   2.916   1.097  0.2209 -0.0565  0.6481
 6020SOL    HW129693   2.985   3.000   1.098 -0.6210 -0.4736 -2.2223
 6020SOL    HW229694   3.116   2.934   1.059 -0.6726 -0.9253 -1.7866
 6021SOL     OW29695   2.915   3.981   5.017  0.1919  0.2076 -0.0562
 6021SOL    HW129696   3.005   3.965   4.987 -0.8195 -1.0463 -2.4361
 6021SOL    HW229697   2.943   3.993   5.108  0.1898 -1.6652  0.2007
 6022SOL     OW29698   4.290   0.477   8.057 -0.3843 -0.1487  0.3866
 6022SOL    HW129699   4.241   0.396   8.040 -2.5484  1.4652 -1.0559
 6022SOL    HW229700   4.346   0.455   8.132 -0.1930 -0.6002  0.1141
 6023SOL     OW29701   4.728   0.578  15.965  0.1165  0.0395  0.2289
 6023SOL    HW129702   4.642   0.594  16.003  1.6617  0.6459  3.4702
 6023SOL    HW229703   0.008   0.506  16.024 -0.3694 -0.3724 -0.0950
 6024SOL     OW29704   0.406   1.348  14.337 -0.0339  0.4308  0.0971
 6024SOL    HW129705   0.454   1.392  14.267  0.8681 -1.5201 -0.5166
 6024SOL    HW229706   0.342   1.293  14.292 -0.1410  0.5286  0.1293
 6025SOL     OW29707   1.969   1.518   1.920  0.5441 -0.1444 -0.1315
 6025SOL    HW129708   1.959   1.611   1.941  0.3623 -0.4432  1.1116
 6025SOL    HW229709   1.878   1.508   1.893 -0.1058  0.2729  1.8474
 6026SOL     OW29710   1.540   1.853   9.975  0.1667 -0.4811 -0.3081
 6026SOL    HW129711   1.591   1.933   9.961 -0.6281  0.3440  1.4523
 6026SOL    HW229712   1.599   1.804  10.033 -0.3421 -1.2118 -0.4096
 6027SOL     OW29713   0.636   2.549   2.451 -0.2493 -0.5328  0.2009
 6027SOL    HW129714   0.543   2.533   2.465 -0.7459  1.6953 -0.5035
 6027SOL    HW229715   0.669   2.461   2.431  4.3250  1.1692  0.3056
 6028SOL     OW29716   4.739   3.594   5.624  0.6380  0.5100 -0.2929
 6028SOL    HW129717   4.734   3.498   5.623 -0.3616  0.5560  0.8502
 6028SOL    HW229718   4.645   3.613   5.626  0.5896 -0.0826  2.9094
 6029SOL     OW29719   4.183   3.812   5.798  0.5231 -0.1961 -0.2866
 6029SOL    HW129720   4.155   3.720   5.793 -0.6406  0.0408  1.9711
 6029SOL    HW229721   4.215   3.822   5.887 -2.4935  0.0046  0.7827
 6030SOL     OW29722   2.996   4.316   3.668 -0.0228 -0.1471  0.0781
 6030SOL    HW129723   3.050   4.377   3.618 -0.2495 -0.7421 -0.8841
 6030SOL    HW229724   2.999   4.351   3.758  0.3252 -2.2449  0.8873
 6031SOL     OW29725   1.181   3.730   3.241  0.2737 -0.1955 -0.2217
 6031SOL    HW129726   1.249   3.667   3.265  0.5563  0.8194  1.6249
 6031SOL    HW229727   1.158   3.772   3.323 -4.1233 -2.6468 -0.2200
 6032SOL     OW29728   2.589   1.937   3.386  0.1285 -0.1953 -0.3400
 6032SOL    HW129729   2.573   2.029   3.365  2.0175  0.5090  1.3129
 6032SOL    HW229730   2.610   1.913   3.296 -2.1493 -0.1208 -0.8942
 6033SOL     OW29731   0.167   3.697   4.082  1.1538 -0.1913  0.2785
 6033SOL    HW129732   0.214   3.772   4.119  0.2463 -0.3755  1.7606
 6033SOL    HW229733   0.128   3.739   4.005  0.0535 -0.1190  0.8703
 6034SOL     OW29734   1.800   3.760   2.791  0.0255  0.3585  0.5389
 6034SOL    HW129735   1.753   3.821   2.734 -1.7286 -0.9218  0.5964
 6034SOL    HW229736   1.786   3.807   2.873 -1.2268 -0.3636  0.7363
 6035SOL     OW29737   3.510   2.909   2.252 -0.4134 -0.0772 -0.5482
 6035SOL    HW129738   3.448   2.897   2.324 -0.5726 -0.0093 -0.6733
 6035SOL    HW229739   3.493   2.831   2.199  0.2893 -0.0093 -0.8631
 6036SOL     OW29740   0.912   4.641   6.500  0.4362  0.1186 -0.7533
 6036SOL    HW129741   0.904   4.733   6.474  2.3911  0.6182  0.3258
 6036SOL    HW229742   0.872   4.585   6.435 -1.0459  0.0218  0.2399
 6037SOL     OW29743   3.548   1.317   2.927  0.4479 -0.1912  0.3348
 6037SOL    HW129744   3.626   1.362   2.894 -0.1358  1.2856  0.9912
 6037SOL    HW229745   3.471   1.370   2.908 -0.3781 -1.3048  0.5753
 6038SOL     OW29746   1.997   3.859  12.133  0.4803  0.0099 -0.0550
 6038SOL    HW129747   1.918   3.910  12.149 -1.3997 -2.7943 -0.3012
 6038SOL    HW229748   1.972   3.770  12.161 -0.0904  0.4548  0.8513
 6039SOL     OW29749   4.735   1.239  10.127 -0.0856  0.2628  0.0264
 6039SOL    HW129750   0.034   1.195  10.203  4.4033  3.5317 -0.4517
 6039SOL    HW229751   0.045   1.318  10.115  0.9249 -0.7039 -2.0290
 6040SOL     OW29752   1.414   2.498   7.890 -0.1106 -0.5394  0.2791
 6040SOL    HW129753   1.406   2.520   7.983  1.1486 -0.9271  0.4825
 6040SOL    HW229754   1.477   2.564   7.862 -1.1060 -0.7805 -2.4520
 6041SOL     OW29755   0.636   0.184  16.732 -0.1920  0.2690  0.7127
 6041SOL    HW129756   0.596   0.149  16.653 -2.8636  0.4543  1.9712
 6041SOL    HW229757   0.580   0.256  16.759 -0.0358  0.7111 -0.1528
 6042SOL     OW29758   0.380   2.369  15.358  0.9107 -0.1981 -0.5383
 6042SOL    HW129759   0.386   2.457  15.321 -1.4766 -0.0595 -0.5572
 6042SOL    HW229760   0.444   2.333  15.297  1.7590 -1.3555  1.0209
 6043SOL     OW29761   3.858   1.170   6.049 -0.2929  0.5541 -0.1366
 6043SOL    HW129762   3.806   1.240   6.090 -1.2481 -0.7256  0.8393
 6043SOL    HW229763   3.931   1.223   6.017 -0.9515  0.6164 -1.5040
 6044SOL     OW29764   0.339   0.018  10.237  0.1320 -0.4896  0.4543
 6044SOL    HW129765   0.327   4.686  10.298 -0.4317 -0.3688  0.4888
 6044SOL    HW229766   0.273   0.078  10.272  0.7773  0.1474  0.5632
 6045SOL     OW29767   3.481   1.353  17.435  0.4065 -0.2548  0.3864
 6045SOL    HW129768   3.514   1.428  17.386 -1.3550  0.6056  0.5484
 6045SOL    HW229769   3.476   1.383  17.526 -0.3277 -0.3617  0.3835
 6046SOL     OW29770   1.080   1.786   5.237  0.4208 -0.3061 -0.2328
 6046SOL    HW129771   1.103   1.795   5.145  0.4687  1.8132 -0.0224
 6046SOL    HW229772   1.048   1.697   5.248  1.1590 -0.4886  0.4529
 6047SOL     OW29773   2.575   0.566   6.794 -0.0689  0.1326 -0.4284
 6047SOL    HW129774   2.520   0.638   6.825  0.7170  1.2633 -1.6588
 6047SOL    HW229775   2.560   0.571   6.699 -1.0577  1.2346 -0.2157
 6048SOL     OW29776   2.624   1.854   4.739 -0.0075  0.4672  0.1617
 6048SOL    HW129777   2.579   1.809   4.668 -1.4444  1.8937  0.1713
 6048SOL    HW229778   2.629   1.948   4.722  0.3940  0.1242 -1.5780
 6049SOL     OW29779   3.464   1.671   7.239  0.3838  0.9762  0.6493
 6049SOL    HW129780   3.518   1.722   7.179 -0.8463 -0.1209 -1.3804
 6049SOL    HW229781   3.378   1.686   7.200  0.1322  1.0190  1.2245
 6050SOL     OW29782   3.018   3.040  15.056  0.4771 -0.1590  0.0379
 6050SOL    HW129783   2.978   3.124  15.034 -3.2357 -1.5764  1.3433
 6050SOL    HW229784   3.107   3.066  15.077  0.5298  1.0150 -1.7067
 6051SOL     OW29785   1.694   2.819   3.373 -0.3849 -0.1094  0.4569
 6051SOL    HW129786   1.727   2.823   3.463 -0.9455  1.3284  0.6081
 6051SOL    HW229787   1.757   2.767   3.323 -0.9661  0.3964 -0.8080
 6052SOL     OW29788   0.956   0.359   5.293  0.4932 -0.1266 -0.0653
 6052SOL    HW129789   0.870   0.326   5.320  1.1798 -1.3142  0.6803
 6052SOL    HW229790   1.009   0.308   5.354 -0.8045 -2.0946 -0.5603
 6053SOL     OW29791   3.869   3.476   8.643 -0.5981 -0.1573  0.2081
 6053SOL    HW129792   3.900   3.459   8.732  2.8914  1.9706 -0.6221
 6053SOL    HW229793   3.915   3.404   8.601  0.5073 -0.5193  2.0471
 6054SOL     OW29794   4.003   2.309   6.478 -0.1983  0.6155 -0.6459
 6054SOL    HW129795   3.908   2.306   6.479 -0.2164  1.2878  0.0379
 6054SOL    HW229796   4.023   2.235   6.535 -0.3803  1.2679  0.2797
 6055SOL     OW29797   1.989   4.711   9.184 -0.1807  0.1517 -0.0478
 6055SOL    HW129798   1.938   4.696   9.105  0.2511 -0.4523 -0.2125
 6055SOL    HW229799   1.951   0.053   9.210  0.5158  0.5538 -0.3213
 6056SOL     OW29800   4.617   1.383  11.614  0.6082 -0.3660 -0.7284
 6056SOL    HW129801   4.598   1.313  11.553 -1.7310 -0.6221  0.2904
 6056SOL    HW229802   4.620   1.344  11.702  0.8762  2.0536  0.3299
 6057SOL     OW29803   0.665   4.000   6.386  0.0332  0.4714  0.3862
 6057SOL    HW129804   0.663   3.934   6.456 -0.3357 -0.6897 -0.7152
 6057SOL    HW229805   0.644   3.935   6.319 -1.9297  0.8519  0.6268
 6058SOL     OW29806   1.498   1.870   5.182 -0.6473  0.0816 -0.2467
 6058SOL    HW129807   1.439   1.807   5.221  0.7444  0.0127  1.7278
 6058SOL    HW229808   1.568   1.808   5.159 -0.8187 -0.2826  0.2185
 6059SOL     OW29809   4.079   3.727  17.510  0.0436 -0.1722 -0.0021
 6059SOL    HW129810   4.016   3.655  17.522  0.8894 -0.6766  1.4304
 6059SOL    HW229811   4.021   3.790  17.468 -3.4520 -3.3996 -0.1138
 6060SOL     OW29812   1.491   3.037  13.263  0.0158  0.3569  0.6691
 6060SOL    HW129813   1.396   3.049  13.265 -0.0281  0.3393 -1.6244
 6060SOL    HW229814   1.513   3.124  13.298 -0.1465  1.0259 -0.8744
 6061SOL     OW29815   3.144   0.579  15.538 -0.1198  0.3714 -0.7576
 6061SOL    HW129816   3.102   0.555  15.456  0.8904 -0.2806 -1.0755
 6061SOL    HW229817   3.128   0.508  15.600  2.0292  0.9354  0.4809
 6062SOL     OW29818   3.619   3.541  14.797 -0.0797 -0.5085  0.0783
 6062SOL    HW129819   3.537   3.556  14.751  0.9482 -0.1683 -1.6219
 6062SOL    HW229820   3.630   3.632  14.825 -3.0871 -0.0108 -0.3782
 6063SOL     OW29821   3.328   2.483   2.196 -0.4882  0.1081  0.3187
 6063SOL    HW129822   3.366   2.402   2.231  1.3979  0.4689 -0.9026
 6063SOL    HW229823   3.237   2.474   2.225 -1.0506  0.2380 -1.3816
 6064SOL     OW29824   3.036   0.164   7.367  0.1775  0.0618 -0.4231
 6064SOL    HW129825   3.048   0.229   7.436  1.0778 -0.9254  0.3482
 6064SOL    HW229826   3.121   0.121   7.378 -0.0527 -0.0921  0.7183
 6065SOL     OW29827   0.471   3.405   3.724 -0.1645 -0.2647  0.1582
 6065SOL    HW129828   0.518   3.377   3.646 -1.1989 -0.5192 -0.3740
 6065SOL    HW229829   0.540   3.443   3.778  1.7341 -1.5710 -1.3004
 6066SOL     OW29830   3.671   1.432   3.610 -0.3899  0.1301 -0.0215
 6066SOL    HW129831   3.755   1.424   3.566 -1.1657  0.2654 -1.5477
 6066SOL    HW229832   3.628   1.476   3.536 -2.7578  2.8541  2.9471
 6067SOL     OW29833   4.602   1.429   4.538 -0.3896  0.5499 -0.5993
 6067SOL    HW129834   4.513   1.450   4.566  0.5340  2.0511  1.1866
 6067SOL    HW229835   4.605   1.505   4.479  0.1089  0.2047 -1.0124
 6068SOL     OW29836   2.191   3.916   4.052 -0.8614  0.0111 -0.5566
 6068SOL    HW129837   2.221   3.956   4.134 -0.6264  1.5049 -1.3772
 6068SOL    HW229838   2.272   3.937   4.005 -1.3163 -0.7556 -1.6779
 6069SOL     OW29839   3.124   1.788   2.985 -0.0572 -0.1333  0.0790
 6069SOL    HW129840   3.072   1.729   2.930 -1.3434 -0.3611  1.5082
 6069SOL    HW229841   3.067   1.856   3.020  1.6085 -0.0956  2.7566
 6070SOL     OW29842   3.932   3.282  17.368  0.2733  0.7410  0.2389
 6070SOL    HW129843   3.920   3.231  17.448  0.8378 -0.1861 -0.2597
 6070SOL    HW229844   3.871   3.249  17.302 -0.7386 -0.6999  1.9110
 6071SOL     OW29845   1.831   3.720   7.948 -0.0588  0.0593  0.3478
 6071SOL    HW129846   1.860   3.668   8.022  1.4138 -1.0625 -1.0367
 6071SOL    HW229847   1.798   3.805   7.978 -0.0204  0.8166 -1.7300
 6072SOL     OW29848   4.179   0.279  17.039 -0.3834 -0.0134 -0.2565
 6072SOL    HW129849   4.121   0.330  16.982 -0.2163 -0.7176 -1.0468
 6072SOL    HW229850   4.124   0.264  17.116 -0.0870 -1.7249 -0.3969
 6073SOL     OW29851   1.359   2.650   5.619  0.1997  0.2761 -0.5581
 6073SOL    HW129852   1.308   2.576   5.584 -0.9744  0.1519  1.4398
 6073SOL    HW229853   1.376   2.698   5.538 -1.2352  0.9716 -0.4491
 6074SOL     OW29854   4.092   3.530   0.975 -0.2693 -0.4862 -0.8626
 6074SOL    HW129855   4.040   3.527   1.055  0.2139 -0.3449 -0.5405
 6074SOL    HW229856   4.185   3.528   0.999 -0.2795 -1.1809 -0.8826
 6075SOL     OW29857   1.678   1.830   3.681  0.2133  0.6596  0.2118
 6075SOL    HW129858   1.749   1.781   3.639 -0.6609 -1.0226  0.6853
 6075SOL    HW229859   1.731   1.878   3.745  0.8473  1.1157 -0.6586
 6076SOL     OW29860   0.544   4.170   4.450 -0.2159  0.7433 -0.2134
 6076SOL    HW129861   0.620   4.124   4.416  0.0432 -0.0686  1.4712
 6076SOL    HW229862   0.530   4.104   4.519  4.1867 -2.1179 -2.0954
 6077SOL     OW29863   2.719   0.108   1.690  0.0769  0.0225  0.4242
 6077SOL    HW129864   2.800   0.139   1.650 -0.9319  0.0528 -1.6174
 6077SOL    HW229865   2.738   0.047   1.761  0.0944  0.7837  1.0750
 6078SOL     OW29866   1.093   3.190   2.736 -0.5852 -0.0057 -0.1212
 6078SOL    HW129867   1.124   3.154   2.653 -1.0947  0.7201 -0.6311
 6078SOL    HW229868   1.057   3.111   2.777 -0.6226  0.8141  1.4301
 6079SOL     OW29869   3.088   0.645   5.146 -0.3759  0.6475  0.0562
 6079SOL    HW129870   3.035   0.583   5.095  0.9679  0.4594 -1.1503
 6079SOL    HW229871   3.139   0.586   5.201 -1.8547 -0.6985 -0.0382
 6080SOL     OW29872   0.252   0.455   8.433 -0.1187  0.0158 -0.0452
 6080SOL    HW129873   0.344   0.448   8.408 -0.7368 -3.0700 -1.4501
 6080SOL    HW229874   0.216   0.390   8.373 -2.1351  0.3666  0.7661
 6081SOL     OW29875   0.909   1.074  14.129 -0.8515 -0.0496 -0.8927
 6081SOL    HW129876   0.958   1.025  14.194 -1.4256  2.0783  1.1551
 6081SOL    HW229877   0.819   1.054  14.155 -0.6345 -0.8801 -0.7977
 6082SOL     OW29878   2.701   0.078   5.618 -0.3046 -0.2537  0.0168
 6082SOL    HW129879   2.689   0.104   5.527 -3.2071 -2.7067 -0.3110
 6082SOL    HW229880   2.783   0.031   5.616 -0.4392 -0.5989  2.5202
 6083SOL     OW29881   4.270   2.266   3.168 -0.1159 -0.6698 -0.1622
 6083SOL    HW129882   4.340   2.307   3.117  0.1208  0.2845  0.9168
 6083SOL    HW229883   4.223   2.220   3.099  0.8860 -1.7203 -0.1465
 6084SOL     OW29884   1.994   0.946   8.335 -0.0022 -0.7335 -0.4043
 6084SOL    HW129885   1.939   0.968   8.260  0.1317 -1.4859 -0.7294
 6084SOL    HW229886   2.078   0.985   8.311 -1.4113  1.4377 -1.8131
 6085SOL     OW29887   0.269   1.915   5.617 -0.5859  0.0971  0.2970
 6085SOL    HW129888   0.213   1.977   5.571  1.1902  1.4302 -0.0449
 6085SOL    HW229889   0.250   1.829   5.580 -0.5389  0.8124 -1.3959
 6086SOL     OW29890   4.311   0.370  17.522 -0.2519 -0.0651 -0.0356
 6086SOL    HW129891   4.286   0.413  17.441 -2.0246 -0.2939  0.3787
 6086SOL    HW229892   4.252   0.294  17.524 -0.4511  0.0749 -0.7871
 6087SOL     OW29893   0.934   1.231   9.947 -0.3022  0.0403 -0.4990
 6087SOL    HW129894   0.922   1.315   9.992 -1.2694 -1.5768  2.2401
 6087SOL    HW229895   0.874   1.178  10.000 -1.2412  0.4169 -1.1711
 6088SOL     OW29896   0.495   3.969  12.611  0.5959 -0.5596  0.4198
 6088SOL    HW129897   0.447   3.918  12.545  0.7122  0.6285 -0.5788
 6088SOL    HW229898   0.436   3.957  12.685 -0.9516  0.1267 -0.7126
 6089SOL     OW29899   3.750   1.376   6.490  0.1869 -0.1008 -0.1169
 6089SOL    HW129900   3.701   1.396   6.410  0.1198 -0.8328 -0.2530
 6089SOL    HW229901   3.726   1.284   6.496 -1.1447  0.1350 -1.8382
 6090SOL     OW29902   2.230   3.619  15.154  0.2031 -0.8843  0.5240
 6090SOL    HW129903   2.137   3.630  15.134  0.2508  0.3334  0.9678
 6090SOL    HW229904   2.275   3.620  15.070  1.1523  3.3885  1.0800
 6091SOL     OW29905   3.162   2.767   0.447 -0.2879  0.2232  0.0017
 6091SOL    HW129906   3.081   2.783   0.495  0.6047 -0.3911  1.6990
 6091SOL    HW229907   3.134   2.792   0.359 -0.0781  0.6652  0.0654
 6092SOL     OW29908   0.734   2.615   9.034 -0.1716  0.3175  0.0703
 6092SOL    HW129909   0.670   2.679   9.002 -0.3408  1.0865  1.9482
 6092SOL    HW229910   0.675   2.574   9.097 -0.9281  0.8655 -0.2841
 6093SOL     OW29911   2.331   1.887  12.313 -0.1930  0.1687  0.1951
 6093SOL    HW129912   2.325   1.839  12.396  0.8610 -0.0356  0.1605
 6093SOL    HW229913   2.407   1.843  12.274 -0.9793 -1.8313  0.8914
 6094SOL     OW29914   2.343   0.827   2.684  0.1541  0.3990 -0.3429
 6094SOL    HW129915   2.339   0.799   2.775  0.0955  0.7796 -0.2319
 6094SOL    HW229916   2.272   0.772   2.649 -2.1785  1.6320  2.5147
 6095SOL     OW29917   0.824   2.441   3.378 -0.4605 -0.6332 -0.2133
 6095SOL    HW129918   0.878   2.423   3.455  0.1930 -2.5146 -1.1100
 6095SOL    HW229919   0.741   2.403   3.409 -0.6853 -0.7317 -0.9348
 6096SOL     OW29920   2.532   3.814   9.272  0.0901  0.3433 -0.1201
 6096SOL    HW129921   2.486   3.862   9.204  0.1563  0.8859  0.2218
 6096SOL    HW229922   2.608   3.872   9.269 -0.2547  0.9399  2.2433
 6097SOL     OW29923   3.481   1.211   6.055 -0.4273 -0.0482 -0.1100
 6097SOL    HW129924   3.518   1.211   5.967 -0.9072 -1.2751 -0.3044
 6097SOL    HW229925   3.393   1.237   6.029 -0.9565  0.1654  1.9281
 6098SOL     OW29926   3.684   2.796   7.874  0.0210  0.1916 -0.0496
 6098SOL    HW129927   3.647   2.707   7.878  0.7889 -0.1635 -0.6734
 6098SOL    HW229928   3.765   2.780   7.923 -1.0461  0.5167  1.8127
 6099SOL     OW29929   2.674   3.485   6.899 -0.3037  0.0125 -0.3206
 6099SOL    HW129930   2.623   3.552   6.943 -1.9576 -1.7063  0.3852
 6099SOL    HW229931   2.600   3.425   6.901  0.7102 -1.2017  1.9507
 6100SOL     OW29932   0.949   2.082   3.975  0.1612 -0.5884  0.0379
 6100SOL    HW129933   0.878   2.017   3.971 -1.3576  1.0560  0.5791
 6100SOL    HW229934   0.979   2.066   4.064 -0.4897 -3.1376 -0.1793
 6101SOL     OW29935   2.405   0.242   7.356 -0.3646 -0.3162  0.5348
 6101SOL    HW129936   2.474   0.259   7.421  0.6421 -0.9096 -0.3646
 6101SOL    HW229937   2.453   0.166   7.320 -0.8080  0.3894 -1.5478
 6102SOL     OW29938   0.724   1.954   0.340 -0.0688 -0.0714 -0.6120
 6102SOL    HW129939   0.655   2.005   0.382 -0.6346 -2.2928  1.2043
 6102SOL    HW229940   0.759   2.011   0.272 -2.4143 -0.7678 -2.4018
 6103SOL     OW29941   2.188   2.777   9.229  0.1703 -0.3626  0.2317
 6103SOL    HW129942   2.195   2.871   9.210 -0.3883 -0.0135  1.7261
 6103SOL    HW229943   2.222   2.736   9.150  1.3713  3.5711 -1.3261
 6104SOL     OW29944   2.705   4.557   1.254  0.4813  0.0310 -0.0243
 6104SOL    HW129945   2.652   4.634   1.231  1.3050  0.2452 -1.2207
 6104SOL    HW229946   2.639   4.500   1.293  0.9846  0.9839  2.2489
 6105SOL     OW29947   3.149   2.420  12.675 -0.2414  0.3432  0.1004
 6105SOL    HW129948   3.084   2.368  12.627  0.7799  0.6264 -1.6000
 6105SOL    HW229949   3.114   2.418  12.764  3.6603 -0.5610  1.6208
 6106SOL     OW29950   0.148   0.791  15.655  0.0554  0.2498  0.7356
 6106SOL    HW129951   0.219   0.774  15.717  0.4455  2.3527  0.8494
 6106SOL    HW229952   0.189   0.849  15.591 -0.0280 -1.1226 -0.5575
 6107SOL     OW29953   0.856   1.337   4.826  0.0568 -0.3015 -0.2660
 6107SOL    HW129954   0.817   1.318   4.912  1.5658 -0.7781  0.3183
 6107SOL    HW229955   0.790   1.292   4.773 -1.4313 -0.6966  1.8755
 6108SOL     OW29956   4.461   1.773  15.421 -0.0584  0.0466  0.0131
 6108SOL    HW129957   4.425   1.833  15.355  0.5220 -0.5465 -0.8421
 6108SOL    HW229958   4.550   1.810  15.422  1.0508 -2.5805 -1.8954
 6109SOL     OW29959   3.329   4.334   6.045  0.6325 -0.1052  0.6091
 6109SOL    HW129960   3.381   4.255   6.031  1.8788  1.1490 -1.7079
 6109SOL    HW229961   3.260   4.314   5.982  0.2294  1.5230  0.5193
 6110SOL     OW29962   1.950   4.667   6.370 -0.0728  0.0558  0.1813
 6110SOL    HW129963   2.000   4.599   6.416 -1.9564 -0.2977  1.6997
 6110SOL    HW229964   1.932   4.726   6.443  1.7443  0.7228  0.0819
 6111SOL     OW29965   2.940   1.244  16.123 -0.2605  0.0424  0.5028
 6111SOL    HW129966   2.941   1.329  16.080  0.6359 -0.5599 -0.6456
 6111SOL    HW229967   3.001   1.200  16.064  0.1624  0.9233  0.2848
 6112SOL     OW29968   0.478   1.878   3.112  0.1172  0.0043  0.1402
 6112SOL    HW129969   0.385   1.896   3.129 -0.3025 -0.1164 -1.9673
 6112SOL    HW229970   0.514   1.912   3.193 -1.4993  1.1265  0.3861
 6113SOL     OW29971   1.044   0.744  15.188 -0.0602 -0.3660  0.8096
 6113SOL    HW129972   1.000   0.803  15.127  2.0326 -0.1082 -0.4619
 6113SOL    HW229973   0.997   0.661  15.182  0.1818 -0.2857 -1.9160
 6114SOL     OW29974   4.313   3.665   8.945 -0.0839  0.2289 -0.3744
 6114SOL    HW129975   4.334   3.759   8.951  0.5361 -0.0668  1.8699
 6114SOL    HW229976   4.227   3.675   8.904  0.6951  0.2071 -2.0026
 6115SOL     OW29977   2.278   2.370   5.983 -0.5092 -0.9211 -0.1811
 6115SOL    HW129978   2.228   2.294   5.953 -1.0668 -0.7004  0.1788
 6115SOL    HW229979   2.361   2.335   5.952 -0.4768  0.9340 -2.1748
 6116SOL     OW29980   1.751   0.357  15.315  0.4239  0.0491  0.2182
 6116SOL    HW129981   1.719   0.281  15.364 -2.9509  2.1373  1.2534
 6116SOL    HW229982   1.838   0.324  15.294  1.0619  1.0533  1.2499
 6117SOL     OW29983   3.366   4.543  11.511 -0.3176 -0.8503  0.0179
 6117SOL    HW129984   3.448   4.549  11.463  0.1588  2.4745  1.2433
 6117SOL    HW229985   3.356   4.635  11.536 -0.3295 -1.4645  2.2851
 6118SOL     OW29986   3.013   2.570   8.127 -0.2409 -0.4612 -0.5782
 6118SOL    HW129987   3.078   2.500   8.130  1.4195  1.1516  0.7974
 6118SOL    HW229988   3.068   2.642   8.098  1.5089 -1.4551  0.3100
 6119SOL     OW29989   2.979   3.921   2.751 -1.1775 -0.7078 -0.2960
 6119SOL    HW129990   2.924   3.998   2.766 -1.7142 -1.2162  0.3675
 6119SOL    HW229991   3.061   3.971   2.751 -2.1796  0.9062 -1.1134
 6120SOL     OW29992   2.429   4.565   5.299  0.0647 -0.1587  0.1260
 6120SOL    HW129993   2.480   4.485   5.307 -0.3156 -0.6427 -2.4537
 6120SOL    HW229994   2.357   4.533   5.245 -1.0378 -1.0975  2.1659
 6121SOL     OW29995   2.665   4.671  17.204 -0.7894 -0.2770 -0.1322
 6121SOL    HW129996   2.648   4.699  17.294 -1.6543 -0.5050 -0.2257
 6121SOL    HW229997   2.577   4.693  17.174  0.0527  0.7767 -1.7813
 6122SOL     OW29998   4.731   3.339   5.568  0.0402  0.5255 -0.6585
 6122SOL    HW129999   0.070   3.288   5.565 -0.0737  0.2672  0.5288
 6122SOL    HW230000   4.670   3.270   5.543 -0.5948  1.7401 -2.5213
 6123SOL     OW30001   3.677   3.004   1.805 -0.2514  0.5684  0.6193
 6123SOL    HW130002   3.698   2.995   1.898 -2.7874  2.0154  1.3350
 6123SOL    HW230003   3.647   3.093   1.789  0.9479  0.8366 -0.1090
 6124SOL     OW30004   3.275   2.360  12.999 -0.1499 -0.2673 -0.0337
 6124SOL    HW130005   3.182   2.359  12.978  0.1324  2.0640 -1.2951
 6124SOL    HW230006   3.281   2.270  13.033 -1.3409 -0.5479 -0.5696
 6125SOL     OW30007   0.928   3.303   1.809 -0.5958 -0.0342  0.1182
 6125SOL    HW130008   0.912   3.372   1.873  0.2302 -0.4508  0.7692
 6125SOL    HW230009   0.906   3.337   1.722 -3.7057 -0.6960  0.6314
 6126SOL     OW30010   4.146   4.055   5.347  0.2520 -0.1513  0.5930
 6126SOL    HW130011   4.193   4.103   5.278 -2.2781 -0.6776 -1.5095
 6126SOL    HW230012   4.137   3.974   5.297 -1.0396  0.0445  0.5141
 6127SOL     OW30013   3.078   0.550  10.945 -0.0920  0.4954  0.8367
 6127SOL    HW130014   3.115   0.638  10.942  1.3536 -0.1596 -0.7182
 6127SOL    HW230015   3.128   0.509  10.874  1.2667 -0.1714  2.1769
 6128SOL     OW30016   1.273   0.726   7.723  0.2569 -0.1837  0.4942
 6128SOL    HW130017   1.269   0.778   7.643 -1.3696 -1.4997 -0.3062
 6128SOL    HW230018   1.286   0.636   7.692  0.5911  0.1126 -0.2141
 6129SOL     OW30019   1.381   0.513  16.903  0.4485  0.1539  0.2959
 6129SOL    HW130020   1.403   0.606  16.895  2.3245 -0.3837 -0.7014
 6129SOL    HW230021   1.299   0.524  16.952  0.1283 -1.4060  0.0974
 6130SOL     OW30022   2.274   3.676   5.214  0.4261 -0.1660 -0.0460
 6130SOL    HW130023   2.194   3.719   5.183 -0.6865 -0.9417  1.7882
 6130SOL    HW230024   2.246   3.642   5.299 -0.3740  0.1742 -0.1672
 6131SOL     OW30025   2.242   0.136   1.346 -0.0397 -0.2692  0.7039
 6131SOL    HW130026   2.204   0.048   1.339  1.8213 -1.0471  0.6187
 6131SOL    HW230027   2.257   0.160   1.437  1.9947  3.3072 -0.5560
 6132SOL     OW30028   4.277   1.254   0.296  0.4128 -0.0629  0.3708
 6132SOL    HW130029   4.294   1.344   0.323 -0.5908 -0.8095  3.4386
 6132SOL    HW230030   4.365   1.225   0.271  1.3647  1.7599  1.6293
 6133SOL     OW30031   4.739   1.432  13.997 -0.2097  0.2416 -0.4503
 6133SOL    HW130032   0.073   1.481  14.031  0.3218 -1.5456  0.9052
 6133SOL    HW230033   0.051   1.363  13.958  0.4117 -0.1144  1.0392
 6134SOL     OW30034   3.049   3.369   6.643 -0.1305  0.3080 -0.3187
 6134SOL    HW130035   3.061   3.279   6.673  0.0628  0.0648 -1.1295
 6134SOL    HW230036   3.022   3.409   6.726 -1.1059  1.8991 -1.4034
 6135SOL     OW30037   3.526   1.920   4.082  0.7218  0.0592 -0.3965
 6135SOL    HW130038   3.454   1.917   4.018  0.3392  1.1444 -0.0023
 6135SOL    HW230039   3.490   1.979   4.147  0.3849 -1.2731  0.6199
 6136SOL     OW30040   3.702   0.626   8.778  0.4848 -0.3272  0.5510
 6136SOL    HW130041   3.650   0.686   8.725 -0.1738 -1.5190 -0.1495
 6136SOL    HW230042   3.639   0.582   8.837 -0.3855 -1.0816 -0.9432
 6137SOL     OW30043   1.882   4.389   8.068 -0.2660  0.2393 -0.2547
 6137SOL    HW130044   1.878   4.314   8.128 -1.4199 -0.0639 -0.7271
 6137SOL    HW230045   1.921   4.345   7.993 -3.5070 -3.1730  0.0467
 6138SOL     OW30046   4.659   4.350   7.435 -0.1836 -0.8450  0.5084
 6138SOL    HW130047   4.602   4.281   7.467 -0.8049 -0.8285 -0.5528
 6138SOL    HW230048   4.709   4.294   7.376  0.8279 -3.0492  3.4880
 6139SOL     OW30049   4.358   3.596  14.429  0.2918 -0.2687  0.0850
 6139SOL    HW130050   4.388   3.681  14.397 -0.5488 -1.1485 -2.9938
 6139SOL    HW230051   4.320   3.545  14.358  0.4862  0.8353 -0.8124
 6140SOL     OW30052   1.958   1.483   1.479  0.2255 -0.1636  0.6425
 6140SOL    HW130053   2.028   1.477   1.415 -0.5185  2.1018 -0.3892
 6140SOL    HW230054   2.000   1.474   1.564  0.2445  0.9498  0.7474
 6141SOL     OW30055   3.325   4.646   5.727  0.0591  0.5087  0.2318
 6141SOL    HW130056   3.350   4.734   5.701  2.0544 -0.2638 -0.4286
 6141SOL    HW230057   3.381   4.596   5.668  0.7913 -0.4785  1.7556
 6142SOL     OW30058   3.234   3.506   9.579  0.0011 -0.2623  0.1192
 6142SOL    HW130059   3.261   3.435   9.521 -1.5264  0.1438 -1.1027
 6142SOL    HW230060   3.308   3.566   9.581  0.7175 -1.2674  3.9840
 6143SOL     OW30061   4.197   2.787   6.243 -0.3694 -0.0141 -0.4454
 6143SOL    HW130062   4.168   2.878   6.257  2.3337  1.1065 -2.1011
 6143SOL    HW230063   4.153   2.747   6.318 -0.4468  0.1081 -0.4254
 6144SOL     OW30064   0.993   2.168   7.664 -0.0127 -0.2386 -0.5636
 6144SOL    HW130065   0.964   2.242   7.718  0.7366  0.0250 -0.5271
 6144SOL    HW230066   0.958   2.093   7.712  1.1737 -0.0010  0.6731
 6145SOL     OW30067   0.915   1.606  14.972  0.7887 -0.3927  0.2815
 6145SOL    HW130068   0.878   1.523  15.003 -1.2499  0.0139 -1.0722
 6145SOL    HW230069   0.839   1.663  14.969  0.9539 -0.2858 -2.1150
 6146SOL     OW30070   2.626   3.191  17.736  0.0999 -0.5291 -0.9026
 6146SOL    HW130071   2.695   3.197  17.670  0.9821 -2.0749 -0.1324
 6146SOL    HW230072   2.581   3.275  17.732 -3.2502 -2.2170  1.8458
 6147SOL     OW30073   0.056   1.396  17.633  0.7592 -0.2081  0.4149
 6147SOL    HW130074   0.137   1.446  17.628  1.6080 -1.7918 -1.7644
 6147SOL    HW230075   0.003   1.474  17.646 -0.4034 -0.7181 -1.2007
 6148SOL     OW30076   3.680   2.557   7.750  0.1617  0.2376 -0.0692
 6148SOL    HW130077   3.721   2.620   7.691 -0.2589 -2.2569 -3.0458
 6148SOL    HW230078   3.591   2.561   7.714  0.1717  0.6115 -0.0573
 6149SOL     OW30079   2.956   3.377   2.981  0.2187 -0.5013 -0.2051
 6149SOL    HW130080   2.927   3.396   2.892 -1.5865 -0.7745  0.3103
 6149SOL    HW230081   3.010   3.298   2.979  0.9798  0.0593 -1.4222
 6150SOL     OW30082   3.039   2.795   6.536 -0.0890  0.1266  0.0320
 6150SOL    HW130083   3.112   2.765   6.481 -0.9216  0.2221 -1.1178
 6150SOL    HW230084   2.985   2.842   6.472  0.4149  1.0635  0.2801
 6151SOL     OW30085   3.153   4.720   3.329  0.0493  0.0317  0.3377
 6151SOL    HW130086   3.225   4.667   3.297 -0.0120  0.4455 -0.4761
 6151SOL    HW230087   3.188   0.064   3.303 -1.6015  0.6086  0.0268
 6152SOL     OW30088   1.937   1.671   8.188 -0.3017  0.3044 -0.5406
 6152SOL    HW130089   2.009   1.679   8.125 -0.3215 -2.0746 -0.8674
 6152SOL    HW230090   1.950   1.585   8.229 -2.0549  0.2273 -0.1483
 6153SOL     OW30091   3.040   2.981  10.629  0.0442  0.4734 -0.0311
 6153SOL    HW130092   3.022   2.907  10.687 -1.0526 -0.1959 -1.2063
 6153SOL    HW230093   3.131   2.998  10.653  0.5448  0.5498 -1.9414
 6154SOL     OW30094   2.526   4.065   9.465 -0.1316  0.4744 -0.2639
 6154SOL    HW130095   2.607   4.109   9.439 -0.0434 -0.5273 -1.6959
 6154SOL    HW230096   2.459   4.129   9.441 -0.4890  0.2603  0.1786
 6155SOL     OW30097   3.241   3.515  16.579  0.8076 -0.4552  0.3787
 6155SOL    HW130098   3.275   3.602  16.601  0.5075 -1.1648  3.6490
 6155SOL    HW230099   3.321   3.464  16.565 -0.6695 -2.6560  0.0451
 6156SOL     OW30100   2.618   1.646  13.250 -0.3730  0.3326 -0.2647
 6156SOL    HW130101   2.535   1.657  13.295 -1.3258 -1.2324 -1.6366
 6156SOL    HW230102   2.670   1.621  13.327 -1.4276  0.3726  0.4618
 6157SOL     OW30103   3.406   0.490   8.297 -0.0946  0.4816 -0.4148
 6157SOL    HW130104   3.413   0.499   8.202 -1.2918  1.0344 -0.4614
 6157SOL    HW230105   3.499   0.498   8.316  0.6124 -0.4122 -3.4785
 6158SOL     OW30106   0.008   1.373   8.695 -0.1531  0.3988  0.5317
 6158SOL    HW130107   4.680   1.427   8.656  0.0405  1.2016  1.2964
 6158SOL    HW230108   0.085   1.430   8.685 -0.0936  0.2246 -0.0080
 6159SOL     OW30109   1.441   4.567  15.002  0.9031 -0.1866 -0.1013
 6159SOL    HW130110   1.531   4.536  15.013  0.4959 -1.2723  0.1420
 6159SOL    HW230111   1.416   4.573  15.095  0.4021  0.1564 -0.2592
 6160SOL     OW30112   3.688   1.346   5.240  0.3333  0.7093 -0.0501
 6160SOL    HW130113   3.680   1.406   5.166 -0.8410 -0.5409 -0.9587
 6160SOL    HW230114   3.731   1.272   5.198  2.1393  1.3067  0.7795
 6161SOL     OW30115   3.580   0.711   9.886  0.1779  0.8381 -0.2515
 6161SOL    HW130116   3.487   0.708   9.909  0.7024  0.6214  1.9130
 6161SOL    HW230117   3.607   0.632   9.934 -0.5824  2.2843  2.5473
 6162SOL     OW30118   3.258   2.489  11.567 -0.2995  0.1727  0.5412
 6162SOL    HW130119   3.327   2.514  11.505  0.5358 -0.5570  1.1776
 6162SOL    HW230120   3.249   2.394  11.558 -0.0086  0.1350  0.6535
 6163SOL     OW30121   0.947   1.501  10.019 -0.1157 -0.5019 -0.1523
 6163SOL    HW130122   0.873   1.538  10.067 -0.0338 -1.2248  0.5354
 6163SOL    HW230123   0.954   1.572   9.955  2.8111 -2.5866 -2.1522
 6164SOL     OW30124   3.701   3.790   3.699  0.7329  0.4359 -0.0343
 6164SOL    HW130125   3.618   3.757   3.734  0.9126  1.3085  1.2071
 6164SOL    HW230126   3.665   3.857   3.641 -0.4440  1.0080  1.3593
 6165SOL     OW30127   2.164   3.602   9.388  0.2415 -0.3545  0.3062
 6165SOL    HW130128   2.197   3.524   9.433 -3.5448 -1.0496  1.8544
 6165SOL    HW230129   2.236   3.665   9.388  1.4254 -1.7126 -0.4999
 6166SOL     OW30130   4.729   3.574   1.955  0.0042 -0.1458  0.6562
 6166SOL    HW130131   4.636   3.561   1.973  0.1556 -0.3497  1.2751
 6166SOL    HW230132   0.012   3.652   2.005  1.1818  0.5008 -0.9361
 6167SOL     OW30133   3.636   2.346   4.804 -0.2455 -0.3061 -0.0218
 6167SOL    HW130134   3.549   2.321   4.836 -0.9900  0.7729 -1.2042
 6167SOL    HW230135   3.687   2.348   4.885  2.5153 -0.7687 -1.7413
 6168SOL     OW30136   3.411   0.179  10.318 -0.1691 -0.2276  0.7682
 6168SOL    HW130137   3.369   0.210  10.238 -0.6403 -3.1062 -0.1292
 6168SOL    HW230138   3.379   0.089  10.326 -1.9020  0.4155  0.9162
 6169SOL     OW30139   1.910   3.920   0.489 -0.2268 -0.2179 -0.8027
 6169SOL    HW130140   1.907   3.874   0.572  2.1684  0.1954 -0.4791
 6169SOL    HW230141   1.983   3.981   0.499 -1.5391  1.0081  1.1480
 6170SOL     OW30142   1.065   1.685   4.935 -0.3329 -0.2159 -0.2654
 6170SOL    HW130143   1.109   1.742   4.872  0.7160 -1.5586 -0.7587
 6170SOL    HW230144   1.073   1.594   4.904 -2.0948  0.6807 -3.3959
 6171SOL     OW30145   4.319   2.804   6.795 -0.2868 -0.2538  0.4711
 6171SOL    HW130146   4.367   2.883   6.821  2.3439 -1.5955 -0.4289
 6171SOL    HW230147   4.396   2.779   6.745 -0.2985  1.8049 -0.5829
 6172SOL     OW30148   2.907   3.913   2.205 -0.2215  1.0940 -0.4854
 6172SOL    HW130149   2.906   3.872   2.291 -2.0594 -1.4268 -1.7119
 6172SOL    HW230150   3.000   3.913   2.184 -0.0804 -0.4948  0.1506
 6173SOL     OW30151   1.239   3.281  10.324  0.2104 -0.0989  0.5488
 6173SOL    HW130152   1.181   3.295  10.248 -0.6694 -1.9173  0.8793
 6173SOL    HW230153   1.323   3.277  10.278  0.3095 -1.2757  0.8370
 6174SOL     OW30154   4.669   0.600   1.615  0.2671  0.0686 -0.1409
 6174SOL    HW130155   4.582   0.633   1.594  0.8097  0.3938 -1.9063
 6174SOL    HW230156   4.649   0.575   1.705  0.6197 -0.0987 -0.1088
 6175SOL     OW30157   2.240   3.747  16.835  0.0190  0.2827 -0.0208
 6175SOL    HW130158   2.150   3.781  16.835 -0.6895 -1.6128  1.4587
 6175SOL    HW230159   2.228   3.665  16.882  2.0471  0.0830  0.1625
 6176SOL     OW30160   4.500   0.021   5.456  0.0190  0.2314  0.4078
 6176SOL    HW130161   4.453   0.044   5.376 -1.3792 -0.2040  1.1041
 6176SOL    HW230162   4.569   4.714   5.411  0.0792 -0.8805  1.7152
 6177SOL     OW30163   2.125   4.083   0.584  0.0380 -0.7363  0.5563
 6177SOL    HW130164   2.218   4.061   0.596 -0.1148 -0.8478  1.5179
 6177SOL    HW230165   2.116   4.128   0.500 -1.8371 -1.1662  0.5261
 6178SOL     OW30166   2.706   1.841   8.826 -0.5555  0.0683 -0.2164
 6178SOL    HW130167   2.626   1.834   8.775  1.2235 -1.3887 -2.7945
 6178SOL    HW230168   2.734   1.931   8.813  2.1936 -0.7893 -0.4093
 6179SOL     OW30169   4.702   0.332   6.471  0.1936  0.1252  0.5268
 6179SOL    HW130170   0.001   0.412   6.438  0.8923 -1.2070 -1.8016
 6179SOL    HW230171   0.029   0.265   6.467 -0.7731 -0.7779 -0.7401
 6180SOL     OW30172   3.504   4.231   7.138  0.5716  0.5676 -0.4822
 6180SOL    HW130173   3.478   4.149   7.097  0.0571  0.8003 -0.6298
 6180SOL    HW230174   3.448   4.229   7.216 -0.4099  2.1731 -1.1444
 6181SOL     OW30175   1.028   3.854   6.865 -0.1887  0.0670 -0.2261
 6181SOL    HW130176   1.068   3.933   6.902 -1.3736  0.6162 -0.1072
 6181SOL    HW230177   0.993   3.814   6.945  1.6776 -1.1664 -0.0243
 6182SOL     OW30178   1.277   0.573   6.683 -0.4119 -0.0614  0.7499
 6182SOL    HW130179   1.256   0.571   6.776  0.7803  2.7314  1.0947
 6182SOL    HW230180   1.340   0.503   6.669 -0.5448  0.2665 -1.4741
 6183SOL     OW30181   0.158   0.978   2.577  0.4235 -0.8052  0.4027
 6183SOL    HW130182   0.114   1.063   2.578  0.4660 -0.7801 -0.4829
 6183SOL    HW230183   0.183   0.971   2.485 -1.4930 -2.7463  0.0406
 6184SOL     OW30184   0.082   0.912  15.076  0.3687 -0.8211 -0.0101
 6184SOL    HW130185   0.088   0.903  14.981  3.2362  1.3600 -0.0398
 6184SOL    HW230186   0.006   0.858  15.095  0.6817 -0.6385  1.7769
 6185SOL     OW30187   4.581   2.392   6.942 -0.0219  0.3793 -0.3157
 6185SOL    HW130188   4.612   2.349   7.022 -1.4276  0.5855  0.3499
 6185SOL    HW230189   4.654   2.453   6.936  1.7934 -2.0221 -2.4611
 6186SOL     OW30190   4.298   1.914   2.393  0.6728 -0.0071  0.1827
 6186SOL    HW130191   4.234   1.972   2.435 -0.0803 -1.5154  1.1410
 6186SOL    HW230192   4.377   1.963   2.415 -0.5546  2.1765 -0.2654
 6187SOL     OW30193   4.674   0.703  10.488  0.5519 -0.5348 -0.3278
 6187SOL    HW130194   4.714   0.649  10.556 -2.1679 -2.1519 -0.0009
 6187SOL    HW230195   4.739   0.769  10.464  1.3050 -0.8347  0.9324
 6188SOL     OW30196   1.227   2.553   8.393  0.0007 -0.5523  0.0377
 6188SOL    HW130197   1.263   2.470   8.423 -0.5231 -1.7461 -2.6339
 6188SOL    HW230198   1.170   2.577   8.466 -1.6270  1.1178 -1.7495
 6189SOL     OW30199   2.451   3.670   8.496 -0.1081 -0.6923  0.2231
 6189SOL    HW130200   2.467   3.576   8.493  0.5173 -0.6785  3.1760
 6189SOL    HW230201   2.537   3.711   8.488  0.3567 -1.9309 -1.1452
 6190SOL     OW30202   2.864   2.614   6.643  0.5331  0.1694 -0.1309
 6190SOL    HW130203   2.912   2.566   6.710  2.2846 -0.8045 -2.0891
 6190SOL    HW230204   2.932   2.675   6.615  0.8112  0.4396  1.1571
 6191SOL     OW30205   0.656   1.834   7.180 -0.8763 -0.1919  0.2547
 6191SOL    HW130206   0.723   1.898   7.204 -0.4212 -0.6706  0.2801
 6191SOL    HW230207   0.653   1.783   7.261 -2.2663 -0.2305  0.1795
 6192SOL     OW30208   1.986   0.912  16.219 -0.0372 -0.0028 -0.1252
 6192SOL    HW130209   1.973   0.827  16.261 -2.1199  0.8168  0.9056
 6192SOL    HW230210   1.896   0.933  16.192 -0.5126 -0.5915  1.0020
 6193SOL     OW30211   4.367   1.481   0.450  0.2362 -0.4129 -0.1801
 6193SOL    HW130212   4.392   1.424   0.522  2.7974  2.4763  1.2403
 6193SOL    HW230213   4.442   1.538   0.436 -0.5874  0.4500 -1.1595
 6194SOL     OW30214   1.911   1.753   5.728 -0.5970 -0.2607 -0.0035
 6194SOL    HW130215   1.973   1.720   5.793 -0.8537  0.2412  0.5019
 6194SOL    HW230216   1.942   1.844   5.727  0.4949 -0.6565 -1.7520
 6195SOL     OW30217   1.474   4.549   2.615  0.3805 -0.0191 -0.0818
 6195SOL    HW130218   1.490   4.585   2.528  0.2383  0.5188  0.1191
 6195SOL    HW230219   1.395   4.499   2.595 -0.2632  1.3498 -0.9768
 6196SOL     OW30220   1.606   1.267   4.792 -0.1794  0.6097  0.0612
 6196SOL    HW130221   1.601   1.182   4.837  4.4410  0.1116 -0.4093
 6196SOL    HW230222   1.655   1.228   4.719  0.4404  2.9039 -0.7379
 6197SOL     OW30223   1.788   2.049   7.752  0.0840 -0.3414 -0.4153
 6197SOL    HW130224   1.722   2.008   7.808 -0.0731 -0.1249 -0.4432
 6197SOL    HW230225   1.864   2.012   7.796 -0.1551 -1.2545 -0.7654
 6198SOL     OW30226   0.392   0.568   6.505  0.3071 -0.5292  0.0948
 6198SOL    HW130227   0.324   0.547   6.442  1.5202 -0.3728 -1.2838
 6198SOL    HW230228   0.401   0.657   6.472  0.9415  0.0045  1.6818
 6199SOL     OW30229   2.211   2.909   4.669  0.2051  0.0365 -0.0460
 6199SOL    HW130230   2.133   2.913   4.615  1.6317  0.5920 -2.0774
 6199SOL    HW230231   2.174   2.889   4.755 -0.6787  0.4169 -0.3433
 6200SOL     OW30232   2.828   3.467   5.739  0.5001 -0.0914  0.5942
 6200SOL    HW130233   2.867   3.381   5.725 -0.4117  0.2705 -3.8938
 6200SOL    HW230234   2.889   3.495   5.808 -1.8565  1.9322  1.8713
 6201SOL     OW30235   4.491   2.089   2.463 -0.0999  0.3390  0.7615
 6201SOL    HW130236   4.490   2.179   2.431 -0.0089  0.1622  0.2588
 6201SOL    HW230237   4.449   2.090   2.549  0.0019 -0.7666  0.8203
 6202SOL     OW30238   3.761   4.649   9.773 -0.5896 -0.3247 -0.0028
 6202SOL    HW130239   3.670   4.653   9.804 -0.2188  1.8183  0.8667
 6202SOL    HW230240   3.774   0.000   9.752 -0.9127 -0.0411  1.0403
 6203SOL     OW30241   0.329   1.010  15.185 -0.8874  0.4050  0.5319
 6203SOL    HW130242   0.247   0.984  15.143 -1.2392 -0.6145  1.8575
 6203SOL    HW230243   0.309   1.103  15.195 -1.7935  0.2764 -0.1155
 6204SOL     OW30244   3.333   4.485   4.136 -0.0529 -0.5372  0.0196
 6204SOL    HW130245   3.282   4.438   4.202  1.8774 -0.8501  1.2820
 6204SOL    HW230246   3.276   4.490   4.059  2.2623 -0.5875 -1.6966
 6205SOL     OW30247   2.985   1.565  11.330 -0.7457 -0.2460  0.6060
 6205SOL    HW130248   2.919   1.497  11.347 -0.6217 -0.8368 -1.2252
 6205SOL    HW230249   3.068   1.518  11.325 -2.0242 -2.4919  0.2240
 6206SOL     OW30250   2.191   4.226   7.023 -0.1412 -0.0965  0.3967
 6206SOL    HW130251   2.238   4.309   7.036 -1.3672  0.5094  0.9229
 6206SOL    HW230252   2.247   4.194   6.953 -0.1222  0.3729  0.1926
 6207SOL     OW30253   3.735   4.658   1.132  0.6894 -0.2323  0.0644
 6207SOL    HW130254   3.800   4.672   1.062 -0.0115 -0.4807 -0.6273
 6207SOL    HW230255   3.778   4.712   1.199  2.2204 -1.1629 -0.1575
 6208SOL     OW30256   4.557   4.509  11.246 -0.0951 -0.2385 -0.7857
 6208SOL    HW130257   4.530   4.527  11.336  0.8765  1.4657 -0.8299
 6208SOL    HW230258   4.485   4.455  11.213 -1.2965  2.3806 -2.4471
 6209SOL     OW30259   3.330   0.353   4.552 -0.3799  0.0523 -0.4715
 6209SOL    HW130260   3.270   0.424   4.575 -0.4629  0.3200 -1.5276
 6209SOL    HW230261   3.287   0.283   4.601  0.5771 -0.1492  0.0826
 6210SOL     OW30262   0.375   2.631  13.151  0.4798 -0.4684 -0.5470
 6210SOL    HW130263   0.382   2.564  13.219 -0.5188 -0.5545 -0.5277
 6210SOL    HW230264   0.359   2.569  13.080  1.0893 -0.3336 -0.7961
 6211SOL     OW30265   2.138   4.676  15.317 -0.2175 -0.0269 -0.8507
 6211SOL    HW130266   2.179   0.016  15.288  0.8375  0.4350  1.8820
 6211SOL    HW230267   2.087   4.660  15.238  0.5602  0.8768 -1.5308
 6212SOL     OW30268   1.289   1.644  14.398  0.2978 -0.4825 -0.6321
 6212SOL    HW130269   1.358   1.604  14.451  0.1989  0.1035 -0.0546
 6212SOL    HW230270   1.219   1.640  14.463  1.1330 -1.8933  0.1905
 6213SOL     OW30271   0.049   0.582  13.825 -0.2113  0.6345 -0.4429
 6213SOL    HW130272   4.696   0.573  13.817 -0.0861 -0.3391 -0.8464
 6213SOL    HW230273   0.072   0.635  13.749  0.2595  1.2367  0.1138
 6214SOL     OW30274   1.253   0.050   4.771 -0.3362  0.0252 -0.0129
 6214SOL    HW130275   1.187   4.723   4.781  0.0107 -0.2436  0.3802
 6214SOL    HW230276   1.197   0.125   4.792 -2.8967 -1.9672  0.3028
 6215SOL     OW30277   4.564   1.999   4.273 -0.5320  0.0634 -0.0873
 6215SOL    HW130278   4.500   1.979   4.340 -0.5376 -0.2099 -0.1773
 6215SOL    HW230279   4.587   1.912   4.241 -2.5753 -0.8757  1.0271
 6216SOL     OW30280   3.761   4.392   9.635 -0.3947  0.1327  0.1093
 6216SOL    HW130281   3.770   4.476   9.680  1.4940 -0.4170  0.7347
 6216SOL    HW230282   3.730   4.419   9.548 -2.2589  1.3495  1.1587
 6217SOL     OW30283   1.894   4.148  12.273 -0.0808 -0.2061 -0.1576
 6217SOL    HW130284   1.842   4.122  12.349 -1.9093  2.7286 -0.3804
 6217SOL    HW230285   1.981   4.120  12.302  0.3910  0.1337 -1.2323
 6218SOL     OW30286   4.264   2.607  15.058  0.0790 -0.2249 -0.1696
 6218SOL    HW130287   4.260   2.702  15.052 -1.1330 -0.3732 -1.5911
 6218SOL    HW230288   4.295   2.597  15.148 -1.2555 -1.7872  0.1068
 6219SOL     OW30289   0.196   2.240   9.026  0.2474 -0.3702 -0.0379
 6219SOL    HW130290   0.279   2.232   9.074 -0.4573  2.6280  1.7016
 6219SOL    HW230291   0.142   2.290   9.087  0.1840 -1.7095  1.0098
 6220SOL     OW30292   0.673   1.655  11.951 -0.0544 -0.0330  0.1378
 6220SOL    HW130293   0.625   1.572  11.952  1.3586 -0.8830 -1.8747
 6220SOL    HW230294   0.738   1.642  12.020 -1.4499  1.2143  1.6853
 6221SOL     OW30295   4.603   0.414   6.704  0.0910 -0.3844  0.3272
 6221SOL    HW130296   4.531   0.352   6.698  0.0599 -0.4206  1.1290
 6221SOL    HW230297   4.652   0.387   6.626 -0.9556 -0.8135 -0.1873
 6222SOL     OW30298   2.907   1.681   7.475  0.6876 -0.6432  0.0023
 6222SOL    HW130299   2.978   1.731   7.515  0.2192  0.6177 -0.7554
 6222SOL    HW230300   2.901   1.610   7.539  0.2278 -0.0736  0.5872
 6223SOL     OW30301   3.601   1.813   4.581 -0.4617  0.2383  0.5056
 6223SOL    HW130302   3.659   1.788   4.653  0.2157  0.3418 -0.0105
 6223SOL    HW230303   3.637   1.889   4.536 -2.7867 -0.2689 -2.2366
 6224SOL     OW30304   3.693   0.949   6.043 -0.0778 -0.3158  0.1842
 6224SOL    HW130305   3.701   0.933   6.137  3.4153  0.9465  0.1269
 6224SOL    HW230306   3.746   1.029   6.040 -1.4245  0.6043  0.9480
 6225SOL     OW30307   2.117   2.481   4.184  0.0552  0.1021  0.6711
 6225SOL    HW130308   2.152   2.495   4.096  1.2051 -0.5645  1.0226
 6225SOL    HW230309   2.194   2.496   4.239  0.8229  0.8140 -0.6049
 6226SOL     OW30310   1.466   1.315  16.974  0.4149 -0.0045 -0.4244
 6226SOL    HW130311   1.426   1.229  16.960 -1.1621  0.9467 -1.8159
 6226SOL    HW230312   1.386   1.366  16.987  0.4697  0.8586 -3.3503
 6227SOL     OW30313   0.064   4.169   9.451  0.6295  0.3390 -0.1048
 6227SOL    HW130314   0.122   4.244   9.439 -0.1656  0.6497 -1.8812
 6227SOL    HW230315   0.129   4.105   9.482  0.3840 -0.2861 -0.8737
 6228SOL     OW30316   0.501   2.712   4.492  0.0629 -0.1335  0.2822
 6228SOL    HW130317   0.407   2.695   4.504 -0.1438 -0.7671 -2.1842
 6228SOL    HW230318   0.516   2.662   4.412 -1.9509  0.7785 -0.6620
 6229SOL     OW30319   0.155   1.251  14.554 -0.5118 -0.1627 -0.4089
 6229SOL    HW130320   0.208   1.330  14.540  0.2892 -0.2402  2.1307
 6229SOL    HW230321   0.069   1.288  14.538 -1.1593 -1.1321  0.8408
 6230SOL     OW30322   0.792   3.894   5.370  0.3447  0.1975 -0.4653
 6230SOL    HW130323   0.737   3.933   5.438  1.3924 -0.3119  0.6881
 6230SOL    HW230324   0.837   3.973   5.341 -1.0709  1.3731  0.5573
 6231SOL     OW30325   1.538   3.961  13.826 -0.0411  0.6003  0.0260
 6231SOL    HW130326   1.469   3.943  13.762 -0.2009 -0.0374  0.3770
 6231SOL    HW230327   1.528   3.899  13.899 -0.6671  0.2045 -0.3918
 6232SOL     OW30328   2.995   0.097   3.549 -0.0808 -0.1562  0.0548
 6232SOL    HW130329   3.020   0.055   3.467 -1.3572 -0.3032 -0.2638
 6232SOL    HW230330   3.070   0.153   3.566  0.6728 -1.0658 -0.2608
 6233SOL     OW30331   1.317   1.897  14.291  0.3284 -0.1223  0.1312
 6233SOL    HW130332   1.302   1.816  14.340  0.2447 -0.4945 -0.5034
 6233SOL    HW230333   1.251   1.949  14.336 -0.0058  0.6744 -1.2920
 6234SOL     OW30334   1.391   4.215  10.329  0.3688  0.3065  0.1320
 6234SOL    HW130335   1.479   4.250  10.316  0.9826 -2.0528 -1.9651
 6234SOL    HW230336   1.389   4.136  10.276 -1.1916  1.4630 -1.5660
 6235SOL     OW30337   4.669   2.749   5.024 -0.0002  0.2820  0.5863
 6235SOL    HW130338   4.598   2.810   5.044  0.7389  1.2617  0.2667
 6235SOL    HW230339   4.661   2.757   4.929 -2.4307 -0.4900  0.7292
 6236SOL     OW30340   3.080   0.792   3.011 -0.4587 -0.1266 -0.3422
 6236SOL    HW130341   3.029   0.837   3.079 -1.3605 -1.9044  0.1764
 6236SOL    HW230342   3.014   0.771   2.945  1.0036  0.6240 -2.0296
 6237SOL     OW30343   3.771   1.256  10.962  0.3774 -0.3010  0.8018
 6237SOL    HW130344   3.788   1.163  10.950  0.8412 -0.0746 -0.2869
 6237SOL    HW230345   3.693   1.259  11.018 -0.7756  0.8014 -0.8859
 6238SOL     OW30346   2.646   1.977   2.010  0.1583 -0.3783  0.4923
 6238SOL    HW130347   2.687   1.891   2.021  2.0767  0.8070  2.7764
 6238SOL    HW230348   2.718   2.030   2.046 -0.1261 -0.0413  0.5650
 6239SOL     OW30349   3.444   3.309   3.513 -0.2665  0.5563 -0.1725
 6239SOL    HW130350   3.485   3.267   3.438 -2.1670  1.6676 -1.8411
 6239SOL    HW230351   3.380   3.242   3.537  2.2549 -1.8043 -0.1947
 6240SOL     OW30352   2.428   0.406   1.011  0.5064  0.2929 -0.1490
 6240SOL    HW130353   2.461   0.379   1.097 -2.0723 -0.2869  0.6398
 6240SOL    HW230354   2.384   0.332   0.970  0.9299 -0.3543  0.5589
 6241SOL     OW30355   3.142   4.482   5.825 -0.3418 -0.2846  0.2704
 6241SOL    HW130356   3.208   4.448   5.765  1.0986  2.4022  0.3388
 6241SOL    HW230357   3.176   4.571   5.838  1.4197 -0.8926 -0.2223
 6242SOL     OW30358   2.207   0.698   9.260 -0.2042 -0.0543 -0.6153
 6242SOL    HW130359   2.118   0.686   9.293 -0.3746  0.1918 -0.9883
 6242SOL    HW230360   2.196   0.696   9.165 -0.0728  0.7507 -0.6446
 6243SOL     OW30361   0.430   2.804   9.356  0.0545 -0.2749 -0.2553
 6243SOL    HW130362   0.335   2.816   9.344  0.2511  0.5827 -0.9367
 6243SOL    HW230363   0.458   2.866   9.289  0.0144  0.5259  0.4644
 6244SOL     OW30364   1.305   1.160   4.879 -0.3502  0.3694 -0.2517
 6244SOL    HW130365   1.363   1.201   4.815  0.5831 -2.4434 -1.2156
 6244SOL    HW230366   1.223   1.168   4.829  1.2844  2.2229 -2.6043
 6245SOL     OW30367   3.462   3.824  16.011  0.4330  0.3220  0.4157
 6245SOL    HW130368   3.452   3.806  16.104  1.8505 -0.2314  0.4649
 6245SOL    HW230369   3.551   3.790  16.002  0.4928  0.0599  2.0571
 6246SOL     OW30370   1.902   3.076  15.801 -0.0093  0.7339 -0.1757
 6246SOL    HW130371   1.861   3.018  15.864  0.1944  1.8693  0.9869
 6246SOL    HW230372   1.867   3.053  15.715  1.6719  1.3434 -1.0317
 6247SOL     OW30373   1.252   4.081   6.031  0.5361  0.1040 -0.4756
 6247SOL    HW130374   1.258   4.168   5.991 -0.8983  1.6651  2.6616
 6247SOL    HW230375   1.170   4.064   5.986  0.9952 -0.0117 -1.2664
 6248SOL     OW30376   3.634   0.549   1.589 -0.1586  0.5269 -0.1915
 6248SOL    HW130377   3.562   0.502   1.631  0.3902 -0.0014  0.1515
 6248SOL    HW230378   3.580   0.582   1.516  0.3962 -1.4888 -1.5133
 6249SOL     OW30379   1.907   2.377   6.081  0.2387 -0.1957  0.4551
 6249SOL    HW130380   1.865   2.350   6.163  0.4796 -1.7523  0.0607
 6249SOL    HW230381   1.953   2.457   6.106 -2.8661  1.7544 -0.0374
 6250SOL     OW30382   4.299   4.587   6.821 -0.3566  0.6635  0.1527
 6250SOL    HW130383   4.304   4.617   6.730 -0.4025 -0.2031 -0.1404
 6250SOL    HW230384   4.379   4.621   6.860 -1.4225  1.1299  1.9206
 6251SOL     OW30385   4.446   0.814   3.183  0.2547 -0.1773 -0.2324
 6251SOL    HW130386   4.371   0.847   3.234 -1.1146 -1.0391 -1.6946
 6251SOL    HW230387   4.394   0.788   3.107  0.0015  1.4149 -0.6109
 6252SOL     OW30388   0.658   3.187   6.949 -0.5797 -0.2098  0.3623
 6252SOL    HW130389   0.698   3.111   6.991 -1.7441 -0.4120  1.0769
 6252SOL    HW230390   0.707   3.192   6.867 -0.6254 -1.4073  0.2674
 6253SOL     OW30391   0.563   0.948   7.222  0.0490  0.0999  0.3282
 6253SOL    HW130392   0.640   0.966   7.167  1.5040 -2.1156  1.6230
 6253SOL    HW230393   0.594   0.996   7.298 -0.6565  0.6358  0.2676
 6254SOL     OW30394   2.316   1.792  14.795 -0.1320  0.2121  0.0962
 6254SOL    HW130395   2.320   1.834  14.881 -0.2202 -2.7323  1.5240
 6254SOL    HW230396   2.346   1.858  14.732 -1.4764  0.1987 -0.5538
 6255SOL     OW30397   0.675   2.927   3.387 -0.0447  0.9005  0.2941
 6255SOL    HW130398   0.667   3.018   3.417 -0.0019  1.2844 -0.8939
 6255SOL    HW230399   0.686   2.881   3.470  1.7799 -0.4148 -0.6922
 6256SOL     OW30400   3.748   4.627   6.016  0.4847 -0.2932  0.3308
 6256SOL    HW130401   3.655   4.626   5.993  0.7379 -0.4216 -0.6651
 6256SOL    HW230402   3.772   4.706   5.967 -2.2156 -0.0848 -0.6913
 6257SOL     OW30403   4.152   1.512   0.818  0.3114  0.1726 -0.4877
 6257SOL    HW130404   4.176   1.562   0.740 -0.8905 -0.2609 -1.1198
 6257SOL    HW230405   4.130   1.426   0.783  2.5486 -1.1063  1.1966
 6258SOL     OW30406   2.395   3.061   0.507  0.1924  0.3081 -0.1044
 6258SOL    HW130407   2.382   3.112   0.427  2.3598  1.7405  0.4430
 6258SOL    HW230408   2.366   2.978   0.470 -1.3735  1.4866 -1.5384
 6259SOL     OW30409   1.017   0.011   8.884  0.7902 -0.0864 -0.0509
 6259SOL    HW130410   1.011   0.106   8.882 -1.6881 -0.2498 -0.4530
 6259SOL    HW230411   0.931   4.733   8.921  0.3662  0.8697 -0.5311
 6260SOL     OW30412   4.606   3.031   7.977  1.5740  0.2323 -0.0022
 6260SOL    HW130413   4.517   2.999   7.995 -0.2696  4.5593 -1.2578
 6260SOL    HW230414   4.665   2.960   8.002 -1.1474 -1.6280  1.1478
 6261SOL     OW30415   0.864   2.894   2.175 -0.1068  0.0705  0.5388
 6261SOL    HW130416   0.811   2.839   2.116  0.6784 -1.9265  1.6897
 6261SOL    HW230417   0.828   2.869   2.260  0.4230 -1.3618  0.3518
 6262SOL     OW30418   4.593   0.624   4.410  0.1193  0.3462 -0.0909
 6262SOL    HW130419   4.632   0.710   4.424 -0.7387  0.8757 -0.9109
 6262SOL    HW230420   4.549   0.630   4.325 -0.7095  1.6179  0.4314
 6263SOL     OW30421   1.507   4.093  10.987  0.1798 -0.1192 -0.0676
 6263SOL    HW130422   1.497   4.175  11.035 -0.0048 -1.1385  1.6385
 6263SOL    HW230423   1.579   4.120  10.930  1.3159  1.3947  2.1022
 6264SOL     OW30424   3.170   2.507   5.253 -0.1572  0.1843 -0.8950
 6264SOL    HW130425   3.212   2.592   5.270  0.4265 -0.5227  1.1957
 6264SOL    HW230426   3.084   2.525   5.292  0.2462 -0.1296  0.1377
 6265SOL     OW30427   4.301   4.126   5.148 -0.3407  0.1615 -0.5016
 6265SOL    HW130428   4.359   4.056   5.116 -0.7926 -0.5893  0.3065
 6265SOL    HW230429   4.290   4.181   5.070 -1.9837  0.8444  0.2294
 6266SOL     OW30430   2.855   0.769   4.576 -0.1623 -0.3207 -0.1302
 6266SOL    HW130431   2.915   0.694   4.567 -1.0162 -0.8696 -1.1599
 6266SOL    HW230432   2.890   0.829   4.510 -3.7588 -1.3120 -2.9099
 6267SOL     OW30433   4.175   3.139  16.944 -0.1562  0.6200 -0.1243
 6267SOL    HW130434   4.199   3.229  16.967  0.8886  0.2273  0.3461
 6267SOL    HW230435   4.174   3.150  16.849  1.6064  0.0976 -0.2125
 6268SOL     OW30436   4.186   1.258   6.139  0.0256 -0.4136  0.5631
 6268SOL    HW130437   4.148   1.172   6.122  0.7317 -0.6073 -0.0521
 6268SOL    HW230438   4.130   1.320   6.091 -0.8014 -0.9613  0.8351
 6269SOL     OW30439   1.547   2.667   7.101  0.3323  0.5427 -0.2748
 6269SOL    HW130440   1.541   2.718   7.182  1.2540 -0.2300  0.2832
 6269SOL    HW230441   1.455   2.654   7.079  0.4494 -1.5904  0.4872
 6270SOL     OW30442   2.571   1.988  10.971 -0.2111 -0.1632 -0.4854
 6270SOL    HW130443   2.598   1.913  10.918  0.7773  0.2100 -0.5167
 6270SOL    HW230444   2.654   2.029  10.996  0.9361 -1.7644 -1.6861
 6271SOL     OW30445   1.055   0.210   1.004  0.1372  0.1153 -0.4060
 6271SOL    HW130446   1.038   0.216   0.910 -2.5224  0.8117  0.1136
 6271SOL    HW230447   0.965   0.195   1.035  0.5837 -1.8719 -0.1059
 6272SOL     OW30448   4.381   3.652   2.203  0.0497 -0.0562 -0.0494
 6272SOL    HW130449   4.343   3.710   2.269 -0.7763  0.6575 -1.1548
 6272SOL    HW230450   4.430   3.710   2.145  0.1920 -0.2296 -0.1008
 6273SOL     OW30451   2.245   0.884  16.200  0.4869 -0.0918  0.4056
 6273SOL    HW130452   2.156   0.898  16.231 -0.6322 -2.5454 -1.6644
 6273SOL    HW230453   2.246   0.792  16.171 -0.6876  0.1538 -0.4036
 6274SOL     OW30454   0.488   2.856   7.138 -0.3552  0.0284  0.6292
 6274SOL    HW130455   0.488   2.846   7.042  1.4080 -0.7424  0.7056
 6274SOL    HW230456   0.582   2.874   7.146 -0.2540 -0.3596  0.3623
 6275SOL     OW30457   1.948   3.013   8.701  0.0432  0.1279 -0.4188
 6275SOL    HW130458   1.949   2.934   8.754  2.3631 -0.7968 -1.8344
 6275SOL    HW230459   1.874   3.057   8.741  1.0302 -0.5999  2.1889
 6276SOL     OW30460   2.784   0.962   7.720 -0.0892  0.4278 -0.3135
 6276SOL    HW130461   2.819   0.951   7.631 -1.3768  0.6788 -0.8456
 6276SOL    HW230462   2.707   1.018   7.714 -0.5428  0.0357  1.7829
 6277SOL     OW30463   0.465   0.570  11.416  0.0564 -0.7284 -0.7260
 6277SOL    HW130464   0.453   0.651  11.366 -1.9501 -0.4952  0.1702
 6277SOL    HW230465   0.476   0.607  11.503 -0.5787  0.8342 -1.3181
 6278SOL     OW30466   2.662   0.824   9.373 -0.2838 -0.4635 -0.1065
 6278SOL    HW130467   2.581   0.773   9.372 -0.5811 -0.0052  2.8948
 6278SOL    HW230468   2.634   0.873   9.296  0.1073 -0.1088 -0.0220
 6279SOL     OW30469   0.615   0.888   3.767 -0.4182 -0.3757  0.0230
 6279SOL    HW130470   0.673   0.813   3.783  2.0317  1.6695  0.5726
 6279SOL    HW230471   0.536   0.843   3.798 -0.1834 -0.6769  0.1871
 6280SOL     OW30472   0.817   1.750   4.835 -0.2451 -0.1649 -0.0353
 6280SOL    HW130473   0.893   1.737   4.892 -0.4962 -1.0136  0.1088
 6280SOL    HW230474   0.821   1.679   4.772 -2.1866  0.7780 -1.2235
 6281SOL     OW30475   3.827   0.034   6.260  0.4605 -0.3894 -0.6447
 6281SOL    HW130476   3.815   4.714   6.187 -1.3358  1.8550 -2.2818
 6281SOL    HW230477   3.732   0.047   6.266  1.0339  3.1931  0.8906
 6282SOL     OW30478   1.819   1.148   7.014 -0.2827  0.2707 -0.7217
 6282SOL    HW130479   1.853   1.061   7.032 -0.2573  1.1528  3.3420
 6282SOL    HW230480   1.897   1.203   7.007 -0.4127  0.6048  0.4858
 6283SOL     OW30481   3.332   0.553   2.460  0.2035  0.7347 -0.2964
 6283SOL    HW130482   3.360   0.629   2.409  0.2461 -0.2655 -1.7558
 6283SOL    HW230483   3.289   0.584   2.539  0.7818  0.9794 -0.0788
 6284SOL     OW30484   3.327   1.729   6.296  0.6056  0.0277  0.4345
 6284SOL    HW130485   3.268   1.688   6.233  0.5735  0.3087  0.2798
 6284SOL    HW230486   3.266   1.784   6.345 -0.6845  0.0977 -1.2377
 6285SOL     OW30487   4.366   4.224   2.110  0.1313 -0.2364  0.3064
 6285SOL    HW130488   4.280   4.219   2.068 -0.4843  0.1217  1.5460
 6285SOL    HW230489   4.368   4.146   2.165  3.7351 -0.3130  0.0463
 6286SOL     OW30490   3.148   4.497   3.518  0.5419 -0.3079 -0.2319
 6286SOL    HW130491   3.131   4.568   3.457 -2.1298  0.2897  1.2079
 6286SOL    HW230492   3.244   4.494   3.521  0.6205  2.0052  0.0673
 6287SOL     OW30493   2.917   4.532  11.392 -0.4204  0.1083  0.2095
 6287SOL    HW130494   2.921   4.574  11.478  0.8607 -1.8683  1.1149
 6287SOL    HW230495   2.914   4.608  11.334  0.5298 -0.5872 -0.7439
 6288SOL     OW30496   2.348   3.598  10.135 -0.2079  0.1483 -0.0596
 6288SOL    HW130497   2.360   3.552  10.218 -1.7965  0.9583  0.6379
 6288SOL    HW230498   2.300   3.530  10.088  0.8702  0.7489 -2.0153
 6289SOL     OW30499   3.171   4.572  12.029 -0.0487  0.0536 -0.0430
 6289SOL    HW130500   3.120   4.653  12.026 -0.5811 -0.1931  2.0740
 6289SOL    HW230501   3.142   4.537  11.945  1.3969 -0.8345 -0.1677
 6290SOL     OW30502   4.476   0.776   3.731 -0.1635 -0.2824  0.2222
 6290SOL    HW130503   4.436   0.857   3.698  0.4210  0.3297  1.0052
 6290SOL    HW230504   4.552   0.807   3.780 -0.4332  1.0875 -0.2191
 6291SOL     OW30505   2.883   1.971   2.965 -0.2357  0.3785 -0.3288
 6291SOL    HW130506   2.837   1.937   2.888  0.5146 -1.7108  0.1339
 6291SOL    HW230507   2.830   1.924   3.030 -1.3366  0.4535 -1.1638
 6292SOL     OW30508   0.711   1.012   6.007 -0.8320 -0.1483  0.3875
 6292SOL    HW130509   0.617   1.008   5.989 -0.8296  0.5864  0.2024
 6292SOL    HW230510   0.707   0.962   6.089 -1.0804 -1.2682 -0.3207
 6293SOL     OW30511   4.584   4.402   2.408  0.2443 -1.2092 -0.2208
 6293SOL    HW130512   4.491   4.391   2.390  0.0611  0.5481 -0.4162
 6293SOL    HW230513   4.585   4.450   2.490 -1.4950  1.1134 -1.5497
 6294SOL     OW30514   1.268   4.467  10.294 -0.1525  0.7581 -0.2747
 6294SOL    HW130515   1.247   4.483  10.386 -2.3603 -3.0143 -0.1106
 6294SOL    HW230516   1.305   4.380  10.307 -2.1924 -0.4369 -2.4574
 6295SOL     OW30517   1.580   4.619   0.579 -0.5033  0.6105 -0.1409
 6295SOL    HW130518   1.591   4.626   0.484 -0.9384 -1.5207 -0.3504
 6295SOL    HW230519   1.622   4.540   0.614 -0.8643  0.5233  0.0957
 6296SOL     OW30520   1.818   0.300  17.751 -0.1078 -0.7726 -0.1274
 6296SOL    HW130521   1.734   0.321  17.710 -0.0211 -0.1471  0.0179
 6296SOL    HW230522   1.876   0.282  17.677  1.1835  1.0863  0.4297
 6297SOL     OW30523   3.465   1.458   8.098 -0.4209  0.2452  0.1317
 6297SOL    HW130524   3.524   1.468   8.172 -1.5086  1.2634  0.8663
 6297SOL    HW230525   3.522   1.467   8.021 -0.5400  1.3168  0.1641
 6298SOL     OW30526   4.692   1.193   1.642  0.3220 -0.3229  0.8515
 6298SOL    HW130527   4.636   1.126   1.682  2.9375 -3.0203  0.0471
 6298SOL    HW230528   4.640   1.273   1.650 -0.1506 -0.6740  1.2896
 6299SOL     OW30529   3.034   2.626  14.105  0.8218  0.0734 -0.4921
 6299SOL    HW130530   3.039   2.715  14.072 -2.4031 -0.3941 -2.2184
 6299SOL    HW230531   3.062   2.634  14.197  2.7438  1.2133 -1.1950
 6300SOL     OW30532   4.443   0.616   6.740 -0.4506  0.1205 -0.5868
 6300SOL    HW130533   4.527   0.570   6.736 -0.3105  0.2909  0.3833
 6300SOL    HW230534   4.380   0.553   6.774 -0.0831 -0.0143 -0.1646
 6301SOL     OW30535   3.279   2.226  11.607 -0.4290  0.3048  0.2215
 6301SOL    HW130536   3.195   2.225  11.652 -0.3041 -0.1061  0.4438
 6301SOL    HW230537   3.333   2.175  11.668 -0.9743  1.0710  1.3596
 6302SOL     OW30538   3.775   1.374   5.880 -0.5436  0.2422  0.4219
 6302SOL    HW130539   3.715   1.391   5.807 -0.2819 -0.1742  0.1049
 6302SOL    HW230540   3.792   1.281   5.868  1.4318  0.8468 -1.5098
 6303SOL     OW30541   1.240   1.307   3.505  0.1768 -0.5728  0.8013
 6303SOL    HW130542   1.201   1.349   3.581 -1.2373  1.5144 -1.0884
 6303SOL    HW230543   1.229   1.213   3.515 -1.0071 -0.6661 -1.5415
 6304SOL     OW30544   3.658   0.651   0.060  0.1566  0.3542  0.4539
 6304SOL    HW130545   3.638   0.667  17.731 -2.5275 -2.1769  0.5988
 6304SOL    HW230546   3.748   0.685   0.068 -0.0313  0.7347  0.9497
 6305SOL     OW30547   3.230   0.048   0.031  0.4256 -0.3686 -0.0905
 6305SOL    HW130548   3.209   4.725   0.099 -2.9329  0.4134 -0.4138
 6305SOL    HW230549   3.178   0.122   0.062  0.9904 -0.5399  1.2591
 6306SOL     OW30550   2.262   0.641   4.770  1.1107  0.2408  0.3073
 6306SOL    HW130551   2.229   0.730   4.756 -0.9321 -0.3452  1.3279
 6306SOL    HW230552   2.319   0.656   4.846  0.5112  4.4401 -0.0644
 6307SOL     OW30553   3.289   1.753  16.912 -0.9124 -0.7389 -0.1694
 6307SOL    HW130554   3.337   1.828  16.878  0.5429 -1.7126 -0.2483
 6307SOL    HW230555   3.200   1.785  16.927 -0.7487  0.4308 -1.6854
 6308SOL     OW30556   4.146   1.048   8.679  0.2920  0.5781  0.0151
 6308SOL    HW130557   4.209   0.984   8.645  0.4615  1.2381 -0.9207
 6308SOL    HW230558   4.092   0.992   8.734 -0.3106 -0.8260 -1.9898
 6309SOL     OW30559   4.236   4.305   1.875  0.0666 -0.1812 -0.2189
 6309SOL    HW130560   4.188   4.222   1.876 -0.8119  0.2276 -6.3154
 6309SOL    HW230561   4.174   4.355   1.821 -0.4147  0.6073  1.0692
 6310SOL     OW30562   4.434   3.206   8.122  0.3628  0.6646  0.3468
 6310SOL    HW130563   4.476   3.187   8.038 -1.0832 -1.5487  0.1185
 6310SOL    HW230564   4.498   3.177   8.187  1.0793 -0.5485 -0.9017
 6311SOL     OW30565   1.054   0.626   7.174 -0.2969  0.0803  0.0069
 6311SOL    HW130566   1.068   0.668   7.089  0.2652  0.2571  0.1942
 6311SOL    HW230567   1.142   0.639   7.209 -0.3743  0.6703 -0.0247
 6312SOL     OW30568   4.139   2.627   8.809 -0.0929  0.4515  0.9477
 6312SOL    HW130569   4.117   2.535   8.793 -0.0255  0.5096  0.5385
 6312SOL    HW230570   4.115   2.659   8.722 -0.0720  0.8313  1.0818
 6313SOL     OW30571   4.158   1.275   8.835 -0.9234 -0.0865 -0.2681
 6313SOL    HW130572   4.174   1.192   8.791  0.7410  0.7409 -1.2209
 6313SOL    HW230573   4.243   1.318   8.834 -0.5170 -0.8971  0.3790
 6314SOL     OW30574   3.888   3.013   4.880 -0.5433 -0.4850  0.3918
 6314SOL    HW130575   3.883   2.934   4.826  0.0075 -2.2847  2.9622
 6314SOL    HW230576   3.981   3.000   4.901 -1.1867 -1.1983  2.8087
 6315SOL     OW30577   2.888   3.245  14.794 -0.3314 -0.0766  0.4681
 6315SOL    HW130578   2.881   3.239  14.698  0.2970 -1.2484  0.4943
 6315SOL    HW230579   2.954   3.309  14.820 -0.1038  0.3273 -1.0503
 6316SOL     OW30580   3.964   0.455  10.787 -0.1851 -0.0459 -0.2555
 6316SOL    HW130581   3.951   0.390  10.718 -1.4003 -0.9540  0.8466
 6316SOL    HW230582   3.977   0.398  10.862 -1.3692 -2.4438 -1.8577
 6317SOL     OW30583   0.362   3.996   2.858 -0.6799  0.0397  0.0426
 6317SOL    HW130584   0.356   4.058   2.785  2.0556 -2.0371 -1.9197
 6317SOL    HW230585   0.339   4.043   2.938 -0.7935 -1.0176  0.6310
 6318SOL     OW30586   4.609   1.305  15.770 -0.0713 -0.3761  0.6468
 6318SOL    HW130587   4.648   1.366  15.832 -0.3994 -1.0588  1.5269
 6318SOL    HW230588   4.519   1.336  15.754  0.1032  0.6831  1.7819
 6319SOL     OW30589   0.344   0.725   2.377  0.6186  0.5545 -0.0969
 6319SOL    HW130590   0.372   0.780   2.450  0.2579  2.5925 -1.4730
 6319SOL    HW230591   0.422   0.708   2.324  1.3931 -2.3844  1.9946
 6320SOL     OW30592   3.140   3.985   6.863  0.0969 -0.0162 -0.4276
 6320SOL    HW130593   3.163   4.059   6.807  0.6183  0.1299 -0.0159
 6320SOL    HW230594   3.217   3.929   6.852 -0.5645 -1.0052 -0.0798
 6321SOL     OW30595   0.893   4.023   7.253 -0.3989 -0.3312  0.6956
 6321SOL    HW130596   0.801   4.021   7.278 -0.9582 -1.4155 -1.4382
 6321SOL    HW230597   0.889   4.083   7.179 -1.9605  0.6029  1.5586
 6322SOL     OW30598   2.935   0.596  15.969 -0.0324 -0.5390  0.1493
 6322SOL    HW130599   2.999   0.646  16.021 -0.3384  0.2512 -0.2401
 6322SOL    HW230600   2.965   0.506  15.982 -1.8402 -1.0766  0.5709
 6323SOL     OW30601   0.418   2.152   2.218  0.5577  0.3414  0.5643
 6323SOL    HW130602   0.342   2.150   2.276  0.3892  2.3204  0.4049
 6323SOL    HW230603   0.421   2.244   2.189 -0.1366 -0.1428 -1.0327
 6324SOL     OW30604   0.392   0.951   0.486 -0.6239 -0.1352 -0.2593
 6324SOL    HW130605   0.329   0.909   0.545 -0.8862 -0.2797 -0.6411
 6324SOL    HW230606   0.475   0.910   0.508 -1.2802 -0.1376  2.2624
 6325SOL     OW30607   0.120   1.476   1.407  0.6257 -0.5233 -0.2339
 6325SOL    HW130608   0.027   1.459   1.423  0.8352 -1.3115  0.1245
 6325SOL    HW230609   0.119   1.570   1.390 -1.9711 -0.4763  0.1610
 6326SOL     OW30610   0.939   2.853  13.794  0.5341  0.0387 -0.1559
 6326SOL    HW130611   0.978   2.806  13.867  1.6232  0.8769 -0.2115
 6326SOL    HW230612   0.990   2.933  13.786  0.0920  0.0565 -2.9727
 6327SOL     OW30613   2.396   2.914  11.114  0.2413  0.2442  0.8301
 6327SOL    HW130614   2.354   2.921  11.199 -1.4634  3.0856 -0.2407
 6327SOL    HW230615   2.396   3.006  11.087 -2.4856 -0.2118 -0.6792
 6328SOL     OW30616   2.369   2.801   7.849 -0.2833 -0.0270 -0.2109
 6328SOL    HW130617   2.361   2.741   7.923  0.8106  0.6007  0.4176
 6328SOL    HW230618   2.285   2.847   7.842 -0.7312 -0.4289  2.3242
 6329SOL     OW30619   2.190   1.034  13.675  0.0227 -0.2895 -0.0167
 6329SOL    HW130620   2.209   1.052  13.583 -1.1461 -0.5400 -0.3130
 6329SOL    HW230621   2.094   1.024  13.677 -0.3343  3.1701  1.3418
 6330SOL     OW30622   0.875   1.735  15.744 -0.0949  0.2003 -0.5714
 6330SOL    HW130623   0.945   1.800  15.747 -1.3337  1.4895  0.3061
 6330SOL    HW230624   0.818   1.778  15.680 -1.7494  1.4768  1.7549
 6331SOL     OW30625   0.388   3.106   8.206 -0.1795  0.7884  0.2369
 6331SOL    HW130626   0.345   3.024   8.231  1.4320 -0.6348 -1.7083
 6331SOL    HW230627   0.472   3.091   8.249 -0.6262 -0.1617  0.7956
 6332SOL     OW30628   4.454   1.435   6.737 -0.2346 -0.3159 -0.3934
 6332SOL    HW130629   4.391   1.506   6.725 -0.4826 -0.2809  1.0790
 6332SOL    HW230630   4.473   1.460   6.828  1.6633  2.2758 -1.4932
 6333SOL     OW30631   1.579   0.113  13.508  0.1034 -0.1663 -0.0760
 6333SOL    HW130632   1.483   0.109  13.503  0.0931 -1.2969  1.0770
 6333SOL    HW230633   1.592   0.163  13.428 -0.7417  0.1211 -0.0328
 6334SOL     OW30634   4.433   1.576   1.201 -0.0715  0.7299 -0.5560
 6334SOL    HW130635   4.490   1.634   1.151  0.5362  0.9541  0.3889
 6334SOL    HW230636   4.401   1.625   1.276 -0.9315  1.3897 -1.3597
 6335SOL     OW30637   1.193   1.084   5.919  0.3823  0.7590  0.4975
 6335SOL    HW130638   1.120   1.144   5.906 -0.6966 -0.0126  2.9973
 6335SOL    HW230639   1.229   1.130   5.995  3.0509  0.5848 -0.6613
 6336SOL     OW30640   2.976   0.324   6.539  0.2698  0.0887 -0.0322
 6336SOL    HW130641   2.907   0.329   6.606  1.0483  2.6946  0.5805
 6336SOL    HW230642   2.988   0.417   6.520 -1.0841  0.3298  0.2608
 6337SOL     OW30643   1.035   4.046  12.223 -0.1897 -0.0692  0.7141
 6337SOL    HW130644   1.089   4.116  12.184 -1.0867  0.3677  0.2552
 6337SOL    HW230645   0.960   4.067  12.167  0.6113  2.5359  0.5836
 6338SOL     OW30646   2.272   3.803   8.683 -0.3490 -0.2847  0.1758
 6338SOL    HW130647   2.297   3.882   8.731 -3.4555 -0.1913  1.6494
 6338SOL    HW230648   2.342   3.786   8.620  0.9615  0.7803  1.3521
 6339SOL     OW30649   2.366   3.813   3.273 -0.4274 -0.2891  0.0217
 6339SOL    HW130650   2.281   3.769   3.265  0.2186 -1.6808  0.8981
 6339SOL    HW230651   2.433   3.745   3.262  1.3635  1.5936 -0.6623
 6340SOL     OW30652   3.649   3.539  13.870 -0.1643 -0.5500 -0.0553
 6340SOL    HW130653   3.733   3.506  13.836  0.6538  0.8958  0.5870
 6340SOL    HW230654   3.620   3.471  13.930 -0.9552 -1.7387 -1.7719
 6341SOL     OW30655   2.132   1.544   6.134 -0.1430 -0.1201 -0.0912
 6341SOL    HW130656   2.057   1.537   6.075  0.3525 -0.4276 -0.6821
 6341SOL    HW230657   2.169   1.623   6.093 -1.0597 -0.2901 -1.2381
 6342SOL     OW30658   1.488   3.566   8.616 -0.2605  0.2372  0.3353
 6342SOL    HW130659   1.392   3.570   8.610  0.0664  4.9361 -1.7730
 6342SOL    HW230660   1.494   3.656   8.648 -0.9998  0.3537  0.1387
 6343SOL     OW30661   3.423   0.368   4.856  0.0977  0.1356 -0.3533
 6343SOL    HW130662   3.434   0.273   4.851  0.7315  0.2379 -0.8665
 6343SOL    HW230663   3.511   0.406   4.865  0.6818 -1.0084 -1.3576
 6344SOL     OW30664   0.417   2.980   3.070  0.1207  0.4218  0.1830
 6344SOL    HW130665   0.424   2.907   3.132 -1.2140  0.8957  0.9076
 6344SOL    HW230666   0.337   2.957   3.023  0.1238  0.8015 -0.0062
 6345SOL     OW30667   0.565   3.504   7.080 -0.2425  0.0383  0.0702
 6345SOL    HW130668   0.635   3.444   7.107  1.9251  2.0276 -1.1524
 6345SOL    HW230669   0.606   3.585   7.110  1.0805  0.8105 -3.8440
 6346SOL     OW30670   2.281   2.441  11.438 -0.2544 -0.4266 -0.0206
 6346SOL    HW130671   2.362   2.492  11.441  0.2967 -1.2264 -1.2351
 6346SOL    HW230672   2.216   2.501  11.401 -0.6825 -0.4188  0.7230
 6347SOL     OW30673   1.131   0.005   8.168 -0.2945 -0.4392 -0.4161
 6347SOL    HW130674   1.047   4.716   8.135 -0.6467  1.2112 -1.0628
 6347SOL    HW230675   1.190   4.683   8.129  1.0426 -0.2779  1.3640
 6348SOL     OW30676   2.396   1.312   6.919 -0.3989  0.2259 -0.1730
 6348SOL    HW130677   2.375   1.328   7.011 -1.1350 -0.1176 -0.2823
 6348SOL    HW230678   2.350   1.385   6.877  0.2334 -0.1220 -1.4692
 6349SOL     OW30679   4.047   4.085   6.486 -0.1092 -0.4584 -0.3507
 6349SOL    HW130680   4.010   4.156   6.538 -0.2154  0.3823 -1.5670
 6349SOL    HW230681   3.991   4.013   6.515 -0.5212  1.2215  3.0737
 6350SOL     OW30682   3.113   2.358   1.631  0.1412 -0.1385 -0.3479
 6350SOL    HW130683   3.116   2.330   1.539  1.4629  1.1151 -0.6874
 6350SOL    HW230684   3.206   2.369   1.650  0.1031  0.4721 -0.5141
 6351SOL     OW30685   3.480   4.574   7.803  0.3142 -0.2480 -0.3082
 6351SOL    HW130686   3.387   4.580   7.825  0.3652 -0.6407  0.0149
 6351SOL    HW230687   3.506   4.485   7.829 -0.8866 -0.9004 -1.3565
 6352SOL     OW30688   2.731   0.625   7.501  0.3196  0.3232 -0.3681
 6352SOL    HW130689   2.824   0.605   7.517  0.0070 -0.0787  0.9439
 6352SOL    HW230690   2.717   0.572   7.423 -0.2535  1.0856 -0.7796
 6353SOL     OW30691   2.625   1.551   8.915  0.0984  0.0267  0.3851
 6353SOL    HW130692   2.678   1.578   8.841  0.4228  0.8151  0.8998
 6353SOL    HW230693   2.552   1.611   8.899  0.0316  0.1118  0.9922
 6354SOL     OW30694   1.978   3.793   7.204 -0.4941  0.1723 -0.4079
 6354SOL    HW130695   1.941   3.744   7.130 -0.7860 -0.1164 -0.0749
 6354SOL    HW230696   1.924   3.765   7.278 -2.0208  0.5464 -1.3794
 6355SOL     OW30697   4.233   0.473   2.101  0.1483 -0.6415  0.2167
 6355SOL    HW130698   4.229   0.539   2.032 -1.6809  0.5257  1.4300
 6355SOL    HW230699   4.187   0.394   2.070 -1.0385 -0.2241  0.9069
 6356SOL     OW30700   1.302   3.152   8.088  0.2831 -0.8550  0.1283
 6356SOL    HW130701   1.271   3.069   8.050  0.3540 -1.4652  1.4052
 6356SOL    HW230702   1.365   3.169   8.018  1.4199 -0.7834  1.1873
 6357SOL     OW30703   3.510   0.828   7.147  0.2351  0.5830 -0.2803
 6357SOL    HW130704   3.520   0.873   7.064  0.4408  1.7894  0.3913
 6357SOL    HW230705   3.433   0.867   7.189 -0.5882  2.2735 -3.3921
 6358SOL     OW30706   3.906   0.427  12.421  0.4188 -0.0702 -0.3124
 6358SOL    HW130707   3.939   0.339  12.402 -0.5300 -0.6322  0.7136
 6358SOL    HW230708   3.932   0.434  12.513  0.7547 -0.6567 -0.3640
 6359SOL     OW30709   3.994   2.440   3.031  0.6589  0.6247 -0.0476
 6359SOL    HW130710   4.034   2.359   2.999 -1.8470  0.1396 -1.9333
 6359SOL    HW230711   4.039   2.501   2.973  0.9278 -0.0088 -0.5020
 6360SOL     OW30712   0.955   0.458   7.921  0.6737 -0.1795 -0.2797
 6360SOL    HW130713   1.046   0.476   7.947 -0.2044  0.5514  2.2987
 6360SOL    HW230714   0.966   0.368   7.892  3.5674  0.5398 -1.4408
 6361SOL     OW30715   1.456   3.029   4.317  0.1934  0.5404  0.3058
 6361SOL    HW130716   1.467   3.077   4.235  0.2128 -1.9117 -1.1576
 6361SOL    HW230717   1.416   3.088   4.380 -0.2351 -0.0180  0.5647
 6362SOL     OW30718   4.466   3.589   8.352  0.8343  0.1417  0.1155
 6362SOL    HW130719   4.526   3.544   8.412 -0.5416 -0.0681  1.3375
 6362SOL    HW230720   4.447   3.519   8.290  1.7807  0.3070 -0.3589
 6363SOL     OW30721   3.274   1.779   1.404 -0.4450  0.0260  0.0968
 6363SOL    HW130722   3.317   1.797   1.321 -0.0655 -3.0707 -0.3836
 6363SOL    HW230723   3.254   1.685   1.397  0.0546 -0.0094 -0.9359
 6364SOL     OW30724   0.525   2.965  10.291 -0.4156  0.1263  0.0025
 6364SOL    HW130725   0.581   2.924  10.358  2.0721  3.3339 -0.1201
 6364SOL    HW230726   0.594   3.013  10.245 -1.6454  2.7229  0.8610
 6365SOL     OW30727   3.089   0.270   8.551  0.3021  0.3606 -0.2891
 6365SOL    HW130728   3.178   0.243   8.572  0.0918  0.3242  0.5663
 6365SOL    HW230729   3.104   0.335   8.483  0.6286 -0.7085 -1.2326
 6366SOL     OW30730   4.616   0.985  10.439  0.0176 -0.3082  0.4520
 6366SOL    HW130731   4.587   0.999  10.530  0.7863 -0.2511  0.6835
 6366SOL    HW230732   4.708   0.961  10.443  0.0543  0.0832  2.2685
 6367SOL     OW30733   4.533   1.498   4.930 -0.2274 -0.2995  0.0462
 6367SOL    HW130734   4.461   1.529   4.985 -0.7291 -1.6494  0.1526
 6367SOL    HW230735   4.601   1.533   4.987 -1.0370 -1.9369  2.0370
 6368SOL     OW30736   1.342   3.861   0.505  0.5582  0.0262 -0.0902
 6368SOL    HW130737   1.393   3.784   0.483 -0.6880 -1.2022  1.2672
 6368SOL    HW230738   1.394   3.931   0.466 -0.8040  0.1787 -1.6624
 6369SOL     OW30739   0.538   1.106   9.049 -0.3986  0.2366  0.5262
 6369SOL    HW130740   0.613   1.061   9.088  2.0842  1.7258 -2.4840
 6369SOL    HW230741   0.467   1.087   9.110 -1.2614 -1.5383 -1.0209
 6370SOL     OW30742   4.051   1.648   7.552 -0.0957 -0.3054  0.0445
 6370SOL    HW130743   4.054   1.688   7.465 -0.3659  0.1796  0.2563
 6370SOL    HW230744   4.133   1.599   7.555  0.3837  0.5709  1.2137
 6371SOL     OW30745   0.533   3.497   7.673 -0.1585  0.0190  0.2754
 6371SOL    HW130746   0.544   3.439   7.598 -1.1797  1.0036 -0.6354
 6371SOL    HW230747   0.452   3.463   7.711  0.4553 -1.6386  0.1005
 6372SOL     OW30748   4.047   0.165  10.742  0.2122  0.6798 -0.4131
 6372SOL    HW130749   4.014   0.141  10.828  0.7092  0.2463 -0.3428
 6372SOL    HW230750   3.968   0.188  10.693 -0.4444 -0.5913  0.0407
 6373SOL     OW30751   3.088   0.571   6.387  0.7246  0.9034  0.0070
 6373SOL    HW130752   3.152   0.594   6.320  2.2332  0.0249  1.1334
 6373SOL    HW230753   3.117   0.620   6.464  0.7367  2.7269 -1.1581
 6374SOL     OW30754   3.953   2.996  11.470  0.1004  0.3499  0.2307
 6374SOL    HW130755   3.995   3.011  11.386  0.9621 -0.7783  0.4665
 6374SOL    HW230756   3.874   2.947  11.447 -0.4920  1.6970 -0.6538
 6375SOL     OW30757   3.564   4.736   7.412 -0.4484  0.7280  0.1002
 6375SOL    HW130758   3.584   4.736   7.506 -0.8537 -0.9400  0.1836
 6375SOL    HW230759   3.626   0.064   7.390  0.1969 -1.7156 -5.7642
 6376SOL     OW30760   3.245   1.489  11.280  0.6569 -0.1483 -0.4332
 6376SOL    HW130761   3.250   1.450  11.192 -0.7309  0.7628 -0.9261
 6376SOL    HW230762   3.261   1.579  11.251 -1.3912 -0.0911 -1.3895
 6377SOL     OW30763   4.168   1.743  11.996 -0.1140 -0.2340 -0.0195
 6377SOL    HW130764   4.111   1.674  12.030  0.2194 -1.0995 -1.2226
 6377SOL    HW230765   4.137   1.748  11.905  1.5591 -0.9448 -0.6247
 6378SOL     OW30766   4.371   1.659   9.270  0.1178 -0.2699 -0.3265
 6378SOL    HW130767   4.325   1.640   9.352 -0.5420 -1.5851 -0.9932
 6378SOL    HW230768   4.439   1.592   9.269  0.4619  0.0815 -0.0941
 6379SOL     OW30769   1.998   1.956   1.550  0.0044  0.0280  0.4926
 6379SOL    HW130770   1.943   1.878   1.554  0.4709 -0.2419  1.5518
 6379SOL    HW230771   2.072   1.927   1.497 -1.1426 -2.2849  0.1919
 6380SOL     OW30772   3.006   0.899   5.684  0.0806  0.1786 -0.1841
 6380SOL    HW130773   2.927   0.934   5.724  0.7481 -1.7315  2.8455
 6380SOL    HW230774   3.072   0.917   5.752 -1.4632 -1.2809  1.7136
 6381SOL     OW30775   4.362   2.455   4.938 -0.2215 -0.1732 -0.6136
 6381SOL    HW130776   4.376   2.423   5.027 -2.3890 -2.5380 -1.1323
 6381SOL    HW230777   4.323   2.377   4.900  1.3780 -0.2861 -2.0397
 6382SOL     OW30778   4.334   2.438   2.875 -0.7535 -0.6781  0.1972
 6382SOL    HW130779   4.344   2.345   2.856 -1.6151 -0.3800 -1.7331
 6382SOL    HW230780   4.417   2.465   2.914  0.8068 -1.9248 -2.2315
 6383SOL     OW30781   4.610   4.534  15.471  0.0481  0.0208  0.3425
 6383SOL    HW130782   4.530   4.531  15.418  1.1109 -0.3048 -1.2700
 6383SOL    HW230783   4.576   4.516  15.558  1.3233 -1.5336  0.5190
 6384SOL     OW30784   4.033   4.534   8.818 -0.3503  0.7853  0.1706
 6384SOL    HW130785   4.059   4.590   8.891 -0.4918 -0.5067  1.2101
 6384SOL    HW230786   4.114   4.557   8.773 -0.6141 -1.3317 -1.3961
 6385SOL     OW30787   4.489   0.316   5.139  0.3812 -0.2806  0.2308
 6385SOL    HW130788   4.546   0.307   5.063  0.8474 -0.3723  0.5950
 6385SOL    HW230789   4.462   0.226   5.157  0.9786 -0.5924 -0.4140
 6386SOL     OW30790   2.620   0.200  14.272 -0.1366 -0.3541 -0.3067
 6386SOL    HW130791   2.660   0.210  14.186  1.1835  1.5847  0.5041
 6386SOL    HW230792   2.691   0.227  14.331 -0.8836  2.4295 -0.6683
 6387SOL     OW30793   0.790   3.240   3.025  0.7594 -0.1377 -0.2462
 6387SOL    HW130794   0.815   3.163   2.973  0.5901 -0.5022  0.2077
 6387SOL    HW230795   0.843   3.308   2.984  0.1853  1.2366  1.2989
 6388SOL     OW30796   4.471   2.421   1.887 -0.2701 -0.1322 -0.0607
 6388SOL    HW130797   4.463   2.450   1.978  1.0297  1.5295 -0.4856
 6388SOL    HW230798   4.472   2.325   1.894 -2.0680 -0.1754 -0.4203
 6389SOL     OW30799   1.614   0.435   1.942 -0.0733  0.3674  0.4382
 6389SOL    HW130800   1.634   0.491   1.867 -1.4991 -0.7534 -0.8089
 6389SOL    HW230801   1.519   0.428   1.932  0.2627 -1.0728 -1.9292
 6390SOL     OW30802   4.422   1.452   5.714  0.4350 -0.1811  0.0800
 6390SOL    HW130803   4.507   1.474   5.752  2.0116  0.4719 -3.7450
 6390SOL    HW230804   4.414   1.359   5.733 -1.8334  0.2771  1.4484
 6391SOL     OW30805   4.555   0.387   4.083  0.4159  0.3962  0.0303
 6391SOL    HW130806   4.585   0.456   4.025  3.6082 -1.3421 -0.3679
 6391SOL    HW230807   4.573   0.311   4.028 -0.2272  0.6151 -0.4856
 6392SOL     OW30808   0.777   0.949  10.492  0.1498 -0.4744 -0.0064
 6392SOL    HW130809   0.772   1.015  10.561  0.5366 -2.1043  1.6135
 6392SOL    HW230810   0.800   0.870  10.542  0.1636  0.1199  0.9285
 6393SOL     OW30811   0.371   2.641  16.965  0.5557  0.0088 -0.4269
 6393SOL    HW130812   0.440   2.624  17.029  0.2302 -1.3907 -0.4518
 6393SOL    HW230813   0.382   2.733  16.941 -1.8360  0.6982  1.0149
 6394SOL     OW30814   3.110   2.767   7.963  0.2682 -1.0315  0.3916
 6394SOL    HW130815   3.045   2.836   7.961  2.7820  1.3263  0.3555
 6394SOL    HW230816   3.189   2.804   7.923 -0.3852 -0.2096 -0.1417
 6395SOL     OW30817   0.023   4.073   3.872 -0.8184 -0.8689  0.0846
 6395SOL    HW130818   0.110   4.057   3.907 -0.5936 -0.4901 -0.2880
 6395SOL    HW230819   0.014   4.168   3.879  2.4328 -0.5291 -0.1861
 6396SOL     OW30820   2.927   2.876  17.009 -0.0049 -0.1409 -0.3285
 6396SOL    HW130821   2.966   2.791  17.030  0.1720  0.6896  2.7611
 6396SOL    HW230822   3.009   2.926  17.018 -0.5909  0.5352  1.2983
 6397SOL     OW30823   2.867   1.015   7.970  0.3603  0.0742 -0.4585
 6397SOL    HW130824   2.960   0.994   7.978  0.4686  0.3941 -0.9120
 6397SOL    HW230825   2.839   0.959   7.897  5.5282 -1.4807 -1.2496
 6398SOL     OW30826   3.128   4.474  10.442  0.1806 -0.0993  0.1563
 6398SOL    HW130827   3.104   4.400  10.498  0.5711 -0.0076  0.4406
 6398SOL    HW230828   3.113   4.448  10.351 -1.6845  3.3188 -0.4805
 6399SOL     OW30829   3.985   1.628   1.628 -0.4018 -0.3883  0.5638
 6399SOL    HW130830   4.034   1.555   1.666 -1.0343  0.0429  2.2094
 6399SOL    HW230831   3.957   1.584   1.548 -0.2250 -0.0065  0.2891
 6400SOL     OW30832   0.078   2.901   5.302 -0.1475 -0.0732  0.7402
 6400SOL    HW130833   0.140   2.847   5.252  0.1156 -0.9315  1.9966
 6400SOL    HW230834   0.016   2.832   5.326 -2.2481  1.5655 -0.0027
 6401SOL     OW30835   1.628   4.253   8.980  0.2757 -1.2868  0.4759
 6401SOL    HW130836   1.610   4.244   9.073 -0.8298 -1.3721  0.2600
 6401SOL    HW230837   1.691   4.325   8.982 -1.7466  0.6113 -2.6126
 6402SOL     OW30838   4.095   3.011   1.879  0.3315  0.0097 -0.4358
 6402SOL    HW130839   4.045   2.960   1.815 -0.0548  0.6674 -0.6526
 6402SOL    HW230840   4.178   2.967   1.861  0.2792  0.4153 -1.6961
 6403SOL     OW30841   0.615   1.791   6.204 -0.2777 -0.0981 -0.0645
 6403SOL    HW130842   0.601   1.818   6.295 -0.1795 -1.6931  0.4257
 6403SOL    HW230843   0.690   1.733   6.219 -0.9703 -1.3698 -1.5544
 6404SOL     OW30844   2.036   2.405   4.822 -0.4155 -0.0413 -0.1280
 6404SOL    HW130845   2.090   2.484   4.823  0.9953 -1.0227  0.1582
 6404SOL    HW230846   2.104   2.342   4.843  0.4352  0.1392 -2.3669
 6405SOL     OW30847   2.813   4.019   7.571 -0.1958  0.0642  0.4056
 6405SOL    HW130848   2.873   4.039   7.643 -0.1419  0.5905  0.2180
 6405SOL    HW230849   2.751   4.092   7.568  0.2416  0.3382 -2.7259
 6406SOL     OW30850   1.790   4.276   8.327 -0.0556 -0.2203 -0.8601
 6406SOL    HW130851   1.755   4.360   8.355  0.5505 -0.3391  0.2645
 6406SOL    HW230852   1.870   4.277   8.380  0.1801  0.2113 -1.2238
 6407SOL     OW30853   2.805   3.199   3.615 -0.0834  0.0696 -0.2815
 6407SOL    HW130854   2.740   3.241   3.559  1.3160  2.3788 -0.2060
 6407SOL    HW230855   2.765   3.135   3.672 -4.1419  0.1731 -3.0388
 6408SOL     OW30856   3.350   4.307   1.989  0.4805 -0.1802  0.5709
 6408SOL    HW130857   3.316   4.255   1.916  2.0425  0.4480 -0.6037
 6408SOL    HW230858   3.283   4.291   2.055  0.2390  0.2985  0.4422
 6409SOL     OW30859   2.981   1.924   0.194 -0.6348  0.0573  0.1733
 6409SOL    HW130860   2.899   1.928   0.243 -1.4606 -0.2413 -1.1647
 6409SOL    HW230861   2.996   2.018   0.198 -3.9016  0.6612 -1.1635
 6410SOL     OW30862   1.841   1.752   9.863 -0.3582  0.1215 -0.1556
 6410SOL    HW130863   1.934   1.736   9.881  0.0217  2.0950 -0.3335
 6410SOL    HW230864   1.837   1.758   9.768  0.4015  1.4888 -0.1030
 6411SOL     OW30865   4.034   1.183   7.161 -0.0692  0.7779 -0.5402
 6411SOL    HW130866   3.944   1.150   7.170 -0.1536  1.7869  2.2221
 6411SOL    HW230867   4.015   1.247   7.092  0.3599  0.7544 -0.6809
 6412SOL     OW30868   1.016   4.100   5.360 -0.3923 -0.6293  0.2453
 6412SOL    HW130869   1.071   4.022   5.365  0.6330  0.0507 -0.6826
 6412SOL    HW230870   1.049   4.141   5.281  1.5758 -0.3560  1.2069
 6413SOL     OW30871   1.701   3.972   7.400  0.5241  0.1292  0.9690
 6413SOL    HW130872   1.712   3.974   7.495 -0.5253 -0.1341  1.0918
 6413SOL    HW230873   1.739   3.885   7.384 -0.1679  0.0019  0.0064
 6414SOL     OW30874   0.279   4.317   9.381 -0.0156  0.1457  0.3570
 6414SOL    HW130875   0.298   4.405   9.411 -0.2768 -0.0285  1.0244
 6414SOL    HW230876   0.369   4.284   9.375  0.1011  0.2840  1.3759
 6415SOL     OW30877   0.544   3.557   6.182 -0.4137 -0.0258  0.0121
 6415SOL    HW130878   0.479   3.627   6.179  0.2025  0.5258 -0.4301
 6415SOL    HW230879   0.496   3.482   6.145  0.0571  0.4384 -1.5345
 6416SOL     OW30880   2.603   4.562   7.023  0.1513 -0.3965  0.7392
 6416SOL    HW130881   2.593   4.507   6.945 -0.3194  0.0472  0.4889
 6416SOL    HW230882   2.698   4.563   7.022  0.1264  1.2488  0.6106
 6417SOL     OW30883   1.614   0.362  13.808 -0.4074 -0.1474 -0.6795
 6417SOL    HW130884   1.656   0.358  13.722 -2.7047  1.5867 -1.8908
 6417SOL    HW230885   1.564   0.439  13.780 -1.7202 -0.0357  1.9802
 6418SOL     OW30886   1.856   0.208  14.425 -0.0985  0.6888 -0.3815
 6418SOL    HW130887   1.947   0.239  14.429 -1.1594  3.6540  0.7902
 6418SOL    HW230888   1.819   0.255  14.349 -0.0343 -1.1718 -1.5531
 6419SOL     OW30889   0.751   1.775   3.463 -0.1690 -0.4622  0.2127
 6419SOL    HW130890   0.769   1.695   3.413  2.9132  1.6808 -2.0496
 6419SOL    HW230891   0.679   1.742   3.518 -1.5173 -0.5437 -1.5790
 6420SOL     OW30892   1.643   1.245   6.848 -0.4763 -0.2926 -0.1579
 6420SOL    HW130893   1.713   1.199   6.894  0.5300 -1.4409 -2.8207
 6420SOL    HW230894   1.706   1.307   6.812 -0.4721 -0.1924  0.0256
 6421SOL     OW30895   1.789   2.869   2.635 -0.0038  0.0643  0.6192
 6421SOL    HW130896   1.789   2.807   2.708 -1.8406 -1.0491 -0.3115
 6421SOL    HW230897   1.879   2.871   2.602 -0.4963 -0.5400 -0.7739
 6422SOL     OW30898   3.113   4.043   2.404 -0.9874  0.4554 -0.1675
 6422SOL    HW130899   3.199   4.037   2.447 -1.4338  2.2316  0.9664
 6422SOL    HW230900   3.059   4.083   2.472  2.0852  0.0270  2.5633
 6423SOL     OW30901   4.678   3.833   1.474  0.0361 -0.3112 -0.4122
 6423SOL    HW130902   4.737   3.865   1.542 -0.6434 -0.8015  0.4106
 6423SOL    HW230903   4.651   3.767   1.538  2.3695 -1.3618 -0.5164
 6424SOL     OW30904   3.738   4.079  10.657  0.3220 -0.4353  0.0425
 6424SOL    HW130905   3.654   4.043  10.628  0.0794 -0.7867  1.2083
 6424SOL    HW230906   3.721   4.105  10.747 -2.9602 -1.5194 -0.2754
 6425SOL     OW30907   3.819   1.234   7.814  0.8708 -0.0704  0.5991
 6425SOL    HW130908   3.787   1.144   7.804  2.4744 -0.1660 -3.5183
 6425SOL    HW230909   3.878   1.225   7.888  1.1949 -0.6045  0.2770
 6426SOL     OW30910   1.651   0.381  15.064  0.5786 -0.5174 -0.0656
 6426SOL    HW130911   1.729   0.421  15.026  0.1046 -0.0188 -0.5019
 6426SOL    HW230912   1.669   0.386  15.158 -1.5388  1.6051  0.2303
 6427SOL     OW30913   3.635   0.778   8.231 -0.0185 -0.1632 -0.3910
 6427SOL    HW130914   3.646   0.764   8.325  2.9850  1.3786 -0.5132
 6427SOL    HW230915   3.709   0.831   8.202  0.9460 -2.2943 -1.8316
 6428SOL     OW30916   2.500   4.683   8.114 -0.0858  0.5032  0.0025
 6428SOL    HW130917   2.516   4.590   8.096 -0.2973  0.3070  0.8364
 6428SOL    HW230918   2.515   4.698   8.208 -1.1029 -1.2132  0.4323
 6429SOL     OW30919   0.035   0.730   9.972  0.1674 -0.8058  0.6735
 6429SOL    HW130920   4.706   0.743  10.035 -1.2525 -1.5074 -0.7766
 6429SOL    HW230921   0.088   0.810   9.973  2.6873 -2.4528  0.2505
 6430SOL     OW30922   4.337   0.147   3.050 -0.7322 -0.8676  0.2429
 6430SOL    HW130923   4.282   0.206   2.999  0.6131 -0.3679 -0.6443
 6430SOL    HW230924   4.384   0.119   2.971 -0.3526 -1.5013  0.6948
 6431SOL     OW30925   0.938   3.493   5.930 -0.2198 -0.1497  0.2293
 6431SOL    HW130926   0.860   3.490   5.875  1.2299  1.9723 -1.9215
 6431SOL    HW230927   0.902   3.436   5.998 -2.2152 -1.0046 -1.5382
 6432SOL     OW30928   2.975   3.390   3.915 -0.0558  0.6323 -0.1448
 6432SOL    HW130929   2.957   3.483   3.928  0.1442  0.7727 -0.9002
 6432SOL    HW230930   3.003   3.392   3.824 -1.2120 -1.7242 -0.5369
 6433SOL     OW30931   0.797   1.003   7.687  0.0662  0.1113 -0.3561
 6433SOL    HW130932   0.872   0.943   7.693  0.6521  0.8284 -0.4842
 6433SOL    HW230933   0.781   1.019   7.780 -1.3787 -2.4480 -0.1658
 6434SOL     OW30934   4.600   0.756  15.022 -0.0025  0.1217 -0.2810
 6434SOL    HW130935   4.546   0.827  14.989 -0.1525 -1.1284 -2.7441
 6434SOL    HW230936   4.581   0.754  15.115 -2.1893 -0.7733 -0.7594
 6435SOL     OW30937   4.080   3.009  11.019  0.4881 -0.7222 -0.3956
 6435SOL    HW130938   4.014   2.940  11.034  0.9246 -0.1892  4.0354
 6435SOL    HW230939   4.099   3.046  11.105 -0.6525  2.6403 -1.5974
 6436SOL     OW30940   2.683   2.708   7.200 -0.0423  0.3222 -0.6599
 6436SOL    HW130941   2.674   2.622   7.242 -2.0048  0.8396 -0.0568
 6436SOL    HW230942   2.751   2.687   7.136 -0.1458 -2.3190  0.0996
 6437SOL     OW30943   1.278   2.128   6.305 -0.0719 -0.2688 -0.6890
 6437SOL    HW130944   1.286   2.104   6.212  0.1441 -2.3735 -0.1121
 6437SOL    HW230945   1.197   2.081   6.323  0.9196 -1.4986  0.4498
 6438SOL     OW30946   1.055   3.003   4.411 -1.0405  0.0508 -0.5784
 6438SOL    HW130947   0.967   3.042   4.410 -1.0739  0.0608  2.5385
 6438SOL    HW230948   1.104   3.082   4.434 -1.7835  0.2744  0.2553
 6439SOL     OW30949   1.577   1.518   9.246 -0.3427 -0.3923  0.1329
 6439SOL    HW130950   1.584   1.436   9.196 -0.1214  0.6668 -1.5639
 6439SOL    HW230951   1.525   1.580   9.196  1.6270  0.3373 -1.0097
 6440SOL     OW30952   3.352   4.616  13.981  0.3972  0.1326 -0.6957
 6440SOL    HW130953   3.364   4.563  13.903  0.2090 -1.6248  0.4674
 6440SOL    HW230954   3.376   4.551  14.048 -0.2686  0.8882  0.2823
 6441SOL     OW30955   3.344   0.790  15.511 -0.6054  1.0421 -0.6179
 6441SOL    HW130956   3.335   0.711  15.564 -2.3842  0.9664 -1.0364
 6441SOL    HW230957   3.415   0.838  15.553  0.2324 -1.0229  0.3068
 6442SOL     OW30958   3.490   2.858   1.664 -0.1878 -1.4576  0.2365
 6442SOL    HW130959   3.543   2.905   1.729 -1.0143 -0.4572  0.1921
 6442SOL    HW230960   3.405   2.862   1.708  1.0864  1.7141  2.3596
 6443SOL     OW30961   2.036   1.839  17.414 -0.1792 -0.3944  0.4461
 6443SOL    HW130962   2.022   1.767  17.476  0.8405 -0.0961  1.0187
 6443SOL    HW230963   1.956   1.837  17.361  0.1988 -0.3633 -0.1201
 6444SOL     OW30964   0.044   4.717   8.486 -0.0521  0.0287  0.2310
 6444SOL    HW130965   0.044   4.718   8.582 -0.7577  2.5171  0.2167
 6444SOL    HW230966   0.138   4.703   8.472 -0.4073 -1.6582 -0.4618
 6445SOL     OW30967   2.847   3.990   5.327 -0.0102 -0.6532 -0.0556
 6445SOL    HW130968   2.822   3.948   5.410  1.7964 -2.2410 -0.3227
 6445SOL    HW230969   2.757   4.018   5.306 -0.1521 -0.0993  1.2648
 6446SOL     OW30970   1.434   2.683   1.411  0.9468 -0.3729 -0.1585
 6446SOL    HW130971   1.496   2.686   1.338 -0.4282 -0.7646 -1.3431
 6446SOL    HW230972   1.462   2.752   1.471  0.2943  0.0377 -0.3295
 6447SOL     OW30973   1.873   3.737   3.869  0.0295  0.0656  0.8779
 6447SOL    HW130974   1.894   3.677   3.941 -1.8502  0.5909  1.8732
 6447SOL    HW230975   1.866   3.827   3.902 -0.4597  1.1952 -2.3855
 6448SOL     OW30976   2.166   0.494   8.087  0.1782  0.0357 -0.5330
 6448SOL    HW130977   2.216   0.460   8.013 -0.9688 -2.5240 -0.1251
 6448SOL    HW230978   2.095   0.430   8.094  1.1739 -1.1033 -0.9754
 6449SOL     OW30979   4.043   2.462  11.645  0.3617 -0.3484  0.2042
 6449SOL    HW130980   4.065   2.534  11.703  1.8193 -1.4689  1.0175
 6449SOL    HW230981   4.132   2.429  11.629  0.0813 -1.1873  0.3862
 6450SOL     OW30982   3.994   0.373   4.349  0.6836 -0.2000  0.9097
 6450SOL    HW130983   3.904   0.403   4.365  0.6724  0.6024 -0.7283
 6450SOL    HW230984   4.041   0.440   4.397  0.0618 -0.3591  1.7514
 6451SOL     OW30985   2.465   3.586   2.134 -0.1429 -0.0863  0.1752
 6451SOL    HW130986   2.494   3.673   2.162  1.7314 -0.1868 -1.4654
 6451SOL    HW230987   2.428   3.543   2.211  1.4287 -2.1236 -0.2171
 6452SOL     OW30988   2.038   2.868   3.018  0.2556  0.2329 -0.0660
 6452SOL    HW130989   2.098   2.830   2.954  0.0788  1.7560 -1.1498
 6452SOL    HW230990   2.022   2.953   2.976 -1.1863 -0.2775 -0.5479
 6453SOL     OW30991   4.682   3.890   5.274 -0.2439  0.3688  0.0649
 6453SOL    HW130992   4.618   3.884   5.202 -3.5878 -0.2203  3.0692
 6453SOL    HW230993   4.699   3.799   5.300  1.5749  0.8858  0.7028
 6454SOL     OW30994   2.154   3.905   1.994  0.1253 -0.1731  0.0307
 6454SOL    HW130995   2.179   3.852   1.918  0.3170  1.2735 -0.9228
 6454SOL    HW230996   2.212   3.980   1.981  0.3888 -0.2445  0.8336
 6455SOL     OW30997   2.595   1.981  15.288 -0.1873 -0.2486 -0.5543
 6455SOL    HW130998   2.544   1.901  15.304 -0.1845 -0.2175 -0.3883
 6455SOL    HW230999   2.526   2.030  15.242  0.3789 -0.5552 -1.7240
 6456SOL     OW31000   0.882   0.699   9.254 -0.0967  0.1931  0.0015
 6456SOL    HW131001   0.834   0.617   9.262  0.2948 -0.0351  0.0294
 6456SOL    HW231002   0.940   0.697   9.331 -2.3039  1.4512  1.7055
 6457SOL     OW31003   1.493   0.897   4.483 -0.4312  0.1690  0.6462
 6457SOL    HW131004   1.463   0.810   4.506 -0.3349  0.3357  1.3864
 6457SOL    HW231005   1.418   0.954   4.497 -0.3535  0.7405 -1.2434
 6458SOL     OW31006   0.094   4.510   7.847  0.0336 -0.4010  0.1076
 6458SOL    HW131007   0.008   4.486   7.813  0.6368 -1.3937 -0.7049
 6458SOL    HW231008   0.125   4.573   7.783 -1.5317  0.3475  0.0668
 6459SOL     OW31009   2.453   1.742  16.711  0.2877  0.4414  0.6662
 6459SOL    HW131010   2.539   1.777  16.734  0.5303 -0.2569  0.8022
 6459SOL    HW231011   2.474   1.706  16.625 -0.9332 -1.1288  1.0290
 6460SOL     OW31012   0.328   0.672  16.681  0.4587  0.2853 -0.4928
 6460SOL    HW131013   0.290   0.666  16.769 -1.7870 -1.2887 -1.5892
 6460SOL    HW231014   0.368   0.759  16.686  1.2775 -0.2426  2.1731
 6461SOL     OW31015   4.399   1.123   4.997  0.5277  0.0240  0.6169
 6461SOL    HW131016   4.318   1.088   4.960  0.2271  1.4389 -0.0529
 6461SOL    HW231017   4.353   1.186   5.052 -4.1109 -1.3869 -1.6242
 6462SOL     OW31018   1.414   3.560   5.346  0.1473  0.1244  1.0649
 6462SOL    HW131019   1.352   3.610   5.400 -0.2885  1.4677 -0.6530
 6462SOL    HW231020   1.374   3.586   5.262  2.9514  0.4114 -0.1679
 6463SOL     OW31021   0.756   4.016   9.177 -0.1161  0.0157 -0.4694
 6463SOL    HW131022   0.785   3.981   9.093 -0.6738 -0.8577 -0.3039
 6463SOL    HW231023   0.765   3.937   9.231  0.5719  0.3977 -0.0291
 6464SOL     OW31024   4.270   0.894  13.244  0.2302 -0.1035 -0.2815
 6464SOL    HW131025   4.197   0.834  13.239  0.1219  0.0010  0.0388
 6464SOL    HW231026   4.265   0.947  13.164  1.3332  0.7378  0.2052
 6465SOL     OW31027   3.015   1.392   7.208  0.1620  0.4597 -0.0236
 6465SOL    HW131028   3.060   1.474   7.226  0.9730  0.2280 -1.0338
 6465SOL    HW231029   2.920   1.405   7.208 -0.1432 -1.6708  2.1440
 6466SOL     OW31030   1.909   2.869   7.533  0.0618  0.6125  0.2515
 6466SOL    HW131031   1.862   2.786   7.542 -1.4751  1.5611  0.9091
 6466SOL    HW231032   1.889   2.886   7.441 -1.5065 -0.5032  0.4000
 6467SOL     OW31033   1.131   3.582   4.895  0.5467  0.0862  0.3750
 6467SOL    HW131034   1.061   3.645   4.908  1.4302  1.0379  0.4863
 6467SOL    HW231035   1.089   3.496   4.885 -0.5146  0.6429  0.1422
 6468SOL     OW31036   1.493   0.908   0.403  0.0079  0.0904 -0.3232
 6468SOL    HW131037   1.571   0.963   0.407 -3.0190  4.1475  2.4024
 6468SOL    HW231038   1.422   0.972   0.406  0.3394  0.3910  0.7723
 6469SOL     OW31039   4.288   4.579   6.505 -0.3158 -0.1479  0.1295
 6469SOL    HW131040   4.282   4.485   6.524 -0.3714 -0.0176  0.7388
 6469SOL    HW231041   4.267   4.579   6.411  0.4761  2.1959 -0.0306
 6470SOL     OW31042   1.295   3.225   8.813 -0.2159 -0.2680 -0.7432
 6470SOL    HW131043   1.356   3.248   8.743  1.7773 -2.2558  0.3487
 6470SOL    HW231044   1.234   3.171   8.762 -0.3610 -1.0700  0.2859
 6471SOL     OW31045   2.967   2.589  13.378 -0.3406  0.2093  0.3168
 6471SOL    HW131046   3.044   2.557  13.424 -0.0883 -0.6588 -0.6996
 6471SOL    HW231047   2.956   2.532  13.302  0.5049  1.3088 -0.6486
 6472SOL     OW31048   0.334   4.571  14.226  0.0896 -0.4900 -0.1571
 6472SOL    HW131049   0.372   4.653  14.193 -1.9357  0.5012 -0.0030
 6472SOL    HW231050   0.372   4.503  14.170  3.1781  1.0977 -0.0180
 6473SOL     OW31051   2.166   0.214   3.729 -0.8341 -0.5310 -0.3898
 6473SOL    HW131052   2.078   0.250   3.738 -0.5137 -0.4362  2.3831
 6473SOL    HW231053   2.202   0.255   3.650 -0.0166  0.4672  0.5049
 6474SOL     OW31054   1.879   2.784  12.871 -0.0074  0.1700 -0.2642
 6474SOL    HW131055   1.871   2.749  12.959  0.4467 -0.1325 -0.3469
 6474SOL    HW231056   1.936   2.719  12.830 -1.3568 -1.1245 -0.0744
 6475SOL     OW31057   4.519   2.092   4.727 -0.0219 -0.8041  0.1351
 6475SOL    HW131058   4.516   2.117   4.635  2.9658  1.1833  0.5554
 6475SOL    HW231059   4.551   2.002   4.717 -1.0167 -1.3108  1.5634
 6476SOL     OW31060   0.368   4.319   9.751  1.0639  0.1892  0.4182
 6476SOL    HW131061   0.366   4.371   9.670  0.5913 -2.3800 -1.1946
 6476SOL    HW231062   0.432   4.256   9.718  0.7348  0.5747 -0.9408
 6477SOL     OW31063   0.483   0.660   3.641  0.4043  0.0984  0.6028
 6477SOL    HW131064   0.397   0.675   3.602  0.7150 -0.8828 -0.4574
 6477SOL    HW231065   0.469   0.575   3.682 -0.1855  2.0020  4.3738
 6478SOL     OW31066   3.006   1.186   6.641 -0.4862 -0.4558 -0.1767
 6478SOL    HW131067   2.922   1.190   6.687  0.4403  0.7328  1.4158
 6478SOL    HW231068   3.045   1.270   6.663  1.1446 -0.9568 -1.1755
 6479SOL     OW31069   4.485   4.383   5.934 -0.0322 -0.1125 -0.3412
 6479SOL    HW131070   4.568   4.382   5.981  0.4664 -1.8733 -1.2465
 6479SOL    HW231071   4.480   4.294   5.899 -0.9541 -0.5017  0.7855
 6480SOL     OW31072   2.542   3.590   7.722 -0.1909 -0.6408 -0.3759
 6480SOL    HW131073   2.507   3.588   7.633  0.2723  0.6235 -0.5842
 6480SOL    HW231074   2.566   3.683   7.725 -2.1133 -0.2036  1.2160
 6481SOL     OW31075   0.275   1.649   1.024 -0.8965  0.0772 -0.1461
 6481SOL    HW131076   0.304   1.690   1.105 -1.4831 -2.0470  1.1194
 6481SOL    HW231077   0.285   1.555   1.041  0.4285  0.4213  0.9592
 6482SOL     OW31078   4.468   4.734   7.669 -0.2840 -0.1206 -0.2850
 6482SOL    HW131079   4.444   0.077   7.632  0.7045 -0.1143 -0.8920
 6482SOL    HW231080   4.383   4.702   7.700  0.0693 -2.1085 -1.3938
 6483SOL     OW31081   4.109   3.792   7.118  0.5510 -0.3331  0.1078
 6483SOL    HW131082   4.120   3.873   7.168 -0.3745 -1.0447  1.4588
 6483SOL    HW231083   4.064   3.740   7.184 -0.8727 -0.2417 -0.7926
 6484SOL     OW31084   4.221   0.087   9.442  0.1283 -0.4920  0.3542
 6484SOL    HW131085   4.133   0.052   9.432  0.2678 -0.0627 -2.1562
 6484SOL    HW231086   4.269   0.037   9.509 -0.1862  1.1851  1.8370
 6485SOL     OW31087   0.251   1.107  16.818  0.9613  0.3589 -0.3375
 6485SOL    HW131088   0.233   1.100  16.724 -2.2941  0.2882  0.2887
 6485SOL    HW231089   0.318   1.041  16.834  2.1438  2.1425  2.0343
 6486SOL     OW31090   0.809   1.254   6.071 -0.0282  0.1339  0.2123
 6486SOL    HW131091   0.725   1.285   6.106 -0.8351 -1.1345 -0.5754
 6486SOL    HW231092   0.789   1.162   6.054  0.2680  0.4145 -1.6450
 6487SOL     OW31093   1.291   4.109  10.584  0.6444 -0.7600  0.0993
 6487SOL    HW131094   1.330   4.022  10.594  1.4882 -0.3048  0.6969
 6487SOL    HW231095   1.314   4.128  10.492  2.1587 -0.7868  0.4721
 6488SOL     OW31096   3.337   2.385   5.739 -0.6325 -0.0227 -0.1925
 6488SOL    HW131097   3.339   2.454   5.673  2.4573 -0.7541 -0.8803
 6488SOL    HW231098   3.356   2.432   5.821 -0.3839  0.0521 -0.2937
 6489SOL     OW31099   2.635   4.139   1.177 -0.4199 -0.0993  0.0938
 6489SOL    HW131100   2.691   4.190   1.119 -0.4385 -1.0237 -0.7461
 6489SOL    HW231101   2.626   4.063   1.119  0.4607 -0.3472  0.2726
 6490SOL     OW31102   3.409   2.510   2.957  0.0905 -0.0326  0.2302
 6490SOL    HW131103   3.464   2.478   3.029  1.6077  1.7114 -0.1640
 6490SOL    HW231104   3.457   2.475   2.882 -1.3763  0.0785 -0.7530
 6491SOL     OW31105   3.936   1.776   7.932 -0.3349 -0.4809 -0.4873
 6491SOL    HW131106   3.906   1.768   7.841  1.2836 -0.8265 -1.0066
 6491SOL    HW231107   3.894   1.694   7.959 -1.4720 -0.2347 -1.5485
 6492SOL     OW31108   0.205   0.300   3.402  1.3141 -0.3273  0.1568
 6492SOL    HW131109   0.203   0.391   3.372 -2.9422 -1.0920 -1.9281
 6492SOL    HW231110   0.291   0.265   3.378  1.3990  0.0131 -0.0397
 6493SOL     OW31111   2.555   4.495   5.907 -0.2432 -0.1763 -0.5637
 6493SOL    HW131112   2.647   4.468   5.904 -0.5564 -1.3033 -0.3051
 6493SOL    HW231113   2.530   4.471   5.817 -0.7304  2.6939 -1.1771
 6494SOL     OW31114   0.393   3.054   2.155  0.1961  0.2143 -0.0593
 6494SOL    HW131115   0.448   3.103   2.216 -0.7179  2.2358 -0.8475
 6494SOL    HW231116   0.444   3.059   2.074 -1.5855 -0.8099 -1.2542
 6495SOL     OW31117   0.691   1.597  17.202 -0.6029 -0.4869  0.3980
 6495SOL    HW131118   0.744   1.674  17.183 -0.0350 -0.7189  1.0153
 6495SOL    HW231119   0.716   1.538  17.131  3.8789  1.5872  0.2826
 6496SOL     OW31120   3.270   2.121  16.913  0.1564  0.6772 -0.2364
 6496SOL    HW131121   3.215   2.186  16.869  0.7027  0.1299 -1.7385
 6496SOL    HW231122   3.309   2.072  16.841  3.4892  1.7030  0.8342
 6497SOL     OW31123   2.185   0.386   5.703 -0.1238 -0.1425 -0.0511
 6497SOL    HW131124   2.249   0.349   5.764 -1.0209  1.0641  1.6364
 6497SOL    HW231125   2.221   0.470   5.676  0.9835 -0.9894 -1.1801
 6498SOL     OW31126   1.078   2.770   5.663 -0.8852  0.3409 -0.5769
 6498SOL    HW131127   0.993   2.777   5.619 -0.8924  1.2645 -0.4186
 6498SOL    HW231128   1.112   2.685   5.637 -0.2087  0.0796  1.2092
 6499SOL     OW31129   3.539   2.674   9.800 -0.1680  0.2962 -0.3759
 6499SOL    HW131130   3.570   2.706   9.885 -2.5744  0.3041  0.4927
 6499SOL    HW231131   3.610   2.712   9.748  0.3193  1.7120  1.3270
 6500SOL     OW31132   1.635   0.228   2.916 -0.4087 -0.0523  0.4457
 6500SOL    HW131133   1.591   0.182   2.844  1.6279  1.0992 -1.5093
 6500SOL    HW231134   1.721   0.187   2.913 -0.5207 -0.0959 -1.7139
 6501SOL     OW31135   1.603   4.492  16.725 -0.1493  1.0011 -0.4317
 6501SOL    HW131136   1.626   4.575  16.766  3.7525  0.5784 -1.7693
 6501SOL    HW231137   1.624   4.508  16.633 -2.6116 -1.0870 -1.3657
 6502SOL     OW31138   1.260   2.786   3.711  0.4905 -0.5459  0.3743
 6502SOL    HW131139   1.305   2.703   3.725 -2.4486 -2.3067 -0.6043
 6502SOL    HW231140   1.201   2.779   3.786  0.1682  2.1701  0.3562
 6503SOL     OW31141   1.744   3.091   4.450  0.4943  0.2416  0.2641
 6503SOL    HW131142   1.710   3.083   4.539 -1.5979 -2.4202 -0.7688
 6503SOL    HW231143   1.666   3.124   4.405 -0.4984 -0.7763  1.2691
 6504SOL     OW31144   2.329   3.911   6.474  0.2530  0.3232  0.0986
 6504SOL    HW131145   2.333   3.926   6.568  0.3336  0.6134  0.0468
 6504SOL    HW231146   2.407   3.858   6.460  0.9409  1.9606 -2.2866
 6505SOL     OW31147   3.898   2.977   6.471  0.5096  0.0487 -0.0308
 6505SOL    HW131148   3.965   3.016   6.416  2.4270  1.1202  3.0650
 6505SOL    HW231149   3.946   2.959   6.551  2.1191  0.0117 -1.0185
 6506SOL     OW31150   1.443   2.940  12.160 -0.1384 -0.2962  0.1346
 6506SOL    HW131151   1.487   2.857  12.178  0.3278  0.1125  0.8727
 6506SOL    HW231152   1.452   2.943  12.064  1.7251 -0.1844  0.3308
 6507SOL     OW31153   2.745   0.666  13.891  0.6695 -0.2479  0.3082
 6507SOL    HW131154   2.802   0.603  13.846 -2.2706 -1.4299 -1.7493
 6507SOL    HW231155   2.807   0.718  13.942 -0.5879  0.3706  1.2051
 6508SOL     OW31156   0.156   1.107   0.085  0.0224  0.1549  0.3117
 6508SOL    HW131157   0.079   1.086   0.033 -0.8179 -1.7566  2.3283
 6508SOL    HW231158   0.145   1.202   0.080 -0.8160 -0.0302 -1.4343
 6509SOL     OW31159   4.734   1.837  13.793  0.0799 -0.2161  0.5080
 6509SOL    HW131160   4.648   1.808  13.762 -0.4010  1.7664 -0.0531
 6509SOL    HW231161   4.740   1.910  13.731 -1.2109 -0.9263 -0.4680
 6510SOL     OW31162   0.976   2.759   2.736  0.0759  0.9453  0.4519
 6510SOL    HW131163   0.990   2.719   2.822 -1.3426 -0.5432 -0.0165
 6510SOL    HW231164   0.909   2.702   2.698  0.2574  0.5279  0.7600
 6511SOL     OW31165   2.090   1.568   5.108 -0.4017  0.1434 -0.1356
 6511SOL    HW131166   2.151   1.515   5.159 -0.1004 -0.6657 -1.3387
 6511SOL    HW231167   2.116   1.652   5.147 -2.2368  1.1529 -1.1277
 6512SOL     OW31168   1.858   3.006   4.136  0.4977  0.2578  0.0307
 6512SOL    HW131169   1.821   3.090   4.163 -1.0015  0.4229 -2.5146
 6512SOL    HW231170   1.944   3.019   4.176  0.0661 -1.3464  1.4648
 6513SOL     OW31171   1.527   1.236   4.431 -0.1428 -0.0616 -0.0773
 6513SOL    HW131172   1.497   1.186   4.355 -0.4350  0.1128 -0.0786
 6513SOL    HW231173   1.543   1.167   4.495  0.9751 -0.6198 -0.9571
 6514SOL     OW31174   1.777   3.482  13.479 -0.4942 -0.4924 -0.1297
 6514SOL    HW131175   1.834   3.408  13.460 -0.4038 -0.6491  0.7359
 6514SOL    HW231176   1.804   3.509  13.567  1.1088 -0.6718 -0.5596
 6515SOL     OW31177   0.144   0.528   7.839 -0.6218  0.2774  0.2153
 6515SOL    HW131178   0.174   0.612   7.804  1.0514 -1.2143 -1.8617
 6515SOL    HW231179   0.208   0.508   7.908 -0.4265  0.4516  0.0846
 6516SOL     OW31180   4.532   4.718   8.927 -0.1275  0.3656  0.1140
 6516SOL    HW131181   4.571   4.718   8.839 -0.5414  0.6168 -0.0692
 6516SOL    HW231182   4.441   4.705   8.900 -0.0130 -0.4572  0.1385
 6517SOL     OW31183   0.753   0.275   3.741 -0.3308  0.4819 -0.2604
 6517SOL    HW131184   0.835   0.323   3.736 -0.8986  1.4261 -0.6596
 6517SOL    HW231185   0.770   0.204   3.679 -1.0249 -0.2703  0.4186
 6518SOL     OW31186   3.649   0.986  14.446  0.6865  0.1678  0.6430
 6518SOL    HW131187   3.585   1.048  14.412 -1.7248 -2.3623  0.5788
 6518SOL    HW231188   3.653   1.031  14.531  0.1466  0.0031  0.7508
 6519SOL     OW31189   1.651   1.032   8.552  0.1247  0.5813 -0.0171
 6519SOL    HW131190   1.591   1.067   8.618 -1.2688  0.0833 -1.0174
 6519SOL    HW231191   1.673   0.948   8.591  1.4048  1.3627  0.9348
 6520SOL     OW31192   0.219   2.237  15.546 -0.2254 -0.2990 -0.0402
 6520SOL    HW131193   0.284   2.196  15.604 -0.5402 -0.3721  0.2560
 6520SOL    HW231194   0.279   2.286  15.488  0.0122 -0.5701 -0.0234
 6521SOL     OW31195   1.469   2.672  12.491  0.6008  0.0300 -0.1953
 6521SOL    HW131196   1.404   2.717  12.546  1.0381  2.8378 -2.0017
 6521SOL    HW231197   1.543   2.645  12.545  2.2786  3.4145 -0.8505
 6522SOL     OW31198   0.927   3.832  10.148 -0.0003  0.0446  0.5210
 6522SOL    HW131199   0.929   3.837  10.052 -2.7344  0.8176  0.4852
 6522SOL    HW231200   0.977   3.910  10.171  0.3745 -0.0668  0.0991
 6523SOL     OW31201   1.422   4.598  17.340  0.2020  0.0375 -0.0472
 6523SOL    HW131202   1.327   4.599  17.343  0.2071  0.2305  0.0171
 6523SOL    HW231203   1.448   4.676  17.389  1.8347 -0.6405  0.1774
 6524SOL     OW31204   0.419   2.354   7.084 -0.1169 -0.4345 -0.4758
 6524SOL    HW131205   0.407   2.431   7.140 -2.1585 -0.5777 -0.6979
 6524SOL    HW231206   0.475   2.394   7.018  0.7175 -0.2667  0.3458
 6525SOL     OW31207   1.313   0.719   9.301 -0.9034 -0.2209  0.2570
 6525SOL    HW131208   1.290   0.796   9.354 -0.0488  0.4170 -0.2972
 6525SOL    HW231209   1.240   0.666   9.334 -0.2441 -1.3800 -0.1778
 6526SOL     OW31210   4.116   0.393   0.903 -0.1325 -0.2150 -0.4990
 6526SOL    HW131211   4.050   0.350   0.849 -1.0785  2.5876 -1.6018
 6526SOL    HW231212   4.154   0.459   0.845 -0.0645  1.5953  1.6405
 6527SOL     OW31213   1.071   2.656   8.571 -0.2335 -0.2838 -0.2782
 6527SOL    HW131214   1.029   2.742   8.568  1.1023  0.4402  1.6547
 6527SOL    HW231215   1.109   2.648   8.658  0.0916  2.0415 -0.1977
 6528SOL     OW31216   4.668   1.238   3.211 -0.9707  0.1001 -0.6621
 6528SOL    HW131217   4.734   1.172   3.192  0.8979  1.1258  2.2858
 6528SOL    HW231218   4.601   1.174   3.235  0.2778 -0.1975  2.0199
 6529SOL     OW31219   1.398   4.356   4.068 -0.7131 -0.5006  0.1411
 6529SOL    HW131220   1.435   4.439   4.038  0.0956 -0.2703  1.8273
 6529SOL    HW231221   1.476   4.305   4.091  0.3573  2.1147  2.2598
 6530SOL     OW31222   3.261   0.310  10.517  0.4563  0.5506 -0.7349
 6530SOL    HW131223   3.178   0.300  10.470  0.8633 -0.5389 -1.2335
 6530SOL    HW231224   3.325   0.277  10.454  0.6609 -0.7772  0.1438
 6531SOL     OW31225   1.287   0.459   4.033  0.0268  0.1666  0.0684
 6531SOL    HW131226   1.352   0.389   4.031  0.2639  0.3747  0.4159
 6531SOL    HW231227   1.307   0.512   3.955  0.9913 -0.7713 -0.3294
 6532SOL     OW31228   1.223   1.524   2.014 -0.7361 -0.0423  0.5771
 6532SOL    HW131229   1.150   1.463   2.015  0.4062 -1.4365 -1.5940
 6532SOL    HW231230   1.194   1.605   2.058  1.9036  2.3296 -2.0377
 6533SOL     OW31231   4.238   0.443  15.122 -0.3433 -0.1068 -0.0205
 6533SOL    HW131232   4.180   0.408  15.054 -2.1923  2.5758  0.1664
 6533SOL    HW231233   4.180   0.436  15.198 -1.4375  1.3065 -0.7269
 6534SOL     OW31234   0.454   0.100   8.746  0.0665 -0.8566 -0.2191
 6534SOL    HW131235   0.453   0.144   8.661  0.5225  1.1100  0.7872
 6534SOL    HW231236   0.462   0.171   8.810 -1.6527  0.3227 -1.3232
 6535SOL     OW31237   1.833   2.650   9.555  0.4299  0.4346 -0.4693
 6535SOL    HW131238   1.858   2.574   9.607  0.0679  1.0445  0.5996
 6535SOL    HW231239   1.877   2.726   9.594  1.9820 -1.2547  1.0412
 6536SOL     OW31240   2.899   3.402   1.887 -0.1785  0.4807  0.0693
 6536SOL    HW131241   2.830   3.466   1.871  1.2292  2.2534  1.0630
 6536SOL    HW231242   2.891   3.392   1.981  1.4886  0.9923  0.2795
 6537SOL     OW31243   4.448   3.648   2.617 -0.2685  0.6694  0.7919
 6537SOL    HW131244   4.392   3.660   2.540  1.2722 -0.0970 -0.4583
 6537SOL    HW231245   4.372   3.640   2.675 -1.0969  0.7573 -0.2660
 6538SOL     OW31246   0.727   3.953   2.520  0.2442  0.2110  0.0120
 6538SOL    HW131247   0.754   3.981   2.432 -1.3005 -1.9265 -1.1765
 6538SOL    HW231248   0.635   3.978   2.515  0.4292  1.0577  0.9960
 6539SOL     OW31249   2.073   2.685   0.260 -0.2287  0.2695 -0.4729
 6539SOL    HW131250   1.992   2.633   0.249 -0.9798  1.3351  0.0432
 6539SOL    HW231251   2.039   2.774   0.266  0.1941  0.5313 -2.2776
 6540SOL     OW31252   1.334   1.076  16.880  0.8704 -0.5120  0.5530
 6540SOL    HW131253   1.295   1.009  16.824 -2.2522  2.1315 -0.4411
 6540SOL    HW231254   1.308   1.036  16.963 -3.2514  0.8572 -0.1102
 6541SOL     OW31255   1.158   2.005   9.715  0.4651  0.7686 -0.3761
 6541SOL    HW131256   1.104   2.024   9.792 -0.3437 -2.6002 -0.0743
 6541SOL    HW231257   1.165   1.909   9.722  1.2558  0.7762 -1.0892
 6542SOL     OW31258   1.455   0.346   9.234  0.0364 -0.0452 -0.4465
 6542SOL    HW131259   1.442   0.259   9.196 -0.9631  0.1371 -0.5150
 6542SOL    HW231260   1.448   0.315   9.324 -2.4951  0.9292 -0.3148
 6543SOL     OW31261   0.949   4.086   9.621 -0.2102 -0.1352 -0.0900
 6543SOL    HW131262   0.943   4.077   9.716  2.0540  2.4181  0.2920
 6543SOL    HW231263   1.041   4.060   9.634 -0.4810  0.0339  2.3072
 6544SOL     OW31264   2.156   1.176  15.973 -0.1848 -0.1612  0.6775
 6544SOL    HW131265   2.180   1.115  15.903 -0.9888 -0.2351  0.4660
 6544SOL    HW231266   2.225   1.167  16.039  1.3687  0.2646 -0.8995
 6545SOL     OW31267   2.444   0.360  13.981 -0.0648 -0.8392  0.1022
 6545SOL    HW131268   2.535   0.330  13.983  0.2197  0.0164  0.2363
 6545SOL    HW231269   2.432   0.418  14.057  0.7283  0.6918 -0.9402
 6546SOL     OW31270   3.365   4.286   7.580  0.7881  0.1755 -0.4735
 6546SOL    HW131271   3.437   4.278   7.642  0.3200  0.2068  0.0704
 6546SOL    HW231272   3.389   4.225   7.510 -2.9667 -0.9278 -0.8238
 6547SOL     OW31273   4.052   4.625   6.965  0.1169  0.0334 -0.1970
 6547SOL    HW131274   4.021   4.571   6.892  3.1650  0.6119 -1.9576
 6547SOL    HW231275   4.140   4.627   6.927 -0.0243  0.9141 -0.4956
 6548SOL     OW31276   1.818   1.179  16.029  0.4286  0.3911 -0.0593
 6548SOL    HW131277   1.743   1.229  15.996  0.6923  1.1724  0.5118
 6548SOL    HW231278   1.848   1.249  16.087 -1.5635  0.0725  1.3439
 6549SOL     OW31279   2.365   1.952   7.072 -1.0872 -0.8914 -0.2173
 6549SOL    HW131280   2.430   2.017   7.099 -2.1683  0.2438 -0.3831
 6549SOL    HW231281   2.362   1.890   7.145  0.9951  2.2464  2.5712
 6550SOL     OW31282   2.238   3.800   4.345 -0.2190  0.2361 -0.6073
 6550SOL    HW131283   2.193   3.720   4.317 -0.2192 -0.4514  1.3565
 6550SOL    HW231284   2.242   3.781   4.439  0.0538  0.8604 -0.4969
 6551SOL     OW31285   3.661   4.171   2.177 -0.3821  0.3010  0.0421
 6551SOL    HW131286   3.614   4.112   2.116 -3.3426  1.7337  0.9296
 6551SOL    HW231287   3.654   4.254   2.131  0.4591  1.1165  1.4208
 6552SOL     OW31288   0.323   1.967   1.925 -0.0086  0.3864  0.3147
 6552SOL    HW131289   0.237   1.991   1.960  0.5277  1.1733  1.1057
 6552SOL    HW231290   0.334   2.040   1.865  0.9027  0.2559  0.3247
 6553SOL     OW31291   4.149   2.821  13.601 -0.4307  0.4516  0.2923
 6553SOL    HW131292   4.116   2.759  13.666  0.4110 -0.1083  0.1835
 6553SOL    HW231293   4.145   2.756  13.530  3.4092  1.7050 -1.0820
 6554SOL     OW31294   1.257   3.004   7.305 -0.1448 -0.3201  0.0586
 6554SOL    HW131295   1.204   2.952   7.367 -1.0933  0.3028 -0.2305
 6554SOL    HW231296   1.284   3.083   7.351  0.4035 -1.2493  1.3497
 6555SOL     OW31297   1.845   3.614   4.494 -0.3445 -0.5540 -0.3543
 6555SOL    HW131298   1.872   3.564   4.571 -2.7238 -0.5048  0.5243
 6555SOL    HW231299   1.750   3.610   4.505 -0.3214  2.0346  0.7794
 6556SOL     OW31300   2.166   4.379   6.333 -0.2914  0.0447  0.4296
 6556SOL    HW131301   2.116   4.407   6.409 -0.5482  0.5721  0.0636
 6556SOL    HW231302   2.157   4.284   6.342  1.1080 -0.0436  1.0115
 6557SOL     OW31303   1.142   2.759   3.955 -0.4229  0.1735 -0.3364
 6557SOL    HW131304   1.083   2.819   4.000 -0.1434  2.7270 -3.3879
 6557SOL    HW231305   1.208   2.754   4.024  0.2973  1.7956 -0.9008
 6558SOL     OW31306   2.240   0.261   5.054 -0.0436  0.6777  0.4334
 6558SOL    HW131307   2.273   0.327   4.993 -0.5972 -0.4424 -1.0783
 6558SOL    HW231308   2.278   0.180   5.019  0.7656  1.9778 -1.7122
 6559SOL     OW31309   0.618   2.889   1.859 -0.0304 -0.4227 -0.0992
 6559SOL    HW131310   0.654   2.806   1.892  0.3401  1.0002  3.0676
 6559SOL    HW231311   0.697   2.922   1.815 -0.2190  1.5265  1.0490
 6560SOL     OW31312   3.039   2.347  16.004 -0.4304  0.2307  0.5689
 6560SOL    HW131313   2.983   2.418  16.038 -0.4956  0.1020  0.7292
 6560SOL    HW231314   3.098   2.403  15.954 -1.5014 -0.7008 -1.7471
 6561SOL     OW31315   0.034   1.089   8.425 -0.9475  0.1508 -0.3494
 6561SOL    HW131316   0.086   1.038   8.363  1.0678  0.6624  0.9452
 6561SOL    HW231317   4.694   1.081   8.376  0.4564 -0.1728 -2.6318
 6562SOL     OW31318   1.433   0.393  13.225  0.0242  0.1991  0.1833
 6562SOL    HW131319   1.355   0.352  13.187  0.4758 -0.9016  0.4774
 6562SOL    HW231320   1.511   0.351  13.191  0.2963  1.3960 -0.6913
 6563SOL     OW31321   1.733   3.890   5.729 -0.2689 -0.4968 -0.3273
 6563SOL    HW131322   1.816   3.846   5.748  0.1104 -0.1908 -1.2655
 6563SOL    HW231323   1.743   3.933   5.644 -0.2097  1.2578  0.5735
 6564SOL     OW31324   0.617   1.131   5.277 -0.2390  0.8274 -0.5477
 6564SOL    HW131325   0.560   1.057   5.260 -1.3671  1.4332  0.6476
 6564SOL    HW231326   0.705   1.093   5.270 -0.3554  0.6697 -1.1738
 6565SOL     OW31327   3.938   3.204  15.740  0.0961  0.0222  0.4383
 6565SOL    HW131328   3.852   3.209  15.700 -0.1417  2.4703  1.2628
 6565SOL    HW231329   3.983   3.284  15.711  2.5076 -0.5141  2.7215
 6566SOL     OW31330   3.144   0.767  15.318  0.1919 -0.0940  0.3676
 6566SOL    HW131331   3.182   0.755  15.404 -1.3717 -0.1657  1.0405
 6566SOL    HW231332   3.217   0.788  15.259 -0.7903  3.8950  0.5542
 6567SOL     OW31333   4.493   0.028   5.162 -0.4186 -0.2103 -0.1826
 6567SOL    HW131334   4.406   0.042   5.124 -0.1153 -1.1434 -1.2122
 6567SOL    HW231335   4.533   4.732   5.084 -0.7240  1.3234 -1.0950
 6568SOL     OW31336   2.274   4.653   6.619 -0.2735  0.1638  0.3568
 6568SOL    HW131337   2.182   4.627   6.613 -0.3458 -0.3455  3.2283
 6568SOL    HW231338   2.284   4.679   6.711  3.6177 -4.1086  1.1687
 6569SOL     OW31339   0.079   2.350   8.776 -0.3595  0.2361  0.4482
 6569SOL    HW131340   0.117   2.373   8.691 -0.8962  0.3301  0.2379
 6569SOL    HW231341   0.157   2.316   8.822 -1.2542 -0.1003  1.7144
 6570SOL     OW31342   0.027   3.713   2.299 -0.3989  0.4222 -0.1321
 6570SOL    HW131343   0.083   3.641   2.269 -1.0464 -0.0363 -0.2587
 6570SOL    HW231344   0.066   3.791   2.260  0.1635  0.7202  1.0131
 6571SOL     OW31345   4.595   4.433   6.706 -0.4596  0.3511  0.1554
 6571SOL    HW131346   4.564   4.344   6.723  1.8824 -0.4923  0.0608
 6571SOL    HW231347   4.552   4.456   6.623 -1.3604  1.4939  0.9360
 6572SOL     OW31348   3.900   3.739   6.897  0.0965  0.4876 -0.0905
 6572SOL    HW131349   3.825   3.797   6.907  0.6716  0.8689  2.1491
 6572SOL    HW231350   3.950   3.758   6.977 -0.3618 -0.6770  0.4767
 6573SOL     OW31351   1.286   0.365   4.665 -0.0918 -0.2169  0.4915
 6573SOL    HW131352   1.329   0.333   4.585 -0.0835 -2.4186  1.3797
 6573SOL    HW231353   1.354   0.366   4.733  0.4165  0.8302 -0.0303
 6574SOL     OW31354   3.612   0.631   4.087  0.3837 -0.1285  0.5203
 6574SOL    HW131355   3.581   0.651   3.999 -0.7212  0.6595  1.0886
 6574SOL    HW231356   3.692   0.581   4.070 -0.3932 -1.1639 -0.0369
 6575SOL     OW31357   1.370   2.122   4.108  0.1500  0.8954 -0.6728
 6575SOL    HW131358   1.328   2.165   4.034 -0.6355  0.2585 -0.6063
 6575SOL    HW231359   1.372   2.191   4.174 -0.9885  1.6810 -1.4542
 6576SOL     OW31360   4.598   1.078  11.526 -0.0217 -0.0621 -0.2833
 6576SOL    HW131361   4.644   0.995  11.533  1.6122  0.6612 -2.2260
 6576SOL    HW231362   4.508   1.060  11.554  0.0913 -0.2782 -0.0636
 6577SOL     OW31363   1.495   3.279   9.189  0.0086 -0.4135 -0.0967
 6577SOL    HW131364   1.409   3.310   9.220  0.4199  0.7582 -0.1363
 6577SOL    HW231365   1.530   3.233   9.265 -0.1694  1.0066  0.8442
 6578SOL     OW31366   3.044   0.750  12.501 -0.1177  0.2093  0.0729
 6578SOL    HW131367   3.115   0.724  12.443  0.9544  0.7265  1.1479
 6578SOL    HW231368   3.057   0.844  12.501 -2.4453  0.5449  1.5716
 6579SOL     OW31369   1.813   2.822   8.074 -0.1104  0.1552  0.4791
 6579SOL    HW131370   1.737   2.826   8.133  1.0790  3.6580  1.7064
 6579SOL    HW231371   1.848   2.737   8.102 -1.8117 -0.4451  0.8341
 6580SOL     OW31372   4.037   0.794   4.809 -0.6244  0.2011 -0.4196
 6580SOL    HW131373   4.044   0.813   4.716 -1.2955  0.0245 -0.5035
 6580SOL    HW231374   4.114   0.737   4.811 -0.5011  0.3404 -1.6442
 6581SOL     OW31375   4.336   1.586   5.094  0.7264 -0.0750 -0.0421
 6581SOL    HW131376   4.383   1.669   5.102  1.7664 -0.6278 -0.3819
 6581SOL    HW231377   4.282   1.570   5.172 -0.5740  3.9665 -0.1374
 6582SOL     OW31378   3.360   1.554   3.629  0.5486  0.4076 -0.0707
 6582SOL    HW131379   3.408   1.552   3.546 -2.5396 -3.1355 -1.7535
 6582SOL    HW231380   3.275   1.535   3.591  1.1396 -0.4183 -0.9823
 6583SOL     OW31381   1.245   3.329   4.261  0.2328  0.4228  0.5176
 6583SOL    HW131382   1.287   3.330   4.347 -1.0926 -0.2999  1.1637
 6583SOL    HW231383   1.307   3.374   4.203 -1.5201  1.8349 -0.2737
 6584SOL     OW31384   4.596   3.653   3.527  0.2595  0.0361  0.1571
 6584SOL    HW131385   4.532   3.628   3.594  0.0360 -0.5517 -0.2858
 6584SOL    HW231386   4.607   3.746   3.549 -1.6000  0.3284 -0.1321
 6585SOL     OW31387   3.854   1.186  13.553  0.4909  0.1709  0.0983
 6585SOL    HW131388   3.862   1.233  13.470 -0.2858  0.2546  0.0767
 6585SOL    HW231389   3.906   1.236  13.616  1.6846 -0.8129 -0.0881
 6586SOL     OW31390   2.914   3.430   1.591  0.0403  0.1051 -0.1161
 6586SOL    HW131391   2.930   3.433   1.686  1.7091 -1.5328 -0.3500
 6586SOL    HW231392   3.004   3.426   1.559 -0.0586  0.4315 -0.4337
 6587SOL     OW31393   3.022   1.639  13.484  0.3280  0.5839  0.2222
 6587SOL    HW131394   3.069   1.557  13.492 -1.6686 -0.3894  2.0861
 6587SOL    HW231395   3.069   1.697  13.544  0.5486  1.0844 -0.4452
 6588SOL     OW31396   0.145   0.087   1.612 -0.4523  0.6777 -0.0691
 6588SOL    HW131397   0.108   0.113   1.528  3.5946 -2.2334 -2.7587
 6588SOL    HW231398   0.163   4.735   1.598 -2.7904  0.3623 -0.9230
 6589SOL     OW31399   3.128   1.158   7.266  0.0792  0.6435 -0.0116
 6589SOL    HW131400   3.155   1.163   7.358 -2.5172  0.8621  0.7338
 6589SOL    HW231401   3.104   1.247   7.242  2.1303  1.2086  0.0095
 6590SOL     OW31402   2.446   3.127  10.908 -0.1558  0.0061 -0.1478
 6590SOL    HW131403   2.374   3.184  10.883 -0.4097 -0.1793  0.1689
 6590SOL    HW231404   2.511   3.191  10.937 -0.3677 -0.2180  0.8157
 6591SOL     OW31405   1.175   4.191   5.174  0.7208  0.0937 -0.2452
 6591SOL    HW131406   1.225   4.147   5.104 -0.8754 -0.4380 -1.0488
 6591SOL    HW231407   1.144   4.267   5.125  0.7780 -0.2169 -0.7786
 6592SOL     OW31408   4.211   3.380  12.163 -0.2587 -0.0978  0.3048
 6592SOL    HW131409   4.286   3.341  12.120  1.0979 -0.1642  2.7388
 6592SOL    HW231410   4.152   3.311  12.132  0.0762 -0.9202  1.5091
 6593SOL     OW31411   2.989   0.381  10.435  0.0692 -0.1805 -0.4495
 6593SOL    HW131412   2.985   0.458  10.493  2.0159  0.2893 -0.9354
 6593SOL    HW231413   2.952   0.312  10.490  1.9374 -0.7351  0.1146
 6594SOL     OW31414   3.514   0.677   5.606 -0.3992  0.1716  0.0751
 6594SOL    HW131415   3.592   0.633   5.574 -0.5408 -0.9460  1.2802
 6594SOL    HW231416   3.549   0.730   5.678  2.1160 -3.1954  1.3104
 6595SOL     OW31417   1.507   4.019   6.339  0.8637 -0.7033  0.6704
 6595SOL    HW131418   1.466   4.106   6.335  1.7671 -0.4377 -3.4069
 6595SOL    HW231419   1.596   4.030   6.372  0.8980 -0.3998  0.4789
 6596SOL     OW31420   2.216   1.031  13.375 -0.2193 -0.0097 -0.4313
 6596SOL    HW131421   2.166   0.978  13.312  2.4370 -2.8840 -0.0855
 6596SOL    HW231422   2.262   1.081  13.307  1.4957  0.4094  1.0665
 6597SOL     OW31423   3.649   0.828   5.809  0.3021  0.8073 -0.5277
 6597SOL    HW131424   3.737   0.847   5.775  0.5262 -0.9934 -0.9272
 6597SOL    HW231425   3.665   0.864   5.896 -1.7908 -0.8136  0.5360
 6598SOL     OW31426   3.662   4.593   3.797  0.3123  0.4303  0.0040
 6598SOL    HW131427   3.693   4.604   3.707  3.0093  0.0333  0.8712
 6598SOL    HW231428   3.732   4.613   3.860 -0.8756  1.8389  0.8775
 6599SOL     OW31429   1.830   4.300  12.085  0.2506 -0.2288 -0.3673
 6599SOL    HW131430   1.794   4.374  12.135  1.2048 -1.2392  1.8115
 6599SOL    HW231431   1.871   4.251  12.157  1.6955 -0.1420 -1.1367
 6600SOL     OW31432   1.942   0.980   1.855  0.1965 -0.2856 -0.2269
 6600SOL    HW131433   2.007   0.987   1.925 -1.7906 -2.2362  1.8114
 6600SOL    HW231434   1.860   1.002   1.898  0.8226 -0.9613  1.3111
 6601SOL     OW31435   2.709   0.069  14.760  0.0733 -0.8510 -0.4470
 6601SOL    HW131436   2.718   4.732  14.814 -0.5923 -1.5112 -1.2859
 6601SOL    HW231437   2.674   0.031  14.679  1.4792 -0.3496 -1.2858
 6602SOL     OW31438   3.539   1.456  15.007  0.3199 -0.2414 -0.1131
 6602SOL    HW131439   3.578   1.462  15.094  0.2418 -0.5672 -0.0544
 6602SOL    HW231440   3.546   1.548  14.981 -2.5705 -0.2294 -0.8284
 6603SOL     OW31441   1.932   1.769   6.314  0.5121  0.0200  0.2570
 6603SOL    HW131442   1.901   1.756   6.403  1.0558  0.2588  0.4764
 6603SOL    HW231443   2.027   1.756   6.320  0.5659  0.1688 -0.2759
 6604SOL     OW31444   3.219   1.149   7.511  0.2417  0.2631  0.4088
 6604SOL    HW131445   3.285   1.211   7.542 -0.7218  1.4587  0.0443
 6604SOL    HW231446   3.198   1.113   7.598  0.2329 -1.6191 -0.3706
 6605SOL     OW31447   3.329   2.062   5.465  0.2699 -0.3102 -0.0198
 6605SOL    HW131448   3.261   2.012   5.419  0.2090  0.6698 -0.9987
 6605SOL    HW231449   3.323   2.012   5.547 -1.0755 -1.7017 -0.9866
 6606SOL     OW31450   4.278   0.672   4.916 -0.1154  0.1794  0.3518
 6606SOL    HW131451   4.301   0.580   4.923  1.2043  0.3879 -1.1914
 6606SOL    HW231452   4.326   0.716   4.986 -1.5602 -0.5767  1.8024
 6607SOL     OW31453   3.346   3.529   4.636 -0.1489  0.2251 -0.1920
 6607SOL    HW131454   3.384   3.572   4.712 -0.4536  0.5573 -0.2256
 6607SOL    HW231455   3.375   3.439   4.649 -2.5609 -0.2544  1.9426
 6608SOL     OW31456   1.939   1.802   2.930 -0.4768  0.5877  0.2243
 6608SOL    HW131457   2.010   1.754   2.972  1.5014  1.7746 -1.7474
 6608SOL    HW231458   1.903   1.850   3.005  2.2297  1.9670  0.6385
 6609SOL     OW31459   0.362   4.661   3.191 -0.2896 -0.0933 -0.0711
 6609SOL    HW131460   0.278   4.677   3.235  1.2129  1.5911  2.1792
 6609SOL    HW231461   0.401   4.592   3.244  0.2576  1.9789  2.2335
 6610SOL     OW31462   0.090   1.501   8.976  0.6687 -0.3368  0.3592
 6610SOL    HW131463   0.119   1.449   8.901 -0.5183  0.3006 -0.5328
 6610SOL    HW231464   0.017   1.448   9.008 -0.3734  0.9468  0.1264
 6611SOL     OW31465   1.248   3.149  13.321  0.1082  0.2324 -0.2053
 6611SOL    HW131466   1.312   3.207  13.361 -0.7651  0.9938  0.0711
 6611SOL    HW231467   1.173   3.169  13.377  0.1101  1.3323 -0.6083
 6612SOL     OW31468   0.128   4.170   4.481 -0.2748 -0.0560 -0.1889
 6612SOL    HW131469   0.129   4.087   4.527 -1.3542 -1.2413 -2.3406
 6612SOL    HW231470   0.034   4.185   4.484 -0.1804  0.8322 -1.1397
 6613SOL     OW31471   0.446   2.218   3.853 -0.2319  0.4185  0.5272
 6613SOL    HW131472   0.499   2.256   3.923 -2.4210  1.7952  1.4243
 6613SOL    HW231473   0.361   2.220   3.896 -0.4759 -0.3357  0.0627
 6614SOL     OW31474   0.858   1.292   8.089  0.1807  0.1223  0.1047
 6614SOL    HW131475   0.934   1.341   8.121 -0.8094  2.3712 -0.9763
 6614SOL    HW231476   0.834   1.344   8.013  1.5667 -1.6781 -1.5703
 6615SOL     OW31477   2.156   2.970   2.317  0.0303  0.3316 -0.3112
 6615SOL    HW131478   2.150   3.057   2.356 -1.8315  0.1468 -0.1991
 6615SOL    HW231479   2.240   2.990   2.276  0.5562 -0.4555  0.3889
 6616SOL     OW31480   3.194   1.053   9.279  0.0885  0.7949  0.4559
 6616SOL    HW131481   3.154   1.118   9.337 -2.3520 -0.4065  0.1201
 6616SOL    HW231482   3.149   1.069   9.196  1.6470  0.9083 -0.3760
 6617SOL     OW31483   0.506   0.387   3.707  0.8129 -0.3552  0.5279
 6617SOL    HW131484   0.481   0.300   3.675  2.7045 -0.0818 -1.7410
 6617SOL    HW231485   0.592   0.365   3.744  1.0386 -2.3596 -1.2021
 6618SOL     OW31486   3.392   0.422  15.054 -0.2941 -0.1186 -0.0338
 6618SOL    HW131487   3.364   0.353  14.994  0.4162 -0.4811  0.0453
 6618SOL    HW231488   3.444   0.477  14.996 -0.4787  0.6413  0.5267
 6619SOL     OW31489   1.082   3.504   9.642  0.8775 -0.5143  0.3542
 6619SOL    HW131490   1.011   3.560   9.672  2.7143  1.6170  0.7385
 6619SOL    HW231491   1.095   3.443   9.715 -1.6535  2.3435  3.1683
 6620SOL     OW31492   4.333   0.706   9.517 -0.1133  0.1424 -0.1661
 6620SOL    HW131493   4.410   0.666   9.558  0.9152  2.4339  0.1509
 6620SOL    HW231494   4.335   0.671   9.428 -1.2072 -0.1543 -0.0705
 6621SOL     OW31495   0.278   3.600   6.969  0.3007  0.5151  0.3683
 6621SOL    HW131496   0.247   3.662   6.903  0.5795 -0.5356 -0.7453
 6621SOL    HW231497   0.199   3.591   7.023  0.2222 -1.6796 -0.1001
 6622SOL     OW31498   3.501   4.660   9.870  0.6529  0.6518 -0.6699
 6622SOL    HW131499   3.433   4.723   9.895 -0.1905  0.2445 -1.9650
 6622SOL    HW231500   3.497   4.664   9.774 -0.4787 -1.4724 -0.6909
 6623SOL     OW31501   2.869   0.618  15.711  0.0292  0.0261  1.0145
 6623SOL    HW131502   2.892   0.621  15.804 -1.5197  0.1135  1.4000
 6623SOL    HW231503   2.864   0.525  15.689  1.6977  0.6179 -1.8420
 6624SOL     OW31504   2.126   2.227   6.849 -0.0139 -0.0685  0.1411
 6624SOL    HW131505   2.097   2.293   6.786  0.5702  0.2374  0.1942
 6624SOL    HW231506   2.086   2.148   6.812  1.9187 -0.9889 -0.0181
 6625SOL     OW31507   3.388   4.086  17.241  0.0392 -0.3678 -0.3520
 6625SOL    HW131508   3.383   4.177  17.271  2.1499  0.7563 -3.5400
 6625SOL    HW231509   3.441   4.042  17.308  0.8468  2.4349  0.8419
 6626SOL     OW31510   3.625   3.498  17.570  0.5380  1.0324 -0.4089
 6626SOL    HW131511   3.554   3.436  17.551  0.6728  0.2477  1.5895
 6626SOL    HW231512   3.669   3.449  17.640 -0.0184 -1.2952 -1.6823
 6627SOL     OW31513   2.082   2.515   8.810 -0.3103 -0.2863 -0.2080
 6627SOL    HW131514   2.170   2.476   8.810  0.5372  1.6616 -0.0530
 6627SOL    HW231515   2.040   2.438   8.849 -2.8427 -0.1130 -2.6040
 6628SOL     OW31516   0.503   2.894   9.708  0.0818  0.1802 -0.0147
 6628SOL    HW131517   0.419   2.849   9.702 -0.4167  0.9940  0.7955
 6628SOL    HW231518   0.479   2.969   9.654  0.3560  0.7719  0.6790
 6629SOL     OW31519   0.338   2.924  13.145  0.1915 -0.2600 -0.3822
 6629SOL    HW131520   0.272   2.949  13.080 -1.1117  0.6774  1.3027
 6629SOL    HW231521   0.305   2.835  13.158  0.1111 -0.8903 -4.9751
 6630SOL     OW31522   1.540   0.704   3.601 -0.4742 -0.2731 -0.7530
 6630SOL    HW131523   1.574   0.619   3.630  2.2370  1.1090  0.1158
 6630SOL    HW231524   1.476   0.673   3.537 -1.2733  0.5330 -0.3564
 6631SOL     OW31525   4.097   2.340  13.276  0.9978 -0.4685  0.4759
 6631SOL    HW131526   4.143   2.393  13.211  2.4556 -0.3936  1.5636
 6631SOL    HW231527   4.026   2.400  13.297  3.5352  3.0069 -1.0072
 6632SOL     OW31528   1.663   0.656   2.690 -0.8531 -0.9271  0.8682
 6632SOL    HW131529   1.743   0.618   2.727 -0.3766  0.1778  0.9608
 6632SOL    HW231530   1.606   0.579   2.686 -1.3359 -0.6274  2.0176
 6633SOL     OW31531   3.704   3.193   6.161 -0.3548  0.7176 -0.2994
 6633SOL    HW131532   3.780   3.251   6.172  1.4751 -2.0365  1.7023
 6633SOL    HW231533   3.737   3.155   6.079  0.8136  2.3470 -0.5818
 6634SOL     OW31534   2.359   1.816   3.506  0.0986 -0.1843 -0.3496
 6634SOL    HW131535   2.401   1.863   3.578  1.2491 -1.1006 -0.4232
 6634SOL    HW231536   2.401   1.861   3.433  0.5752 -0.3991 -0.2043
 6635SOL     OW31537   0.261   3.040  11.368  0.1038  0.0128  0.7587
 6635SOL    HW131538   0.295   2.969  11.314 -0.7343  1.9127 -2.2520
 6635SOL    HW231539   0.181   3.051  11.317 -0.1254 -2.3352  0.5753
 6636SOL     OW31540   3.448   1.414   1.795 -0.5557  0.3670 -0.5633
 6636SOL    HW131541   3.526   1.470   1.787 -0.9368  0.9256 -0.2963
 6636SOL    HW231542   3.471   1.366   1.875  0.0349 -1.3505 -1.7460
 6637SOL     OW31543   2.871   0.335   8.715  0.0283  0.4747 -0.4688
 6637SOL    HW131544   2.847   0.418   8.674 -3.1720 -0.2502 -0.1052
 6637SOL    HW231545   2.938   0.309   8.653 -1.0294  1.2524 -1.9328
 6638SOL     OW31546   4.311   1.467   6.278 -0.6713 -0.2543  0.0491
 6638SOL    HW131547   4.285   1.423   6.359 -2.2306 -3.1861 -2.0496
 6638SOL    HW231548   4.273   1.402   6.220  0.8466  0.7729 -2.1083
 6639SOL     OW31549   3.654   3.467   3.071 -0.4997 -0.3088  0.2355
 6639SOL    HW131550   3.730   3.411   3.086 -0.9907 -0.8487  0.7261
 6639SOL    HW231551   3.702   3.550   3.077  1.6903 -1.4764 -0.9741
 6640SOL     OW31552   2.574   0.919   2.582 -0.3877 -0.2367 -0.2558
 6640SOL    HW131553   2.585   0.886   2.493 -0.3089 -0.0399 -0.3186
 6640SOL    HW231554   2.492   0.878   2.612 -0.5500  0.8962  0.8451
 6641SOL     OW31555   2.287   3.560   2.893  0.2571  0.3754  0.2580
 6641SOL    HW131556   2.364   3.613   2.874  1.2480 -0.1203  2.8607
 6641SOL    HW231557   2.213   3.617   2.870 -0.0144  0.0061  0.2170
 6642SOL     OW31558   3.966   3.989   4.573  0.3343 -0.0260 -0.0145
 6642SOL    HW131559   4.019   3.909   4.573 -1.0544 -0.9547  1.2024
 6642SOL    HW231560   3.906   3.984   4.498 -2.5116  1.6820  2.1785
 6643SOL     OW31561   0.791   1.703  15.260 -0.3698  0.3101  0.0047
 6643SOL    HW131562   0.699   1.684  15.279 -0.2525 -0.7403 -0.4965
 6643SOL    HW231563   0.775   1.736  15.172 -1.1033  2.7828  1.0706
 6644SOL     OW31564   4.179   2.578   7.577  0.1436 -1.0547 -1.0430
 6644SOL    HW131565   4.262   2.549   7.615  0.5654  0.3296 -0.9204
 6644SOL    HW231566   4.115   2.565   7.647  1.0929  2.3654  0.4392
 6645SOL     OW31567   4.045   1.804   3.132 -0.4715  0.0758 -0.1372
 6645SOL    HW131568   4.033   1.845   3.046 -1.8000  0.0842  0.0528
 6645SOL    HW231569   4.017   1.716   3.105  1.4433 -0.3397 -0.7366
 6646SOL     OW31570   3.170   0.862   5.897 -0.0470 -0.2545 -0.1762
 6646SOL    HW131571   3.200   0.775   5.922  1.3956 -0.0524 -1.2098
 6646SOL    HW231572   3.252   0.912   5.897 -0.3858  0.3155  1.7795
 6647SOL     OW31573   3.869   1.139   4.775  0.1051  0.6357 -0.1895
 6647SOL    HW131574   3.963   1.156   4.774 -0.2011  2.3059 -0.0829
 6647SOL    HW231575   3.849   1.165   4.865 -1.8513 -0.2288 -0.3751
 6648SOL     OW31576   2.149   2.998  10.056  0.1660 -0.0480 -0.0227
 6648SOL    HW131577   2.196   2.952  10.125 -2.1787 -0.2258  1.4266
 6648SOL    HW231578   2.206   2.984   9.980  0.9146  1.0905  0.3176
 6649SOL     OW31579   3.210   2.766   8.349  0.6104  0.3538  0.2430
 6649SOL    HW131580   3.236   2.845   8.303 -0.0995  0.6041  0.2817
 6649SOL    HW231581   3.262   2.698   8.304 -1.2311 -0.9249  0.0460
 6650SOL     OW31582   2.907   2.686  17.622  0.1008 -0.3602  0.4179
 6650SOL    HW131583   2.938   2.776  17.611  0.1047 -0.8295 -3.4485
 6650SOL    HW231584   2.978   2.638  17.579 -0.8075 -2.1953  0.9791
 6651SOL     OW31585   0.156   0.203   5.010 -0.1364 -0.1787 -0.1189
 6651SOL    HW131586   0.215   0.127   5.016  1.2293  0.8352 -0.5606
 6651SOL    HW231587   0.194   0.272   5.063 -0.6013 -0.8794  1.1223
 6652SOL     OW31588   3.328   1.922   3.909 -0.2681 -0.0862  0.1275
 6652SOL    HW131589   3.370   1.837   3.923 -0.7522 -0.4723 -0.7276
 6652SOL    HW231590   3.293   1.919   3.820 -0.4315  2.7924  0.1192
 6653SOL     OW31591   0.207   0.849   2.010  0.4029 -0.3412  0.0726
 6653SOL    HW131592   0.178   0.799   1.933  0.9632 -2.6776  1.3690
 6653SOL    HW231593   0.296   0.871   1.983 -0.2180  1.5546 -0.4081
 6654SOL     OW31594   1.566   0.924  13.194  0.1210 -0.4001 -0.0839
 6654SOL    HW131595   1.530   1.000  13.149 -0.6334 -0.1521  0.9500
 6654SOL    HW231596   1.566   0.862  13.120  0.8617 -0.8044  0.2492
 6655SOL     OW31597   4.721   2.662   8.662 -0.6736  0.2020 -0.7504
 6655SOL    HW131598   4.689   2.648   8.751  1.3186 -0.6656 -0.1853
 6655SOL    HW231599   4.652   2.624   8.607 -2.2207  2.4963 -0.4409
 6656SOL     OW31600   1.382   3.581   3.600 -0.2254 -0.2281 -0.9770
 6656SOL    HW131601   1.289   3.557   3.599  0.0993 -1.5220 -0.4806
 6656SOL    HW231602   1.395   3.592   3.694  1.1794 -2.1633 -0.9360
 6657SOL     OW31603   3.640   1.774   5.974  0.3780  0.1405 -0.3876
 6657SOL    HW131604   3.601   1.842   5.920  0.2324 -0.5756 -1.1800
 6657SOL    HW231605   3.666   1.813   6.058 -0.2422 -0.3780  0.0498
 6658SOL     OW31606   2.349   0.839   8.290 -0.1137 -0.4787 -0.4293
 6658SOL    HW131607   2.437   0.801   8.297  0.1433 -0.2628 -2.4893
 6658SOL    HW231608   2.324   0.802   8.374  1.1368 -1.8327 -0.6457
 6659SOL     OW31609   1.480   3.895   4.508 -0.1138  0.3104  0.3838
 6659SOL    HW131610   1.390   3.891   4.476  0.9669 -0.3273 -2.5895
 6659SOL    HW231611   1.482   3.985   4.539 -1.2997  0.6382 -0.5040
 6660SOL     OW31612   1.502   1.099   3.766  0.7745  0.1492 -0.6918
 6660SOL    HW131613   1.409   1.080   3.780  0.4083  1.1095 -1.7429
 6660SOL    HW231614   1.503   1.134   3.677  0.3484 -0.1764 -0.8228
 6661SOL     OW31615   2.562   2.736   3.683 -0.2172  0.5810 -0.0454
 6661SOL    HW131616   2.479   2.776   3.710  0.2705  2.5127 -1.3819
 6661SOL    HW231617   2.544   2.708   3.593 -1.8797 -3.1268  1.4608
 6662SOL     OW31618   1.374   0.630   1.696  0.2876  0.2721 -0.1638
 6662SOL    HW131619   1.424   0.701   1.657  0.9481  0.3907  0.9149
 6662SOL    HW231620   1.437   0.559   1.681  0.6260  0.7702 -1.0497
 6663SOL     OW31621   3.450   3.150   2.819  0.2751  0.6144 -0.0593
 6663SOL    HW131622   3.527   3.136   2.874 -0.7901 -1.8291  0.8015
 6663SOL    HW231623   3.422   3.238   2.845  0.1952  0.3458  0.7657
 6664SOL     OW31624   2.778   3.651   3.628  0.2421 -0.3146  0.4544
 6664SOL    HW131625   2.839   3.578   3.639 -1.5903 -1.6274  1.7957
 6664SOL    HW231626   2.769   3.646   3.533 -0.3878 -2.0785  0.6075
 6665SOL     OW31627   0.006   1.899   8.362 -0.4067 -0.4962  0.0751
 6665SOL    HW131628   4.652   1.904   8.359 -0.4252 -0.7489  0.1716
 6665SOL    HW231629   0.014   1.939   8.448  0.6200  0.6544 -0.5646
 6666SOL     OW31630   1.890   4.671  15.176  0.3824  0.3676 -0.1452
 6666SOL    HW131631   1.890   0.024  15.161 -2.0499  0.4150  0.2071
 6666SOL    HW231632   1.825   4.658  15.245  0.8395  0.1575  0.2481
 6667SOL     OW31633   2.648   1.932  15.852  0.2737 -0.5690  0.0934
 6667SOL    HW131634   2.655   1.913  15.758 -3.7909  0.0887 -0.3339
 6667SOL    HW231635   2.741   1.914  15.866  0.6386 -0.1846 -1.8318
 6668SOL     OW31636   3.494   3.864   1.513 -0.4124  0.0261 -0.2617
 6668SOL    HW131637   3.500   3.902   1.426 -1.2633 -0.6091 -0.5976
 6668SOL    HW231638   3.560   3.794   1.512 -2.4700 -1.9802  3.2535
 6669SOL     OW31639   1.383   3.289   1.437  0.1312  0.0259 -0.6757
 6669SOL    HW131640   1.418   3.327   1.518  1.3565 -1.5388 -0.4565
 6669SOL    HW231641   1.296   3.265   1.467 -0.0919  0.4363 -0.9992
 6670SOL     OW31642   1.100   0.703  15.918  0.2082 -0.1712  0.5175
 6670SOL    HW131643   1.130   0.792  15.937 -2.5997  1.3235 -2.0153
 6670SOL    HW231644   1.045   0.717  15.841  0.5178  1.5294  0.5903
 6671SOL     OW31645   1.647   4.381  14.896 -0.8296 -0.2237 -0.1862
 6671SOL    HW131646   1.707   4.452  14.873 -1.3574  0.0243 -0.7939
 6671SOL    HW231647   1.712   4.317  14.925 -1.0171  0.7587  2.3995
 6672SOL     OW31648   4.689   2.735  17.135  0.6107 -0.4042 -0.3585
 6672SOL    HW131649   0.018   2.740  17.200  0.4120 -1.4127 -0.0721
 6672SOL    HW231650   4.733   2.690  17.063  0.9345 -1.1571  0.3109
 6673SOL     OW31651   2.491   1.416  16.317 -0.9166  0.1739 -0.0595
 6673SOL    HW131652   2.535   1.357  16.256  0.5717  0.7822  0.4239
 6673SOL    HW231653   2.464   1.361  16.390  2.3473 -1.3516 -0.0401
 6674SOL     OW31654   2.019   1.441  14.400 -0.4752 -0.1487  0.3498
 6674SOL    HW131655   2.072   1.424  14.322  0.4116  1.8694  0.5011
 6674SOL    HW231656   1.932   1.441  14.361 -0.2285  3.1876 -0.2118
 6675SOL     OW31657   0.970   2.178  11.299  0.3022  0.2037  0.7234
 6675SOL    HW131658   0.960   2.155  11.392  3.2886  2.7169  1.6772
 6675SOL    HW231659   0.983   2.088  11.273 -1.0780 -0.0429  0.8818
 6676SOL     OW31660   3.545   3.615   6.537  0.4444 -0.0281  0.1021
 6676SOL    HW131661   3.568   3.666   6.615 -0.0884 -1.7980  1.3973
 6676SOL    HW231662   3.602   3.648   6.468 -1.3794  3.0399  0.0051
 6677SOL     OW31663   3.669   0.127  10.991 -0.2638 -0.0166 -0.4364
 6677SOL    HW131664   3.743   0.084  10.948 -1.9300 -0.3856 -2.9473
 6677SOL    HW231665   3.592   0.070  10.984 -0.9200  0.5289  2.4167
 6678SOL     OW31666   3.309   2.722  11.100 -0.0133 -0.0122 -0.0738
 6678SOL    HW131667   3.308   2.633  11.135  0.7377  0.4910  1.2175
 6678SOL    HW231668   3.217   2.747  11.101  0.2883  0.9815  2.3919
 6679SOL     OW31669   4.621   1.871   8.949  0.3417 -0.4596 -0.2196
 6679SOL    HW131670   4.572   1.790   8.931  0.1244 -0.2165 -0.7048
 6679SOL    HW231671   4.711   1.844   8.934  0.0936 -1.7697  0.6630
 6680SOL     OW31672   0.338   3.440  17.350  0.1018 -0.5598 -0.5859
 6680SOL    HW131673   0.392   3.503  17.397 -1.7350  0.1167  0.6380
 6680SOL    HW231674   0.284   3.397  17.417  0.6845 -0.5135 -0.0898
 6681SOL     OW31675   2.576   0.879   5.471 -0.5937 -0.5348 -0.0284
 6681SOL    HW131676   2.569   0.783   5.466 -0.0674 -0.5312 -0.8992
 6681SOL    HW231677   2.593   0.889   5.377 -0.6328  1.9964  0.2293
 6682SOL     OW31678   3.526   0.008   6.683  0.6388 -0.2196 -0.0932
 6682SOL    HW131679   3.593   4.696   6.639  0.7789 -0.8008  0.8198
 6682SOL    HW231680   3.447   4.696   6.677 -2.5245  4.1031  3.8195
 6683SOL     OW31681   0.351   2.860  13.706 -0.0920  0.4029 -0.8169
 6683SOL    HW131682   0.393   2.774  13.697 -0.3674  0.0696  0.9558
 6683SOL    HW231683   0.407   2.876  13.782  1.0018 -0.3541 -1.4752
 6684SOL     OW31684   0.531   1.626   2.270  0.2447 -1.1569 -0.0186
 6684SOL    HW131685   0.492   1.550   2.229  0.2253 -1.8628  1.2872
 6684SOL    HW231686   0.467   1.693   2.248 -0.6170 -1.4268  1.6475
 6685SOL     OW31687   4.416   1.040   3.644 -0.1579 -0.1755 -0.5007
 6685SOL    HW131688   4.482   1.051   3.712 -4.2690 -0.4655  3.5244
 6685SOL    HW231689   4.358   1.107   3.678 -1.6787 -1.2008 -1.0863
 6686SOL     OW31690   0.819   2.552   9.814  0.3083  0.0468 -0.1430
 6686SOL    HW131691   0.726   2.531   9.825  0.5314  0.1550  1.9018
 6686SOL    HW231692   0.804   2.626   9.754  0.8810  1.3742  1.3571
 6687SOL     OW31693   3.474   4.360  16.337  0.6343  0.1829  0.6356
 6687SOL    HW131694   3.552   4.409  16.361  2.2326 -1.9339 -0.2699
 6687SOL    HW231695   3.495   4.277  16.380 -2.0738 -0.3847  0.8791
 6688SOL     OW31696   2.157   0.572  13.798 -0.0433 -0.4067 -0.2982
 6688SOL    HW131697   2.205   0.542  13.721  2.2467 -0.1275  1.0114
 6688SOL    HW231698   2.217   0.629  13.846  0.5894  0.3062 -1.9658
 6689SOL     OW31699   2.510   1.593   1.579 -0.1797  0.1234 -0.1949
 6689SOL    HW131700   2.453   1.599   1.656  0.0750  1.9115 -0.1479
 6689SOL    HW231701   2.532   1.686   1.571  2.1286 -0.3884  0.3346
 6690SOL     OW31702   4.161   3.713  16.066  0.5763 -0.2961 -0.6030
 6690SOL    HW131703   4.220   3.788  16.065  1.4307 -0.9519  0.1793
 6690SOL    HW231704   4.112   3.733  15.986  0.0054 -0.4107 -0.2841
 6691SOL     OW31705   2.098   3.184   2.459  0.0341 -0.4338  0.2759
 6691SOL    HW131706   2.124   3.259   2.513 -1.5174  0.2321  0.1001
 6691SOL    HW231707   2.005   3.185   2.482  0.7288 -0.3096  3.1138
 6692SOL     OW31708   0.875   0.645  13.445 -0.0894  0.4899 -0.0695
 6692SOL    HW131709   0.897   0.619  13.356 -0.7938  2.1643 -0.7352
 6692SOL    HW231710   0.865   0.561  13.490  0.8684 -0.2165 -1.1864
 6693SOL     OW31711   4.104   2.585   2.805  0.1197 -0.8761  0.3215
 6693SOL    HW131712   4.187   2.553   2.839  0.7263 -0.1873 -0.5161
 6693SOL    HW231713   4.118   2.549   2.717 -0.3651  0.9223 -0.5030
 6694SOL     OW31714   4.409   0.592   4.225 -0.1587 -0.5038  0.0931
 6694SOL    HW131715   4.407   0.510   4.175 -1.7165 -0.8583  0.7494
 6694SOL    HW231716   4.395   0.658   4.156  0.9502  0.4982  0.8337
 6695SOL     OW31717   1.627   1.291  15.900 -0.3152  0.1301  0.0991
 6695SOL    HW131718   1.606   1.293  15.807 -0.0810  1.4478  0.0670
 6695SOL    HW231719   1.560   1.350  15.934 -2.1311 -2.2025  0.5934
 6696SOL     OW31720   1.698   2.285   8.112 -0.1206 -0.0956  0.4928
 6696SOL    HW131721   1.643   2.338   8.169 -0.1569 -0.4216  0.7582
 6696SOL    HW231722   1.636   2.218   8.084 -1.0555  0.6961  0.6655
 6697SOL     OW31723   2.055   1.005   0.978  0.3169  0.3249 -0.1337
 6697SOL    HW131724   2.041   0.965   0.892 -2.3265 -1.5948  1.2205
 6697SOL    HW231725   1.965   0.983   1.002  0.7665  0.1083  1.3407
 6698SOL     OW31726   4.026   4.650   3.383 -0.1029 -0.1074 -0.2798
 6698SOL    HW131727   4.111   4.674   3.348 -0.1499  0.0438 -0.2887
 6698SOL    HW231728   3.959   4.693   3.330  0.7535  0.7319 -0.6687
 6699SOL     OW31729   1.356   4.368   3.794  0.0159  0.1428  0.0176
 6699SOL    HW131730   1.411   4.353   3.870  0.3108 -1.0570 -0.4384
 6699SOL    HW231731   1.267   4.350   3.822  0.4976 -1.9346  0.1880
 6700SOL     OW31732   0.825   2.436   1.947  0.0835 -0.2914 -0.0363
 6700SOL    HW131733   0.831   2.353   1.899 -0.7467 -0.2154 -0.2787
 6700SOL    HW231734   0.909   2.475   1.922  1.1365 -1.2208  2.0837
 6701SOL     OW31735   3.400   3.820  17.754  0.0477  0.1977 -0.2917
 6701SOL    HW131736   3.342   3.809  17.678 -0.1140  1.8127 -0.4083
 6701SOL    HW231737   3.478   3.856  17.711  0.1139  0.3862 -0.0133
 6702SOL     OW31738   0.435   0.436  12.928  0.7627  0.1414 -0.7040
 6702SOL    HW131739   0.462   0.479  13.009 -0.6552  1.8449 -1.1575
 6702SOL    HW231740   0.376   0.371  12.966  0.8727  0.8934  0.7210
 6703SOL     OW31741   4.284   3.370   7.287 -0.1771 -0.1244 -0.7304
 6703SOL    HW131742   4.275   3.343   7.379 -1.3909  2.7742 -0.0145
 6703SOL    HW231743   4.373   3.402   7.294 -0.4663  0.7491 -1.1309
 6704SOL     OW31744   4.609   0.232   9.026 -0.2579  0.6294 -0.2780
 6704SOL    HW131745   4.579   0.152   8.983 -1.5242  0.9568 -0.0103
 6704SOL    HW231746   4.682   0.198   9.078  0.2732  2.4783  0.1759
 6705SOL     OW31747   2.251   1.217   2.799  0.2139  0.4924  0.5291
 6705SOL    HW131748   2.203   1.260   2.871 -1.5471 -1.4963  0.5447
 6705SOL    HW231749   2.328   1.273   2.811  0.4924  0.1340  0.4162
 6706SOL     OW31750   0.795   4.530   3.205 -0.0722  0.3220 -0.0725
 6706SOL    HW131751   0.717   4.482   3.232  0.8975 -0.9735  0.4357
 6706SOL    HW231752   0.855   4.457   3.192 -1.4075 -1.0870  1.7082
 6707SOL     OW31753   1.880   0.743   0.244  0.2262 -0.4261  0.6549
 6707SOL    HW131754   1.875   0.649   0.262 -1.9872 -0.6602 -1.2422
 6707SOL    HW231755   1.945   0.751   0.174 -4.5202  0.3855 -3.6985
 6708SOL     OW31756   3.256   3.683   8.550 -0.2430  0.4097  0.2646
 6708SOL    HW131757   3.285   3.600   8.587  0.2175 -1.1710 -3.5639
 6708SOL    HW231758   3.227   3.654   8.463 -1.1782  0.1129  0.6792
 6709SOL     OW31759   0.004   0.811   4.567  0.1748  0.1021 -0.2360
 6709SOL    HW131760   4.652   0.827   4.584  0.3015  1.4826 -0.8112
 6709SOL    HW231761   0.042   0.880   4.621  1.0925  0.7588 -1.7240
 6710SOL     OW31762   3.466   2.559   7.953 -0.5764 -0.4913 -0.2454
 6710SOL    HW131763   3.383   2.516   7.932 -0.6441 -0.0576 -0.8724
 6710SOL    HW231764   3.469   2.557   8.048 -0.6615  0.1938 -0.2299
 6711SOL     OW31765   0.498   4.288   1.611 -0.7139 -0.0044  0.3351
 6711SOL    HW131766   0.507   4.305   1.517 -1.0025 -0.9320  0.1406
 6711SOL    HW231767   0.457   4.372   1.632 -0.2696 -0.2807  2.3182
 6712SOL     OW31768   3.466   4.078  10.998 -0.0200 -0.0320 -0.2638
 6712SOL    HW131769   3.382   4.083  11.045  0.4504 -1.0907  0.6983
 6712SOL    HW231770   3.446   4.006  10.937 -0.6028  0.5233 -0.7350
 6713SOL     OW31771   3.590   2.540   0.084 -0.5018 -0.1787 -0.0055
 6713SOL    HW131772   3.625   2.503   0.003 -1.3387 -0.2985 -0.3103
 6713SOL    HW231773   3.668   2.538   0.139 -1.2201 -0.5383  1.0100
 6714SOL     OW31774   1.791   3.999   6.797 -0.1576  1.0530  0.4749
 6714SOL    HW131775   1.861   4.052   6.836 -1.1223  1.7523  1.2624
 6714SOL    HW231776   1.790   3.923   6.855  0.1633 -0.8680 -2.0677
 6715SOL     OW31777   4.267   3.909   6.543  0.0101  0.1839 -0.0296
 6715SOL    HW131778   4.203   3.968   6.503 -0.8192  0.4001  1.6239
 6715SOL    HW231779   4.221   3.886   6.623  0.0211  2.1167  0.5171
 6716SOL     OW31780   0.880   2.011   6.559 -0.0412  0.1480  0.1857
 6716SOL    HW131781   0.803   1.979   6.606  1.5906 -2.5043  1.0244
 6716SOL    HW231782   0.949   1.982   6.618  0.2003 -0.6171 -0.4705
 6717SOL     OW31783   3.635   4.121   3.225  0.5573 -0.3573 -0.2693
 6717SOL    HW131784   3.639   4.096   3.133 -1.4666  0.7591 -0.6700
 6717SOL    HW231785   3.569   4.189   3.210 -0.2584 -1.0802 -0.0004
 6718SOL     OW31786   3.424   4.287   9.838  0.0225 -0.4092 -0.5317
 6718SOL    HW131787   3.495   4.351   9.838 -0.5522  0.2182  0.9723
 6718SOL    HW231788   3.403   4.284   9.931  1.2604 -1.1127 -0.2743
 6719SOL     OW31789   0.844   3.018   9.445  0.7213 -0.3758 -0.0690
 6719SOL    HW131790   0.837   3.090   9.508 -1.7103 -1.5941  1.0490
 6719SOL    HW231791   0.758   3.023   9.403  1.2508 -0.9425 -1.2489
 6720SOL     OW31792   2.588   0.240  12.960  0.8460  0.6860 -0.1416
 6720SOL    HW131793   2.644   0.317  12.967  2.2275 -0.5947  3.0177
 6720SOL    HW231794   2.554   0.229  13.049  1.8752 -2.3024 -0.1463
 6721SOL     OW31795   4.404   0.748   4.650  1.0178 -0.6881 -0.1560
 6721SOL    HW131796   4.364   0.740   4.736 -1.0030  0.7975 -0.9472
 6721SOL    HW231797   4.418   0.656   4.630 -0.3251 -0.9256 -0.0233
 6722SOL     OW31798   3.969   0.411   5.002  0.2119  0.2951 -0.2709
 6722SOL    HW131799   4.018   0.407   4.920  1.5718 -0.8792  0.5868
 6722SOL    HW231800   4.035   0.366   5.056  0.0816  3.0418  2.1977
 6723SOL     OW31801   3.017   3.373   6.190  0.6497  0.0689  0.1107
 6723SOL    HW131802   3.072   3.305   6.228  1.8863 -0.1410 -2.1054
 6723SOL    HW231803   2.986   3.406   6.275  2.0338 -1.1560  1.0980
 6724SOL     OW31804   3.949   2.693   6.356 -0.0910  0.6360 -0.7151
 6724SOL    HW131805   3.948   2.690   6.451 -1.5775  1.6169 -0.7022
 6724SOL    HW231806   3.871   2.743   6.333 -1.6859 -0.8842  1.4902
 6725SOL     OW31807   4.262   0.244   8.308  0.6139  0.6840  0.8088
 6725SOL    HW131808   4.167   0.258   8.311  0.5646  0.7989 -1.0449
 6725SOL    HW231809   4.279   0.152   8.328 -2.0021 -0.2087 -1.0272
 6726SOL     OW31810   1.777   3.845  13.665 -0.2964  0.7771 -0.0978
 6726SOL    HW131811   1.830   3.924  13.652 -0.0230  0.6108  0.0046
 6726SOL    HW231812   1.846   3.784  13.692 -0.3377  1.4917  1.6249
 6727SOL     OW31813   1.092   0.697  11.706 -0.1287 -0.1080 -0.1446
 6727SOL    HW131814   1.123   0.618  11.751 -1.4851 -1.0363 -0.8676
 6727SOL    HW231815   1.159   0.713  11.639 -0.8985  1.6529 -0.4785
 6728SOL     OW31816   0.507   1.004  11.144  0.1032 -0.5760 -0.2434
 6728SOL    HW131817   0.584   1.023  11.198  0.1436  0.6737 -0.7245
 6728SOL    HW231818   0.488   0.923  11.191  1.5804 -1.8395 -1.8000
 6729SOL     OW31819   0.271   0.309   9.114  0.0119  0.0739  0.3088
 6729SOL    HW131820   0.307   0.323   9.026  0.6083 -0.7015  0.4330
 6729SOL    HW231821   0.217   0.388   9.108  0.2915  0.0899 -2.0680
 6730SOL     OW31822   2.758   2.322   8.234  0.0418 -0.1457  0.0720
 6730SOL    HW131823   2.704   2.283   8.302 -0.4144  0.9169  0.3176
 6730SOL    HW231824   2.759   2.409   8.275  0.1766  0.2098 -0.6917
 6731SOL     OW31825   4.313   4.066   4.476  0.4597 -0.4473  0.3553
 6731SOL    HW131826   4.302   4.019   4.559 -0.3217  0.1852  0.6082
 6731SOL    HW231827   4.409   4.063   4.471  0.5422  0.4813  1.3430
 6732SOL     OW31828   3.718   2.775   1.502  0.2387  0.3608  0.3640
 6732SOL    HW131829   3.770   2.714   1.554 -0.1301 -0.9111 -0.7981
 6732SOL    HW231830   3.634   2.778   1.548 -0.4229  2.1849 -0.9430
 6733SOL     OW31831   3.625   1.157   5.800  0.5606  0.6817 -0.5412
 6733SOL    HW131832   3.562   1.189   5.735 -1.6442  1.3341  1.9453
 6733SOL    HW231833   3.689   1.110   5.746 -0.1188  1.0969 -1.7015
 6734SOL     OW31834   4.070   0.768   4.497 -0.2018 -0.0171 -0.3884
 6734SOL    HW131835   4.123   0.691   4.480 -0.1721 -0.1867  0.4736
 6734SOL    HW231836   3.986   0.756   4.452 -0.9357 -0.6311  1.1491
 6735SOL     OW31837   3.928   2.740  13.039 -0.0332 -0.2672 -0.5584
 6735SOL    HW131838   3.898   2.828  13.020  0.5068 -0.2560 -1.3197
 6735SOL    HW231839   3.840   2.703  13.049 -0.9842  1.9352 -0.8702
 6736SOL     OW31840   1.420   1.270   1.656 -0.0441  0.4528  0.5877
 6736SOL    HW131841   1.384   1.255   1.568  1.2774  0.2108  0.0934
 6736SOL    HW231842   1.356   1.218   1.706 -1.1037  2.0267  0.8910
 6737SOL     OW31843   4.048   3.434  15.624  0.0429 -0.2720  0.5163
 6737SOL    HW131844   3.968   3.467  15.583  0.6624 -0.4403 -0.8122
 6737SOL    HW231845   4.098   3.511  15.650  0.4801  0.0797 -1.3840
 6738SOL     OW31846   3.242   1.049   8.474 -0.2815  0.0934 -0.3760
 6738SOL    HW131847   3.245   0.955   8.457 -0.1362  0.0684 -0.2192
 6738SOL    HW231848   3.307   1.075   8.408 -0.5471  2.9488  0.4943
 6739SOL     OW31849   3.112   1.129   6.190 -0.2501 -0.2288  0.5009
 6739SOL    HW131850   3.124   1.059   6.254 -0.7170 -1.0147 -0.2659
 6739SOL    HW231851   3.065   1.079   6.123  1.7083 -1.1223 -0.2079
 6740SOL     OW31852   2.598   1.223   6.309  0.1748 -0.7193  0.3617
 6740SOL    HW131853   2.648   1.184   6.238  1.9075  1.4351  0.3852
 6740SOL    HW231854   2.654   1.225   6.386  1.6000 -1.1686 -0.6753
 6741SOL     OW31855   1.937   2.395  17.194  0.2490 -0.3150 -0.4152
 6741SOL    HW131856   1.845   2.380  17.219  1.2491 -2.4065  1.9588
 6741SOL    HW231857   1.924   2.455  17.121 -2.7298 -0.3395  0.0634
 6742SOL     OW31858   3.773   0.352   6.029 -0.1919  0.3145  0.4288
 6742SOL    HW131859   3.861   0.331   5.998 -1.5157 -2.9977 -1.1410
 6742SOL    HW231860   3.721   0.286   5.982  0.9894 -0.3500  0.0520
 6743SOL     OW31861   1.539   3.471   9.716  0.2426 -0.4311 -0.2832
 6743SOL    HW131862   1.558   3.564   9.711 -0.4618 -0.4328 -2.6182
 6743SOL    HW231863   1.583   3.434   9.639 -0.4431  1.5290 -1.5950
 6744SOL     OW31864   3.406   2.049   7.580  0.0293 -0.5551 -0.1476
 6744SOL    HW131865   3.459   2.122   7.612  2.3402 -2.8070  1.1246
 6744SOL    HW231866   3.322   2.068   7.622  0.3935  1.6151 -0.3774
 6745SOL     OW31867   1.377   1.194  16.096 -0.3387 -0.2788 -0.1816
 6745SOL    HW131868   1.395   1.268  16.038  1.4559 -0.0904  0.6051
 6745SOL    HW231869   1.285   1.175  16.079 -0.1778 -0.1228 -1.2267
 6746SOL     OW31870   1.072   0.571   8.194 -0.2048 -1.1023 -0.0617
 6746SOL    HW131871   1.139   0.567   8.126 -0.5460 -0.3818 -0.4431
 6746SOL    HW231872   1.047   0.478   8.199 -1.8012 -0.6840 -0.2882
 6747SOL     OW31873   3.793   2.845   5.144  0.1806  0.1602  0.0309
 6747SOL    HW131874   3.827   2.891   5.067 -0.5802 -1.7608 -1.4497
 6747SOL    HW231875   3.764   2.760   5.112 -0.0616 -0.5775  2.2026
 6748SOL     OW31876   1.657   0.798  12.410 -0.1256 -0.0061  0.1164
 6748SOL    HW131877   1.617   0.885  12.401  0.2095  0.1672  0.2829
 6748SOL    HW231878   1.743   0.813  12.370 -0.5449 -0.1960 -0.8545
 6749SOL     OW31879   1.464   3.295   5.991 -0.2943 -0.2096 -0.4443
 6749SOL    HW131880   1.440   3.305   6.083  3.7451 -2.6325  0.8828
 6749SOL    HW231881   1.394   3.343   5.947  1.0774  1.9141 -0.2852
 6750SOL     OW31882   2.682   0.835  17.452 -0.0173 -0.4492 -0.2342
 6750SOL    HW131883   2.638   0.900  17.398  0.4127  1.2157  1.3974
 6750SOL    HW231884   2.732   0.787  17.386 -2.2437 -1.7749 -0.9303
 6751SOL     OW31885   1.431   4.024  10.106  0.3283  0.0970 -0.0731
 6751SOL    HW131886   1.498   3.964  10.073 -0.2347  0.1226 -1.2817
 6751SOL    HW231887   1.435   4.082  10.030  3.4545  1.3042  1.0205
 6752SOL     OW31888   1.709   1.837   8.134 -0.1041  0.1763  0.2807
 6752SOL    HW131889   1.792   1.789   8.129 -1.1316 -1.8318  2.2233
 6752SOL    HW231890   1.741   1.920   8.168  2.4271  0.5994 -3.1679
 6753SOL     OW31891   0.380   3.811   8.659  0.4111  0.2335  0.0904
 6753SOL    HW131892   0.362   3.757   8.736 -0.9020  1.3603  0.5666
 6753SOL    HW231893   0.380   3.898   8.698 -1.3882  0.5359 -0.6276
 6754SOL     OW31894   2.323   3.843  10.304 -0.7762  0.4237  0.6196
 6754SOL    HW131895   2.285   3.904  10.241  0.4690  1.0466  0.4796
 6754SOL    HW231896   2.362   3.775  10.248 -2.2168 -1.5672  2.0176
 6755SOL     OW31897   0.333   4.602   1.360 -0.1438  0.3573 -0.3496
 6755SOL    HW131898   0.345   4.546   1.436 -1.3189  0.7679  0.1403
 6755SOL    HW231899   0.243   4.589   1.330  0.7488  1.0337 -3.3087
 6756SOL     OW31900   2.332   3.371   3.460  0.1981 -0.8092  0.0483
 6756SOL    HW131901   2.244   3.369   3.422 -0.7195  1.5699  2.0625
 6756SOL    HW231902   2.323   3.459   3.496  1.2785  0.3884 -2.6155
 6757SOL     OW31903   4.530   3.218   6.824 -0.2232 -0.6356 -0.3532
 6757SOL    HW131904   4.443   3.190   6.793  0.2186  0.9788 -3.1010
 6757SOL    HW231905   4.529   3.294   6.765  0.4123  1.6353  2.5725
 6758SOL     OW31906   2.423   3.906   5.595 -0.1431  0.1724  0.3525
 6758SOL    HW131907   2.461   3.824   5.625 -0.5906  0.0280  0.5274
 6758SOL    HW231908   2.422   3.883   5.502  1.2889  2.3893 -0.2071
 6759SOL     OW31909   1.550   4.154   6.073 -0.0593 -0.2980  0.4346
 6759SOL    HW131910   1.510   4.105   6.146  0.3145  1.1001  1.5616
 6759SOL    HW231911   1.549   4.088   6.003  0.0534 -1.5491  1.6059
 6760SOL     OW31912   4.659   4.486   3.922 -0.3468 -0.0657  0.4689
 6760SOL    HW131913   4.738   4.446   3.959 -0.6718 -1.8973 -0.8240
 6760SOL    HW231914   4.629   4.414   3.867  2.7507 -1.2485  0.2882
 6761SOL     OW31915   2.858   3.824   2.467  0.4193  0.5949  0.4682
 6761SOL    HW131916   2.919   3.835   2.540  1.9752  1.6317 -0.9941
 6761SOL    HW231917   2.872   3.731   2.446 -2.3930  0.7650 -2.0986
 6762SOL     OW31918   1.593   3.145   7.616 -0.2772 -0.0876 -0.3366
 6762SOL    HW131919   1.616   3.078   7.680 -2.9124 -0.2372  0.4207
 6762SOL    HW231920   1.502   3.157   7.642 -0.2977  1.0367 -0.9249
 6763SOL     OW31921   1.971   0.724   4.154 -0.2525 -0.0882 -0.1633
 6763SOL    HW131922   1.976   0.679   4.238 -2.0182 -2.4590 -1.2960
 6763SOL    HW231923   1.918   0.802   4.167 -1.1914 -0.7714  0.1375
 6764SOL     OW31924   3.370   4.429   8.920  0.7660  0.4102  0.4343
 6764SOL    HW131925   3.404   4.492   8.983  0.8233 -0.2446  1.0525
 6764SOL    HW231926   3.355   4.355   8.978 -2.5795 -0.7728 -1.9712
 6765SOL     OW31927   4.737   2.548   9.460  0.5276 -0.5363  0.6716
 6765SOL    HW131928   0.030   2.507   9.382 -0.7515 -0.1122 -0.1169
 6765SOL    HW231929   0.043   2.631   9.462 -1.1073  0.4855 -3.1721
 6766SOL     OW31930   2.836   4.135   6.567  0.3459  0.4794  0.5567
 6766SOL    HW131931   2.897   4.200   6.530  0.0843 -0.1530 -0.9718
 6766SOL    HW231932   2.880   4.050   6.558  1.8452  1.5019 -2.0255
 6767SOL     OW31933   3.695   1.291   7.099 -0.7812  0.6695  0.0551
 6767SOL    HW131934   3.719   1.357   7.033 -0.9357  0.5915 -0.0794
 6767SOL    HW231935   3.600   1.283   7.095 -0.3567 -3.9361 -0.4958
 6768SOL     OW31936   0.928   2.337   8.907  0.0767  0.2555 -0.5441
 6768SOL    HW131937   0.881   2.254   8.918  1.9496 -0.5738  1.2516
 6768SOL    HW231938   0.922   2.369   8.997 -1.3729 -0.9139 -0.2222
 6769SOL     OW31939   0.093   4.114   9.986 -0.1785  0.2957  0.0965
 6769SOL    HW131940   0.016   4.132  10.041 -0.7795 -1.9892 -0.0131
 6769SOL    HW231941   0.133   4.201   9.982 -2.0713  1.1801 -0.1817
 6770SOL     OW31942   3.614   3.030   4.697 -0.5259 -0.0716 -0.1832
 6770SOL    HW131943   3.680   3.098   4.706  0.3026 -0.8094 -0.6202
 6770SOL    HW231944   3.572   3.019   4.783  1.0178  0.2473  0.6015
 6771SOL     OW31945   2.905   0.262  10.064  0.6459 -0.6393  0.2678
 6771SOL    HW131946   2.898   0.347  10.022 -2.1401 -0.0299  1.8771
 6771SOL    HW231947   2.946   0.218   9.990  1.1072  0.9400 -0.3912
 6772SOL     OW31948   0.450   2.804   6.160 -0.3255 -0.1206 -0.6561
 6772SOL    HW131949   0.408   2.718   6.166  1.4700 -1.0380 -1.2649
 6772SOL    HW231950   0.397   2.855   6.221  0.3852  1.1986 -1.1530
 6773SOL     OW31951   0.340   0.058   9.559 -0.0253 -0.2308 -0.7062
 6773SOL    HW131952   0.326   0.131   9.498 -0.6715  1.0658  0.9928
 6773SOL    HW231953   0.286   0.087   9.633  0.9167 -0.6633  0.1418
 6774SOL     OW31954   1.801   1.870   6.970 -0.0263 -0.1097  0.1841
 6774SOL    HW131955   1.721   1.818   6.976  0.3366 -0.7139 -0.1316
 6774SOL    HW231956   1.811   1.890   7.063  0.2765  1.1701 -0.1162
 6775SOL     OW31957   1.902   2.006  16.475  0.0035 -0.1383 -0.5117
 6775SOL    HW131958   1.959   2.025  16.550 -1.6578 -1.2574  1.0556
 6775SOL    HW231959   1.830   1.959  16.516 -0.7279  0.2031 -1.4253
 6776SOL     OW31960   0.401   2.650  15.299  0.1140  0.7133  0.1483
 6776SOL    HW131961   0.362   2.680  15.216  2.1429  1.6018 -0.4786
 6776SOL    HW231962   0.478   2.706  15.297  0.6247  0.0307  1.3160
 6777SOL     OW31963   0.829   1.989   7.868  0.7338 -0.7009  0.5942
 6777SOL    HW131964   0.811   1.962   7.958  0.8816  0.6531  1.0356
 6777SOL    HW231965   0.824   1.904   7.824  0.3526  0.4318 -1.5248
 6778SOL     OW31966   4.242   1.598   6.703  0.4361 -0.0767  0.3730
 6778SOL    HW131967   4.182   1.579   6.774 -1.0824 -0.0998 -0.9343
 6778SOL    HW231968   4.188   1.627   6.630  4.3214  1.0944 -2.0688
 6779SOL     OW31969   4.181   1.825   4.361  0.4003 -0.1022 -0.0648
 6779SOL    HW131970   4.145   1.892   4.302  0.3032 -1.2533 -1.3224
 6779SOL    HW231971   4.249   1.875   4.405  0.9053 -1.9069  1.2187
 6780SOL     OW31972   0.330   1.699   1.509 -0.0445  0.2013 -0.0770
 6780SOL    HW131973   0.410   1.723   1.555  0.1257  1.6685 -1.0998
 6780SOL    HW231974   0.355   1.710   1.417 -2.3609  0.9332 -0.6370
 6781SOL     OW31975   3.793   1.544   2.194  0.5202  0.1795 -0.4268
 6781SOL    HW131976   3.866   1.549   2.133  0.3768  2.5029 -0.4066
 6781SOL    HW231977   3.782   1.632   2.231 -1.1603  0.5311 -1.7957
 6782SOL     OW31978   2.780   2.508   5.375  0.0905 -0.3634  0.0589
 6782SOL    HW131979   2.752   2.599   5.364  0.7828 -0.3082 -1.3530
 6782SOL    HW231980   2.716   2.474   5.436  0.6355  1.0134  1.4037
 6783SOL     OW31981   1.745   0.372   5.497  0.1730  0.3681  0.0810
 6783SOL    HW131982   1.762   0.465   5.512  0.6245 -0.1319  2.7143
 6783SOL    HW231983   1.831   0.340   5.524 -0.3089  0.0796  1.2822
 6784SOL     OW31984   3.206   3.703   4.923 -0.2338 -0.4042 -0.4562
 6784SOL    HW131985   3.195   3.626   4.979  1.9652 -0.3647  0.0079
 6784SOL    HW231986   3.126   3.707   4.871  1.3588 -0.3241 -2.8927
 6785SOL     OW31987   1.663   1.942   2.825  0.3203 -1.0826  0.3506
 6785SOL    HW131988   1.635   1.863   2.780 -4.0040  0.2433  0.7221
 6785SOL    HW231989   1.618   1.946   2.909 -0.4177 -1.1372 -0.0366
 6786SOL     OW31990   3.320   1.831   3.246 -0.3134  0.1105 -0.1702
 6786SOL    HW131991   3.230   1.864   3.253  0.1158  1.0019  1.0627
 6786SOL    HW231992   3.343   1.848   3.337 -1.5596  2.3685 -0.2756
 6787SOL     OW31993   0.803   0.322   9.997  0.1892  0.2478 -0.2830
 6787SOL    HW131994   0.810   0.284  10.084 -0.8737  0.4430 -0.1162
 6787SOL    HW231995   0.894   0.320   9.966  0.8362  0.0079  1.6182
 6788SOL     OW31996   1.610   3.130   3.497  0.0388 -0.1917  0.1868
 6788SOL    HW131997   1.555   3.206   3.519  0.9637  1.2339 -2.5164
 6788SOL    HW231998   1.570   3.057   3.545 -0.9638 -0.6343 -1.3014
 6789SOL     OW31999   2.826   0.808  10.053 -0.3566 -0.0289 -0.0338
 6789SOL    HW132000   2.887   0.875  10.082  0.9447 -1.2757  0.1296
 6789SOL    HW232001   2.840   0.804   9.959  1.8253  0.6529  0.2626
 6790SOL     OW32002   0.913   2.687  13.059 -0.2273  0.2947 -0.3081
 6790SOL    HW132003   0.843   2.644  13.108 -0.4828 -2.6027 -3.2176
 6790SOL    HW232004   0.966   2.710  13.135 -0.4424 -0.4966  0.0796
 6791SOL     OW32005   1.185   1.530  14.955  0.4754 -0.8855  0.2990
 6791SOL    HW132006   1.183   1.626  14.957  0.5513 -0.9477  3.2232
 6791SOL    HW232007   1.090   1.521  14.968  0.4741  0.0084  0.8676
 6792SOL     OW32008   0.889   1.317   8.914 -0.1769  0.1493  0.2399
 6792SOL    HW132009   0.920   1.381   8.978  1.3716  2.6007 -2.9433
 6792SOL    HW232010   0.795   1.334   8.913  0.0208  1.4996  4.2057
 6793SOL     OW32011   3.005   4.640   8.083  0.2891 -0.0214  0.6912
 6793SOL    HW132012   2.985   4.576   8.152 -0.7733  0.8200  1.1712
 6793SOL    HW232013   2.980   4.601   7.999  2.2801 -1.1455  0.6303
 6794SOL     OW32014   0.241   3.502   4.914 -0.1547  0.5684 -0.6949
 6794SOL    HW132015   0.185   3.443   4.964  0.1486  0.9430  0.0975
 6794SOL    HW232016   0.268   3.567   4.980 -0.9847  0.7903 -0.5711
 6795SOL     OW32017   0.032   0.138   8.033  0.2812 -0.3982 -0.0725
 6795SOL    HW132018   4.732   0.143   7.947 -2.1123  0.0391  1.1080
 6795SOL    HW232019   4.738   0.222   8.062  1.6298 -0.3631  1.4827
 6796SOL     OW32020   1.213   2.425   5.538 -0.3100  0.1931  0.1845
 6796SOL    HW132021   1.133   2.373   5.542 -1.4596  1.8721 -0.6342
 6796SOL    HW232022   1.242   2.386   5.455 -2.3241 -3.9246  1.4251
 6797SOL     OW32023   3.790   2.336   1.880  0.5229 -0.0749  0.5144
 6797SOL    HW132024   3.744   2.334   1.796  2.0485  3.3705 -0.3782
 6797SOL    HW232025   3.745   2.261   1.919  0.2151 -0.6300 -0.9372
 6798SOL     OW32026   2.297   2.773  13.008 -0.2633 -0.1551  0.2963
 6798SOL    HW132027   2.381   2.817  12.996 -0.7793  1.0743  1.1813
 6798SOL    HW232028   2.275   2.739  12.921  2.6600 -1.1661 -0.0465
 6799SOL     OW32029   0.621   2.835   3.883 -0.1680 -0.3343  0.1034
 6799SOL    HW132030   0.658   2.764   3.934 -1.5067 -0.7916  0.4475
 6799SOL    HW232031   0.694   2.892   3.858 -0.9774  1.3291  1.5771
 6800SOL     OW32032   2.073   2.607   7.971  0.4644 -0.5553 -0.2122
 6800SOL    HW132033   2.013   2.648   7.908 -0.3175  0.3459  1.1198
 6800SOL    HW232034   2.026   2.615   8.054  0.4457 -0.4488 -0.2330
 6801SOL     OW32035   1.855   3.587   6.520 -0.0892  0.2910 -0.5666
 6801SOL    HW132036   1.882   3.665   6.471  0.6192  0.1191 -0.4498
 6801SOL    HW232037   1.886   3.520   6.459 -2.8083 -0.1337 -1.4778
 6802SOL     OW32038   0.679   2.078  10.587 -0.7359 -0.0763  0.1879
 6802SOL    HW132039   0.639   2.164  10.574 -0.3052  0.1377  0.2919
 6802SOL    HW232040   0.630   2.054  10.666 -0.2413  0.6815  0.7297
 6803SOL     OW32041   0.886   4.456   9.285  0.0212 -0.2996 -0.3855
 6803SOL    HW132042   0.795   4.468   9.258 -0.3193 -1.5389  0.2184
 6803SOL    HW232043   0.871   4.393   9.356  1.7209 -0.3346 -0.0629
 6804SOL     OW32044   0.766   0.095   7.713  0.1380 -0.4199 -0.2598
 6804SOL    HW132045   0.675   0.109   7.739  0.8981  0.2824  2.0391
 6804SOL    HW232046   0.776   0.004   7.741  1.4145 -0.5093 -0.9867
 6805SOL     OW32047   1.453   4.162   3.332  0.3806 -0.2376 -0.1857
 6805SOL    HW132048   1.529   4.204   3.291 -1.1042  1.6064 -1.0797
 6805SOL    HW232049   1.476   4.199   3.418 -0.8728  0.2591 -0.0711
 6806SOL     OW32050   3.797   3.700   5.723  0.1076  0.3168 -0.6282
 6806SOL    HW132051   3.717   3.682   5.772 -0.4297  0.8823 -1.3108
 6806SOL    HW232052   3.823   3.608   5.717  0.1016  0.3880 -1.6480
 6807SOL     OW32053   2.837   4.108   5.707  0.6568 -0.3408  0.3756
 6807SOL    HW132054   2.838   4.181   5.770 -0.1357  0.5150 -0.6007
 6807SOL    HW232055   2.768   4.057   5.749 -0.6965 -1.2340 -2.9570
 6808SOL     OW32056   0.354   2.364   3.630  0.2921 -0.3492 -0.1766
 6808SOL    HW132057   0.373   2.456   3.647 -1.6024  0.2392 -1.2278
 6808SOL    HW232058   0.383   2.322   3.711 -0.5166  1.3342  0.9812
 6809SOL     OW32059   0.599   2.376   9.527  0.1455 -0.1359 -0.0246
 6809SOL    HW132060   0.597   2.363   9.622  3.4882 -0.7789 -0.0606
 6809SOL    HW232061   0.539   2.448   9.510  1.7534  0.7068 -2.1360
 6810SOL     OW32062   3.254   0.004   5.416  0.0056 -0.1815  0.4044
 6810SOL    HW132063   3.315   4.699   5.474 -0.6589 -0.6666  0.7123
 6810SOL    HW232064   3.257   0.089   5.460  0.3379  0.0511 -0.0760
 6811SOL     OW32065   2.723   1.523   1.379 -0.1497  0.2508  0.0241
 6811SOL    HW132066   2.682   1.595   1.331 -0.2427  1.6670  2.2208
 6811SOL    HW232067   2.653   1.476   1.423 -1.6387  1.3049 -1.2191
 6812SOL     OW32068   3.048   1.736   6.963  0.5727 -0.6783 -0.1356
 6812SOL    HW132069   3.003   1.688   6.894 -1.9256  1.3613  0.1131
 6812SOL    HW232070   3.036   1.681   7.041  2.1117  0.6456  1.0392
 6813SOL     OW32071   0.033   2.344   8.088  0.1608 -0.3481  0.7642
 6813SOL    HW132072   0.116   2.388   8.108  0.3835 -1.1167  1.5562
 6813SOL    HW232073   0.046   2.256   8.122 -1.6422 -1.1874 -0.7481
 6814SOL     OW32074   3.912   3.881   6.612 -0.1549 -0.2873 -0.3545
 6814SOL    HW132075   3.939   3.799   6.571  0.2744 -1.1782  1.7258
 6814SOL    HW232076   3.912   3.842   6.699  0.6987 -1.1811 -0.7533
 6815SOL     OW32077   3.645   2.170   8.730  0.1038  0.0687 -0.7012
 6815SOL    HW132078   3.729   2.201   8.764 -1.7330  1.8828  2.2032
 6815SOL    HW232079   3.626   2.089   8.779 -1.6561  0.8348 -0.1048
 6816SOL     OW32080   3.889   1.553   6.686  0.0594  0.2429  0.2481
 6816SOL    HW132081   3.865   1.518   6.600  0.6670  3.0778 -1.0814
 6816SOL    HW232082   3.838   1.633   6.700 -0.9775 -0.7237  2.0516
 6817SOL     OW32083   3.268   2.430   7.777 -0.4033  0.0798 -0.1784
 6817SOL    HW132084   3.254   2.338   7.754 -0.7032  0.2604 -0.7185
 6817SOL    HW232085   3.180   2.463   7.794 -0.9452 -0.9672 -0.9417
 6818SOL     OW32086   1.972   2.812   5.573 -0.0845  0.0899 -0.3854
 6818SOL    HW132087   2.007   2.742   5.627 -0.7385 -0.3456 -0.5256
 6818SOL    HW232088   1.973   2.883   5.637 -0.8641 -1.1888  1.0463
 6819SOL     OW32089   4.619   4.181   9.004  0.6022 -0.2257  0.7755
 6819SOL    HW132090   4.646   4.221   9.087 -1.3395  0.9019  0.8673
 6819SOL    HW232091   4.587   4.099   9.040 -1.9266  0.5467  0.2560
 6820SOL     OW32092   0.024   1.756  11.055  0.5267 -0.4890 -0.8292
 6820SOL    HW132093   0.005   1.842  11.092  1.1519 -0.6801 -0.0735
 6820SOL    HW232094   0.011   1.703  11.134  0.4828  1.3746  0.4083
 6821SOL     OW32095   1.655   2.142   2.474  0.5400 -0.2483  0.0618
 6821SOL    HW132096   1.706   2.062   2.458 -0.0682 -0.5480 -0.3520
 6821SOL    HW232097   1.604   2.154   2.394 -1.6771 -1.5807  1.2796
 6822SOL     OW32098   2.043   1.254   8.495 -0.0183  0.5963 -0.3805
 6822SOL    HW132099   1.994   1.197   8.555  0.6862  1.5404  1.0801
 6822SOL    HW232100   2.124   1.207   8.479 -0.1057  0.1338  0.5695
 6823SOL     OW32101   4.579   2.915   0.764 -0.2368  0.5607 -0.1187
 6823SOL    HW132102   4.609   2.956   0.845  1.9494  0.4038 -0.8465
 6823SOL    HW232103   4.563   2.822   0.779 -0.9833  0.7300  0.1510
 6824SOL     OW32104   2.295   4.725   6.912 -0.1031  0.0740 -0.5944
 6824SOL    HW132105   2.320   0.072   6.884  0.5078  0.7491  2.0721
 6824SOL    HW232106   2.259   4.736   7.000  0.6179  1.3432 -0.4626
 6825SOL     OW32107   2.051   1.068   2.337 -0.5195 -0.6069  1.2016
 6825SOL    HW132108   2.099   1.056   2.419 -1.7561  0.5754  2.1142
 6825SOL    HW232109   1.965   1.036   2.364 -0.3585 -1.7587  0.3265
 6826SOL     OW32110   2.737   0.457   5.153 -0.3986 -0.7022 -0.1156
 6826SOL    HW132111   2.704   0.530   5.101  2.7309  1.2798  0.6603
 6826SOL    HW232112   2.717   0.381   5.099  0.0568 -2.2403  1.9066
 6827SOL     OW32113   1.329   3.375  16.505  0.1761 -0.1230 -0.1348
 6827SOL    HW132114   1.362   3.351  16.418  1.5593  0.5724  0.2029
 6827SOL    HW232115   1.272   3.448  16.485  2.2751  2.0511  1.9015
 6828SOL     OW32116   3.285   3.263   3.186 -0.4301  0.7187  0.7281
 6828SOL    HW132117   3.379   3.258   3.203 -0.7279  0.4497  2.2498
 6828SOL    HW232118   3.280   3.185   3.130 -2.2718  0.8536  0.7101
 6829SOL     OW32119   0.065   1.017   2.919 -0.2019  0.2586 -0.2216
 6829SOL    HW132120   0.139   0.966   2.950 -0.6178  0.9070  1.8045
 6829SOL    HW232121   0.094   1.107   2.931 -0.2943  0.4010 -1.0667
 6830SOL     OW32122   0.803   1.657   1.980 -0.0702  0.1054  0.5991
 6830SOL    HW132123   0.854   1.688   2.054 -0.7323 -0.1915  1.1861
 6830SOL    HW232124   0.796   1.739   1.932 -0.5470  0.1542  0.7529
 6831SOL     OW32125   3.476   3.305   2.476 -0.1839  0.2185 -0.0264
 6831SOL    HW132126   3.436   3.231   2.430  1.0805  0.1687 -1.0584
 6831SOL    HW232127   3.561   3.266   2.497 -0.5068 -0.5889 -0.2048
 6832SOL     OW32128   0.679   1.098   2.904 -0.0788 -0.1323 -0.3986
 6832SOL    HW132129   0.728   1.048   2.969 -1.0411 -0.5596 -0.0124
 6832SOL    HW232130   0.685   1.189   2.933 -1.5531 -0.8996  2.3157
 6833SOL     OW32131   0.534   3.749   2.778 -0.1002 -0.0117  0.0588
 6833SOL    HW132132   0.510   3.826   2.830 -2.9313 -1.9698  1.6442
 6833SOL    HW232133   0.621   3.730   2.815 -0.8413  1.9493  2.8023
 6834SOL     OW32134   0.763   3.305   3.309  0.0328 -0.1883 -0.4399
 6834SOL    HW132135   0.758   3.272   3.219 -0.3549  1.9527 -1.2012
 6834SOL    HW232136   0.844   3.262   3.337 -0.7779 -1.4297  0.0087
 6835SOL     OW32137   3.895   4.028   2.306 -0.1312  0.0118 -0.0905
 6835SOL    HW132138   3.830   4.069   2.248  0.0203  0.1796 -0.1404
 6835SOL    HW232139   3.864   3.937   2.308  2.3810 -0.8450 -0.7140
 6836SOL     OW32140   2.398   3.118   3.688 -0.3187 -0.1630 -0.2959
 6836SOL    HW132141   2.373   3.086   3.602 -1.6913  0.4806 -0.1299
 6836SOL    HW232142   2.372   3.041   3.739  2.0775 -1.0759 -0.4796
 6837SOL     OW32143   0.328   3.877   4.246  0.1807 -1.0864  0.0829
 6837SOL    HW132144   0.395   3.857   4.182  2.5218 -2.3208  2.8944
 6837SOL    HW232145   0.368   3.829   4.319 -0.4915 -1.5298  0.1601
 6838SOL     OW32146   3.893   3.531  17.493  0.4734  0.3780  0.5124
 6838SOL    HW132147   3.798   3.525  17.492  0.4366  0.9645 -0.2530
 6838SOL    HW232148   3.914   3.442  17.465 -2.5479  0.0195 -0.6092
 6839SOL     OW32149   0.813   1.405  10.352  0.0574  0.7663 -0.1336
 6839SOL    HW132150   0.877   1.463  10.393  0.2506 -0.1364  0.8504
 6839SOL    HW232151   0.860   1.322  10.357  0.3254  0.9427  0.2987
 6840SOL     OW32152   0.507   2.837   4.136  0.6772 -0.3197  0.1471
 6840SOL    HW132153   0.566   2.763   4.150  0.6453  0.0518  2.1819
 6840SOL    HW232154   0.547   2.868   4.054 -1.1417 -2.0171 -1.3751
 6841SOL     OW32155   3.531   4.173  14.214  0.2036  0.1542 -0.2103
 6841SOL    HW132156   3.546   4.101  14.276  1.1499 -0.7315 -1.4574
 6841SOL    HW232157   3.595   4.237  14.244  0.4535 -0.6215  0.8946
 6842SOL     OW32158   4.426   4.641   5.961  0.2174 -0.0060  0.0278
 6842SOL    HW132159   4.460   4.551   5.954 -0.1533 -0.1596  0.1947
 6842SOL    HW232160   4.487   4.673   6.027  0.4006 -1.2733  0.4833
 6843SOL     OW32161   2.647   0.862  16.309 -0.0392  0.3716 -0.0637
 6843SOL    HW132162   2.713   0.925  16.280  1.4013 -2.5342 -2.9533
 6843SOL    HW232163   2.654   0.787  16.252  0.4203  0.9674 -0.7852
 6844SOL     OW32164   1.966   0.192  15.111  0.2392 -0.1180  0.2255
 6844SOL    HW132165   1.936   0.259  15.049  1.1367  0.4013  0.3559
 6844SOL    HW232166   2.054   0.173  15.078 -0.1076 -0.6492 -0.3989
 6845SOL     OW32167   3.977   4.470   6.773  0.4446  0.3290  0.2217
 6845SOL    HW132168   3.928   4.510   6.700 -1.3456  0.3018  1.4095
 6845SOL    HW232169   3.971   4.377   6.752 -0.7466  0.5882 -0.6184
 6846SOL     OW32170   2.073   0.609   7.476  0.6666  0.5258  0.0604
 6846SOL    HW132171   2.160   0.580   7.506  0.0172 -1.2946  0.1723
 6846SOL    HW232172   2.024   0.573   7.550  1.3832  1.0240  0.7738
 6847SOL     OW32173   4.254   3.634  11.343  0.1404  0.2550 -0.4858
 6847SOL    HW132174   4.325   3.572  11.361  0.0713  0.3085 -0.0445
 6847SOL    HW232175   4.280   3.714  11.389  0.3351 -0.2621  0.3022
 6848SOL     OW32176   0.925   1.309   9.312 -0.0894 -0.2925 -0.0211
 6848SOL    HW132177   0.982   1.372   9.357 -0.4135  0.5768 -0.8165
 6848SOL    HW232178   0.845   1.361   9.302 -0.7164 -1.2767 -0.0791
 6849SOL     OW32179   2.225   3.545   9.724  0.2727 -0.0542 -0.2471
 6849SOL    HW132180   2.302   3.532   9.669  0.5790  2.5282 -0.4284
 6849SOL    HW232181   2.239   3.493   9.803 -0.1941 -1.2211 -0.9244
 6850SOL     OW32182   3.877   3.002   4.366 -0.4633 -0.3504  0.2270
 6850SOL    HW132183   3.786   3.000   4.395 -0.4373  1.5129  0.4776
 6850SOL    HW232184   3.921   3.042   4.442 -0.2425 -0.8799  0.3802
 6851SOL     OW32185   3.236   0.262   5.550 -0.9005  0.4023 -0.6816
 6851SOL    HW132186   3.271   0.351   5.544 -1.4551  0.5131 -2.5278
 6851SOL    HW232187   3.165   0.268   5.613 -0.0764  1.1784  0.1745
 6852SOL     OW32188   2.877   0.195   3.025 -0.6892  0.0277  0.1743
 6852SOL    HW132189   2.805   0.191   3.088  2.4327  0.1988  3.7651
 6852SOL    HW232190   2.904   0.105   3.043  0.5042  0.7705  2.1503
 6853SOL     OW32191   0.764   2.815   6.005  0.1222  0.0056  0.0112
 6853SOL    HW132192   0.794   2.871   5.934 -0.4164  0.0840 -0.1477
 6853SOL    HW232193   0.798   2.728   5.984 -0.4045 -0.4885  1.1898
 6854SOL     OW32194   2.748   4.436  13.875 -0.1701  0.0484  0.1364
 6854SOL    HW132195   2.695   4.438  13.795  1.2791 -1.5875 -0.8598
 6854SOL    HW232196   2.685   4.439  13.946 -1.1663 -0.6557 -0.7191
 6855SOL     OW32197   1.808   4.002   5.484 -0.6943  0.4778  0.0853
 6855SOL    HW132198   1.779   4.092   5.497 -2.3990  0.2964 -2.6659
 6855SOL    HW232199   1.829   3.994   5.391  1.8050 -3.0468  0.9490
 6856SOL     OW32200   2.941   3.081  12.648  0.4839  0.1561 -0.0218
 6856SOL    HW132201   2.919   3.132  12.725  1.9944  0.0655  0.4601
 6856SOL    HW232202   2.872   3.014  12.651 -1.4110  2.2011  1.6004
 6857SOL     OW32203   4.163   0.607   3.428  0.1641  0.1831  0.0934
 6857SOL    HW132204   4.154   0.562   3.344 -0.1048 -0.1896  0.3230
 6857SOL    HW232205   4.231   0.553   3.468  0.2363 -2.3959 -3.5976
 6858SOL     OW32206   4.143   3.758   3.891 -0.3719 -0.3705  0.1494
 6858SOL    HW132207   4.146   3.853   3.905  2.5071 -0.6686  1.5899
 6858SOL    HW232208   4.075   3.742   3.826 -1.9194  0.8870  1.4539
 6859SOL     OW32209   1.760   2.955   3.781 -0.2744  0.3661 -0.3177
 6859SOL    HW132210   1.823   3.026   3.794 -0.2133  0.5673 -1.7267
 6859SOL    HW232211   1.789   2.902   3.855 -0.0601 -1.0433 -1.4080
 6860SOL     OW32212   4.738   2.555   8.277 -0.1018  0.2546  0.2838
 6860SOL    HW132213   4.728   2.469   8.236  1.3920 -1.2356  2.9792
 6860SOL    HW232214   4.667   2.556   8.342  1.1457  4.8513  1.5610
 6861SOL     OW32215   2.014   4.649   4.909 -0.4458 -0.7742 -0.2286
 6861SOL    HW132216   1.972   4.622   4.828  1.8733 -0.6715 -1.4691
 6861SOL    HW232217   1.941   4.649   4.971 -0.1175  2.7034  0.1550
 6862SOL     OW32218   0.535   2.391   7.829  0.2871  0.1856  0.0369
 6862SOL    HW132219   0.567   2.309   7.791 -1.4543 -0.7858  0.6554
 6862SOL    HW232220   0.445   2.366   7.850  0.5393 -0.5881  0.1931
 6863SOL     OW32221   3.811   1.075  11.175  0.7651  0.0974  1.0270
 6863SOL    HW132222   3.727   1.121  11.173  1.4090  1.0890 -2.4406
 6863SOL    HW232223   3.858   1.116  11.248  1.4449  0.5064  0.3709
 6864SOL     OW32224   2.173   4.384   3.586 -0.4324 -0.6826 -0.0167
 6864SOL    HW132225   2.268   4.382   3.578 -0.3768 -1.8976  1.0021
 6864SOL    HW232226   2.151   4.414   3.497 -0.9428 -3.0772 -0.6922
 6865SOL     OW32227   0.726   1.478   7.376  0.3009 -0.1964 -0.0151
 6865SOL    HW132228   0.798   1.416   7.372 -0.4192 -1.0573  0.4138
 6865SOL    HW232229   0.771   1.562   7.364 -0.8917  0.4889  0.3345
 6866SOL     OW32230   1.999   0.423  13.946 -0.1209 -0.1851  0.3163
 6866SOL    HW132231   2.041   0.497  13.902 -0.5154 -0.9745 -1.4051
 6866SOL    HW232232   2.038   0.347  13.902  0.9301  0.8104 -0.4717
 6867SOL     OW32233   1.772   1.052  11.560 -0.4545 -0.3105 -0.1159
 6867SOL    HW132234   1.835   1.122  11.545 -2.0949  1.1547 -0.2173
 6867SOL    HW232235   1.831   0.977  11.565 -0.1098  0.0985  1.7626
 6868SOL     OW32236   0.068   2.613  10.554 -0.3762 -0.1180  0.0578
 6868SOL    HW132237   0.066   2.644  10.463  1.4406 -0.0887  0.0130
 6868SOL    HW232238   0.148   2.560  10.564  0.0431  0.4111 -0.5173
 6869SOL     OW32239   2.995   0.922   1.954  0.3724  0.2182 -0.0728
 6869SOL    HW132240   2.974   1.013   1.930 -0.5176  0.2417  0.8344
 6869SOL    HW232241   2.969   0.878   1.874  1.3994 -2.3525  1.0249
 6870SOL     OW32242   1.197   2.328   2.787 -0.6146  0.1638 -0.5110
 6870SOL    HW132243   1.277   2.341   2.737  0.3604 -0.0036  0.9816
 6870SOL    HW232244   1.185   2.234   2.771 -0.9792  0.0585  0.3439
 6871SOL     OW32245   0.957   3.122  12.245  0.3441  0.2468  0.3851
 6871SOL    HW132246   1.028   3.060  12.263  0.3589  0.2041  0.1756
 6871SOL    HW232247   0.877   3.074  12.267  0.2574  0.9612  1.6567
 6872SOL     OW32248   4.222   4.588   0.829  0.1040 -0.2719 -0.1956
 6872SOL    HW132249   4.238   4.509   0.882 -1.5904 -0.0413  0.6659
 6872SOL    HW232250   4.299   4.581   0.772  0.8871 -2.1074  1.0424
 6873SOL     OW32251   3.198   3.688  13.580  0.1218 -0.3518 -0.2611
 6873SOL    HW132252   3.200   3.774  13.538  2.2571  0.3069  1.1928
 6873SOL    HW232253   3.290   3.667  13.596  0.4286  0.7705 -0.4957
 6874SOL     OW32254   0.201   2.169   5.504  0.0371 -0.0317 -0.3388
 6874SOL    HW132255   0.171   2.235   5.441 -0.7070  1.3841  1.5010
 6874SOL    HW232256   0.277   2.139   5.454  1.6013  2.6845  0.3719
 6875SOL     OW32257   1.911   0.035  10.037  0.6357  0.3529 -0.1964
 6875SOL    HW132258   1.923   4.699   9.982 -0.0126  0.1828 -0.1009
 6875SOL    HW232259   2.000   0.056  10.065  0.1787  0.6048  1.0443
 6876SOL     OW32260   2.245   4.061   4.281 -0.0699  0.5454 -0.6927
 6876SOL    HW132261   2.331   4.096   4.306 -0.8296 -0.0733  2.7036
 6876SOL    HW232262   2.248   3.972   4.317  3.4065  2.0705  2.7500
 6877SOL     OW32263   3.780   4.570   8.716  0.6006  0.2419  0.3044
 6877SOL    HW132264   3.874   4.564   8.730  0.8148  0.7584 -0.9599
 6877SOL    HW232265   3.752   4.490   8.671 -3.1734  1.5905  0.2041
 6878SOL     OW32266   3.321   0.429   1.950 -0.2869  0.1357 -0.1772
 6878SOL    HW132267   3.286   0.435   2.039  0.0747  0.8315 -0.0887
 6878SOL    HW232268   3.400   0.480   1.964  0.1272 -1.0980  2.0054
 6879SOL     OW32269   0.323   3.354  15.870 -0.1920 -0.9673  0.1835
 6879SOL    HW132270   0.264   3.282  15.889 -0.4310 -1.0258 -0.7636
 6879SOL    HW232271   0.283   3.380  15.787 -1.4216 -0.3453  0.9749
 6880SOL     OW32272   0.243   2.863   8.305  0.2526  0.2519  0.0575
 6880SOL    HW132273   0.253   2.799   8.235  0.3166 -0.5937  0.8369
 6880SOL    HW232274   0.278   2.819   8.383  0.8682  0.4901 -0.0855
 6881SOL     OW32275   0.192   2.203   3.941  0.3304  0.3319 -0.4002
 6881SOL    HW132276   0.114   2.149   3.926 -0.9178  1.6231  1.4442
 6881SOL    HW232277   0.154   2.273   3.995  2.1685  1.9910 -1.2622
 6882SOL     OW32278   0.383   0.192   1.689  0.0431 -0.1358  0.5276
 6882SOL    HW132279   0.289   0.172   1.685  0.3809 -1.7821  0.8081
 6882SOL    HW232280   0.423   0.131   1.627  1.4518  0.2522  1.0608
 6883SOL     OW32281   1.930   3.994   4.004 -0.1762 -0.1547  0.0819
 6883SOL    HW132282   2.016   3.979   4.045 -0.5198  2.9751  1.9143
 6883SOL    HW232283   1.912   4.087   4.015  0.3643 -0.2372  1.6157
 6884SOL     OW32284   3.193   3.466   1.545 -0.0980  0.2926  0.3718
 6884SOL    HW132285   3.182   3.460   1.450 -0.2642 -1.0608  0.4825
 6884SOL    HW232286   3.288   3.456   1.552  0.0747 -0.5614 -3.5004
 6885SOL     OW32287   1.197   1.794   6.468  0.4005  0.9174 -0.0206
 6885SOL    HW132288   1.172   1.863   6.406  1.0473  0.7565 -0.4583
 6885SOL    HW232289   1.131   1.798   6.538  2.8339  0.6855  2.2886
 6886SOL     OW32290   1.163   4.201  12.632  0.3051 -0.2142 -0.3435
 6886SOL    HW132291   1.211   4.123  12.606 -1.1033 -0.9264 -0.8075
 6886SOL    HW232292   1.080   4.160  12.653 -0.5811  1.4480 -0.5546
 6887SOL     OW32293   0.912   2.138  17.578  0.3157  0.8083  0.2763
 6887SOL    HW132294   0.968   2.192  17.633  1.6357 -0.2042 -0.0626
 6887SOL    HW232295   0.853   2.207  17.548 -0.2437 -0.0528 -0.6531
 6888SOL     OW32296   0.723   2.720   9.613  0.1847  0.3312  0.0210
 6888SOL    HW132297   0.783   2.794   9.621  1.3214 -0.7120  1.0437
 6888SOL    HW232298   0.649   2.752   9.664 -1.3884  1.1844 -2.7892
 6889SOL     OW32299   1.268   1.212   6.198  0.2200  0.0918  0.0388
 6889SOL    HW132300   1.190   1.163   6.223 -0.5346  2.3055  1.9988
 6889SOL    HW232301   1.339   1.150   6.217 -0.8933 -0.9024  0.9406
 6890SOL     OW32302   2.361   3.591  12.406  0.6098 -0.2856 -0.0114
 6890SOL    HW132303   2.388   3.679  12.380  1.0330 -0.2236  0.6376
 6890SOL    HW232304   2.309   3.605  12.486  0.1197  0.0431 -0.3865
 6891SOL     OW32305   2.294   4.180   7.636 -0.5288 -0.8016 -0.1754
 6891SOL    HW132306   2.250   4.195   7.553  0.9316  0.2644 -0.7574
 6891SOL    HW232307   2.297   4.084   7.637  0.1060 -0.7750  0.1172
 6892SOL     OW32308   2.287   2.042   3.231 -0.1812  0.5089 -0.0125
 6892SOL    HW132309   2.270   2.059   3.139 -1.5291  2.1499  0.5360
 6892SOL    HW232310   2.358   2.104   3.250  0.8395  0.1168 -2.5888
 6893SOL     OW32311   1.041   0.798   5.117 -0.3012 -0.3042  0.0170
 6893SOL    HW132312   1.055   0.735   5.188  1.0960  1.3488  1.1960
 6893SOL    HW232313   1.115   0.852   5.144 -0.3037 -0.1323 -0.3292
 6894SOL     OW32314   4.042   1.876   4.853  0.0829  0.0546 -0.1688
 6894SOL    HW132315   3.956   1.887   4.813  0.7929  0.3937 -1.6158
 6894SOL    HW232316   4.020   1.798   4.904 -0.6613  1.1678  1.1853
 6895SOL     OW32317   0.653   1.388   4.104  0.4448 -0.4377 -0.1750
 6895SOL    HW132318   0.738   1.352   4.129 -0.3691 -4.1830 -2.8033
 6895SOL    HW232319   0.608   1.413   4.184 -0.5804  2.3022 -1.5966
 6896SOL     OW32320   3.092   2.950  15.398 -0.1147  0.3279 -0.1859
 6896SOL    HW132321   3.127   2.990  15.318  1.3550  1.1200  0.8357
 6896SOL    HW232322   3.086   3.024  15.459  1.3827  1.1182 -0.9879
 6897SOL     OW32323   3.612   1.107   4.434 -0.1684  0.5736 -0.2930
 6897SOL    HW132324   3.548   1.042   4.405 -0.1436  1.8300 -3.0918
 6897SOL    HW232325   3.615   1.091   4.529  0.9984  0.0130 -0.4179
 6898SOL     OW32326   2.128   4.392   9.229  0.5073  0.0843  0.9060
 6898SOL    HW132327   2.039   4.396   9.264 -0.3022 -0.7349 -1.0396
 6898SOL    HW232328   2.179   4.449   9.286  1.5254  0.3316 -0.2511
 6899SOL     OW32329   2.889   2.843  13.295 -0.1866  0.7311 -0.0002
 6899SOL    HW132330   2.795   2.838  13.313 -0.1701 -0.8814 -0.3863
 6899SOL    HW232331   2.905   2.751  13.317  1.8262  0.1709 -3.7956
 6900SOL     OW32332   0.438   4.307   7.006 -0.2315 -0.2381 -0.1455
 6900SOL    HW132333   0.346   4.334   7.008  0.2839  1.6767 -2.1045
 6900SOL    HW232334   0.417   4.214   7.010  2.8460 -0.9513 -0.4125
 6901SOL     OW32335   2.757   4.311   0.989  0.0609  0.2109  0.3463
 6901SOL    HW132336   2.819   4.340   1.055 -0.8873 -2.5446  2.4893
 6901SOL    HW232337   2.799   4.315   0.903 -1.3498 -0.6134 -0.3998
 6902SOL     OW32338   2.114   2.209  17.330  0.4159 -0.4637 -0.1386
 6902SOL    HW132339   2.045   2.264  17.292  1.6432 -1.2793 -3.4438
 6902SOL    HW232340   2.060   2.180  17.404 -1.5998  2.3133 -0.5098
 6903SOL     OW32341   3.606   2.237   2.200  0.6387 -0.2861 -0.2553
 6903SOL    HW132342   3.581   2.166   2.258  1.7341  0.5737  1.2936
 6903SOL    HW232343   3.538   2.234   2.134  0.1879 -0.4322  0.2174
 6904SOL     OW32344   2.997   3.643  12.367 -0.0633  0.0116  0.0299
 6904SOL    HW132345   3.051   3.583  12.316 -0.0830  1.1192 -1.3197
 6904SOL    HW232346   3.062   3.699  12.410 -1.0511  0.5297  0.8418
 6905SOL     OW32347   3.230   3.451   5.135 -0.0107 -0.1298  0.4109
 6905SOL    HW132348   3.246   3.475   5.227  1.5249 -0.0621  0.1305
 6905SOL    HW232349   3.318   3.475   5.106  0.4484 -3.3068 -0.8373
 6906SOL     OW32350   2.890   1.208   4.204 -0.1247 -0.1889  0.5143
 6906SOL    HW132351   2.813   1.264   4.195  1.3133  1.4442 -1.5005
 6906SOL    HW232352   2.866   1.144   4.136  0.4498  1.8010 -1.5528
 6907SOL     OW32353   4.558   0.582   0.831  0.3522 -0.3896  0.0584
 6907SOL    HW132354   4.580   0.583   0.737 -0.4223 -0.0859 -0.1187
 6907SOL    HW232355   4.544   0.676   0.839 -1.0045 -0.3953 -2.1396
 6908SOL     OW32356   2.237   0.058  11.207  0.4613 -0.2648 -0.3994
 6908SOL    HW132357   2.319   0.108  11.202  1.1335 -1.4311 -1.1304
 6908SOL    HW232358   2.193   0.096  11.132 -1.7877 -0.5739  0.7639
 6909SOL     OW32359   4.604   2.333   5.948  0.1140 -0.1332  0.5624
 6909SOL    HW132360   4.649   2.304   6.028  0.1543  4.3949  2.1820
 6909SOL    HW232361   4.671   2.354   5.883 -0.1205  0.2639  0.4462
 6910SOL     OW32362   1.651   4.235   2.908 -0.0504  0.2137 -0.2884
 6910SOL    HW132363   1.696   4.293   2.847  0.6584  0.2428  0.2583
 6910SOL    HW232364   1.567   4.218   2.866  0.3884 -1.2520 -0.5494
 6911SOL     OW32365   1.504   2.813   7.350  0.1796  0.2800 -0.5785
 6911SOL    HW132366   1.415   2.839   7.330  0.3399 -0.0254 -1.6976
 6911SOL    HW232367   1.554   2.891   7.324  0.6026  0.3653  0.4695
 6912SOL     OW32368   4.219   1.393   3.609 -0.0531  0.0198 -0.3174
 6912SOL    HW132369   4.273   1.385   3.687 -0.0050 -0.9522 -0.4477
 6912SOL    HW232370   4.269   1.444   3.546  2.1402 -1.6216  0.1039
 6913SOL     OW32371   1.773   1.314   8.604  0.2309  0.0659 -0.0127
 6913SOL    HW132372   1.793   1.227   8.568  0.1616 -0.9137  2.3207
 6913SOL    HW232373   1.686   1.326   8.567 -0.4389 -0.0458  1.5341
 6914SOL     OW32374   2.383   0.902   2.234 -0.1538  0.2451  0.1408
 6914SOL    HW132375   2.347   0.861   2.155 -1.3401  1.0129  0.2822
 6914SOL    HW232376   2.311   0.881   2.293 -0.5111  1.5669  0.1864
 6915SOL     OW32377   0.739   0.888   9.103 -0.1931 -0.1142 -0.5737
 6915SOL    HW132378   0.773   0.865   9.017 -0.5582  1.5957 -1.1796
 6915SOL    HW232379   0.778   0.820   9.158 -0.9717 -0.1747 -0.0944
 6916SOL     OW32380   2.012   3.888   6.145  0.5459  0.1615 -0.0366
 6916SOL    HW132381   2.051   3.974   6.130 -2.7939  1.3747 -1.6465
 6916SOL    HW232382   2.093   3.843   6.172 -0.0173 -1.4156 -1.0061
 6917SOL     OW32383   3.615   3.593   4.737  0.3210  0.3525  0.0784
 6917SOL    HW132384   3.622   3.667   4.676 -0.6851  0.3483 -0.0479
 6917SOL    HW232385   3.666   3.615   4.815 -0.2679 -1.4331  0.9810
 6918SOL     OW32386   3.690   3.481   0.486  0.5616  0.1147 -0.5677
 6918SOL    HW132387   3.698   3.501   0.579 -1.8411  3.8380 -1.1661
 6918SOL    HW232388   3.703   3.566   0.445 -0.7700  0.5641 -0.0486
 6919SOL     OW32389   3.777   3.512   7.862 -0.8402 -0.5199  0.1704
 6919SOL    HW132390   3.865   3.485   7.836 -1.0349 -0.0926 -0.9114
 6919SOL    HW232391   3.729   3.444   7.815  1.1354 -1.5246 -0.4266
 6920SOL     OW32392   0.064   4.531   1.679  0.2319  0.0004 -0.2216
 6920SOL    HW132393   4.734   4.556   1.739  1.6798  0.2852  1.3897
 6920SOL    HW232394   0.020   4.516   1.596  1.1968 -0.9194 -0.5577
 6921SOL     OW32395   3.191   1.422   0.162 -0.5255 -0.0625 -0.0511
 6921SOL    HW132396   3.200   1.510   0.198  0.1725  0.3215 -1.1687
 6921SOL    HW232397   3.095   1.424   0.157 -0.4283  2.6789 -1.1226
 6922SOL     OW32398   0.957   3.867   9.867 -0.2230 -0.1231  0.1671
 6922SOL    HW132399   1.050   3.886   9.860 -0.2363  1.0582  2.9476
 6922SOL    HW232400   0.912   3.951   9.857  0.7690  0.2717 -0.9350
 6923SOL     OW32401   3.232   2.836   2.629  0.5017  0.7638 -0.3785
 6923SOL    HW132402   3.142   2.848   2.658 -0.1282  3.3412 -3.4241
 6923SOL    HW232403   3.221   2.757   2.576 -0.0843  1.0992 -0.7500
 6924SOL     OW32404   0.500   1.429   3.446  0.1746  0.2036 -0.2286
 6924SOL    HW132405   0.585   1.387   3.434  0.4625  1.2311 -1.8076
 6924SOL    HW232406   0.480   1.465   3.359 -0.5044 -1.3384 -0.7180
 6925SOL     OW32407   3.659   2.761  14.577  0.0651  0.0229 -0.5006
 6925SOL    HW132408   3.569   2.731  14.569  0.3988 -0.7735 -1.2112
 6925SOL    HW232409   3.704   2.682  14.548  0.2479 -0.2008  0.3964
 6926SOL     OW32410   4.055   2.857  16.507  0.1088  0.0128 -0.5559
 6926SOL    HW132411   4.001   2.780  16.525  0.2083 -0.1045 -0.7596
 6926SOL    HW232412   4.137   2.809  16.492  0.3611  0.1357  0.4811
 6927SOL     OW32413   1.539   3.856   4.248  0.4759 -0.3189  0.1107
 6927SOL    HW132414   1.611   3.919   4.236 -1.1813  2.3882  4.2875
 6927SOL    HW232415   1.548   3.844   4.343 -2.4138  0.1611  0.4324
 6928SOL     OW32416   2.192   1.428   7.804 -0.3002  0.1805  0.0287
 6928SOL    HW132417   2.117   1.377   7.834 -0.6177  1.1919  0.9502
 6928SOL    HW232418   2.272   1.380   7.828 -0.4057 -1.2400 -2.4157
 6929SOL     OW32419   1.515   3.580   7.389  0.2733 -0.5415 -0.1415
 6929SOL    HW132420   1.433   3.597   7.437  1.4944  0.5228  1.5818
 6929SOL    HW232421   1.469   3.541   7.315 -1.9428 -1.8613  1.9269
 6930SOL     OW32422   4.049   4.284  13.295 -0.0275  0.7104  0.0656
 6930SOL    HW132423   4.067   4.307  13.386 -0.0109 -0.8344  0.4548
 6930SOL    HW232424   4.120   4.220  13.283  0.9966  1.7579  0.4811
 6931SOL     OW32425   2.136   4.056   5.500  0.2092  0.2043  0.2115
 6931SOL    HW132426   2.180   4.140   5.485  3.0640 -1.4615 -0.7004
 6931SOL    HW232427   2.057   4.066   5.447 -0.3181  1.0530  1.1434
 6932SOL     OW32428   3.030   1.744   5.066 -0.2511 -0.3364 -0.0926
 6932SOL    HW132429   3.067   1.832   5.055  1.1195 -0.6103  2.1863
 6932SOL    HW232430   2.968   1.743   4.993  1.5337 -0.6982 -1.6059
 6933SOL     OW32431   0.438   4.557   5.988 -0.2859  0.4813  0.2552
 6933SOL    HW132432   0.531   4.567   5.968  0.0832 -1.2884  1.0597
 6933SOL    HW232433   0.407   4.645   5.966 -1.3862  0.3638  1.3396
 6934SOL     OW32434   3.344   0.506   9.768 -0.2499  1.0390 -0.1881
 6934SOL    HW132435   3.309   0.591   9.798  0.7221  1.3510  0.0766
 6934SOL    HW232436   3.411   0.528   9.703  0.3117  0.2995  0.1434
 6935SOL     OW32437   2.625   2.064   1.430  0.2834 -0.4237 -0.1799
 6935SOL    HW132438   2.684   1.991   1.448 -0.7601 -1.0641  0.6112
 6935SOL    HW232439   2.538   2.026   1.436  1.0029 -2.0057  0.2388
 6936SOL     OW32440   2.906   2.043   4.771  0.0384 -0.2611 -0.1490
 6936SOL    HW132441   2.887   1.970   4.831  0.5590 -0.2145  0.0705
 6936SOL    HW232442   2.900   2.115   4.834  3.8024 -1.9432  2.1950
 6937SOL     OW32443   3.636   3.809   4.554  0.5754 -0.1186  0.0789
 6937SOL    HW132444   3.567   3.812   4.488 -0.2354 -0.9959  0.8874
 6937SOL    HW232445   3.709   3.823   4.494  0.2190 -2.8178 -0.9754
 6938SOL     OW32446   1.074   2.437   9.741  0.4054  0.2611 -0.2801
 6938SOL    HW132447   1.059   2.478   9.656 -1.8347  0.9294  0.4396
 6938SOL    HW232448   1.012   2.487   9.795 -1.3876 -1.7848 -0.4099
 6939SOL     OW32449   0.443   2.250   7.504  0.3990  0.5893  0.2953
 6939SOL    HW132450   0.369   2.263   7.445  1.9578  0.2082 -1.7263
 6939SOL    HW232451   0.478   2.339   7.514  1.5166  0.1730  0.1222
 6940SOL     OW32452   0.327   4.622   2.308  0.3992 -0.6548 -0.0421
 6940SOL    HW132453   0.283   4.613   2.223  0.3137  1.5294 -0.2191
 6940SOL    HW232454   0.414   4.597   2.278 -0.1424 -3.0392  0.3322
 6941SOL     OW32455   1.576   3.778   5.437 -0.5364  0.0129  0.2316
 6941SOL    HW132456   1.558   3.797   5.529 -2.3048 -1.1461  0.1386
 6941SOL    HW232457   1.540   3.690   5.427 -2.9556  0.8615  1.3186
 6942SOL     OW32458   0.934   2.432  13.246 -0.2248 -0.1396 -0.1121
 6942SOL    HW132459   0.904   2.487  13.318  1.1175  0.6886 -0.1946
 6942SOL    HW232460   0.850   2.400  13.211 -0.8241  1.0649  0.2220
 6943SOL     OW32461   4.700   0.119  16.190 -0.1712  0.2404 -0.0283
 6943SOL    HW132462   4.719   0.029  16.163  1.6861  1.0771 -1.5514
 6943SOL    HW232463   4.620   0.103  16.240  0.3076  0.1473  0.6956
 6944SOL     OW32464   2.212   2.097   5.876 -0.0962 -0.1740 -0.2195
 6944SOL    HW132465   2.194   2.032   5.944 -4.3765  2.7882  1.4833
 6944SOL    HW232466   2.252   2.037   5.813  0.8473 -1.9894  2.1219
 6945SOL     OW32467   3.648   2.145   6.219 -0.8883  0.6012  0.4939
 6945SOL    HW132468   3.570   2.113   6.175  0.5106 -1.1318 -0.7235
 6945SOL    HW232469   3.684   2.215   6.164  1.3261 -0.1838  0.9495
 6946SOL     OW32470   4.511   1.782   8.195  0.3324  0.2479 -0.0473
 6946SOL    HW132471   4.456   1.810   8.122  1.3894  1.4405 -0.3834
 6946SOL    HW232472   4.473   1.834   8.266 -0.0044 -0.1819  0.0928
 6947SOL     OW32473   1.120   3.381   7.078  0.5731  0.2938  0.1360
 6947SOL    HW132474   1.101   3.376   6.984  0.9958  0.6384  0.0328
 6947SOL    HW232475   1.119   3.477   7.078  1.4258  0.3067 -0.0804
 6948SOL     OW32476   1.436   2.111   8.079 -0.7496 -0.1618  0.6159
 6948SOL    HW132477   1.372   2.178   8.056 -0.8968  0.2001  2.0906
 6948SOL    HW232478   1.373   2.063   8.133 -0.9791 -0.3766  0.1573
 6949SOL     OW32479   4.352   4.181  17.002 -0.2295 -0.2996 -0.0723
 6949SOL    HW132480   4.439   4.202  16.968 -0.9491  1.0099 -1.0848
 6949SOL    HW232481   4.297   4.227  16.939 -0.3443  1.5560  1.4193
 6950SOL     OW32482   1.656   2.483  14.080 -0.0678  0.0070 -0.5288
 6950SOL    HW132483   1.626   2.454  14.167 -0.2019 -0.2350 -0.6578
 6950SOL    HW232484   1.732   2.536  14.105  1.2431 -1.8999 -0.4775
 6951SOL     OW32485   0.716   3.674   7.191 -0.2316  0.0646  0.1361
 6951SOL    HW132486   0.806   3.640   7.199  0.5884  2.8137  2.5868
 6951SOL    HW232487   0.706   3.751   7.247  2.8787 -0.5677  1.5787
 6952SOL     OW32488   2.373   0.377   9.954  0.7971 -0.1431  0.3117
 6952SOL    HW132489   2.308   0.334   9.898  2.2951 -1.7123 -0.2428
 6952SOL    HW232490   2.404   0.444   9.893 -0.0359  0.0562  0.1059
 6953SOL     OW32491   0.368   4.326  13.271 -0.5919  0.0747  0.2965
 6953SOL    HW132492   0.418   4.300  13.194 -0.0122 -1.2624  1.1366
 6953SOL    HW232493   0.319   4.247  13.291 -0.9890 -0.0955 -1.3556
 6954SOL     OW32494   3.236   3.493   1.269  0.0466 -0.2674 -0.4687
 6954SOL    HW132495   3.239   3.488   1.173 -0.7719 -0.0327 -0.5082
 6954SOL    HW232496   3.205   3.583   1.270 -1.5916 -0.8869  1.7586
 6955SOL     OW32497   3.734   0.953   7.856  0.1411 -0.2132 -0.6211
 6955SOL    HW132498   3.771   0.946   7.769 -1.3757  0.6976 -1.3447
 6955SOL    HW232499   3.659   0.893   7.859  0.5052 -0.6759 -0.8854
 6956SOL     OW32500   4.692   2.493   6.268 -0.4679 -0.4371  0.1381
 6956SOL    HW132501   4.714   2.539   6.187 -0.7773  0.7137  0.7147
 6956SOL    HW232502   4.713   2.406   6.234  1.3982 -0.0148  0.2213
 6957SOL     OW32503   2.356   2.666  10.998  0.5223  0.2171  0.4582
 6957SOL    HW132504   2.367   2.753  11.037 -0.4947  0.4114  0.3031
 6957SOL    HW232505   2.442   2.631  11.022  1.0492  0.6187 -0.8657
 6958SOL     OW32506   1.470   1.369   4.165 -0.3220  0.0564 -0.4971
 6958SOL    HW132507   1.433   1.406   4.085 -1.5970  2.0971  1.0442
 6958SOL    HW232508   1.390   1.325   4.194  0.7205 -1.3146  0.2806
 6959SOL     OW32509   1.203   0.785   6.955 -0.1859  0.2006 -0.5499
 6959SOL    HW132510   1.264   0.833   6.898  0.1831  2.1180  1.4776
 6959SOL    HW232511   1.134   0.851   6.953 -1.1025 -0.7369  0.4390
 6960SOL     OW32512   3.868   3.478   4.535 -0.1145  0.5791  0.7346
 6960SOL    HW132513   3.796   3.536   4.510  0.5762  0.3506 -1.7957
 6960SOL    HW232514   3.932   3.497   4.467  0.6560 -1.6012  0.8354
 6961SOL     OW32515   1.321   1.784   4.461 -0.1151 -0.0328  0.3995
 6961SOL    HW132516   1.392   1.724   4.484  1.5070  1.2902 -1.2342
 6961SOL    HW232517   1.347   1.803   4.371  1.9514 -0.3334  0.9387
 6962SOL     OW32518   0.380   1.516  15.778  0.4053  1.0128  0.1312
 6962SOL    HW132519   0.338   1.551  15.857 -0.4456 -0.2177  0.2327
 6962SOL    HW232520   0.422   1.438  15.815 -0.1656  0.0160 -1.3417
 6963SOL     OW32521   0.470   0.979   6.259 -0.0404  0.3961  0.1515
 6963SOL    HW132522   0.433   0.966   6.346 -1.9718  0.4996 -0.6548
 6963SOL    HW232523   0.406   0.936   6.202 -0.8223  0.0286  1.3078
 6964SOL     OW32524   2.954   0.847   5.278  0.5995  0.3362 -0.0219
 6964SOL    HW132525   2.928   0.786   5.347 -0.0553  1.4906  0.7533
 6964SOL    HW232526   3.005   0.795   5.216  0.2408  0.9189 -0.8142
 6965SOL     OW32527   1.431   0.483   8.269 -0.5102  0.2638 -0.0592
 6965SOL    HW132528   1.503   0.492   8.207  0.3207  3.3198  1.3490
 6965SOL    HW232529   1.437   0.390   8.293  0.0763  0.2816 -0.1410
 6966SOL     OW32530   0.578   1.946   2.193  0.6168  0.0569  0.0357
 6966SOL    HW132531   0.506   1.893   2.225  0.9841 -0.4986 -0.0572
 6966SOL    HW232532   0.531   2.026   2.218 -1.1100 -1.1764  0.7060
 6967SOL     OW32533   2.168   1.382   1.325  0.0205 -0.6427  0.1599
 6967SOL    HW132534   2.150   1.334   1.244  0.5437  1.4288 -1.1931
 6967SOL    HW232535   2.209   1.318   1.383  1.0603  1.9605  2.3201
 6968SOL     OW32536   1.298   3.022   8.342 -0.6836  0.0774 -0.9027
 6968SOL    HW132537   1.217   3.072   8.343 -0.3516  0.6329 -1.6509
 6968SOL    HW232538   1.355   3.081   8.293  2.5557 -0.8509  1.6825
 6969SOL     OW32539   1.205   0.461   9.218 -0.0138 -0.2587  0.7758
 6969SOL    HW132540   1.201   0.404   9.295  0.0545 -1.2342  0.0626
 6969SOL    HW232541   1.298   0.459   9.197 -0.4210 -2.6208 -0.7708
 6970SOL     OW32542   1.714   2.447   5.841 -0.0711 -0.4855  0.2691
 6970SOL    HW132543   1.740   2.477   5.927 -0.0657 -1.4752  0.6130
 6970SOL    HW232544   1.739   2.355   5.847  1.4956  0.0316  1.4899
 6971SOL     OW32545   1.823   4.543   3.939 -0.1948 -0.4007  0.6075
 6971SOL    HW132546   1.850   4.553   4.030 -1.4389  2.4661  0.6657
 6971SOL    HW232547   1.905   4.563   3.893 -1.6063 -1.5152 -2.3975
 6972SOL     OW32548   3.608   4.225  11.373  0.1091 -0.6439 -0.0455
 6972SOL    HW132549   3.590   4.283  11.447  0.0154 -1.6356  0.7088
 6972SOL    HW232550   3.517   4.195  11.366  0.3984 -1.6538  0.5258
 6973SOL     OW32551   3.554   4.462   8.147  0.2650  0.1006 -0.0714
 6973SOL    HW132552   3.547   4.379   8.195 -0.4176  0.3974  0.3417
 6973SOL    HW232553   3.464   4.493   8.153 -0.4379 -1.6301 -1.6436
 6974SOL     OW32554   2.738   1.536  16.573  0.3653  0.3572 -0.2641
 6974SOL    HW132555   2.768   1.502  16.489 -0.9282  0.9434 -0.9599
 6974SOL    HW232556   2.751   1.630  16.565  0.4048  0.3281 -0.5350
 6975SOL     OW32557   4.625   2.971  15.403 -0.5800  0.1162 -0.0432
 6975SOL    HW132558   4.670   2.895  15.438  0.1611  1.9241  2.9757
 6975SOL    HW232559   4.548   2.986  15.459  1.1833 -0.6233  2.5738
 6976SOL     OW32560   4.295   0.836   3.417  0.2110  0.0577  0.1918
 6976SOL    HW132561   4.225   0.771   3.421  0.7022 -0.3449  2.1630
 6976SOL    HW232562   4.264   0.888   3.490  0.8162 -0.7464  1.0221
 6977SOL     OW32563   1.680   1.460  16.969  0.4915 -0.5733 -0.1600
 6977SOL    HW132564   1.646   1.529  17.026 -1.9482 -1.6506 -0.2816
 6977SOL    HW232565   1.608   1.397  16.963 -0.6686  0.7729 -0.4003
 6978SOL     OW32566   3.627   2.798   2.603  0.1940  0.7362  0.0983
 6978SOL    HW132567   3.708   2.796   2.552  0.3290 -1.0395  0.4037
 6978SOL    HW232568   3.583   2.722   2.564  2.2563 -1.8750  2.8555
 6979SOL     OW32569   4.364   4.730   3.748  0.1421  0.4889 -0.2565
 6979SOL    HW132570   4.350   4.675   3.671  0.4522  2.5313 -1.7880
 6979SOL    HW232571   4.456   0.010   3.736 -0.2176  0.8956 -2.1984
 6980SOL     OW32572   0.326   4.295  12.163 -0.2033  0.1611 -0.1986
 6980SOL    HW132573   0.422   4.289  12.159 -0.1308 -1.0087  3.1230
 6980SOL    HW232574   0.311   4.330  12.251  1.3289 -0.0199  0.1437
 6981SOL     OW32575   4.254   3.337   2.793 -0.1775  0.4989  0.0060
 6981SOL    HW132576   4.309   3.339   2.714 -0.2202  0.2389 -0.0311
 6981SOL    HW232577   4.166   3.304   2.776 -0.5962  1.9244 -0.5637
 6982SOL     OW32578   0.261   0.723   0.591  0.1841  0.2499 -0.0453
 6982SOL    HW132579   0.345   0.684   0.617 -0.5008 -1.0495  0.2197
 6982SOL    HW232580   0.219   0.754   0.671  0.9411  1.7965 -0.2471
 6983SOL     OW32581   1.962   2.878   4.540  0.3268  0.3801  0.5504
 6983SOL    HW132582   1.968   2.818   4.466 -0.7881 -0.5519  1.2075
 6983SOL    HW232583   1.920   2.952   4.496 -1.3032  0.4345  2.2010
 6984SOL     OW32584   0.794   3.002   7.094  0.2561  0.0048 -0.1167
 6984SOL    HW132585   0.849   2.961   7.028 -3.0008 -0.1823 -2.7105
 6984SOL    HW232586   0.852   3.055   7.148 -0.4414  1.1450 -0.4862
 6985SOL     OW32587   3.582   0.182  15.757 -0.0819  0.0557 -0.0379
 6985SOL    HW132588   3.546   0.234  15.686 -0.4128 -0.7572 -0.4681
 6985SOL    HW232589   3.673   0.212  15.762 -0.7651  2.0979 -0.0357
 6986SOL     OW32590   2.348   2.040  14.692  0.5642 -0.5083  1.2653
 6986SOL    HW132591   2.355   2.125  14.735 -1.5963  0.6790 -0.7522
 6986SOL    HW232592   2.267   2.054  14.644  1.9089  0.3562 -0.7581
 6987SOL     OW32593   2.874   1.617   1.149 -0.7068 -0.2695 -0.3380
 6987SOL    HW132594   2.786   1.654   1.152 -0.3424  0.5094  0.6835
 6987SOL    HW232595   2.859   1.523   1.138  1.1303 -0.5532 -0.4435
 6988SOL     OW32596   2.987   2.969   3.997  0.4642  0.4850  0.2016
 6988SOL    HW132597   2.940   2.957   3.914  1.9838 -0.4131 -0.5457
 6988SOL    HW232598   2.926   2.917   4.049  1.0135  1.1036  1.4750
 6989SOL     OW32599   1.108   4.176  10.097 -0.2129  0.4019 -0.2047
 6989SOL    HW132600   1.166   4.136  10.161  0.4825 -1.5387 -2.0600
 6989SOL    HW232601   1.050   4.226  10.154 -1.0746 -0.1620 -0.5822
 6990SOL     OW32602   2.959   4.278   3.056 -0.0257 -0.2513  0.1046
 6990SOL    HW132603   2.957   4.250   3.147  0.1686  0.6505  0.3871
 6990SOL    HW232604   3.048   4.313   3.062  0.0151 -0.0205 -1.8049
 6991SOL     OW32605   2.874   0.912   9.505 -0.7815  0.0832 -0.1530
 6991SOL    HW132606   2.799   0.870   9.465 -0.7374 -1.3544  1.2616
 6991SOL    HW232607   2.874   0.992   9.453  0.3160 -0.8590 -1.5885
 6992SOL     OW32608   3.268   3.407   7.495 -0.3960  0.6000 -0.0350
 6992SOL    HW132609   3.223   3.366   7.421  2.1052  0.6562 -1.5814
 6992SOL    HW232610   3.358   3.395   7.464 -0.7041 -1.1335 -0.2949
 6993SOL     OW32611   1.965   2.397  16.196 -1.0890  0.4412  0.2624
 6993SOL    HW132612   2.029   2.434  16.257  0.5004 -0.4217 -0.8789
 6993SOL    HW232613   2.028   2.387  16.125  1.1392  0.5296  2.2374
 6994SOL     OW32614   4.614   0.475   9.156  0.3239  0.5336 -0.0367
 6994SOL    HW132615   4.585   0.390   9.123 -0.6416  0.9479 -0.2349
 6994SOL    HW232616   4.709   0.463   9.144  0.3611 -0.5068  1.2414
 6995SOL     OW32617   3.775   3.751  13.970 -0.1846  0.3803 -0.9078
 6995SOL    HW132618   3.720   3.784  14.041  2.2605  2.5676 -0.0565
 6995SOL    HW232619   3.728   3.677  13.932 -1.4039 -0.8750  3.0106
 6996SOL     OW32620   2.814   0.758   3.699  0.5351 -0.4109 -0.1886
 6996SOL    HW132621   2.861   0.840   3.718 -0.1279 -0.1491  0.3301
 6996SOL    HW232622   2.756   0.761   3.776  0.2831  2.3006 -0.4718
 6997SOL     OW32623   2.836   2.997  10.430 -0.8225  0.0093  0.2337
 6997SOL    HW132624   2.791   2.918  10.459 -1.3942  0.6544  1.0938
 6997SOL    HW232625   2.905   2.992  10.496 -1.1139  1.0829  0.6251
 6998SOL     OW32626   3.496   4.209  10.379  0.2018 -0.0550 -0.8404
 6998SOL    HW132627   3.550   4.135  10.407  1.2046  0.8835 -0.2417
 6998SOL    HW232628   3.415   4.172  10.413  0.2925  1.3078  0.8621
 6999SOL     OW32629   0.103   3.039   4.530  0.5215  0.4620  0.2950
 6999SOL    HW132630   0.190   3.079   4.538  0.1151  0.9714  2.2390
 6999SOL    HW232631   0.094   3.060   4.437 -1.0161 -0.1509  0.3031
 7000SOL     OW32632   2.031   1.930  11.433  0.0063 -0.0754 -0.3736
 7000SOL    HW132633   1.977   1.997  11.392  0.1803  0.8659  0.9518
 7000SOL    HW232634   2.073   1.914  11.348 -0.4820  0.7593 -0.7780
 7001SOL     OW32635   0.540   4.239   3.144 -0.5626 -0.1334 -0.1680
 7001SOL    HW132636   0.625   4.232   3.188 -1.6860  1.4801  2.3206
 7001SOL    HW232637   0.560   4.197   3.061  1.9410 -2.4348  1.5910
 7002SOL     OW32638   2.471   0.125  10.055 -0.3951  0.1258  0.4313
 7002SOL    HW132639   2.489   0.215  10.029 -0.1797  0.0161  0.2084
 7002SOL    HW232640   2.486   0.126  10.150 -2.9857 -0.3993  0.8656
 7003SOL     OW32641   1.228   1.906   7.138  0.1676  0.1314  0.3688
 7003SOL    HW132642   1.304   1.962   7.130  1.4020 -1.2987  2.2021
 7003SOL    HW232643   1.248   1.879   7.228 -2.5764  0.2575  1.0332
 7004SOL     OW32644   0.711   3.328   8.988 -0.3352 -0.0381 -0.5859
 7004SOL    HW132645   0.771   3.282   9.046  0.9475  2.4573  0.0601
 7004SOL    HW232646   0.706   3.414   9.030  1.8263  0.8161 -2.1360
 7005SOL     OW32647   0.930   2.706   7.641  0.2908 -0.0038 -0.3985
 7005SOL    HW132648   0.998   2.643   7.661  0.5706  0.0322 -1.2500
 7005SOL    HW232649   0.861   2.672   7.699 -1.4676  0.2113 -2.3654
 7006SOL     OW32650   4.459   0.674   2.849  0.0410 -0.1037 -0.6195
 7006SOL    HW132651   4.553   0.667   2.832 -0.4815 -0.0923 -3.4771
 7006SOL    HW232652   4.420   0.710   2.770 -1.5061 -1.6187 -0.5587
 7007SOL     OW32653   0.497   2.573  14.138 -0.7083  0.4012 -1.0549
 7007SOL    HW132654   0.425   2.624  14.174  0.4833  0.4396  1.3122
 7007SOL    HW232655   0.559   2.642  14.113 -1.5492  0.8705 -1.8311
 7008SOL     OW32656   2.361   2.486  13.460 -0.2285  0.7510  0.2332
 7008SOL    HW132657   2.393   2.483  13.550  0.0503 -1.5091  0.0719
 7008SOL    HW232658   2.386   2.400  13.425 -2.3366  0.0619  0.4669
 7009SOL     OW32659   3.678   3.910  13.514 -0.6067  0.1748  0.0432
 7009SOL    HW132660   3.763   3.906  13.558 -1.2484  1.6767  1.3901
 7009SOL    HW232661   3.712   3.925  13.425 -1.8001 -2.3922 -0.8413
 7010SOL     OW32662   1.224   3.729   6.653 -0.1095 -0.0631  0.1355
 7010SOL    HW132663   1.221   3.824   6.665  1.8971  0.0690 -0.4169
 7010SOL    HW232664   1.140   3.705   6.614 -0.3721 -0.5073  0.9759
 7011SOL     OW32665   0.120   4.112   3.529  0.0706 -0.4240  0.7140
 7011SOL    HW132666   0.101   4.071   3.445  1.0002 -0.0836  0.3325
 7011SOL    HW232667   0.052   4.075   3.585 -1.6698  1.1427 -0.3485
 7012SOL     OW32668   4.663   1.011   4.100 -0.2630 -0.6047 -0.1169
 7012SOL    HW132669   4.575   1.007   4.137  0.1688  1.8384  1.2401
 7012SOL    HW232670   4.707   1.026   4.184 -0.4559  0.1190 -0.1389
 7013SOL     OW32671   3.336   1.688   9.702 -0.4990  0.1947  0.4100
 7013SOL    HW132672   3.250   1.677   9.743 -0.7352 -1.2904 -0.5003
 7013SOL    HW232673   3.356   1.780   9.717  1.1041 -0.0792 -0.0483
 7014SOL     OW32674   1.048   2.677   6.050  0.2579  0.0496  0.3623
 7014SOL    HW132675   0.961   2.656   6.016  0.6785  0.9216 -1.2838
 7014SOL    HW232676   1.113   2.637   5.992 -0.5324  1.2075 -1.3203
 7015SOL     OW32677   2.849   1.765   4.854 -0.2724  0.7557  0.2242
 7015SOL    HW132678   2.763   1.783   4.816 -0.8130 -0.1381  1.0363
 7015SOL    HW232679   2.878   1.705   4.784  1.4365  0.5460  1.1157
 7016SOL     OW32680   0.742   3.934   9.530  0.0865  0.0820 -0.1546
 7016SOL    HW132681   0.801   4.008   9.550  2.6147 -1.8790 -0.3872
 7016SOL    HW232682   0.733   3.890   9.615  1.6291 -0.6368 -0.3688
 7017SOL     OW32683   0.105   1.267   4.954 -0.1522 -0.1013 -0.2263
 7017SOL    HW132684   0.050   1.275   5.032  0.7488  1.0625  0.2974
 7017SOL    HW232685   0.040   1.289   4.888 -1.3238 -1.0232  0.6070
 7018SOL     OW32686   1.610   4.178   1.336  0.6406 -0.2959  0.2269
 7018SOL    HW132687   1.578   4.165   1.246  0.4865 -0.7216  0.3446
 7018SOL    HW232688   1.702   4.152   1.337  0.7241  0.0133  0.6079
 7019SOL     OW32689   1.201   2.242   9.606 -0.6366 -0.0715  0.1765
 7019SOL    HW132690   1.216   2.172   9.669  2.4991 -2.3467 -3.0850
 7019SOL    HW232691   1.144   2.294   9.663 -0.5848  1.1884 -0.9210
 7020SOL     OW32692   0.455   3.100   9.514  0.3339  0.3497 -0.4246
 7020SOL    HW132693   0.384   3.069   9.457 -0.6233 -1.7922  1.9797
 7020SOL    HW232694   0.512   3.138   9.447 -1.0503 -1.8326 -2.8368
 7021SOL     OW32695   0.680   0.017   3.109 -0.2380 -0.4584 -0.1175
 7021SOL    HW132696   0.735   4.685   3.136 -1.0464 -0.2671  2.0106
 7021SOL    HW232697   0.717   0.090   3.159 -1.8313  0.4859 -0.3102
 7022SOL     OW32698   0.253   1.525  14.598 -0.3361 -0.4774  0.5668
 7022SOL    HW132699   0.346   1.500  14.598  0.1660  1.4029  0.7627
 7022SOL    HW232700   0.229   1.541  14.689 -3.0134 -1.7422  0.0783
 7023SOL     OW32701   2.965   3.842   6.228 -0.2759 -0.6205 -0.2379
 7023SOL    HW132702   3.015   3.924   6.226 -1.9763  0.4603  1.4317
 7023SOL    HW232703   3.021   3.778   6.273 -0.4923  0.2075  1.2280
 7024SOL     OW32704   0.664   3.611   9.144 -0.4592 -0.5555 -0.7159
 7024SOL    HW132705   0.577   3.608   9.184  0.3544  0.2727  1.1105
 7024SOL    HW232706   0.700   3.668   9.212  0.4387 -1.1957 -0.6544
 7025SOL     OW32707   3.232   0.728   8.081  0.2211  0.2808  0.7064
 7025SOL    HW132708   3.163   0.698   8.021 -0.2296 -0.3164  1.5255
 7025SOL    HW232709   3.298   0.769   8.025  1.0482 -1.0856  0.6833
 7026SOL     OW32710   3.297   3.459   5.859 -0.3178 -0.0382 -0.3796
 7026SOL    HW132711   3.299   3.521   5.932 -0.4564 -0.4423 -0.0282
 7026SOL    HW232712   3.316   3.521   5.789 -1.1261  1.9405  1.1507
 7027SOL     OW32713   2.907   2.809   3.766  0.8833  0.0141  0.1043
 7027SOL    HW132714   2.896   2.717   3.790  3.9578 -1.1690 -2.9916
 7027SOL    HW232715   2.986   2.800   3.711  1.2189  0.2760  0.5417
 7028SOL     OW32716   2.254   0.979   9.358 -0.1027  0.0431  0.4289
 7028SOL    HW132717   2.240   0.991   9.451 -2.2440  2.2093 -0.1893
 7028SOL    HW232718   2.332   1.033   9.350 -0.3336  0.3010 -0.0937
 7029SOL     OW32719   0.229   0.976  14.014 -0.0265 -0.3501  0.2524
 7029SOL    HW132720   0.259   0.980  13.923 -1.9731 -2.5439 -0.4855
 7029SOL    HW232721   0.174   0.899  14.031 -2.3869  0.8894 -1.6873
 7030SOL     OW32722   2.322   1.425   5.204 -0.1654  0.6195  0.3580
 7030SOL    HW132723   2.406   1.452   5.166 -0.8297  2.0243 -0.0931
 7030SOL    HW232724   2.337   1.332   5.217  1.7256  1.2717  2.8847
 7031SOL     OW32725   2.408   1.937   1.649 -0.3589  0.3333 -0.4551
 7031SOL    HW132726   2.399   1.957   1.742 -3.5215  1.1652 -0.9506
 7031SOL    HW232727   2.496   1.975   1.644 -0.6446  1.4237  3.0698
 7032SOL     OW32728   0.226   2.411  12.536 -0.1185  0.1209  0.1318
 7032SOL    HW132729   0.144   2.376  12.570  0.5479 -1.0886  0.5165
 7032SOL    HW232730   0.279   2.388  12.612  0.9811 -2.5905 -1.4482
 7033SOL     OW32731   4.524   2.740  17.362 -0.5814 -0.0088  0.4431
 7033SOL    HW132732   4.587   2.716  17.293 -0.2791 -0.6238  0.9334
 7033SOL    HW232733   4.451   2.776  17.312 -0.2544  1.1799  0.8217
 7034SOL     OW32734   4.384   1.991   4.475  0.0707 -0.2301 -0.1514
 7034SOL    HW132735   4.357   1.947   4.556 -0.0041 -0.1757 -0.1474
 7034SOL    HW232736   4.353   2.079   4.495 -0.8561  0.4327 -4.6239
 7035SOL     OW32737   3.647   2.732  10.061  0.5756 -0.1873 -0.5991
 7035SOL    HW132738   3.707   2.716  10.133 -0.2566  0.7434  0.3116
 7035SOL    HW232739   3.673   2.824  10.048  0.9372  0.1214  2.2528
 7036SOL     OW32740   4.181   2.206  14.113 -0.7608  0.2285  0.1497
 7036SOL    HW132741   4.200   2.151  14.037  0.0354 -1.1293  1.3108
 7036SOL    HW232742   4.270   2.229  14.138 -0.3412 -0.0197 -1.1042
 7037SOL     OW32743   1.280   4.450   0.345  0.6374 -0.0632 -0.1544
 7037SOL    HW132744   1.233   4.435   0.263 -1.8008  0.3192  1.1710
 7037SOL    HW232745   1.362   4.403   0.331  1.4128  1.3706 -0.3765
 7038SOL     OW32746   4.126   2.092   2.537 -0.0371  0.0386  0.2629
 7038SOL    HW132747   4.057   2.039   2.578  1.8051 -2.9829 -0.5397
 7038SOL    HW232748   4.116   2.181   2.570 -1.0353  1.2372 -3.1992
 7039SOL     OW32749   4.092   2.121   8.113 -0.0129 -1.1119  0.2421
 7039SOL    HW132750   4.174   2.121   8.162  0.4595  1.5394 -0.5367
 7039SOL    HW232751   4.035   2.074   8.173  0.7746 -1.2696  0.8711
 7040SOL     OW32752   2.857   1.370   1.011 -0.0677 -0.5795 -0.1267
 7040SOL    HW132753   2.837   1.408   0.925 -1.2745 -1.7805 -0.3688
 7040SOL    HW232754   2.950   1.389   1.026 -0.3560 -2.0225  3.4542
 7041SOL     OW32755   2.991   3.062   6.709 -0.3216 -0.8442 -0.5041
 7041SOL    HW132756   2.898   3.081   6.704 -0.1653 -0.3423 -1.4826
 7041SOL    HW232757   2.996   3.011   6.627 -0.1628  0.1109 -1.0876
 7042SOL     OW32758   2.219   4.486   5.681  0.7585 -0.1066 -0.4702
 7042SOL    HW132759   2.314   4.478   5.671  0.7690  0.4993 -0.7961
 7042SOL    HW232760   2.218   4.579   5.703 -0.2989 -0.0512 -0.7445
 7043SOL     OW32761   0.610   2.069   2.556  0.4961  0.3089 -0.1671
 7043SOL    HW132762   0.630   1.984   2.517 -1.0288 -0.7369  1.3399
 7043SOL    HW232763   0.515   2.067   2.573  0.1327  2.6928 -1.8401
 7044SOL     OW32764   4.261   3.556  14.675  0.0837 -0.4312  0.1627
 7044SOL    HW132765   4.309   3.589  14.599 -0.9903  0.0430 -0.3040
 7044SOL    HW232766   4.225   3.477  14.635  0.3467  0.1901 -1.2767
 7045SOL     OW32767   1.168   3.366   3.596 -0.0141  0.0573  0.1142
 7045SOL    HW132768   1.180   3.272   3.586 -0.6864  0.1990 -2.1021
 7045SOL    HW232769   1.211   3.393   3.515  2.0665 -1.9433  0.5636
 7046SOL     OW32770   2.412   1.982   6.073  0.0998 -0.1036 -0.0691
 7046SOL    HW132771   2.472   2.056   6.067  1.0311 -0.9076 -0.5044
 7046SOL    HW232772   2.348   2.013   6.138  1.9109  0.7398  1.2950
 7047SOL     OW32773   3.538   3.103   5.056 -0.2155  0.1119 -0.5193
 7047SOL    HW132774   3.606   3.169   5.061 -0.4553  0.4270 -1.3154
 7047SOL    HW232775   3.477   3.136   5.122 -1.0489 -0.0317 -1.2111
 7048SOL     OW32776   3.789   3.162  12.682  0.3048  0.3361  0.3327
 7048SOL    HW132777   3.861   3.123  12.632 -0.8842 -3.4408  1.5856
 7048SOL    HW232778   3.713   3.147  12.626  0.2929  2.3044 -0.1976
 7049SOL     OW32779   4.061   2.372   0.151 -0.0096 -0.0636 -0.2607
 7049SOL    HW132780   4.114   2.335   0.222  0.3595  0.5178 -0.2392
 7049SOL    HW232781   4.122   2.391   0.080 -0.2958  0.6107 -0.3231
 7050SOL     OW32782   0.759   3.067  13.353  0.3508 -0.6803 -0.1644
 7050SOL    HW132783   0.694   3.138  13.347  2.1303  0.9926  0.1946
 7050SOL    HW232784   0.730   3.019  13.275  1.0257 -0.8622 -0.2984
 7051SOL     OW32785   1.314   4.422   8.982  0.6021  0.3658  0.2400
 7051SOL    HW132786   1.350   4.373   9.055 -0.4596  1.3199  1.4075
 7051SOL    HW232787   1.323   4.358   8.912  1.3297  0.2890  0.4075
 7052SOL     OW32788   4.264   3.166   6.788 -0.0954  0.3901 -0.2772
 7052SOL    HW132789   4.211   3.089   6.808  1.0474 -0.8025 -1.9326
 7052SOL    HW232790   4.213   3.239   6.823  2.9845  2.3521  0.1008
 7053SOL     OW32791   3.808   3.933   5.162 -0.4456  0.5671 -0.5227
 7053SOL    HW132792   3.773   3.985   5.235 -1.3095 -0.6637 -0.0701
 7053SOL    HW232793   3.734   3.930   5.101 -0.4012 -2.3846 -0.4138
 7054SOL     OW32794   4.207   2.658   1.707 -0.1473  0.5936  0.0187
 7054SOL    HW132795   4.261   2.579   1.703 -0.2422  0.5357 -0.1015
 7054SOL    HW232796   4.135   2.627   1.762 -0.5398 -0.6639 -1.2168
 7055SOL     OW32797   2.718   3.225   8.292  0.4287 -0.0632  0.0616
 7055SOL    HW132798   2.727   3.291   8.223  0.1623 -0.2873 -0.1858
 7055SOL    HW232799   2.631   3.247   8.326  0.7283 -0.0943  0.8574
 7056SOL     OW32800   2.793   0.462   5.573 -0.3531  0.3134  0.1517
 7056SOL    HW132801   2.745   0.402   5.632 -1.0758 -1.7176 -2.5001
 7056SOL    HW232802   2.807   0.407   5.496 -1.4053  0.7300 -0.3374
 7057SOL     OW32803   1.941   2.079   6.594  0.7086  0.3660 -0.3646
 7057SOL    HW132804   1.854   2.076   6.633  1.5337  0.2100  1.4314
 7057SOL    HW232805   1.984   2.025   6.660  0.4614  0.4543 -0.1331
 7058SOL     OW32806   2.514   3.128   3.944 -0.2825 -0.0672  0.5142
 7058SOL    HW132807   2.567   3.083   3.877  0.2796  0.8454  0.3355
 7058SOL    HW232808   2.468   3.188   3.884  1.1562 -0.9993 -1.5094
 7059SOL     OW32809   0.141   2.896  15.754  0.2352 -0.3012 -0.2046
 7059SOL    HW132810   0.161   2.924  15.843  0.1227  0.6488 -0.4794
 7059SOL    HW232811   0.231   2.882  15.724  0.0735 -2.8831  0.5538
 7060SOL     OW32812   2.477   4.614   4.614 -0.2080  0.6459 -0.3129
 7060SOL    HW132813   2.519   4.679   4.670  0.0106  1.2950 -1.2289
 7060SOL    HW232814   2.401   4.586   4.665 -0.1170 -0.0901 -0.5775
 7061SOL     OW32815   3.026   0.814   9.022  0.4454 -0.6726  0.1005
 7061SOL    HW132816   3.043   0.906   9.002  0.0059 -0.7908 -0.8089
 7061SOL    HW232817   3.012   0.813   9.117  2.1603  0.4606  0.3723
 7062SOL     OW32818   2.213   0.343  16.804 -0.0521  0.6119 -0.1184
 7062SOL    HW132819   2.152   0.324  16.875 -1.6948 -1.5350 -2.1195
 7062SOL    HW232820   2.278   0.273  16.806  0.4119  1.0552  0.2625
 7063SOL     OW32821   3.442   0.134  16.639  1.0880 -0.6463  0.1075
 7063SOL    HW132822   3.460   0.178  16.557  0.1112 -1.7329 -0.6890
 7063SOL    HW232823   3.460   0.197  16.709 -0.9336 -0.2812  0.2889
 7064SOL     OW32824   0.797   3.276   3.940  0.0563 -0.1446 -0.6609
 7064SOL    HW132825   0.771   3.264   4.031 -0.0257 -1.2113 -0.8184
 7064SOL    HW232826   0.892   3.278   3.948  0.0638  0.7191 -0.9944
 7065SOL     OW32827   0.726   0.113   6.759  0.5614 -0.3380  0.5367
 7065SOL    HW132828   0.638   0.083   6.738  0.3749  0.9817 -0.5754
 7065SOL    HW232829   0.704   0.196   6.802  1.8360  1.7488 -2.8609
 7066SOL     OW32830   2.979   0.212  13.815  0.6450  0.2501  0.0381
 7066SOL    HW132831   2.916   0.140  13.816  1.4386 -0.4044  2.6052
 7066SOL    HW232832   3.056   0.172  13.855  0.1303 -0.9208 -0.1470
 7067SOL     OW32833   4.154   0.756   5.806  0.3711  0.1293  0.5916
 7067SOL    HW132834   4.174   0.707   5.887 -1.2146 -1.6922 -0.1274
 7067SOL    HW232835   4.152   0.686   5.741 -1.2536  0.6431  0.0934
 7068SOL     OW32836   4.364   3.605   0.671  0.1129  0.3489 -0.1452
 7068SOL    HW132837   4.456   3.626   0.655  0.3177  0.5690  1.2937
 7068SOL    HW232838   4.363   3.582   0.764 -1.7014  0.1239 -0.2251
 7069SOL     OW32839   0.609   0.015   9.265  0.0685 -0.0186 -0.0931
 7069SOL    HW132840   0.514   0.007   9.276 -0.1249  1.9185 -0.4530
 7069SOL    HW232841   0.608   0.076   9.192  0.1477 -0.1177 -0.1770
 7070SOL     OW32842   4.312   1.161  12.622  0.3195 -0.4545  0.3267
 7070SOL    HW132843   4.336   1.072  12.647  0.0353 -0.7315 -0.3966
 7070SOL    HW232844   4.220   1.149  12.597  0.7062  1.5726 -2.0403
 7071SOL     OW32845   0.554   0.169  10.158  0.3664 -0.2363  0.0947
 7071SOL    HW132846   0.479   0.110  10.166  0.1287  0.1856  1.0024
 7071SOL    HW232847   0.550   0.190  10.065 -1.2986  1.9000  0.6416
 7072SOL     OW32848   4.009   1.740   0.911 -0.2599  0.3201 -0.1406
 7072SOL    HW132849   4.042   1.652   0.891  1.4228  0.5953  1.4820
 7072SOL    HW232850   4.096   1.778   0.921  0.7917 -1.8884 -0.8502
 7073SOL     OW32851   2.014   3.284  10.983 -0.1141 -0.1282  0.6919
 7073SOL    HW132852   2.082   3.306  10.919  1.2068  0.3686  2.2634
 7073SOL    HW232853   2.066   3.267  11.062  2.0990 -0.1869 -0.7632
 7074SOL     OW32854   0.275   0.481  14.467  0.2051 -0.7969 -0.4586
 7074SOL    HW132855   0.359   0.498  14.424  1.7921  1.1895  3.4520
 7074SOL    HW232856   0.237   0.425  14.399 -1.6408 -0.8066  0.5672
 7075SOL     OW32857   1.345   4.247   7.768  0.8030  0.4450 -0.4991
 7075SOL    HW132858   1.351   4.283   7.857  1.6340 -1.0510  0.0575
 7075SOL    HW232859   1.272   4.185   7.768  0.2738  1.0586 -3.3037
 7076SOL     OW32860   0.096   3.698  13.360  0.6641  0.3084 -0.1240
 7076SOL    HW132861   0.114   3.624  13.302 -0.3995  1.2924 -1.7001
 7076SOL    HW232862   0.174   3.751  13.344  1.7489 -1.2633  0.0243
 7077SOL     OW32863   0.313   3.880  13.408 -0.0277  0.2357 -0.2233
 7077SOL    HW132864   0.394   3.889  13.358 -0.5931  2.0346 -0.8404
 7077SOL    HW232865   0.280   3.970  13.415 -1.1804 -0.2421  0.5601
 7078SOL     OW32866   1.697   0.401   9.419  0.0264 -0.5036 -0.2318
 7078SOL    HW132867   1.652   0.395   9.334 -1.1370  0.9049  0.2714
 7078SOL    HW232868   1.647   0.354   9.486  0.1719  0.8862  0.8636
 7079SOL     OW32869   1.123   2.308   5.805 -0.2469 -0.3022 -0.2581
 7079SOL    HW132870   1.072   2.294   5.725 -2.6294  1.3694  0.9482
 7079SOL    HW232871   1.148   2.400   5.795  1.8613 -0.7529  0.8950
 7080SOL     OW32872   2.106   3.023   4.237  0.3472  0.0506  0.4963
 7080SOL    HW132873   2.131   3.064   4.320  0.1579 -0.1412  0.6476
 7080SOL    HW232874   2.196   3.019   4.203 -0.0427  3.7326 -0.9777
 7081SOL     OW32875   4.261   1.992   3.445  0.2613  0.1031 -0.5598
 7081SOL    HW132876   4.210   2.073   3.434 -1.2647 -1.0963 -2.3126
 7081SOL    HW232877   4.350   2.018   3.425  1.2281 -1.2900  1.9581
 7082SOL     OW32878   2.143   4.188   2.527 -0.4851  0.1486 -0.2149
 7082SOL    HW132879   2.097   4.272   2.521  0.5110  0.7906  0.9565
 7082SOL    HW232880   2.201   4.216   2.456  1.8066 -2.5043  0.6100
 7083SOL     OW32881   1.607   4.366  10.204 -0.0759  0.3021 -0.4046
 7083SOL    HW132882   1.677   4.420  10.241  1.5321 -0.2123 -2.6461
 7083SOL    HW232883   1.569   4.424  10.138  2.2093  0.8788 -1.2454
 7084SOL     OW32884   0.292   4.287  17.547 -0.4186 -0.4011 -0.0591
 7084SOL    HW132885   0.210   4.241  17.529 -0.5121 -0.3003  0.1136
 7084SOL    HW232886   0.351   4.212  17.542  0.1022 -0.0931  1.5953
 7085SOL     OW32887   2.767   4.212   8.656  0.7302  0.2770  0.2807
 7085SOL    HW132888   2.770   4.184   8.565 -1.3857 -0.3823  0.4089
 7085SOL    HW232889   2.784   4.307   8.659 -1.5795  0.6403  2.2495
 7086SOL     OW32890   0.596   0.469   8.790  0.0163  0.4586  0.7214
 7086SOL    HW132891   0.558   0.548   8.752 -0.7015 -0.4139 -0.3650
 7086SOL    HW232892   0.680   0.501   8.823 -0.2237  1.3749  0.4218
 7087SOL     OW32893   2.483   4.370  10.114  0.3295  0.5886 -0.1555
 7087SOL    HW132894   2.552   4.328  10.166  1.3839  2.0386 -0.3640
 7087SOL    HW232895   2.414   4.308  10.137 -1.6342  2.3144 -1.3635
 7088SOL     OW32896   3.141   4.085  15.877 -0.2710  0.4625 -0.3813
 7088SOL    HW132897   3.197   4.024  15.829  0.6856 -2.4042  4.2990
 7088SOL    HW232898   3.099   4.024  15.939  0.3763  1.8643  1.4310
 7089SOL     OW32899   2.801   1.596   5.776  0.8189 -0.8387  0.1304
 7089SOL    HW132900   2.724   1.567   5.825 -0.8622  0.6518 -1.6162
 7089SOL    HW232901   2.779   1.586   5.683 -0.1891 -0.6260  0.3481
 7090SOL     OW32902   0.474   2.168   6.215  0.0532 -0.1060 -0.2175
 7090SOL    HW132903   0.534   2.126   6.153 -0.7317 -0.1207 -0.9750
 7090SOL    HW232904   0.402   2.173   6.152 -0.1412 -1.4604 -0.1023
 7091SOL     OW32905   2.640   2.808   8.687 -0.5933  0.2080  0.2081
 7091SOL    HW132906   2.608   2.718   8.678 -0.5156  0.0044  2.0472
 7091SOL    HW232907   2.662   2.831   8.596  1.8518 -0.8718  0.5380
 7092SOL     OW32908   3.576   2.537   1.901  0.0670  0.2429  0.7842
 7092SOL    HW132909   3.658   2.498   1.930 -0.1302 -1.1047 -0.4443
 7092SOL    HW232910   3.603   2.629   1.897 -0.5409  0.4104  0.3932
 7093SOL     OW32911   4.137   0.764   3.659  0.0726  0.2366  0.1768
 7093SOL    HW132912   4.046   0.787   3.637  0.7008  1.1379 -1.5324
 7093SOL    HW232913   4.155   0.684   3.608  0.4816 -0.6289  1.6920
 7094SOL     OW32914   1.221   4.372   7.043 -0.1155 -0.8314 -0.0804
 7094SOL    HW132915   1.316   4.372   7.041 -0.1082 -3.5777  0.5671
 7094SOL    HW232916   1.216   4.344   7.134 -0.0949 -1.1960 -0.1914
 7095SOL     OW32917   4.477   2.095   3.693 -0.4745  0.2878  0.0393
 7095SOL    HW132918   4.472   2.000   3.688  0.1353  0.1878  1.3666
 7095SOL    HW232919   4.548   2.111   3.756 -0.9689  3.4024 -0.1600
 7096SOL     OW32920   4.666   3.232   0.147  0.0705  0.0877 -0.2628
 7096SOL    HW132921   4.688   3.216   0.239  0.0868  0.1755 -0.2516
 7096SOL    HW232922   4.721   3.310   0.140  2.2063 -1.2650  1.4278
 7097SOL     OW32923   2.428   0.260  13.708  0.4189 -0.0795 -0.2058
 7097SOL    HW132924   2.451   0.304  13.790 -1.2504 -1.9567  1.2401
 7097SOL    HW232925   2.505   0.280  13.654  0.8777 -3.7315 -0.8672
 7098SOL     OW32926   2.795   3.841   9.521 -0.1427  0.0891 -0.3694
 7098SOL    HW132927   2.807   3.922   9.570 -0.9535  0.3200 -0.5557
 7098SOL    HW232928   2.876   3.835   9.470 -0.0578  0.4971 -0.2812
 7099SOL     OW32929   1.337   1.173   2.538  0.7296 -0.4201  0.0114
 7099SOL    HW132930   1.393   1.199   2.465  1.1442  2.2911  1.3304
 7099SOL    HW232931   1.311   1.088   2.500 -1.4729  0.1957  0.1651
 7100SOL     OW32932   1.152   4.518  17.349 -0.2637  0.1655 -0.6944
 7100SOL    HW132933   1.177   4.438  17.303  2.2610  0.4069  0.2870
 7100SOL    HW232934   1.167   4.486  17.438 -1.0582  2.3151  0.2062
 7101SOL     OW32935   0.759   1.030   4.813 -0.3672 -0.0264  0.4614
 7101SOL    HW132936   0.669   1.058   4.794 -1.1993 -4.1186 -1.7321
 7101SOL    HW232937   0.775   0.948   4.767 -0.4054 -0.0404  0.4732
 7102SOL     OW32938   0.557   0.739   4.218  0.4017 -0.0441 -0.5737
 7102SOL    HW132939   0.540   0.778   4.303 -0.6980 -1.4638 -0.1380
 7102SOL    HW232940   0.499   0.789   4.160  1.2119  0.0813 -1.2754
 7103SOL     OW32941   3.620   1.607   2.977  0.1585 -0.2609 -0.4619
 7103SOL    HW132942   3.618   1.552   3.055  2.7194  0.4565  0.1309
 7103SOL    HW232943   3.530   1.638   2.967  0.4156  0.7329  0.3814
 7104SOL     OW32944   1.672   4.131  16.964  0.2202  0.2752 -0.7283
 7104SOL    HW132945   1.644   4.151  16.875  0.5126 -0.7640 -1.0531
 7104SOL    HW232946   1.727   4.207  16.984 -2.0227  1.0518  2.4934
 7105SOL     OW32947   1.535   2.802   5.009  0.2784  0.4392  0.5268
 7105SOL    HW132948   1.507   2.728   5.062  2.4872  0.0987  1.1878
 7105SOL    HW232949   1.583   2.850   5.076 -0.0536  2.7974 -0.9142
 7106SOL     OW32950   1.179   0.065   6.772  0.4911  0.1142 -0.0057
 7106SOL    HW132951   1.216   0.024   6.850  0.2793 -2.2091 -1.1077
 7106SOL    HW232952   1.102   0.011   6.754  1.6973 -0.3643 -3.8539
 7107SOL     OW32953   1.813   0.631   5.132 -0.1727 -0.4548 -0.2563
 7107SOL    HW132954   1.737   0.626   5.074 -1.5629  1.7101  1.4072
 7107SOL    HW232955   1.874   0.579   5.080 -0.9641 -0.9310 -0.7109
 7108SOL     OW32956   3.950   0.340   8.221 -0.3673 -0.4964  0.2272
 7108SOL    HW132957   3.973   0.433   8.225  0.7167 -0.7719  0.4474
 7108SOL    HW232958   3.930   0.326   8.314 -0.2401 -0.8830  0.1943
 7109SOL     OW32959   1.718   4.532   6.327  0.3979 -0.2528 -0.1749
 7109SOL    HW132960   1.795   4.589   6.333  0.0334  0.2821 -0.5213
 7109SOL    HW232961   1.664   4.573   6.394  1.0843  0.5188 -0.0905
 7110SOL     OW32962   1.275   1.888   7.446  0.6304 -0.2009  0.5793
 7110SOL    HW132963   1.262   1.803   7.490 -2.3022  0.7049  1.5063
 7110SOL    HW232964   1.326   1.927   7.517  0.2541 -1.2156  1.4198
 7111SOL     OW32965   2.175   1.926  14.398  0.0751 -0.1541 -0.5798
 7111SOL    HW132966   2.255   1.925  14.344 -1.0169  1.7418 -2.2644
 7111SOL    HW232967   2.181   1.833  14.420  2.2377  0.2408  0.5629
 7112SOL     OW32968   2.059   3.665   4.074 -0.5005 -0.3969 -0.1108
 7112SOL    HW132969   2.131   3.602   4.082 -0.4103 -0.1874  0.7826
 7112SOL    HW232970   2.104   3.747   4.057 -1.1313  0.0437  0.3583
 7113SOL     OW32971   0.375   4.204   2.368 -0.5465 -0.3318 -0.3711
 7113SOL    HW132972   0.455   4.175   2.324  0.9621  1.8917  0.8900
 7113SOL    HW232973   0.337   4.260   2.300  0.2881  0.3142 -0.3093
 7114SOL     OW32974   4.705   2.309  12.741 -0.0544 -0.6940 -0.5108
 7114SOL    HW132975   0.059   2.308  12.744 -0.1204 -1.3294  1.2906
 7114SOL    HW232976   4.688   2.219  12.770  0.1931  1.0674  4.9600
 7115SOL     OW32977   1.016   0.924   3.401 -0.1131  0.4609 -0.0336
 7115SOL    HW132978   0.928   0.942   3.368  0.2942  1.9391 -0.3140
 7115SOL    HW232979   1.068   0.946   3.324  0.3796  0.4262  0.2855
 7116SOL     OW32980   4.132   1.170   1.069 -0.2057  0.4521 -0.2026
 7116SOL    HW132981   4.057   1.208   1.024 -0.6953 -0.5892 -0.2573
 7116SOL    HW232982   4.197   1.241   1.073  0.1540 -0.1010  3.2810
 7117SOL     OW32983   2.691   1.582  14.591 -0.5533  0.3394  0.7114
 7117SOL    HW132984   2.744   1.503  14.583  0.8618  1.2865  0.8516
 7117SOL    HW232985   2.610   1.546  14.626 -0.4935 -0.3118  0.1655
 7118SOL     OW32986   2.970   4.487   2.864  0.2145  0.5644 -0.0490
 7118SOL    HW132987   2.896   4.505   2.806  2.1299 -1.5413 -3.1439
 7118SOL    HW232988   2.928   4.428   2.927 -1.0864 -1.8333 -3.1403
 7119SOL     OW32989   1.515   0.049   2.749  0.3301 -0.1701 -0.1328
 7119SOL    HW132990   1.463   0.086   2.677  0.0894  0.5656  0.4095
 7119SOL    HW232991   1.514   4.697   2.730 -0.5985  0.0886 -1.3534
 7120SOL     OW32992   3.983   4.487   6.106 -0.2523  0.0686 -0.1906
 7120SOL    HW132993   3.921   4.534   6.050 -1.1463 -0.5650  0.2649
 7120SOL    HW232994   4.007   4.424   6.039 -0.0480  1.8220 -1.7611
 7121SOL     OW32995   3.041   0.427  16.996  0.7763 -0.3706  0.0930
 7121SOL    HW132996   2.955   0.423  16.953 -0.2792 -1.0973  2.2791
 7121SOL    HW232997   3.043   0.523  17.003  0.6685 -0.1729 -2.5925
 7122SOL     OW32998   1.806   1.678  13.098 -0.1263  0.4826 -0.2017
 7122SOL    HW132999   1.875   1.703  13.036 -1.1585 -2.5382 -2.5911
 7122SOL    HW233000   1.818   1.584  13.088  1.6822  0.6142  0.7057
 7123SOL     OW33001   2.891   0.524  12.508 -0.1064  0.3717 -0.5605
 7123SOL    HW133002   2.979   0.487  12.512 -0.3488 -0.1022  0.5491
 7123SOL    HW233003   2.907   0.618  12.505  0.8574  0.1848 -1.0735
 7124SOL     OW33004   4.333   3.291   5.623 -0.5149  0.2210 -0.0823
 7124SOL    HW133005   4.402   3.281   5.689 -0.4844 -1.2278 -0.3386
 7124SOL    HW233006   4.290   3.206   5.613  1.3996 -0.8669  0.9706
 7125SOL     OW33007   3.452   0.348  16.053 -0.0048 -0.0992 -0.2320
 7125SOL    HW133008   3.395   0.381  16.122  0.0433 -1.6344  0.5574
 7125SOL    HW233009   3.425   0.398  15.976 -1.1137  1.3418  1.1103
 7126SOL     OW33010   2.848   0.421   2.233  0.0999  0.3257 -0.1811
 7126SOL    HW133011   2.783   0.468   2.285 -1.1487  0.0299 -1.4769
 7126SOL    HW233012   2.908   0.439   2.306 -1.4901 -0.8959  1.4368
 7127SOL     OW33013   2.887   3.064   2.229 -0.2466  0.1339  0.3651
 7127SOL    HW133014   2.923   3.143   2.187  0.4151 -0.4116 -0.0915
 7127SOL    HW233015   2.863   3.011   2.153  0.3013 -1.7937  1.5575
 7128SOL     OW33016   2.179   1.791  15.556  0.4562  0.0753 -0.3368
 7128SOL    HW133017   2.122   1.792  15.633  0.8929 -2.0908  0.0300
 7128SOL    HW233018   2.230   1.713  15.578  1.1014 -0.1203 -2.4776
 7129SOL     OW33019   3.136   1.642   9.303 -0.2022  0.6152 -0.6582
 7129SOL    HW133020   3.088   1.666   9.382  0.4564 -1.5236  0.4015
 7129SOL    HW233021   3.123   1.716   9.244 -0.2587 -0.9334 -2.5857
 7130SOL     OW33022   3.843   4.130  14.194  0.0871  0.5929 -0.6169
 7130SOL    HW133023   3.764   4.155  14.146 -1.9095  0.7437  2.8016
 7130SOL    HW233024   3.825   4.184  14.271 -0.9693  0.8487 -1.0465
 7131SOL     OW33025   0.209   0.404   2.198 -0.5459  0.4266 -0.6233
 7131SOL    HW133026   0.209   0.381   2.105  1.7299  0.7479 -0.6997
 7131SOL    HW233027   0.296   0.434   2.227 -1.1214  0.1568  1.3630
 7132SOL     OW33028   4.178   3.938   6.813 -0.2876 -0.0007  0.1087
 7132SOL    HW133029   4.245   4.004   6.795 -0.9204  0.6268  0.0973
 7132SOL    HW233030   4.123   3.985   6.875  1.4043  0.2833  1.3949
 7133SOL     OW33031   1.376   2.061  13.266  0.3751  0.2569 -0.5930
 7133SOL    HW133032   1.396   2.123  13.196 -0.6165  3.4924  1.9350
 7133SOL    HW233033   1.452   2.003  13.270  0.2252  0.0814 -0.2832
 7134SOL     OW33034   2.396   1.893   9.187  0.0572  0.1524  0.4457
 7134SOL    HW133035   2.400   1.798   9.202 -0.1381  0.3173  1.5037
 7134SOL    HW233036   2.331   1.904   9.118  1.2623  0.6881 -0.6103
 7135SOL     OW33037   3.304   2.050  12.883  0.1847  0.1913 -0.7539
 7135SOL    HW133038   3.248   1.978  12.856  0.3523 -0.0269 -0.5189
 7135SOL    HW233039   3.283   2.052  12.977  1.6336  2.3820 -0.4665
 7136SOL     OW33040   1.149   1.885  10.147 -0.2108  0.1561  0.1766
 7136SOL    HW133041   1.124   1.941  10.220  0.7755  0.8762 -0.0292
 7136SOL    HW233042   1.119   1.803  10.186 -1.3099  1.3820  1.8612
 7137SOL     OW33043   0.290   2.736   0.221  0.8037 -0.3744 -0.1051
 7137SOL    HW133044   0.282   2.731   0.316 -1.2423  1.2892 -0.1953
 7137SOL    HW233045   0.383   2.711   0.214  0.7089 -0.7324 -0.0774
 7138SOL     OW33046   3.349   4.174   3.623 -0.3439 -0.3348  0.2485
 7138SOL    HW133047   3.263   4.135   3.641  0.5754 -1.8213  1.4837
 7138SOL    HW233048   3.358   4.234   3.697  0.5151 -0.5604  0.3311
 7139SOL     OW33049   2.207   0.063   1.778 -0.0057 -0.4410 -0.0605
 7139SOL    HW133050   2.266   0.058   1.853 -2.1829 -1.6162  1.5767
 7139SOL    HW233051   2.165   0.148   1.786 -0.4457 -0.6415 -0.2018
 7140SOL     OW33052   1.465   1.747   6.546  0.2503 -0.0636  0.0564
 7140SOL    HW133053   1.506   1.813   6.491  1.5176 -0.7042  0.2145
 7140SOL    HW233054   1.370   1.747   6.535  0.1860 -3.4882  0.5699
 7141SOL     OW33055   4.385   2.676   3.964 -0.0988 -0.0979  0.2175
 7141SOL    HW133056   4.403   2.762   3.927 -0.3110 -0.4843 -0.7815
 7141SOL    HW233057   4.292   2.680   3.989 -0.4989 -0.4912 -1.2070
 7142SOL     OW33058   3.858   0.291  10.585  0.2186  0.3758  0.2705
 7142SOL    HW133059   3.862   0.242  10.503 -0.5729 -0.4915  0.7545
 7142SOL    HW233060   3.779   0.341  10.567  1.9307  2.4585 -1.3482
 7143SOL     OW33061   3.776   0.475   0.280 -0.1653  0.2883  0.5145
 7143SOL    HW133062   3.825   0.396   0.303 -1.7993 -0.4680  1.4132
 7143SOL    HW233063   3.728   0.452   0.200  0.9616  0.8438 -0.3206
 7144SOL     OW33064   0.339   2.626   4.938 -0.2888 -0.2696  0.2413
 7144SOL    HW133065   0.330   2.531   4.953 -0.6050 -0.6997 -2.6739
 7144SOL    HW233066   0.426   2.628   4.897 -0.5222 -0.5758 -0.2703
 7145SOL     OW33067   3.099   0.085   6.514  0.2584 -0.1231  0.4562
 7145SOL    HW133068   3.105   0.095   6.609 -0.3881  2.2861  0.2401
 7145SOL    HW233069   3.064   0.174   6.504  1.5818  0.2288 -1.0015
 7146SOL     OW33070   1.468   2.315   6.389  0.6414  0.2745 -0.1404
 7146SOL    HW133071   1.456   2.324   6.483 -2.3097  1.9408 -0.6507
 7146SOL    HW233072   1.393   2.257   6.375  0.1910  0.7609  0.2257
 7147SOL     OW33073   4.279   2.242   4.193  0.1443 -0.0389 -0.2075
 7147SOL    HW133074   4.190   2.276   4.181  0.1783  0.5410  1.2172
 7147SOL    HW233075   4.292   2.244   4.288 -3.9370 -2.5793  0.4039
 7148SOL     OW33076   1.264   3.692   5.532  0.2951  0.0217  0.1962
 7148SOL    HW133077   1.269   3.738   5.615 -2.4012 -1.5022  1.2045
 7148SOL    HW233078   1.210   3.619   5.562  0.4079  0.2852  1.0273
 7149SOL     OW33079   4.625   3.974  14.348  0.9351  0.0709 -0.2862
 7149SOL    HW133080   4.636   4.069  14.341  3.0084 -0.2407 -1.2840
 7149SOL    HW233081   4.710   3.947  14.312  0.1023 -0.6655 -1.7120
 7150SOL     OW33082   4.119   1.997   9.729  0.0985 -0.0640 -0.1265
 7150SOL    HW133083   4.167   1.942   9.668  0.5992 -0.1009  0.3011
 7150SOL    HW233084   4.153   2.085   9.718 -1.1609  0.5877  1.2350
 7151SOL     OW33085   3.808   3.340   5.458  0.2870  0.3973 -0.1841
 7151SOL    HW133086   3.881   3.366   5.401  0.3986 -1.3108 -0.8015
 7151SOL    HW233087   3.813   3.399   5.533 -1.1997 -0.7675  0.8298
 7152SOL     OW33088   0.261   3.477  15.639 -0.2146 -0.3864  0.2514
 7152SOL    HW133089   0.203   3.537  15.591  0.7419  0.5858  0.3028
 7152SOL    HW233090   0.333   3.537  15.658  0.2271 -0.8778  0.1025
 7153SOL     OW33091   1.624   3.528   2.634  0.2518 -1.3947  0.0847
 7153SOL    HW133092   1.530   3.538   2.621  0.1649 -0.6488  1.2979
 7153SOL    HW233093   1.652   3.595   2.697 -1.3515 -1.2428  0.6311
 7154SOL     OW33094   1.888   1.310   0.988  0.1193  0.1814  0.1573
 7154SOL    HW133095   1.850   1.230   0.952  0.6714  1.5615 -3.5806
 7154SOL    HW233096   1.978   1.278   1.001  1.9650  4.7851 -1.1310
 7155SOL     OW33097   2.101   3.824   8.011 -0.2618 -0.1269  0.1777
 7155SOL    HW133098   2.024   3.774   7.983 -0.5100 -0.9090  2.2684
 7155SOL    HW233099   2.154   3.750   8.042 -2.2961 -2.0761 -0.9704
 7156SOL     OW33100   2.169   3.988   3.786 -0.1189  0.2036 -0.4781
 7156SOL    HW133101   2.233   4.059   3.781 -0.2806  0.3183 -0.8981
 7156SOL    HW233102   2.159   3.983   3.881 -0.8222 -1.0817 -0.6056
 7157SOL     OW33103   1.279   2.097   5.755 -0.3124 -0.0799  0.0670
 7157SOL    HW133104   1.199   2.045   5.740 -0.8624  1.0816 -1.0456
 7157SOL    HW233105   1.246   2.179   5.790  1.6881  0.7025  0.1022
 7158SOL     OW33106   3.183   1.620   7.887 -0.2350 -0.0836  0.3992
 7158SOL    HW133107   3.103   1.672   7.880  0.5378  1.1731  0.8933
 7158SOL    HW233108   3.171   1.599   7.980  1.0659 -2.2875  0.0704
 7159SOL     OW33109   0.161   3.991   8.302 -0.2408 -0.3496 -0.1263
 7159SOL    HW133110   0.111   4.050   8.246 -0.9349 -1.1352 -0.3511
 7159SOL    HW233111   0.127   4.012   8.390 -1.9578  1.4142 -1.2105
 7160SOL     OW33112   0.425   2.849   5.168 -0.4662  0.2972  0.4478
 7160SOL    HW133113   0.382   2.767   5.142  3.1929 -0.6390 -2.7059
 7160SOL    HW233114   0.483   2.859   5.092  1.4759 -0.2828  1.8386
 7161SOL     OW33115   3.390   3.846   4.072  0.3431  0.4548 -0.3420
 7161SOL    HW133116   3.413   3.849   3.979 -2.2669  1.8784 -0.9254
 7161SOL    HW233117   3.401   3.752   4.085  1.2871  0.5326 -0.5603
 7162SOL     OW33118   2.335   2.314   3.114  0.0698 -0.9676  0.1453
 7162SOL    HW133119   2.292   2.292   3.031 -1.7458 -0.6372  0.9796
 7162SOL    HW233120   2.409   2.367   3.086 -1.4026  0.1076 -1.7299
 7163SOL     OW33121   3.014   4.517   7.378 -0.0797 -0.3485 -0.1045
 7163SOL    HW133122   3.014   4.544   7.286 -3.1916  0.8827  0.2331
 7163SOL    HW233123   3.100   4.481   7.399  0.0127  0.4139  0.8212
 7164SOL     OW33124   0.109   2.113   8.223  0.4229 -0.4653  0.1210
 7164SOL    HW133125   0.119   2.167   8.302 -0.3101  1.2673 -0.9565
 7164SOL    HW233126   0.094   2.025   8.256 -0.8452 -0.3229 -0.0741
 7165SOL     OW33127   2.893   4.498   7.039  0.4263 -0.3488  0.1843
 7165SOL    HW133128   2.910   4.486   6.946  3.9557 -1.1718  0.9498
 7165SOL    HW233129   2.980   4.533   7.058  0.0957  0.1110  0.8652
 7166SOL     OW33130   1.016   1.460   6.223  0.4969 -0.1104  0.6755
 7166SOL    HW133131   0.970   1.396   6.169  0.3612  0.6457 -0.1110
 7166SOL    HW233132   1.045   1.409   6.299  0.4216  0.4347  1.0768
 7167SOL     OW33133   2.410   2.834  11.656  0.2244 -0.1505  0.4770
 7167SOL    HW133134   2.486   2.776  11.648  0.3703 -0.0323  1.0175
 7167SOL    HW233135   2.454   2.913  11.625  0.2305 -0.4415 -0.2603
 7168SOL     OW33136   0.691   1.002   9.397 -0.2154 -0.2874 -0.2905
 7168SOL    HW133137   0.783   1.013   9.419  0.3138 -1.7696 -1.8421
 7168SOL    HW233138   0.692   0.920   9.347  0.7593  0.3166 -1.2289
 7169SOL     OW33139   4.235   0.748   6.908  0.0297  0.5076 -0.1248
 7169SOL    HW133140   4.245   0.840   6.933 -4.5221  1.1815 -0.6620
 7169SOL    HW233141   4.318   0.734   6.863  0.5621  3.7263 -0.1386
 7170SOL     OW33142   2.936   0.804   4.136 -0.1352 -0.1220 -0.1889
 7170SOL    HW133143   2.957   0.715   4.163 -1.8371 -0.3387  0.4390
 7170SOL    HW233144   3.019   0.850   4.144  0.2410 -0.6756 -0.8395
 7171SOL     OW33145   0.561   3.736   7.521  0.4927  0.2167  0.8447
 7171SOL    HW133146   0.560   3.654   7.569 -1.2106 -0.3596 -0.1636
 7171SOL    HW233147   0.479   3.772   7.554 -0.8837 -1.8710 -0.2875
 7172SOL     OW33148   1.803   3.380   5.245  0.0473  0.1347  0.4590
 7172SOL    HW133149   1.849   3.443   5.300 -1.8629  0.5321  1.6256
 7172SOL    HW233150   1.725   3.359   5.296  1.5976 -0.8818  2.4012
 7173SOL     OW33151   3.798   0.297   2.380  0.1029 -0.2069 -0.0957
 7173SOL    HW133152   3.749   0.361   2.431  2.5739  1.7596 -0.1829
 7173SOL    HW233153   3.862   0.356   2.339 -0.7562  0.8515  0.0858
 7174SOL     OW33154   1.067   2.077   0.183  0.0435 -0.4142 -0.1416
 7174SOL    HW133155   1.086   1.988   0.213 -0.3173 -0.2388  0.6002
 7174SOL    HW233156   0.975   2.064   0.160  0.2517  1.6491 -2.0727
 7175SOL     OW33157   0.425   3.656   2.563  0.2787  0.1157 -0.1025
 7175SOL    HW133158   0.347   3.697   2.601 -1.3809 -1.4711 -1.8036
 7175SOL    HW233159   0.483   3.681   2.636  2.8650  1.2269 -2.5353
 7176SOL     OW33160   0.096   2.175   4.253 -0.4741 -0.1182 -0.2640
 7176SOL    HW133161   0.019   2.123   4.274  0.5689 -0.9895  1.3999
 7176SOL    HW233162   0.061   2.256   4.215  0.7612  0.1191 -0.8970
 7177SOL     OW33163   2.774   0.552   3.107  0.5525  0.0190 -0.7640
 7177SOL    HW133164   2.795   0.535   3.015  1.6121  1.5062 -0.8057
 7177SOL    HW233165   2.689   0.509   3.112  0.8171 -0.3490  0.4475
 7178SOL     OW33166   1.323   1.640   1.184  0.0743 -0.1499  0.4739
 7178SOL    HW133167   1.415   1.613   1.182  0.2062  0.1653  3.5033
 7178SOL    HW233168   1.299   1.626   1.275  0.3293 -1.0533  0.4045
 7179SOL     OW33169   2.056   2.270   4.365  0.2735  0.0397  0.1846
 7179SOL    HW133170   2.141   2.227   4.365  0.3453  0.1881 -0.8206
 7179SOL    HW233171   2.076   2.335   4.298  0.6416  0.4925  0.7352
 7180SOL     OW33172   0.903   1.160   8.436  0.0786  0.4640 -0.2079
 7180SOL    HW133173   0.817   1.190   8.404  0.4789  0.2507 -1.4873
 7180SOL    HW233174   0.893   1.065   8.442  0.6787  0.2947 -1.9410
 7181SOL     OW33175   1.305   2.709   0.803  0.0749  0.2107 -0.6119
 7181SOL    HW133176   1.281   2.654   0.729  1.8110 -2.1590  0.6085
 7181SOL    HW233177   1.396   2.680   0.802  0.2502  0.6735  1.7137
 7182SOL     OW33178   3.753   2.033   7.219 -0.2922 -0.1406  0.2036
 7182SOL    HW133179   3.808   2.091   7.166 -0.4249 -2.3704 -2.3376
 7182SOL    HW233180   3.763   2.069   7.307  1.6129  0.6322 -0.3347
 7183SOL     OW33181   0.269   1.693   5.458  0.4231 -0.3346  0.0203
 7183SOL    HW133182   0.358   1.663   5.479 -0.1628  0.3041  3.4271
 7183SOL    HW233183   0.250   1.643   5.379  0.3694 -0.6782  0.2479
 7184SOL     OW33184   3.082   3.224   7.309 -0.2625 -0.0053 -0.6240
 7184SOL    HW133185   3.009   3.235   7.249 -0.7220  1.4232  0.1917
 7184SOL    HW233186   3.150   3.272   7.261  0.8589 -2.1770 -1.2042
 7185SOL     OW33187   3.580   1.438   4.626  0.1396 -0.0027  0.0818
 7185SOL    HW133188   3.672   1.435   4.655 -0.3687 -1.7951  1.5095
 7185SOL    HW233189   3.546   1.489   4.699 -0.4897 -0.8239  0.3663
 7186SOL     OW33190   3.520   3.555   9.073  0.2889 -0.2733 -0.7940
 7186SOL    HW133191   3.594   3.495   9.080 -0.3024 -0.6380  2.1560
 7186SOL    HW233192   3.485   3.550   8.984 -1.3747 -0.5372 -0.1241
 7187SOL     OW33193   0.110   1.647   8.311 -0.5079  0.3828 -0.0607
 7187SOL    HW133194   0.085   1.627   8.401  3.5288  1.2333  1.2442
 7187SOL    HW233195   0.061   1.729   8.302 -2.7618 -0.7180  2.1829
 7188SOL     OW33196   0.769   1.857   4.161  0.4836 -0.1393 -0.1636
 7188SOL    HW133197   0.802   1.775   4.126  0.1903 -0.5081  0.4297
 7188SOL    HW233198   0.701   1.884   4.100 -0.8803 -0.1578  1.3563
 7189SOL     OW33199   1.781   3.173   5.548 -0.3092 -0.3306  0.0036
 7189SOL    HW133200   1.761   3.248   5.605  1.4269 -1.5586  2.2382
 7189SOL    HW233201   1.696   3.130   5.550 -0.8981  0.9424  2.2089
 7190SOL     OW33202   2.864   0.896   7.471  0.2990  0.2526 -0.5247
 7190SOL    HW133203   2.876   0.956   7.397  0.5440  1.4136  0.4495
 7190SOL    HW233204   2.827   0.817   7.431  0.9141  0.4119 -1.3959
 7191SOL     OW33205   2.633   0.403   9.546  0.0316  0.2786 -0.8845
 7191SOL    HW133206   2.710   0.363   9.504  0.4321  0.4405 -0.3092
 7191SOL    HW233207   2.595   0.325   9.586 -2.2618  1.3224 -1.0579
 7192SOL     OW33208   0.442   3.379   2.559 -0.5736  0.1856 -0.5598
 7192SOL    HW133209   0.451   3.472   2.538  0.6207 -0.1425 -1.5193
 7192SOL    HW233210   0.348   3.361   2.557 -0.4920 -0.2527 -0.4680
 7193SOL     OW33211   4.604   4.208   4.701 -0.2104 -0.1258 -0.2624
 7193SOL    HW133212   4.581   4.155   4.624  0.3609  0.0663 -0.5678
 7193SOL    HW233213   4.627   4.293   4.664  0.1868  0.3043  1.0024
 7194SOL     OW33214   1.556   4.500   3.212  0.4391 -0.9729  0.2945
 7194SOL    HW133215   1.619   4.429   3.200  1.8963  0.3458  0.0278
 7194SOL    HW233216   1.573   4.568   3.146 -2.6473 -0.4245  0.0692
 7195SOL     OW33217   0.895   4.400   2.708 -0.0223 -0.0487  0.2999
 7195SOL    HW133218   0.969   4.438   2.755 -0.2710  0.8941 -0.0802
 7195SOL    HW233219   0.822   4.406   2.769 -0.7098 -1.6904 -0.3512
 7196SOL     OW33220   0.595   0.545   9.884  0.9806  0.0470  0.1288
 7196SOL    HW133221   0.587   0.620   9.944 -1.7897  0.1117 -0.3418
 7196SOL    HW233222   0.672   0.511   9.931 -0.7346 -0.4735  2.5520
 7197SOL     OW33223   3.703   0.452   4.916 -0.5942  0.1155 -0.1316
 7197SOL    HW133224   3.780   0.446   4.972  0.3280 -2.1343 -1.6390
 7197SOL    HW233225   3.720   0.535   4.871 -0.9348 -1.1500 -2.6039
 7198SOL     OW33226   3.181   4.226  16.521  0.4380  0.8873  0.3457
 7198SOL    HW133227   3.110   4.284  16.546  0.2158  0.2353  1.2592
 7198SOL    HW233228   3.142   4.178  16.448 -0.4718 -0.2745  1.5920
 7199SOL     OW33229   2.458   1.911   7.748 -0.5811 -0.0231  0.0033
 7199SOL    HW133230   2.465   1.922   7.843  1.4855 -1.5421  0.0286
 7199SOL    HW233231   2.430   1.996   7.713  1.1994 -0.3518 -2.2240
 7200SOL     OW33232   0.595   4.601  16.901  0.0659 -0.1024  0.1533
 7200SOL    HW133233   0.537   4.562  16.966  1.3319 -1.1787  0.6598
 7200SOL    HW233234   0.619   4.685  16.939  2.4682  0.7371 -3.1837
 7201SOL     OW33235   4.145   4.423   3.579 -0.8836 -0.2990 -0.1132
 7201SOL    HW133236   4.050   4.416   3.587 -0.7919 -0.6460  0.6277
 7201SOL    HW233237   4.161   4.347   3.523 -1.9598  1.0986 -2.3277
 7202SOL     OW33238   3.819   2.058  15.512 -0.7236  0.3484 -0.2051
 7202SOL    HW133239   3.757   2.128  15.534  1.3823  2.3649 -0.7167
 7202SOL    HW233240   3.890   2.110  15.474 -0.5069  1.3528  1.5904
 7203SOL     OW33241   3.372   4.092  11.427 -0.0033 -0.1158  0.6516
 7203SOL    HW133242   3.306   4.065  11.491 -0.4199  0.7833  0.5920
 7203SOL    HW233243   3.407   4.004  11.410  1.9827  0.7691  0.1867
 7204SOL     OW33244   2.382   1.514  16.103 -0.4310  0.3975 -0.2182
 7204SOL    HW133245   2.420   1.486  16.186  1.4414  0.0679 -1.1824
 7204SOL    HW233246   2.309   1.453  16.098 -0.6439  0.3474  3.3391
 7205SOL     OW33247   3.434   2.218   8.090  0.3085  0.2038 -0.2124
 7205SOL    HW133248   3.496   2.238   8.020 -0.7811  2.3946 -0.5677
 7205SOL    HW233249   3.444   2.126   8.113  0.6214  0.3927  0.3961
 7206SOL     OW33250   2.173   2.128   8.554 -0.3314  0.1197 -0.1945
 7206SOL    HW133251   2.151   2.072   8.480  0.5345 -2.4755  1.5105
 7206SOL    HW233252   2.094   2.119   8.607 -1.0248  0.7786 -1.1395
 7207SOL     OW33253   3.686   3.945  15.365  0.0973  0.3775 -0.4732
 7207SOL    HW133254   3.750   3.974  15.300 -0.1719  0.4724 -0.6966
 7207SOL    HW233255   3.657   3.863  15.324  2.8934 -1.5027  1.3172
 7208SOL     OW33256   3.086   1.912   5.803  0.1191 -0.8519 -0.3841
 7208SOL    HW133257   3.119   2.002   5.798 -2.3799  0.2228  2.7285
 7208SOL    HW233258   3.025   1.905   5.729  0.1436  0.2417 -0.5068
 7209SOL     OW33259   4.650   4.209   3.337  0.3234  0.0214  0.2867
 7209SOL    HW133260   4.650   4.147   3.264  0.4865 -0.3754  0.6233
 7209SOL    HW233261   4.702   4.285   3.309  0.4079 -0.5357 -1.0725
 7210SOL     OW33262   3.773   1.809   8.493 -0.1738  0.0342 -0.0993
 7210SOL    HW133263   3.862   1.807   8.530  1.1642  1.2870 -3.2577
 7210SOL    HW233264   3.728   1.745   8.549 -2.2630  2.1522  0.6123
 7211SOL     OW33265   0.605   0.082   8.040 -0.4802 -0.3226  0.3348
 7211SOL    HW133266   0.546   0.155   8.020  0.7452  0.6775  0.3523
 7211SOL    HW233267   0.688   0.126   8.056 -0.3260  0.7711 -3.5867
 7212SOL     OW33268   1.762   4.264   6.185 -0.9288 -0.2537 -0.5068
 7212SOL    HW133269   1.674   4.246   6.154 -1.1187  2.7597 -1.7826
 7212SOL    HW233270   1.737   4.344   6.231 -0.8969 -0.5125 -0.0447
 7213SOL     OW33271   2.420   1.099   7.596 -0.1912  0.0256  0.2466
 7213SOL    HW133272   2.349   1.124   7.536  1.0719  2.0212 -0.4211
 7213SOL    HW233273   2.380   1.025   7.642 -0.6832  0.7568  0.9983
 7214SOL     OW33274   4.403   1.190   9.371  0.3450 -0.2767 -0.3208
 7214SOL    HW133275   4.441   1.134   9.302 -0.1880 -1.3322  0.2498
 7214SOL    HW233276   4.485   1.199   9.420 -0.6741 -0.4881  1.4205
 7215SOL     OW33277   2.549   3.673   7.022 -0.3441 -0.4298  0.3396
 7215SOL    HW133278   2.471   3.728   7.034 -0.6860 -0.7352 -0.5358
 7215SOL    HW233279   2.571   3.661   7.115 -0.4896  1.4230  0.6238
 7216SOL     OW33280   4.071   0.351   8.871 -0.1400 -0.2897 -0.5383
 7216SOL    HW133281   4.135   0.415   8.904 -1.3388  1.5849 -1.8430
 7216SOL    HW233282   4.008   0.407   8.826 -1.6363  0.1811  2.1401
 7217SOL     OW33283   3.660   0.630  11.333  0.5809 -0.5660 -0.2181
 7217SOL    HW133284   3.570   0.650  11.358  0.3916 -0.7837 -0.7190
 7217SOL    HW233285   3.708   0.604  11.412 -1.0367  1.4251  1.4111
 7218SOL     OW33286   3.323   3.018   6.452 -0.5502  0.2422  0.1411
 7218SOL    HW133287   3.366   2.976   6.377  0.8790 -0.4165  1.3447
 7218SOL    HW233288   3.284   2.953   6.511 -0.6797  1.0157  0.9146
 7219SOL     OW33289   3.248   4.358  16.162  0.3786  0.5970 -0.7401
 7219SOL    HW133290   3.231   4.270  16.195 -1.4218  0.9132 -0.7951
 7219SOL    HW233291   3.336   4.382  16.190  1.2707 -3.1954 -0.3155
 7220SOL     OW33292   1.975   1.122   1.280  0.4306 -0.0383 -0.3234
 7220SOL    HW133293   1.968   1.027   1.278  1.6116 -0.1427  0.3840
 7220SOL    HW233294   2.001   1.134   1.188 -0.5617  0.9124 -0.4833
 7221SOL     OW33295   3.468   3.290   0.340  0.0072 -0.0199 -0.6890
 7221SOL    HW133296   3.521   3.364   0.310 -1.9491  1.3813 -0.6717
 7221SOL    HW233297   3.467   3.296   0.435 -0.8809 -2.5114 -0.5428
 7222SOL     OW33298   2.518   2.716   3.402 -0.1726  0.0541  0.3726
 7222SOL    HW133299   2.463   2.718   3.323  0.9941  1.1993 -0.4125
 7222SOL    HW233300   2.533   2.810   3.413 -1.9064  0.4761 -0.8114
 7223SOL     OW33301   3.143   1.664   4.054  0.0553  0.1754 -0.4717
 7223SOL    HW133302   3.183   1.705   4.131 -0.5106  0.8862 -0.5576
 7223SOL    HW233303   3.188   1.579   4.063  0.0585  0.3791  1.5265
 7224SOL     OW33304   2.964   4.413   6.527 -0.4613  0.1815  0.1426
 7224SOL    HW133305   3.017   4.396   6.450 -1.2875  2.1557 -0.8681
 7224SOL    HW233306   2.876   4.437   6.498 -1.8206 -1.4608  2.8666
 7225SOL     OW33307   2.777   2.501   4.716  0.2748 -0.1695  0.5643
 7225SOL    HW133308   2.716   2.574   4.725  3.3114  2.0115  3.6373
 7225SOL    HW233309   2.806   2.517   4.627 -2.7106 -1.6888 -0.6701
 7226SOL     OW33310   1.209   3.759  11.131 -0.2779 -0.0415 -0.4375
 7226SOL    HW133311   1.237   3.799  11.049  0.8502  0.9789  0.4401
 7226SOL    HW233312   1.190   3.831  11.190  1.4934  0.2352 -0.2130
 7227SOL     OW33313   1.806   2.078  12.992  0.1946 -0.1379  0.3719
 7227SOL    HW133314   1.752   2.021  12.936  0.4647 -0.1922  0.1648
 7227SOL    HW233315   1.884   2.088  12.937 -0.8621 -0.2814 -1.1683
 7228SOL     OW33316   2.312   3.656   8.056  0.2686  0.2582  0.2779
 7228SOL    HW133317   2.394   3.687   8.018  1.2419 -1.8850  0.6152
 7228SOL    HW233318   2.318   3.560   8.053  0.6810  0.2732  0.6738
 7229SOL     OW33319   4.144   2.235   2.288  0.4707  0.4717  0.0077
 7229SOL    HW133320   4.133   2.194   2.374 -0.1164  0.3598 -0.1227
 7229SOL    HW233321   4.061   2.225   2.241  1.3872 -2.6905 -0.9364
 7230SOL     OW33322   2.449   0.627   6.513 -0.2202 -0.3422  0.2977
 7230SOL    HW133323   2.516   0.634   6.445  0.2261 -0.7939  0.6871
 7230SOL    HW233324   2.379   0.687   6.487  0.0065 -1.1845 -2.2762
 7231SOL     OW33325   2.715   0.405  12.093  0.1249  0.0616  0.4645
 7231SOL    HW133326   2.620   0.403  12.103  0.1380 -0.0829  0.5718
 7231SOL    HW233327   2.741   0.340  12.158  0.2909  0.1581  0.4939
 7232SOL     OW33328   4.281   0.454   8.624  0.1469  0.5223  0.6645
 7232SOL    HW133329   4.357   0.502   8.591  0.3377  0.8295  1.5780
 7232SOL    HW233330   4.312   0.423   8.708  0.7447 -3.0781 -0.8897
 7233SOL     OW33331   0.483   4.051   5.036 -0.2082  0.2304 -0.3830
 7233SOL    HW133332   0.525   4.127   5.077  0.7299 -0.3943 -0.1914
 7233SOL    HW233333   0.528   3.978   5.080  3.8038  3.4864  0.9183
 7234SOL     OW33334   3.815   2.467   4.297  0.0862  0.6714  0.6577
 7234SOL    HW133335   3.798   2.458   4.391 -0.8010  3.3114  0.7614
 7234SOL    HW233336   3.729   2.456   4.257  0.0274  1.7206  0.4867
 7235SOL     OW33337   4.518   1.345   7.250 -0.9631  0.2947 -0.3768
 7235SOL    HW133338   4.523   1.372   7.342 -2.4640 -1.9016  0.3661
 7235SOL    HW233339   4.609   1.318   7.242 -1.4559 -1.2376 -0.8860
 7236SOL     OW33340   1.829   1.551   3.402 -0.6711  0.0590 -0.6672
 7236SOL    HW133341   1.812   1.484   3.469 -1.4925  0.5442 -0.3911
 7236SOL    HW233342   1.861   1.626   3.452 -0.5548 -0.3024 -0.2036
 7237SOL     OW33343   3.301   3.405   8.573  0.0405  0.2551  0.0194
 7237SOL    HW133344   3.237   3.342   8.606 -0.0968  0.0620 -0.6137
 7237SOL    HW233345   3.377   3.347   8.575 -1.7916 -2.1615  0.4102
 7238SOL     OW33346   2.783   2.618   2.366 -0.5183 -0.0886  0.0937
 7238SOL    HW133347   2.747   2.692   2.318 -1.3612 -0.0057  0.8376
 7238SOL    HW233348   2.714   2.554   2.347 -0.0368 -1.0790  1.7059
 7239SOL     OW33349   4.543   0.647   8.299 -0.0837 -0.0473 -0.6040
 7239SOL    HW133350   4.567   0.684   8.213 -1.2342 -1.0617 -1.3549
 7239SOL    HW233351   4.511   0.559   8.279  1.1184 -0.3967 -1.0242
 7240SOL     OW33352   0.203   1.230   2.952  0.3087 -0.1179  0.1185
 7240SOL    HW133353   0.229   1.306   3.003  2.3328 -2.2041  2.2209
 7240SOL    HW233354   0.267   1.252   2.883 -0.5823 -0.7517 -0.9189
 7241SOL     OW33355   2.428   0.195   3.865 -0.0369  0.2729  0.2276
 7241SOL    HW133356   2.378   0.276   3.863  0.0046  0.3763  2.7817
 7241SOL    HW233357   2.380   0.147   3.933  1.8463 -0.9919  0.6767
 7242SOL     OW33358   0.806   3.136   2.405 -0.0099 -0.5964  0.0140
 7242SOL    HW133359   0.859   3.128   2.325  0.0833 -0.2327  0.0393
 7242SOL    HW233360   0.782   3.045   2.421 -2.1358 -0.0751 -0.0828
 7243SOL     OW33361   0.730   2.826   5.261  0.3005  0.2915  0.0115
 7243SOL    HW133362   0.682   2.908   5.260  0.5836  0.4633  0.3468
 7243SOL    HW233363   0.711   2.792   5.174  1.8040  1.8833 -0.9422
 7244SOL     OW33364   0.180   3.851   1.970  0.3431  0.2833 -0.3313
 7244SOL    HW133365   0.208   3.884   2.055  0.5716 -1.7775  0.3678
 7244SOL    HW233366   0.262   3.841   1.922 -0.0938 -2.5375 -0.4893
 7245SOL     OW33367   1.785   1.992   2.082 -0.3591  0.3331 -0.2293
 7245SOL    HW133368   1.735   2.059   2.035 -1.0981  0.6792  1.0261
 7245SOL    HW233369   1.873   2.026   2.065 -0.3583  0.2359 -0.4108
 7246SOL     OW33370   1.155   4.707   2.540  0.6948 -0.8240  0.7080
 7246SOL    HW133371   1.100   0.012   2.603  0.0956 -1.2671  0.5102
 7246SOL    HW233372   1.086   4.652   2.503 -1.1704  2.2378 -0.3241
 7247SOL     OW33373   1.672   3.612  13.954 -0.1963  0.5591  0.3764
 7247SOL    HW133374   1.632   3.612  14.041 -0.0098  1.3345  0.4666
 7247SOL    HW233375   1.766   3.611  13.974 -0.0867 -0.0265 -0.2169
 7248SOL     OW33376   4.220   3.315   7.984 -0.0997 -0.0360  0.3530
 7248SOL    HW133377   4.179   3.231   8.008  1.4752 -1.0177 -0.4037
 7248SOL    HW233378   4.302   3.294   8.029 -0.2622 -0.0599  0.6394
 7249SOL     OW33379   3.071   3.808  16.303  0.2517  0.5111  0.8405
 7249SOL    HW133380   3.120   3.839  16.379  0.1408  1.4228  0.5451
 7249SOL    HW233381   2.985   3.812  16.346 -0.8978  1.7734 -1.5866
 7250SOL     OW33382   1.404   3.033   6.292  0.6382  0.4255 -0.1017
 7250SOL    HW133383   1.344   3.007   6.222 -0.6388 -1.4548  1.7045
 7250SOL    HW233384   1.390   2.961   6.353 -0.0035 -0.8135 -1.7054
 7251SOL     OW33385   0.391   4.060   6.797 -0.5982 -0.6056 -0.3443
 7251SOL    HW133386   0.327   4.115   6.750  0.6498  0.9204 -0.2512
 7251SOL    HW233387   0.403   3.982   6.744 -0.2400 -1.3299  0.7969
 7252SOL     OW33388   3.743   2.845   6.233  0.6612  0.4481  0.3514
 7252SOL    HW133389   3.802   2.902   6.282  0.5144  0.3955  0.5893
 7252SOL    HW233390   3.754   2.881   6.145  0.7973  0.6028  0.4320
 7253SOL     OW33391   3.239   3.214   8.339 -0.4997  0.1033 -0.0357
 7253SOL    HW133392   3.145   3.211   8.354  0.1880 -1.2106  3.8779
 7253SOL    HW233393   3.233   3.286   8.276 -0.1734  0.6863  0.5991
 7254SOL     OW33394   3.670   2.424  11.305  0.2038  0.5274 -0.0660
 7254SOL    HW133395   3.702   2.334  11.301  1.2368  0.8179  1.5333
 7254SOL    HW233396   3.704   2.455  11.221  1.4607 -0.8392 -0.0495
 7255SOL     OW33397   1.516   2.087  14.368  0.1138  0.4786  0.0962
 7255SOL    HW133398   1.567   2.118  14.443  0.3384 -1.2013  0.6433
 7255SOL    HW233399   1.497   1.994  14.384  0.0554  0.1563 -1.8044
 7256SOL     OW33400   2.024   1.770  15.753  0.3719 -0.1004  0.1935
 7256SOL    HW133401   2.041   1.773  15.847  0.5348  1.9087  0.0954
 7256SOL    HW233402   1.975   1.687  15.753 -1.3490  0.9070 -0.6866
 7257SOL     OW33403   3.603   1.449   7.862 -0.1837 -0.6867  0.3968
 7257SOL    HW133404   3.647   1.382   7.809  1.5468 -0.9642  2.1941
 7257SOL    HW233405   3.555   1.490   7.789  0.7007 -0.7165 -0.1991
 7258SOL     OW33406   1.742   0.248   5.788 -0.1932 -0.0478 -0.3809
 7258SOL    HW133407   1.830   0.217   5.808 -0.3720 -1.0454 -1.1233
 7258SOL    HW233408   1.755   0.342   5.798 -2.4654  0.0704  1.5959
 7259SOL     OW33409   4.309   3.923   1.691  0.6947  0.3368 -0.4777
 7259SOL    HW133410   4.362   3.992   1.653 -0.2889 -0.1135 -2.6408
 7259SOL    HW233411   4.373   3.856   1.714 -0.6189  0.2001  2.8790
 7260SOL     OW33412   3.281   3.652   2.467  0.2968 -0.9150 -0.2301
 7260SOL    HW133413   3.187   3.644   2.453  0.0920 -2.8884  2.3074
 7260SOL    HW233414   3.288   3.579   2.528  2.1352  1.0448  1.9242
 7261SOL     OW33415   3.364   3.808   7.516 -0.4378  0.5764  0.7564
 7261SOL    HW133416   3.292   3.748   7.534 -0.9793  0.3563 -2.0809
 7261SOL    HW233417   3.436   3.746   7.520 -0.7820  0.0772 -0.7720
 7262SOL     OW33418   2.532   3.397   6.095  0.1598  0.2838  0.3729
 7262SOL    HW133419   2.621   3.388   6.062  0.7028  0.2232  1.8303
 7262SOL    HW233420   2.483   3.364   6.020 -0.8794  0.5664  0.9143
 7263SOL     OW33421   4.090   3.048   6.274  0.6108 -0.0808  0.4506
 7263SOL    HW133422   4.062   3.112   6.209 -2.0624 -1.5215  0.2135
 7263SOL    HW233423   4.164   3.089   6.321 -0.3562  3.0622 -0.7710
 7264SOL     OW33424   4.548   4.337   7.814  0.0754 -0.5162 -0.0261
 7264SOL    HW133425   4.508   4.313   7.730 -1.2974  0.0294  0.4552
 7264SOL    HW233426   4.554   4.255   7.863  0.2909  0.5021  1.6252
 7265SOL     OW33427   4.557   2.740   2.930 -0.6164 -0.0389  0.1281
 7265SOL    HW133428   4.575   2.808   2.994 -1.0689  0.5927 -0.4110
 7265SOL    HW233429   4.589   2.782   2.850  2.1165 -0.6437  0.9173
 7266SOL     OW33430   3.723   3.655   4.987 -0.4816 -0.0394  0.5702
 7266SOL    HW133431   3.671   3.735   4.998  0.2881  0.4627  0.5005
 7266SOL    HW233432   3.804   3.675   5.033  1.4286 -0.4837 -2.6035
 7267SOL     OW33433   4.094   0.733   9.393  0.0324 -0.3647  0.5025
 7267SOL    HW133434   4.073   0.827   9.390  0.7323 -0.2360 -0.2250
 7267SOL    HW233435   4.169   0.735   9.452 -0.9216 -0.5230  1.7398
 7268SOL     OW33436   4.685   4.016   4.185  0.4339 -0.6082  0.3849
 7268SOL    HW133437   0.015   4.067   4.149 -0.9328  0.8619 -0.2607
 7268SOL    HW233438   4.622   4.024   4.113 -0.3361  0.2760  1.1556
 7269SOL     OW33439   3.756   1.535  14.267 -0.6403 -0.1052  0.1131
 7269SOL    HW133440   3.765   1.599  14.196 -2.9997 -0.9902 -1.0196
 7269SOL    HW233441   3.812   1.577  14.331 -1.0758 -1.7188  1.5505
 7270SOL     OW33442   1.990   4.709   7.390 -0.0378  0.3405 -0.4290
 7270SOL    HW133443   1.911   4.692   7.339 -0.2035 -2.9777  0.9232
 7270SOL    HW233444   1.989   4.631   7.445  0.3858  0.6318 -0.0125
 7271SOL     OW33445   3.064   0.996   9.961 -0.3147  0.0110  0.0232
 7271SOL    HW133446   3.080   0.952   9.877  0.7242  2.4867 -1.0886
 7271SOL    HW233447   3.154   0.998   9.995 -0.3477  1.9096 -0.0045
 7272SOL     OW33448   0.797   4.578   7.768 -0.2053  0.1392  0.4717
 7272SOL    HW133449   0.824   4.499   7.722 -1.8936 -1.1405  1.6579
 7272SOL    HW233450   0.781   4.541   7.855  2.0102 -1.4360  0.2156
 7273SOL     OW33451   1.857   4.066   4.728  0.6847 -0.0723 -0.1959
 7273SOL    HW133452   1.833   4.102   4.642  0.3667  0.3915  0.0819
 7273SOL    HW233453   1.773   4.058   4.774 -0.6564  0.8250 -2.4710
 7274SOL     OW33454   1.593   0.718   7.088  0.2583 -0.2622  0.0668
 7274SOL    HW133455   1.667   0.661   7.066  0.1509 -0.0884 -0.7689
 7274SOL    HW233456   1.610   0.799   7.038 -1.7956  0.0338 -0.1652
 7275SOL     OW33457   1.418   1.849   4.180  0.2255  0.1027  0.0800
 7275SOL    HW133458   1.424   1.944   4.189 -2.6706  0.4209 -1.3168
 7275SOL    HW233459   1.448   1.851   4.090  0.1931  0.0168  0.0671
 7276SOL     OW33460   1.955   4.091   7.002  0.1322  0.2593 -0.7396
 7276SOL    HW133461   1.963   4.028   7.074  0.0976  0.1937 -0.7924
 7276SOL    HW233462   2.041   4.132   7.013 -0.6482  1.4648  0.7366
 7277SOL     OW33463   4.026   3.291   2.074 -0.5590  0.0860  0.2676
 7277SOL    HW133464   4.072   3.261   2.152  1.8605  0.6118 -0.9812
 7277SOL    HW233465   4.101   3.308   2.018  0.0170  0.9886  1.3120
 7278SOL     OW33466   4.469   4.327   4.212 -0.2989  0.3655 -0.5629
 7278SOL    HW133467   4.419   4.408   4.206 -1.3931 -0.2613  0.2048
 7278SOL    HW233468   4.554   4.370   4.224 -0.8166  0.8392  1.3160
 7279SOL     OW33469   4.093   1.906   8.311  0.2369  0.3273  0.3904
 7279SOL    HW133470   4.104   1.813   8.290  0.2049  0.1517  1.1400
 7279SOL    HW233471   4.064   1.916   8.401  1.7250 -0.2912  0.9475
 7280SOL     OW33472   2.783   3.253   9.289 -0.2021 -0.1137 -0.1244
 7280SOL    HW133473   2.809   3.177   9.237  0.4062  0.3741 -0.5291
 7280SOL    HW233474   2.824   3.331   9.252  0.7308 -0.2154  0.6949
 7281SOL     OW33475   1.462   1.405   5.609  0.2437 -0.6618  0.1607
 7281SOL    HW133476   1.408   1.327   5.623 -0.4508  0.0209  1.3180
 7281SOL    HW233477   1.475   1.393   5.515 -1.1185  0.9301 -0.2368
 7282SOL     OW33478   2.939   0.203  10.600  0.1341 -0.5345  0.1890
 7282SOL    HW133479   2.916   0.216  10.692  0.8246 -1.2334  0.4527
 7282SOL    HW233480   2.988   0.121  10.607 -0.6601 -1.0008  0.3300
 7283SOL     OW33481   2.197   1.511   6.862  0.4595 -0.4366  0.3072
 7283SOL    HW133482   2.159   1.533   6.777 -0.8833 -2.0897  0.4944
 7283SOL    HW233483   2.212   1.598   6.900 -1.3208 -0.9932  2.2615
 7284SOL     OW33484   1.385   0.869   5.964 -0.4663 -0.2414  0.0815
 7284SOL    HW133485   1.343   0.789   5.933  1.0610 -0.6280 -1.0203
 7284SOL    HW233486   1.318   0.933   5.940 -1.7220 -1.2822  0.8056
 7285SOL     OW33487   4.436   0.401   2.728 -0.0760  0.1125  0.0293
 7285SOL    HW133488   4.397   0.487   2.744  2.5536  1.2961  0.0761
 7285SOL    HW233489   4.519   0.428   2.687 -0.5125  0.9398 -0.2986
 7286SOL     OW33490   2.410   2.046   2.783 -0.2998 -1.0128  0.2178
 7286SOL    HW133491   2.426   2.140   2.786 -0.2235 -0.9390 -2.1199
 7286SOL    HW233492   2.440   2.025   2.694 -0.0294  2.0324 -0.3917
 7287SOL     OW33493   2.219   4.378   1.151  0.1124 -0.3859 -0.6612
 7287SOL    HW133494   2.212   4.328   1.232 -1.4297  1.4481  0.3434
 7287SOL    HW233495   2.264   4.323   1.087  1.9577  0.0202  0.2795
 7288SOL     OW33496   4.698   4.145   2.509  0.3561 -0.0212  0.1025
 7288SOL    HW133497   4.688   4.202   2.433 -2.3869 -0.6021 -0.0008
 7288SOL    HW233498   4.646   4.073   2.473 -2.6087  0.6373  3.1135
 7289SOL     OW33499   3.626   1.594   1.459 -0.2943 -0.6618 -0.4514
 7289SOL    HW133500   3.626   1.689   1.444  0.5734 -0.3760  1.2845
 7289SOL    HW233501   3.588   1.596   1.547  0.5500 -0.8388 -0.0879
 7290SOL     OW33502   2.851   2.144   2.135  0.1676  0.8095 -0.2304
 7290SOL    HW133503   2.845   2.211   2.066 -3.1626  2.2589  1.4565
 7290SOL    HW233504   2.944   2.145   2.157 -0.1496  0.0604  1.1784
 7291SOL     OW33505   1.180   2.248  15.551  0.8751  0.2103  0.0787
 7291SOL    HW133506   1.236   2.306  15.500  0.7172  1.0353  0.8384
 7291SOL    HW233507   1.142   2.314  15.609 -0.9332 -1.6503  1.0147
 7292SOL     OW33508   1.752   2.284  16.961  0.3568  0.0082  0.1309
 7292SOL    HW133509   1.679   2.223  16.953  0.1997  0.4019 -1.4768
 7292SOL    HW233510   1.715   2.351  17.018 -0.0292 -0.6338  0.6264
 7293SOL     OW33511   3.882   0.363   5.378 -0.2064  0.1409  0.1200
 7293SOL    HW133512   3.926   0.337   5.458 -1.7248 -0.8209  0.6421
 7293SOL    HW233513   3.939   0.331   5.308  0.4084  0.6217  0.4072
 7294SOL     OW33514   4.032   4.069   8.741  0.1714 -0.7545  0.6067
 7294SOL    HW133515   3.963   4.002   8.744 -0.5168 -0.0698  0.0681
 7294SOL    HW233516   4.073   4.057   8.827  1.4474  1.5281  0.2896
 7295SOL     OW33517   4.539   0.398   2.130 -0.0200 -0.5171  0.3356
 7295SOL    HW133518   4.610   0.410   2.193 -1.5978 -1.2426  2.2514
 7295SOL    HW233519   4.464   0.392   2.189 -0.6772 -0.3606 -0.4747
 7296SOL     OW33520   4.189   3.267   1.847 -0.0642 -0.2468  0.3071
 7296SOL    HW133521   4.230   3.264   1.760  1.1208 -1.9099  0.9369
 7296SOL    HW233522   4.153   3.179   1.855  0.6800 -0.4627  1.2622
 7297SOL     OW33523   4.465   4.174   5.388  0.2348  0.8574 -0.5897
 7297SOL    HW133524   4.445   4.120   5.312 -0.1835  0.0751  0.0801
 7297SOL    HW233525   4.555   4.193   5.360 -0.1026  3.8822  0.3234
 7298SOL     OW33526   3.070   2.856  11.023 -0.0524  0.5939  0.6967
 7298SOL    HW133527   3.041   2.877  10.935  0.4143  1.9738  0.8821
 7298SOL    HW233528   3.139   2.921  11.032 -1.5109  2.0661  1.1130
 7299SOL     OW33529   4.469   4.123   4.043 -0.3775 -0.0431  0.0537
 7299SOL    HW133530   4.468   4.188   4.114  0.0946  0.4594 -0.3960
 7299SOL    HW233531   4.403   4.062   4.074 -0.3244  0.6926  1.6176
 7300SOL     OW33532   2.440   0.019   8.384 -0.2480  0.0587  0.1431
 7300SOL    HW133533   2.417   0.051   8.472  2.1215  1.3680  0.2756
 7300SOL    HW233534   2.398   4.674   8.385 -0.0311 -0.0502 -1.7602
 7301SOL     OW33535   4.123   3.822  17.757 -0.3889 -0.2522  0.6451
 7301SOL    HW133536   4.082   3.906   0.012 -1.9394 -1.1500  1.3224
 7301SOL    HW233537   4.130   3.831  17.662 -1.3706 -0.5301  0.5460
 7302SOL     OW33538   1.604   3.791   4.817  0.0446  0.1269  0.3623
 7302SOL    HW133539   1.562   3.783   4.903  2.0597 -3.1803  1.0391
 7302SOL    HW233540   1.570   3.722   4.761  2.4023 -1.1922  0.5393
 7303SOL     OW33541   2.178   3.285   7.373  0.0320 -0.2478 -0.2116
 7303SOL    HW133542   2.253   3.343   7.387 -0.9712  0.0277  3.8023
 7303SOL    HW233543   2.189   3.222   7.443  0.5199  0.1614  0.0838
 7304SOL     OW33544   3.094   1.615   6.168  0.0985  0.0209 -0.2866
 7304SOL    HW133545   3.057   1.703   6.173 -0.8512 -0.3090 -1.4467
 7304SOL    HW233546   3.084   1.618   6.073 -0.2154 -0.3968 -0.2704
 7305SOL     OW33547   3.040   1.564  10.181 -0.1874  0.3980 -0.0209
 7305SOL    HW133548   3.121   1.579  10.132  2.2035 -1.7165  3.2301
 7305SOL    HW233549   2.978   1.567  10.109 -2.0154 -1.4384  1.4847
 7306SOL     OW33550   1.571   3.341   5.378 -0.1954  0.0310  0.8493
 7306SOL    HW133551   1.497   3.284   5.395  1.1401 -2.0639 -0.4479
 7306SOL    HW233552   1.520   3.420   5.360 -0.6045 -1.1012 -2.9380
 7307SOL     OW33553   1.427   1.443   7.068 -0.1421  0.3605 -0.1111
 7307SOL    HW133554   1.405   1.470   7.157 -0.3149 -3.3311  0.9501
 7307SOL    HW233555   1.462   1.355   7.081  0.0847  0.4579 -0.0491
 7308SOL     OW33556   0.792   3.184   6.696 -0.3331  0.2182 -0.2942
 7308SOL    HW133557   0.885   3.180   6.718 -0.7059  1.0865  1.5016
 7308SOL    HW233558   0.793   3.149   6.607 -1.5419  0.7099 -0.5012
 7309SOL     OW33559   4.123   3.834   3.337  0.7830  0.3169  0.3166
 7309SOL    HW133560   4.060   3.902   3.363 -0.4986 -0.4603 -0.7618
 7309SOL    HW233561   4.193   3.891   3.306  0.8950 -0.9097 -1.6845
 7310SOL     OW33562   1.356   1.768   9.657 -0.4759 -0.9874 -1.0018
 7310SOL    HW133563   1.420   1.697   9.665  0.3719 -0.1659 -0.5740
 7310SOL    HW233564   1.281   1.731   9.704  0.3058 -0.8353  0.3752
 7311SOL     OW33565   2.198   2.372   2.167  0.1556  0.3084  0.0240
 7311SOL    HW133566   2.161   2.304   2.223  0.4154  0.5922  0.5344
 7311SOL    HW233567   2.120   2.402   2.119 -0.7447 -0.8848  0.7351
 7312SOL     OW33568   2.102   1.410  16.196 -0.6740  0.1845 -0.1991
 7312SOL    HW133569   2.123   1.497  16.232 -0.8360 -0.0830  0.5343
 7312SOL    HW233570   2.081   1.418  16.103  0.6362  1.0664 -0.4173
 7313SOL     OW33571   1.567   3.602   3.019  0.0244 -0.0740 -0.8689
 7313SOL    HW133572   1.655   3.579   2.989  0.5556  0.6296  0.1490
 7313SOL    HW233573   1.550   3.655   2.941 -0.9188  1.3897  0.3299
 7314SOL     OW33574   3.442   1.933  16.775 -0.1450 -0.0379  0.2006
 7314SOL    HW133575   3.514   1.995  16.761  0.4704 -0.7865 -0.0011
 7314SOL    HW233576   3.482   1.867  16.717 -0.9645 -1.6485  1.4482
 7315SOL     OW33577   0.905   1.362  13.258  0.1905 -0.1827 -0.2113
 7315SOL    HW133578   0.962   1.342  13.184 -0.1768  1.4388 -0.9236
 7315SOL    HW233579   0.979   1.395  13.311  0.1601 -1.5594  0.6992
 7316SOL     OW33580   4.122   1.277   5.697 -0.4512 -0.3514  0.2298
 7316SOL    HW133581   4.129   1.295   5.603 -1.3779 -2.6552 -0.2816
 7316SOL    HW233582   4.212   1.247   5.706 -0.0885  0.5861 -0.2572
 7317SOL     OW33583   2.131   2.734   8.341  0.0209 -0.2859  0.6330
 7317SOL    HW133584   2.213   2.685   8.344  0.8917  1.2270  1.3672
 7317SOL    HW233585   2.107   2.732   8.433 -0.9646 -0.2095  0.3757
 7318SOL     OW33586   2.025   1.134  10.461 -0.2945 -0.2914  0.3309
 7318SOL    HW133587   2.043   1.069  10.529  1.9865 -0.7840 -0.7735
 7318SOL    HW233588   1.934   1.111  10.441 -0.0913  1.7057 -2.9144
 7319SOL     OW33589   3.474   3.511   5.044 -0.4342  0.6817  0.8370
 7319SOL    HW133590   3.493   3.531   4.952  1.3288 -1.9555  0.6407
 7319SOL    HW233591   3.553   3.467   5.073 -1.1895 -0.0137  1.8330
 7320SOL     OW33592   4.655   4.506   0.149 -0.0114 -0.0362 -0.4660
 7320SOL    HW133593   4.631   4.470   0.234  0.2710 -0.8284 -0.7149
 7320SOL    HW233594   4.621   4.439   0.089 -0.6515 -0.3994  0.3114
 7321SOL     OW33595   3.671   3.064   8.616  0.5162 -0.2988  0.3864
 7321SOL    HW133596   3.751   3.026   8.579  1.9054  3.1532 -0.1492
 7321SOL    HW233597   3.605   3.002   8.586  0.0147 -0.2908  1.4870
 7322SOL     OW33598   1.822   4.171  16.571  0.0551 -0.0591  0.1147
 7322SOL    HW133599   1.761   4.170  16.645  1.4291 -0.1297  1.2456
 7322SOL    HW233600   1.763   4.183  16.496  1.4141  0.3044 -0.8992
 7323SOL     OW33601   3.849   1.048   4.328  0.1735 -0.2965 -0.2651
 7323SOL    HW133602   3.758   1.074   4.343  0.2971 -0.2934  0.4583
 7323SOL    HW233603   3.864   0.954   4.323  1.7024 -0.0634  0.1061
 7324SOL     OW33604   4.092   2.289   1.476  0.0412  0.6128  0.5468
 7324SOL    HW133605   4.086   2.316   1.384 -0.8534 -1.7306 -0.0827
 7324SOL    HW233606   4.166   2.229   1.464 -0.8044 -0.2681 -0.2972
 7325SOL     OW33607   0.237   0.516   1.800  0.4513  0.2322  0.1710
 7325SOL    HW133608   0.304   0.545   1.738 -0.9008 -0.4716 -1.6104
 7325SOL    HW233609   0.186   0.597   1.802  1.0542  0.6575 -1.6947
 7326SOL     OW33610   4.124   4.224   4.618  0.5629 -0.3909  0.4488
 7326SOL    HW133611   4.178   4.170   4.559  0.9288  1.7859 -1.1849
 7326SOL    HW233612   4.048   4.173   4.645  0.3109  0.1929  0.8419
 7327SOL     OW33613   0.229   1.889   3.243  0.0558 -0.3510  0.3934
 7327SOL    HW133614   0.153   1.840   3.211  0.1139  0.6849 -1.3054
 7327SOL    HW233615   0.187   1.974   3.253 -2.6240 -1.5539 -0.7369
 7328SOL     OW33616   3.799   1.317   5.491 -0.0937  0.1212 -0.0544
 7328SOL    HW133617   3.796   1.410   5.514  0.4601 -0.1560  1.1758
 7328SOL    HW233618   3.782   1.325   5.397  1.6823  1.3378 -0.2798
 7329SOL     OW33619   3.560   2.445   6.466 -0.1192  0.0534 -0.0028
 7329SOL    HW133620   3.569   2.461   6.559 -0.2739  2.0793 -0.3503
 7329SOL    HW233621   3.639   2.392   6.453  0.3973  1.1723 -1.3678
 7330SOL     OW33622   1.628   2.734   9.859  0.2654 -0.0714 -0.1250
 7330SOL    HW133623   1.600   2.644   9.841  2.0597 -0.4106 -1.1551
 7330SOL    HW233624   1.657   2.720   9.949  0.4036  0.1766 -0.1300
 7331SOL     OW33625   0.459   1.689  17.248 -0.4141  0.0984 -0.2979
 7331SOL    HW133626   0.438   1.631  17.322 -0.8893 -0.9529 -1.2524
 7331SOL    HW233627   0.547   1.652  17.236  0.1048  0.9318  0.9611
 7332SOL     OW33628   0.544   4.265   8.941  0.6784 -0.0766 -0.6368
 7332SOL    HW133629   0.501   4.341   8.981 -0.0940 -0.4447 -0.7749
 7332SOL    HW233630   0.546   4.202   9.013 -0.1750 -1.2816 -1.6632
 7333SOL     OW33631   1.824   2.462   5.517 -0.1467 -0.0404 -0.2420
 7333SOL    HW133632   1.805   2.372   5.491 -0.3637 -0.2525  0.6740
 7333SOL    HW233633   1.789   2.461   5.606 -2.7961  2.1120 -1.2442
 7334SOL     OW33634   2.916   1.608   4.644 -0.0438 -0.6253  0.3391
 7334SOL    HW133635   2.986   1.544   4.655  1.7892  1.7200  2.2994
 7334SOL    HW233636   2.844   1.551   4.618 -0.2197 -1.0313  1.7545
 7335SOL     OW33637   0.757   4.470   5.155 -1.0196  0.3290 -0.0093
 7335SOL    HW133638   0.832   4.443   5.207 -0.6810 -0.4185 -0.8898
 7335SOL    HW233639   0.781   4.556   5.121 -0.5796  0.1690 -0.0950
 7336SOL     OW33640   2.389   0.732   4.562  0.0885 -0.2160 -0.2669
 7336SOL    HW133641   2.327   0.693   4.624 -1.7804 -0.4393 -2.2746
 7336SOL    HW233642   2.468   0.696   4.602  1.0683  0.6829 -1.4044
 7337SOL     OW33643   2.537   1.496   7.825 -0.7070 -0.5664  0.7367
 7337SOL    HW133644   2.582   1.421   7.862  2.6936  1.4600  0.6453
 7337SOL    HW233645   2.580   1.521   7.743  0.9784 -1.1285  1.4566
 7338SOL     OW33646   3.428   2.243   4.965 -0.6386 -0.2266 -0.5426
 7338SOL    HW133647   3.386   2.328   4.982  1.2044  0.6984 -0.5542
 7338SOL    HW233648   3.382   2.184   5.025 -1.8353  1.9951  0.7351
 7339SOL     OW33649   4.087   1.755   5.496  0.0502  0.2687 -0.6726
 7339SOL    HW133650   4.077   1.851   5.496  2.3912  0.5150  1.0020
 7339SOL    HW233651   4.035   1.727   5.572  0.4763  0.2855 -0.3744
 7340SOL     OW33652   3.352   2.870  14.784 -0.3560  0.1877  0.2723
 7340SOL    HW133653   3.263   2.851  14.756 -0.1311  2.0017 -1.6442
 7340SOL    HW233654   3.382   2.930  14.717  0.3410  0.6937  1.0346
 7341SOL     OW33655   4.303   3.963   4.744 -0.1459 -0.2770  0.1616
 7341SOL    HW133656   4.235   3.901   4.770 -1.4349  0.8234 -0.5600
 7341SOL    HW233657   4.335   3.988   4.830 -1.2996 -2.6768  1.3010
 7342SOL     OW33658   4.352   1.842   5.420 -0.1812  0.1279  1.1061
 7342SOL    HW133659   4.354   1.801   5.334 -1.6427  2.3366  0.0287
 7342SOL    HW233660   4.272   1.798   5.451 -1.1500 -0.2810 -1.9426
 7343SOL     OW33661   3.973   0.474   2.279  0.1265  0.1254  0.4874
 7343SOL    HW133662   3.934   0.549   2.325  1.8927  2.3640 -1.7011
 7343SOL    HW233663   4.040   0.525   2.233 -3.0249  1.7744 -2.2089
 7344SOL     OW33664   1.014   2.219   5.575  0.4346 -0.4227  0.1039
 7344SOL    HW133665   0.926   2.188   5.598 -0.3997 -0.0358 -2.5423
 7344SOL    HW233666   1.040   2.145   5.521  0.6133 -0.1351 -0.2072
 7345SOL     OW33667   0.062   3.062   4.256 -0.2519  0.3249  0.0259
 7345SOL    HW133668   0.002   3.096   4.190  0.7309  3.8614  0.9424
 7345SOL    HW233669   0.141   3.059   4.202  0.0907 -4.2686  0.7943
 7346SOL     OW33670   2.707   2.608   7.557  0.1110 -0.5707 -0.2486
 7346SOL    HW133671   2.613   2.593   7.546  0.1807 -0.4865 -1.0070
 7346SOL    HW233672   2.698   2.695   7.517  3.5596 -0.8863 -1.7137
 7347SOL     OW33673   3.939   0.252  17.205  0.5281  0.3889  0.6501
 7347SOL    HW133674   3.914   0.185  17.269  2.0830  1.9673  2.8782
 7347SOL    HW233675   3.885   0.328  17.227 -0.5221  0.4003 -1.9534
 7348SOL     OW33676   4.540   3.227   5.848 -0.0344  0.5183  0.5030
 7348SOL    HW133677   4.593   3.297   5.887 -1.7354  0.5732  2.7329
 7348SOL    HW233678   4.599   3.151   5.848 -0.9846 -0.2052 -0.8980
 7349SOL     OW33679   3.985   0.637   6.178  0.1073  0.5476 -0.2685
 7349SOL    HW133680   3.952   0.687   6.253 -1.4148 -2.5581  1.1598
 7349SOL    HW233681   3.905   0.586   6.161 -1.5423  2.5194  1.5612
 7350SOL     OW33682   2.679   1.446   4.120 -0.3880  0.1841 -0.5990
 7350SOL    HW133683   2.736   1.519   4.100 -0.6994  0.3060 -1.0436
 7350SOL    HW233684   2.650   1.411   4.036  0.8671 -0.9559 -0.5627
 7351SOL     OW33685   1.205   3.964   3.658 -0.2354 -0.6561 -0.0067
 7351SOL    HW133686   1.289   4.004   3.638 -0.6959  0.7976  0.9729
 7351SOL    HW233687   1.240   3.883   3.695  0.6797 -0.6200 -0.8095
 7352SOL     OW33688   0.500   3.060   5.650 -0.4921 -0.0692  0.0957
 7352SOL    HW133689   0.479   3.043   5.559 -1.2513  0.7251  0.1131
 7352SOL    HW233690   0.533   2.978   5.687  0.3520  0.2003 -0.0640
 7353SOL     OW33691   3.763   1.736   3.518 -0.3274  0.1145 -0.5126
 7353SOL    HW133692   3.765   1.687   3.600  1.0554  0.6093 -0.2475
 7353SOL    HW233693   3.840   1.704   3.472  0.3114 -0.6340  1.0967
 7354SOL     OW33694   1.841   3.461   3.573 -0.4791  0.0160 -0.1406
 7354SOL    HW133695   1.873   3.393   3.514 -1.0167  0.1506 -0.5875
 7354SOL    HW233696   1.908   3.529   3.563 -0.5540  0.5592  3.1808
 7355SOL     OW33697   2.485   0.121   4.754  0.2430 -0.5908  0.3047
 7355SOL    HW133698   2.570   0.108   4.796  0.4198  0.5095  0.2683
 7355SOL    HW233699   2.431   0.083   4.823 -2.4292  0.7532 -1.0530
 7356SOL     OW33700   1.657   1.244   5.441  0.0291 -0.0695  0.2647
 7356SOL    HW133701   1.702   1.192   5.508 -1.5570 -0.8344  0.7383
 7356SOL    HW233702   1.662   1.180   5.370  2.2659 -1.5126  1.7159
 7357SOL     OW33703   4.467   1.653   3.070 -0.0684  0.5062  0.1994
 7357SOL    HW133704   4.414   1.658   2.990 -0.2979 -0.3191  0.3016
 7357SOL    HW233705   4.391   1.641   3.126  0.2951 -0.4856  0.4832
 7358SOL     OW33706   4.064   1.810  17.478  0.4042 -0.2641  0.0594
 7358SOL    HW133707   4.005   1.739  17.452 -0.0157 -0.4425  1.5114
 7358SOL    HW233708   4.148   1.777  17.447  0.3870 -0.0112 -0.2517
 7359SOL     OW33709   0.931   1.261   5.225 -0.2008  0.4769  0.3257
 7359SOL    HW133710   1.011   1.286   5.177  1.3049 -1.9974  1.5193
 7359SOL    HW233711   0.922   1.175   5.183  0.2520  1.2897 -1.4465
 7360SOL     OW33712   2.320   2.882   6.863  0.1146  0.0979 -0.0701
 7360SOL    HW133713   2.286   2.934   6.936  0.2695 -0.7289  0.5941
 7360SOL    HW233714   2.372   2.817   6.912 -0.8926 -0.1080  0.7044
 7361SOL     OW33715   2.052   0.944   9.168 -0.3634 -0.0310 -0.0867
 7361SOL    HW133716   2.137   0.957   9.211 -1.5000  1.6172  1.6611
 7361SOL    HW233717   2.077   0.877   9.104  1.1186  2.0585 -1.6921
 7362SOL     OW33718   0.307   2.753  14.236 -0.3780  0.3011  0.4857
 7362SOL    HW133719   0.319   2.812  14.310  1.2445 -0.9606  1.2228
 7362SOL    HW233720   0.270   2.819  14.177 -3.2428 -1.7444 -0.0127
 7363SOL     OW33721   2.808   1.770   3.172  0.9067  0.1748  0.3835
 7363SOL    HW133722   2.741   1.773   3.240  2.2874  2.7970  1.6282
 7363SOL    HW233723   2.745   1.754   3.102  2.9929  2.5773 -2.0389
 7364SOL     OW33724   0.620   2.770  14.047  0.0746 -0.1653  0.1598
 7364SOL    HW133725   0.633   2.835  13.977  0.9042  3.9340  4.1525
 7364SOL    HW233726   0.696   2.713  14.036  0.6382  0.5969  0.0344
 7365SOL     OW33727   2.114   3.447   2.571  0.2414  0.2627 -0.4036
 7365SOL    HW133728   2.099   3.502   2.648 -1.0635  0.8312 -1.0623
 7365SOL    HW233729   2.074   3.502   2.504 -1.7197 -1.3023 -0.5151
 7366SOL     OW33730   4.068   3.073   5.166  0.3652  0.2494 -0.0080
 7366SOL    HW133731   4.022   3.050   5.246  0.2516 -0.4669 -0.2867
 7366SOL    HW233732   4.111   2.992   5.139 -1.5884 -0.1813 -1.7977
 7367SOL     OW33733   0.480   0.663   6.076 -0.2837  0.3606  0.0950
 7367SOL    HW133734   0.529   0.675   5.995  0.6207  0.4986  0.6610
 7367SOL    HW233735   0.390   0.663   6.042 -0.0590 -0.6384 -0.4770
 7368SOL     OW33736   4.021   2.928  14.858 -0.3230  0.2373  0.5259
 7368SOL    HW133737   4.101   2.951  14.810 -0.0640  0.1793  0.9265
 7368SOL    HW233738   3.969   2.915  14.779  0.4333  0.9655 -0.0998
 7369SOL     OW33739   4.032   4.318   8.549  0.6701 -0.1112 -0.0319
 7369SOL    HW133740   4.060   4.278   8.631 -0.6951  0.4864  0.7324
 7369SOL    HW233741   4.008   4.244   8.493  0.9363  0.9099 -1.4922
 7370SOL     OW33742   4.134   4.160  15.320 -0.0893  0.4732 -0.3436
 7370SOL    HW133743   4.157   4.183  15.410 -1.2099  3.0600 -0.7061
 7370SOL    HW233744   4.044   4.191  15.312  0.0231  0.5829 -1.1742
 7371SOL     OW33745   1.232   0.484   9.850 -0.4973 -0.2817  0.3188
 7371SOL    HW133746   1.206   0.457   9.938  0.8456  1.1027  1.1272
 7371SOL    HW233747   1.290   0.558   9.867  0.0175 -0.3346 -1.2145
 7372SOL     OW33748   4.560   4.562   1.873 -0.1150 -0.3446  0.6386
 7372SOL    HW133749   4.487   4.602   1.920 -0.3752 -1.8878  1.5328
 7372SOL    HW233750   4.536   4.470   1.879 -0.8534 -0.1962 -0.0279
 7373SOL     OW33751   4.505   0.920   4.466  0.5854 -0.7069 -0.5344
 7373SOL    HW133752   4.435   0.979   4.495  0.0692 -1.1467 -0.8797
 7373SOL    HW233753   4.462   0.849   4.515  0.7869 -0.8860 -0.6171
 7374SOL     OW33754   3.768   1.794   6.727  0.1552  0.3388 -0.3823
 7374SOL    HW133755   3.847   1.841   6.755 -0.6435  1.6214 -0.2930
 7374SOL    HW233756   3.753   1.845   6.647 -1.6046  1.0370  0.3966
 7375SOL     OW33757   3.164   0.177   6.792  0.2377  0.2821 -0.1810
 7375SOL    HW133758   3.205   0.160   6.877  0.5946 -0.3608 -0.4867
 7375SOL    HW233759   3.138   0.269   6.802 -1.7113 -0.0670 -2.0397
 7376SOL     OW33760   2.535   3.376   3.719 -0.6897 -0.1261  0.5506
 7376SOL    HW133761   2.498   3.413   3.639 -1.0975 -0.6726  0.4918
 7376SOL    HW233762   2.528   3.282   3.702  0.5612 -0.2856  0.9437
 7377SOL     OW33763   3.054   2.829   9.051  0.5253  0.3370  0.0441
 7377SOL    HW133764   2.997   2.871   8.986  0.7298  0.5815  0.0249
 7377SOL    HW233765   2.988   2.803   9.115  0.8171  0.3848  0.3589
 7378SOL     OW33766   1.099   2.121   9.190 -0.1228 -0.4723 -0.0007
 7378SOL    HW133767   1.021   2.079   9.224 -0.8386 -2.9149 -4.5986
 7378SOL    HW233768   1.062   2.209   9.179  1.5122  0.3321  0.8927
 7379SOL     OW33769   2.668   3.852   8.900  0.1526  0.7379 -0.1110
 7379SOL    HW133770   2.634   3.942   8.906 -1.0902  0.2614  0.0929
 7379SOL    HW233771   2.714   3.846   8.984  1.5650 -0.8077 -1.0002
 7380SOL     OW33772   2.341   4.409   1.684 -0.2358 -0.1013 -0.3024
 7380SOL    HW133773   2.296   4.391   1.766 -1.4050 -1.0395 -1.1471
 7380SOL    HW233774   2.285   4.483   1.660 -0.7559 -1.0106 -1.8796
 7381SOL     OW33775   4.324   2.293   7.915  0.0364  0.2895 -0.0249
 7381SOL    HW133776   4.244   2.244   7.898  1.0778 -2.0882  1.8783
 7381SOL    HW233777   4.292   2.359   7.976 -1.0322 -0.2766  0.0162
 7382SOL     OW33778   3.919   3.423  14.113 -0.4097  0.5309 -0.2638
 7382SOL    HW133779   3.980   3.494  14.132  1.8732 -1.4076 -0.2248
 7382SOL    HW233780   3.857   3.432  14.185  0.4153  0.6740  0.4339
 7383SOL     OW33781   2.464   3.492   0.175 -0.0884 -0.1638  0.6491
 7383SOL    HW133782   2.467   3.463   0.083  2.9824  2.1152 -0.0017
 7383SOL    HW233783   2.389   3.551   0.179  0.3689  0.5274 -0.5523
 7384SOL     OW33784   1.879   1.959   7.499  0.0100  0.0796  0.2026
 7384SOL    HW133785   1.846   2.047   7.482  0.6318  0.2680 -0.0175
 7384SOL    HW233786   1.894   1.972   7.593  0.2114 -0.6171  0.2655
 7385SOL     OW33787   3.734   3.759   4.144 -0.4948  0.4073 -0.2238
 7385SOL    HW133788   3.764   3.701   4.074  1.9720  2.2919 -0.7537
 7385SOL    HW233789   3.649   3.717   4.153 -1.0924  1.2871 -1.8380
 7386SOL     OW33790   0.053   1.724   4.938 -0.3198 -0.3689  0.6566
 7386SOL    HW133791   0.118   1.793   4.930 -0.3549 -0.5722 -1.2980
 7386SOL    HW233792   0.117   1.657   4.916 -0.6674 -0.3416 -0.4386
 7387SOL     OW33793   1.456   1.730   8.556 -0.0989  0.0930  0.2160
 7387SOL    HW133794   1.428   1.711   8.646 -0.7439  1.8394  0.3718
 7387SOL    HW233795   1.548   1.753   8.541 -0.9305  2.8988 -0.5638
 7388SOL     OW33796   2.418   1.655   6.261 -0.1245  0.4319 -0.3824
 7388SOL    HW133797   2.462   1.690   6.183  1.8298 -1.3008 -0.0400
 7388SOL    HW233798   2.324   1.667   6.243 -0.1870  1.5323  0.6694
 7389SOL     OW33799   0.579   1.434   4.369 -0.0328 -0.0972  0.0339
 7389SOL    HW133800   0.556   1.498   4.436  1.3791 -0.3515  0.7627
 7389SOL    HW233801   0.667   1.408   4.395  0.7419  2.5707  0.0654
 7390SOL     OW33802   1.559   3.395   9.987  0.1795 -0.4289 -0.2829
 7390SOL    HW133803   1.625   3.440  10.041 -2.5570  1.4401  1.4892
 7390SOL    HW233804   1.584   3.418   9.897  0.8739 -0.1950 -0.0344
 7391SOL     OW33805   1.770   1.502   5.344  0.0242 -0.3920  0.4820
 7391SOL    HW133806   1.686   1.459   5.360  0.0240 -0.4158  0.4121
 7391SOL    HW233807   1.817   1.455   5.413 -1.0133 -0.8581  0.8846
 7392SOL     OW33808   0.278   1.506   9.529 -0.6781 -0.1343 -0.5883
 7392SOL    HW133809   0.319   1.464   9.454  0.1823 -2.0323  0.9720
 7392SOL    HW233810   0.190   1.521   9.494 -0.9531  0.7584  0.4799
 7393SOL     OW33811   2.657   0.234   4.006  0.5355 -0.0633 -0.2456
 7393SOL    HW133812   2.689   0.146   3.984  0.6574  0.2123 -1.1615
 7393SOL    HW233813   2.572   0.228   3.962  0.7210  1.7445 -0.8409
 7394SOL     OW33814   4.601   2.600   4.089  0.4626  0.1754 -0.0537
 7394SOL    HW133815   4.520   2.637   4.053  1.6089  1.1945 -1.6063
 7394SOL    HW233816   4.647   2.676   4.123  1.0192 -0.0582 -0.2953
 7395SOL     OW33817   4.104   0.443   7.361 -0.2740  0.1999 -0.5033
 7395SOL    HW133818   4.142   0.452   7.274 -1.0784  2.6658 -0.5877
 7395SOL    HW233819   4.093   0.529   7.402  1.1129  0.0162  0.2430
 7396SOL     OW33820   0.640   2.748   8.070 -0.0083  0.2064 -0.2022
 7396SOL    HW133821   0.573   2.687   8.102  2.0484 -1.5698  0.6773
 7396SOL    HW233822   0.715   2.690   8.084 -0.7893 -1.1144 -1.3887
 7397SOL     OW33823   3.120   4.530  11.779  0.6006  0.5170  0.8258
 7397SOL    HW133824   3.027   4.539  11.796 -0.4123 -2.4298 -3.2055
 7397SOL    HW233825   3.121   4.439  11.749 -2.3563  1.4670 -2.0679
 7398SOL     OW33826   4.602   2.138   8.882  0.1113 -0.3029  0.3638
 7398SOL    HW133827   4.678   2.193   8.903 -0.0537  0.0961 -0.0729
 7398SOL    HW233828   4.619   2.050   8.914  1.0462 -0.2201  0.1106
 7399SOL     OW33829   4.217   2.714   8.113  0.0299 -0.0825 -0.1376
 7399SOL    HW133830   4.173   2.733   8.196  1.4869  3.2732 -0.0891
 7399SOL    HW233831   4.213   2.620   8.098 -1.5386 -0.4949  2.8393
 7400SOL     OW33832   2.926   0.954   3.197 -0.0257  0.4453 -0.5362
 7400SOL    HW133833   2.833   0.950   3.218  0.4881 -0.4290  1.6318
 7400SOL    HW233834   2.938   1.041   3.159 -0.0853  0.6558 -0.0791
 7401SOL     OW33835   0.311   4.612  13.195  0.5686  0.1789  0.0309
 7401SOL    HW133836   0.376   4.546  13.171 -0.6849 -0.4582 -1.5998
 7401SOL    HW233837   0.232   4.566  13.224  1.7449 -1.4139  0.6748
 7402SOL     OW33838   1.254   1.428  17.092 -0.6611 -0.5786 -0.2211
 7402SOL    HW133839   1.260   1.488  17.166  2.8860  0.3282 -1.2309
 7402SOL    HW233840   1.200   1.360  17.131 -1.8109 -0.8435 -2.2873
 7403SOL     OW33841   1.968   4.259  10.782  0.0644 -0.2725  0.1551
 7403SOL    HW133842   1.988   4.258  10.689  2.7409 -0.6818  0.7330
 7403SOL    HW233843   2.054   4.274  10.822  0.0218  1.0978 -0.2730
 7404SOL     OW33844   0.936   4.673   6.771  0.3213 -0.2236 -0.6270
 7404SOL    HW133845   0.930   4.670   6.676 -1.9839 -0.7772 -0.4750
 7404SOL    HW233846   0.856   4.722   6.790  0.1617  0.8772 -4.2008
 7405SOL     OW33847   2.746   1.056   4.543  0.3326 -0.2626 -0.3262
 7405SOL    HW133848   2.809   0.984   4.544  1.9864  1.1815 -0.4059
 7405SOL    HW233849   2.677   1.021   4.486  0.1249 -0.3512 -0.0223
 7406SOL     OW33850   1.005   2.493   7.031 -0.6965  0.1869 -1.1774
 7406SOL    HW133851   0.975   2.550   7.101  1.5699  2.2933 -1.9096
 7406SOL    HW233852   0.950   2.524   6.959 -0.4072 -1.5195 -2.1462
 7407SOL     OW33853   0.905   0.029   2.669 -0.2714 -0.3711 -0.6093
 7407SOL    HW133854   0.823   0.008   2.714 -0.1258  0.3965  0.0111
 7407SOL    HW233855   0.886   0.020   2.575  1.2023  1.8204 -1.1125
 7408SOL     OW33856   2.989   3.604   5.108  0.1330 -0.0252 -0.3456
 7408SOL    HW133857   3.074   3.561   5.122 -1.0367 -2.0866  0.4265
 7408SOL    HW233858   3.005   3.674   5.171 -1.6669 -0.2614  0.3729
 7409SOL     OW33859   1.111   4.031   6.386 -0.2672 -0.2073 -0.0977
 7409SOL    HW133860   1.143   3.966   6.448 -0.6660  0.0036  0.3289
 7409SOL    HW233861   1.162   4.005   6.309 -0.5817 -0.4360 -0.2304
 7410SOL     OW33862   4.101   4.665   4.928  0.1572 -0.0957  0.0905
 7410SOL    HW133863   4.025   4.687   4.874 -0.0814  0.1733  0.5354
 7410SOL    HW233864   4.134   4.580   4.899 -2.7143 -1.0748 -0.3269
 7411SOL     OW33865   0.004   2.007  11.201  0.6152 -0.3834 -0.1633
 7411SOL    HW133866   4.696   2.033  11.123  0.4940  0.9028  0.3361
 7411SOL    HW233867   4.685   2.017  11.274  2.3104  1.5422  0.9860
 7412SOL     OW33868   3.641   0.233   6.606 -0.4082 -0.4322 -0.2536
 7412SOL    HW133869   3.586   0.168   6.649  2.4213 -1.6102  1.6422
 7412SOL    HW233870   3.646   0.208   6.514  2.4072  0.9140 -0.4713
 7413SOL     OW33871   0.850   4.721   9.639  0.2350 -0.3514  0.0051
 7413SOL    HW133872   0.775   0.008   9.586 -0.9784 -0.3384  1.7452
 7413SOL    HW233873   0.818   4.731   9.729 -0.2431  0.9613 -0.3025
 7414SOL     OW33874   0.027   1.505   3.335  0.2084  0.0444 -0.3266
 7414SOL    HW133875   4.728   1.422   3.312  0.3437  0.0165 -0.4665
 7414SOL    HW233876   0.092   1.479   3.399 -0.8214  0.9918  1.1013
 7415SOL     OW33877   2.364   4.037   2.809  0.0450 -0.2670 -0.7265
 7415SOL    HW133878   2.310   4.097   2.758  0.8336  0.1289 -1.0932
 7415SOL    HW233879   2.302   3.967   2.832  0.1081 -0.2278 -0.4320
 7416SOL     OW33880   2.989   4.617   1.424  0.0374 -0.2947 -0.3814
 7416SOL    HW133881   2.978   4.642   1.333 -1.0042  0.8159  0.0482
 7416SOL    HW233882   2.987   4.698   1.474 -2.1220 -1.9413  2.2226
 7417SOL     OW33883   1.308   2.144   5.477 -0.0354 -0.3721  1.1021
 7417SOL    HW133884   1.327   2.050   5.477 -0.5089 -0.4688  0.6050
 7417SOL    HW233885   1.321   2.160   5.571 -0.9660  0.9745  1.0013
 7418SOL     OW33886   3.457   0.967   9.309 -0.1460 -0.2980 -0.2716
 7418SOL    HW133887   3.379   1.010   9.274  0.4304  1.4680  0.6001
 7418SOL    HW233888   3.516   1.040   9.325 -1.3800  0.5056  0.6101
 7419SOL     OW33889   3.073   1.983   8.895  0.0987 -0.0821  0.2272
 7419SOL    HW133890   2.981   2.010   8.890 -0.5967 -2.0485  2.4327
 7419SOL    HW233891   3.105   1.996   8.806  2.6882 -0.1300  1.1576
 7420SOL     OW33892   3.259   1.784   1.804  0.0952 -0.4949 -0.3369
 7420SOL    HW133893   3.274   1.733   1.884  1.4633  1.9645  0.9428
 7420SOL    HW233894   3.198   1.731   1.753 -0.1344  0.0586 -0.6338
 7421SOL     OW33895   2.705   3.579  10.553 -0.0586 -0.0590  0.3279
 7421SOL    HW133896   2.677   3.575  10.461 -0.0513 -1.2427  0.3722
 7421SOL    HW233897   2.684   3.492  10.587  1.6428  0.3664  2.4779
 7422SOL     OW33898   1.265   3.626   2.624  0.3558  0.7867  0.0094
 7422SOL    HW133899   1.205   3.555   2.649 -1.1644  1.4819 -1.6362
 7422SOL    HW233900   1.255   3.690   2.695 -0.7612  0.3757  0.2358
 7423SOL     OW33901   1.400   1.436  11.215  0.2855 -0.1800  0.3300
 7423SOL    HW133902   1.415   1.525  11.183  0.4070  0.0291  0.9755
 7423SOL    HW233903   1.446   1.385  11.149  1.3161  0.7707  0.3090
 7424SOL     OW33904   0.483   4.073   9.137  0.2362 -0.1029  0.2936
 7424SOL    HW133905   0.571   4.084   9.172 -0.5475  2.7310  1.4528
 7424SOL    HW233906   0.453   4.015   9.207  0.3050  0.5934  0.9057
 7425SOL     OW33907   4.682   0.803   8.557 -0.3970  0.6453 -0.1027
 7425SOL    HW133908   4.645   0.868   8.498 -1.6134  0.6166  0.6277
 7425SOL    HW233909   0.018   0.776   8.508 -1.0420 -2.1325  0.3761
 7426SOL     OW33910   0.213   0.327   4.147  0.1221 -0.0515  0.1582
 7426SOL    HW133911   0.154   0.353   4.218  2.0158 -0.1033  1.7522
 7426SOL    HW233912   0.208   0.404   4.091 -0.7547  0.2713  0.6801
 7427SOL     OW33913   3.707   0.478   8.355 -0.0053  0.0509 -0.5484
 7427SOL    HW133914   3.724   0.390   8.389  1.0420  0.9674  1.2933
 7427SOL    HW233915   3.796   0.485   8.320 -0.1150 -1.5217 -1.1689
 7428SOL     OW33916   3.283   4.048   6.240  0.5422 -0.0008  0.0154
 7428SOL    HW133917   3.344   4.008   6.303  0.4441  0.5937  0.4886
 7428SOL    HW233918   3.252   3.975   6.186  2.3022 -2.6821  2.5810
 7429SOL     OW33919   2.724   4.391  16.138 -0.2136  0.3605 -0.4980
 7429SOL    HW133920   2.788   4.463  16.129 -1.7091  1.7023 -0.4163
 7429SOL    HW233921   2.780   4.321  16.106  1.7628  1.6990 -0.0061
 7430SOL     OW33922   4.716   3.775   8.697  0.0830  0.0184  0.0068
 7430SOL    HW133923   0.002   3.849   8.751  1.5726  0.3417 -1.1936
 7430SOL    HW233924   0.032   3.776   8.620 -0.0501 -1.5926 -0.1078
 7431SOL     OW33925   2.583   2.878   9.544  0.5448 -0.0123 -0.0751
 7431SOL    HW133926   2.523   2.943   9.508  1.1498  0.1449 -0.7944
 7431SOL    HW233927   2.646   2.932   9.592  2.3208 -1.5146 -0.7258
 7432SOL     OW33928   4.604   1.827  15.003  0.6756 -0.7222 -0.2238
 7432SOL    HW133929   4.656   1.781  15.069  1.6350 -1.1186 -1.2554
 7432SOL    HW233930   4.616   1.768  14.928 -2.0859 -1.0113 -0.4443
 7433SOL     OW33931   0.829   2.989   5.784  0.4035  0.1386 -0.2737
 7433SOL    HW133932   0.924   3.002   5.786  0.6849 -1.9914 -0.0085
 7433SOL    HW233933   0.794   3.071   5.748  1.0554  0.7654  0.5096
 7434SOL     OW33934   4.043   3.004   2.693 -0.7011 -0.1658  0.8865
 7434SOL    HW133935   3.998   2.929   2.731  0.4361 -2.2542 -1.7767
 7434SOL    HW233936   4.028   3.004   2.598  1.0890  2.4879  0.6022
 7435SOL     OW33937   3.420   0.724   5.341 -0.2376 -0.1249 -0.8708
 7435SOL    HW133938   3.436   0.683   5.426 -0.4052  1.0160 -0.2771
 7435SOL    HW233939   3.352   0.780   5.379 -0.5610 -0.3751 -1.0887
 7436SOL     OW33940   3.470   3.408   5.452  0.2893  0.1032 -0.1768
 7436SOL    HW133941   3.431   3.326   5.421  0.4771 -0.2030  0.3979
 7436SOL    HW233942   3.560   3.385   5.430  0.2628  0.8714 -1.0934
 7437SOL     OW33943   1.649   2.033   4.899 -0.2021  0.2202 -0.1298
 7437SOL    HW133944   1.686   1.978   4.829 -1.3151 -1.2675  0.4634
 7437SOL    HW233945   1.726   2.029   4.956 -0.1807  0.5623 -0.1336
 7438SOL     OW33946   2.754   2.822   3.053  0.3520 -0.5816  0.4094
 7438SOL    HW133947   2.843   2.798   3.026 -0.1107 -1.7684 -0.0777
 7438SOL    HW233948   2.767   2.903   3.102 -0.1562 -0.5174  0.4318
 7439SOL     OW33949   3.951   1.839   3.743  0.1160  0.2431 -0.1274
 7439SOL    HW133950   3.938   1.896   3.667  1.5449  1.3509  0.4836
 7439SOL    HW233951   4.046   1.834   3.734  0.2144 -2.1489  2.3206
 7440SOL     OW33952   0.021   4.638   6.792  0.3051  0.0157 -0.2713
 7440SOL    HW133953   4.711   4.668   6.867 -0.8501 -1.4303 -0.4745
 7440SOL    HW233954   4.702   4.570   6.762  1.1900 -0.4963 -0.9032
 7441SOL     OW33955   0.098   3.141   7.843 -0.5383  0.3790  0.5839
 7441SOL    HW133956   0.146   3.196   7.905  0.0973  0.0208  0.4124
 7441SOL    HW233957   0.023   3.125   7.900  1.8711 -2.6873  2.9592
 7442SOL     OW33958   3.433   4.001  13.614 -0.3356  0.3600  0.2510
 7442SOL    HW133959   3.509   3.975  13.561  0.0228  1.2180  0.3401
 7442SOL    HW233960   3.462   3.996  13.705 -1.8162 -0.2701  0.6781
 7443SOL     OW33961   2.280   0.153   8.802 -0.0641 -0.0037  0.2655
 7443SOL    HW133962   2.193   0.170   8.838 -1.6397 -0.8731 -3.1078
 7443SOL    HW233963   2.311   0.244   8.794 -1.2102  0.4254  0.7403
 7444SOL     OW33964   2.534   1.514   6.691  0.7064 -0.0448 -0.0791
 7444SOL    HW133965   2.587   1.540   6.616 -1.2926  2.6888 -0.5927
 7444SOL    HW233966   2.476   1.590   6.688 -1.6696 -1.8704 -0.2530
 7445SOL     OW33967   1.999   1.261   3.634 -0.1270 -0.1677  0.4167
 7445SOL    HW133968   1.980   1.168   3.650 -0.2146 -0.4447 -1.3176
 7445SOL    HW233969   1.910   1.297   3.630 -0.2157 -0.0735  3.1260
 7446SOL     OW33970   2.214   2.719   7.519 -0.2906  0.6917 -0.1463
 7446SOL    HW133971   2.193   2.708   7.427  0.4575  1.9239 -0.4578
 7446SOL    HW233972   2.283   2.783   7.504  2.0323 -1.4528  1.4877
 7447SOL     OW33973   4.412   4.340  13.321  0.2683  0.2520 -0.3568
 7447SOL    HW133974   4.423   4.270  13.256  1.5104  0.5539 -0.4766
 7447SOL    HW233975   4.381   4.411  13.264  0.0724  0.3350 -0.1474
 7448SOL     OW33976   0.211   1.399  11.699 -0.3538 -0.0441 -0.0892
 7448SOL    HW133977   0.189   1.451  11.622  1.4691  0.2476 -0.4136
 7448SOL    HW233978   0.157   1.321  11.689 -1.1646  0.7615 -2.0432
 7449SOL     OW33979   0.987   1.062   4.529  0.9084  0.1657  1.1425
 7449SOL    HW133980   0.968   0.968   4.530  2.2072 -0.1373 -1.8862
 7449SOL    HW233981   0.961   1.077   4.438  2.1972  0.2946  0.7856
 7450SOL     OW33982   3.656   2.496   4.579 -0.3223 -0.1794 -0.0406
 7450SOL    HW133983   3.647   2.435   4.653 -1.2929 -1.0870 -0.9223
 7450SOL    HW233984   3.653   2.587   4.608 -1.8621  0.7446 -3.1486
 7451SOL     OW33985   3.295   1.358  14.268 -0.2832  0.1531  0.5938
 7451SOL    HW133986   3.282   1.267  14.239  0.2587  0.4172 -0.4911
 7451SOL    HW233987   3.225   1.363  14.333 -1.0766  1.2496 -0.3420
 7452SOL     OW33988   2.704   3.205   5.828 -0.1801  0.0671 -0.4911
 7452SOL    HW133989   2.660   3.126   5.858  0.6356 -0.7169 -1.3590
 7452SOL    HW233990   2.729   3.234   5.916  1.4828  0.0151 -0.9476
 7453SOL     OW33991   2.574   2.197   6.083  0.3638  0.1246 -0.1339
 7453SOL    HW133992   2.601   2.262   6.148 -0.2114 -1.3173  1.5535
 7453SOL    HW233993   2.563   2.253   6.006  2.2646 -0.8484 -1.0908
 7454SOL     OW33994   2.978   3.364   0.755 -0.1879  0.3122 -0.3451
 7454SOL    HW133995   2.955   3.280   0.715  0.7574 -0.3186  0.4147
 7454SOL    HW233996   3.015   3.407   0.678 -1.3529 -1.6392 -2.0150
 7455SOL     OW33997   1.905   2.374   8.333  0.3034  0.2109  0.3688
 7455SOL    HW133998   1.871   2.365   8.422 -0.4085  2.8428  0.3587
 7455SOL    HW233999   1.994   2.343   8.344  0.8674  0.6584 -2.7849
 7456SOL     OW34000   2.286   2.222   9.509 -0.5091  0.0736 -0.1111
 7456SOL    HW134001   2.261   2.137   9.471  3.6593 -1.4969  0.6418
 7456SOL    HW234002   2.270   2.275   9.431  0.5511  0.1403 -0.2792
 7457SOL     OW34003   3.918   0.189  12.208  0.3838 -0.0716  0.3274
 7457SOL    HW134004   3.848   0.163  12.148 -1.2475 -0.5390  2.4342
 7457SOL    HW234005   3.874   0.165  12.290  1.0479 -0.2312  0.6365
 7458SOL     OW34006   4.078   1.353   3.997 -0.8301 -0.8150  0.4645
 7458SOL    HW134007   4.050   1.436   3.958 -0.7176 -0.3899  1.2774
 7458SOL    HW234008   3.998   1.315   4.032 -1.8482  0.4529 -0.5206
 7459SOL     OW34009   1.625   2.024  16.899  0.5567  0.1977  0.1359
 7459SOL    HW134010   1.544   2.055  16.859  0.1494  1.7110  2.1526
 7459SOL    HW234011   1.590   1.947  16.945  0.6636  0.6170  0.9036
 7460SOL     OW34012   2.045   4.551   8.205  0.0845 -0.1187  0.4705
 7460SOL    HW134013   1.973   4.507   8.160 -0.9123  1.7351  0.2682
 7460SOL    HW234014   2.125   4.511   8.171 -0.4026 -2.0047  1.5087
 7461SOL     OW34015   2.460   4.586   7.414 -0.3047  0.4136 -0.0267
 7461SOL    HW134016   2.492   4.662   7.365  0.0964 -0.6511 -1.3868
 7461SOL    HW234017   2.531   4.563   7.474 -0.0343  0.3827 -0.3615
 7462SOL     OW34018   2.575   3.496  11.420  0.5817 -0.4296 -0.0457
 7462SOL    HW134019   2.607   3.451  11.342 -0.7294  1.6948 -1.7739
 7462SOL    HW234020   2.553   3.582  11.385  2.1342  0.0614  0.1640
 7463SOL     OW34021   3.288   4.356   7.986  0.0431 -0.0938  0.3670
 7463SOL    HW134022   3.324   4.295   8.051  0.3818  1.6103  1.7981
 7463SOL    HW234023   3.257   4.421   8.048  1.6522  0.5103  0.5496
 7464SOL     OW34024   4.725   0.151   5.626 -0.6728  0.3317 -0.2828
 7464SOL    HW134025   4.660   0.118   5.564  0.2182 -0.4276 -0.8021
 7464SOL    HW234026   0.027   0.075   5.664  2.5430  2.4474  0.2748
 7465SOL     OW34027   1.623   4.550   6.809 -0.3613  0.0305 -0.2106
 7465SOL    HW134028   1.567   4.505   6.872 -0.4129 -1.3965 -1.2831
 7465SOL    HW234029   1.684   4.604   6.860 -0.0097 -1.6932  1.1820
 7466SOL     OW34030   0.624   3.956   4.830  0.0813 -0.2249  0.6066
 7466SOL    HW134031   0.570   3.991   4.900 -1.9710 -0.7140 -0.7102
 7466SOL    HW234032   0.566   3.983   4.758  0.2220  1.9142  1.2981
 7467SOL     OW34033   1.769   1.942   2.341  0.1732 -0.1285 -0.6334
 7467SOL    HW134034   1.694   1.885   2.326 -0.6387  1.4507 -2.5699
 7467SOL    HW234035   1.792   1.970   2.252 -2.7440  2.7462 -0.4960
 7468SOL     OW34036   4.235   2.364   5.372  0.5320 -0.3103 -0.5056
 7468SOL    HW134037   4.315   2.395   5.330  0.0366  0.3980 -0.9255
 7468SOL    HW234038   4.261   2.286   5.420 -0.7230  0.3031  1.1424
 7469SOL     OW34039   4.324   2.879   5.832  0.1021 -0.0171 -1.3904
 7469SOL    HW134040   4.395   2.914   5.886  0.3808 -0.8285 -1.2322
 7469SOL    HW234041   4.353   2.788   5.835 -1.6768 -0.6144 -2.7188
 7470SOL     OW34042   0.255   3.752   9.794  0.1003  0.4226  0.0701
 7470SOL    HW134043   0.229   3.684   9.856 -1.8085 -0.4861 -1.7465
 7470SOL    HW234044   0.284   3.826   9.848  2.0371 -0.1853 -0.1141
 7471SOL     OW34045   2.018   2.463   3.152  0.5596 -0.7140 -0.1174
 7471SOL    HW134046   2.097   2.513   3.131  0.1288  0.2639  0.5699
 7471SOL    HW234047   2.063   2.379   3.143 -0.1244 -1.1517  0.5595
 7472SOL     OW34048   4.313   1.842  10.604  0.4732  0.4771  0.1087
 7472SOL    HW134049   4.382   1.783  10.633  2.1070  2.3268 -0.0274
 7472SOL    HW234050   4.276   1.793  10.530  1.0633  1.7576 -1.0214
 7473SOL     OW34051   1.483   2.636  16.966 -0.2824 -0.7575 -0.1102
 7473SOL    HW134052   1.546   2.707  16.979 -0.2537 -0.8338  0.1488
 7473SOL    HW234053   1.500   2.616  16.874 -0.9466  1.5173 -0.7577
 7474SOL     OW34054   1.133   4.033   8.715 -0.4270  0.1298 -0.1494
 7474SOL    HW134055   1.101   4.084   8.790 -2.0279 -1.1410  0.0307
 7474SOL    HW234056   1.106   3.941   8.717 -3.0320  0.8940 -0.3202
 7475SOL     OW34057   1.192   0.839   2.931 -0.0091 -1.0802  0.0319
 7475SOL    HW134058   1.170   0.768   2.871  0.2207  0.4637 -1.9153
 7475SOL    HW234059   1.231   0.904   2.872 -2.0697  1.1033  1.1107
 7476SOL     OW34060   0.041   3.880   5.740  0.0540 -0.0200  0.0021
 7476SOL    HW134061   0.020   3.797   5.696 -0.7261  0.0828  0.1759
 7476SOL    HW234062   0.018   3.936   5.665  3.6658  2.8653  1.0737
 7477SOL     OW34063   4.663   4.050  13.624 -0.6095  0.9486 -0.1193
 7477SOL    HW134064   4.602   4.001  13.679  0.8601 -1.9583 -1.0614
 7477SOL    HW234065   4.603   4.114  13.588 -0.3121  0.0842 -2.1756
 7478SOL     OW34066   0.654   3.100   5.264 -0.2532 -0.1356  0.0560
 7478SOL    HW134067   0.674   3.186   5.227 -1.3952 -0.0379 -0.3363
 7478SOL    HW234068   0.621   3.074   5.178  1.9799 -0.9740 -0.5397
 7479SOL     OW34069   2.986   0.041   2.207  0.3029  0.0181  0.1377
 7479SOL    HW134070   2.988   4.715   2.274 -1.8547  0.2082  0.3864
 7479SOL    HW234071   3.075   0.077   2.201  0.2157 -0.0532 -1.7748
 7480SOL     OW34072   0.944   0.028   5.677 -0.6632  0.0407  0.4222
 7480SOL    HW134073   0.951   4.675   5.669  1.8275  0.2409  0.1566
 7480SOL    HW234074   1.018   0.047   5.736  0.3852 -2.0744 -0.2411
 7481SOL     OW34075   2.184   1.203   1.085 -0.1048  0.1563  0.4068
 7481SOL    HW134076   2.273   1.174   1.104  0.6356  0.8089 -2.0115
 7481SOL    HW234077   2.160   1.138   1.019 -1.6949  1.8679 -0.7009
 7482SOL     OW34078   4.339   4.468   2.319 -0.6748  0.5294 -0.1596
 7482SOL    HW134079   4.330   4.496   2.228 -0.8572  2.0443  0.3342
 7482SOL    HW234080   4.335   4.553   2.362  1.8238  0.2350  0.6410
 7483SOL     OW34081   2.033   2.501  13.735  0.4957 -0.0119  0.4432
 7483SOL    HW134082   2.074   2.537  13.657  1.4898  1.4352  1.6458
 7483SOL    HW234083   2.112   2.494  13.789  0.6453  0.9966  0.3374
 7484SOL     OW34084   0.480   3.377   4.749  0.1110  0.0723  0.1611
 7484SOL    HW134085   0.391   3.383   4.784  0.3082 -2.6535  1.1227
 7484SOL    HW234086   0.521   3.451   4.793 -1.9052  0.6254  1.1156
 7485SOL     OW34087   4.564   3.077   6.276  0.2969 -0.1634  0.2343
 7485SOL    HW134088   4.659   3.083   6.291  0.0518  0.6992  1.4016
 7485SOL    HW234089   4.542   3.170   6.270  1.2286  0.2133  2.6187
 7486SOL     OW34090   0.872   1.846   6.021 -0.0385  0.0345 -0.0955
 7486SOL    HW134091   0.966   1.863   6.026 -0.0814  0.5199 -1.0070
 7486SOL    HW234092   0.849   1.875   6.109  0.4793  0.3767 -0.0726
 7487SOL     OW34093   2.535   3.665   4.725  0.5433  0.1197  0.3540
 7487SOL    HW134094   2.509   3.589   4.777 -0.6146  0.1660 -0.1460
 7487SOL    HW234095   2.592   3.706   4.790  2.7087 -0.9759 -0.8480
 7488SOL     OW34096   0.391   0.171  17.607 -0.1004  0.2471  0.2341
 7488SOL    HW134097   0.300   0.189  17.630 -0.3433  0.0030 -0.5229
 7488SOL    HW234098   0.370   0.192  17.516 -3.8594  0.2205  1.1036
 7489SOL     OW34099   2.685   3.687   0.430 -0.4381  0.6792  0.5884
 7489SOL    HW134100   2.596   3.720   0.432 -0.9192 -0.7013  1.6232
 7489SOL    HW234101   2.732   3.762   0.392 -1.2783  1.2931  0.7727
 7490SOL     OW34102   2.404   2.281   9.188  0.3836 -0.3290 -0.1284
 7490SOL    HW134103   2.454   2.233   9.122 -1.9414 -1.2282 -1.2326
 7490SOL    HW234104   2.312   2.265   9.169  0.1059  0.2576  0.7040
 7491SOL     OW34105   2.383   0.661   8.691 -0.5135  0.3456 -0.2397
 7491SOL    HW134106   2.471   0.625   8.704 -0.0341  1.3041 -0.7935
 7491SOL    HW234107   2.337   0.597   8.745 -0.6453  2.1175  1.7509
 7492SOL     OW34108   0.758   3.743   6.134  0.1405  0.2238  0.2112
 7492SOL    HW134109   0.834   3.688   6.114  1.7658  1.8420  1.9451
 7492SOL    HW234110   0.694   3.673   6.145 -2.3012  2.3060 -0.7027
 7493SOL     OW34111   4.315   2.571  12.897  0.4546 -0.6977 -0.0558
 7493SOL    HW134112   4.401   2.551  12.861  0.2371 -1.9806  0.1250
 7493SOL    HW234113   4.270   2.614  12.824  0.7935 -0.5581 -0.1840
 7494SOL     OW34114   4.715   4.369   3.633 -0.3584  0.4174 -0.4913
 7494SOL    HW134115   4.647   4.321   3.680 -1.5395  1.1923 -1.4026
 7494SOL    HW234116   0.014   4.299   3.583 -2.0235 -0.9221  0.0501
 7495SOL     OW34117   2.779   2.828   8.453  0.5600 -0.3709  0.3843
 7495SOL    HW134118   2.785   2.771   8.377 -1.8613 -1.5429  1.0771
 7495SOL    HW234119   2.858   2.803   8.501  1.2919  1.7041  0.2900
 7496SOL     OW34120   3.592   0.725   3.441 -0.0793  0.1604 -0.1998
 7496SOL    HW134121   3.637   0.690   3.364 -0.6451 -1.6394  0.2750
 7496SOL    HW234122   3.536   0.653   3.472  0.4900 -0.2906 -0.2158
 7497SOL     OW34123   1.611   3.968   8.470 -0.6400  0.3625  0.2612
 7497SOL    HW134124   1.523   3.932   8.477  1.0689 -3.4186  2.4136
 7497SOL    HW234125   1.612   4.014   8.386 -1.6792 -2.1815 -1.1487
 7498SOL     OW34126   2.520   3.822   4.498 -0.0807  0.3312 -0.3026
 7498SOL    HW134127   2.544   3.899   4.550 -0.7658  0.7563 -0.6246
 7498SOL    HW234128   2.557   3.750   4.549  2.0058  1.4177 -0.2542
 7499SOL     OW34129   1.092   3.289   2.313  0.2190 -0.6902 -0.2103
 7499SOL    HW134130   1.089   3.237   2.233  2.8033 -1.3474  0.1187
 7499SOL    HW234131   1.101   3.222   2.381 -0.3129  0.3672  0.8909
 7500SOL     OW34132   0.267   1.741   6.993  0.6706 -0.3370  0.4216
 7500SOL    HW134133   0.280   1.756   7.087 -2.0217 -0.9023  0.8916
 7500SOL    HW234134   0.199   1.805   6.973 -1.6222 -2.8617  0.2033
 7501SOL     OW34135   4.661   2.151   3.893  0.0790 -0.5831  0.2800
 7501SOL    HW134136   4.661   2.245   3.877 -1.9143 -0.1152  2.9090
 7501SOL    HW234137   4.609   2.147   3.974  1.1041 -1.4467  0.8904
 7502SOL     OW34138   2.874   4.436   5.761  0.2407  0.0125  0.3101
 7502SOL    HW134139   2.840   4.373   5.825 -2.6924 -0.5285 -1.8119
 7502SOL    HW234140   2.966   4.408   5.758  0.9105  2.3213 -0.7909
 7503SOL     OW34141   4.082   4.685   1.500  0.1018 -0.0254  0.1693
 7503SOL    HW134142   4.012   4.641   1.547 -1.0624  2.2777  0.5720
 7503SOL    HW234143   4.100   0.009   1.567 -0.6580  0.6691 -0.3129
 7504SOL     OW34144   1.190   3.490   8.921  0.0242 -0.3081 -0.4480
 7504SOL    HW134145   1.144   3.491   8.837  0.4530  1.5644 -0.6539
 7504SOL    HW234146   1.242   3.410   8.912  1.3244  0.5321 -0.3602
 7505SOL     OW34147   2.332   2.355   0.792 -0.5615 -0.1024  0.1764
 7505SOL    HW134148   2.369   2.308   0.867 -1.1893 -0.5854  0.1855
 7505SOL    HW234149   2.263   2.399   0.842  0.2437  1.6088 -0.2211
 7506SOL     OW34150   2.159   2.678  16.057  0.0606 -0.4472 -0.0030
 7506SOL    HW134151   2.093   2.747  16.060  0.8302  0.1608  3.4183
 7506SOL    HW234152   2.155   2.631  16.141  0.2089 -1.8224 -0.7563
 7507SOL     OW34153   1.152   4.117   6.908 -0.1685  0.3450 -0.0991
 7507SOL    HW134154   1.183   4.207   6.914 -0.8221  0.5145  0.6489
 7507SOL    HW234155   1.070   4.123   6.957 -1.1839 -1.4412 -1.5793
 7508SOL     OW34156   0.171   0.211   6.105 -0.2333 -0.4080  0.1438
 7508SOL    HW134157   0.235   0.208   6.175  0.4022 -3.2107 -0.5409
 7508SOL    HW234158   0.101   0.165   6.151 -0.3146 -1.5446 -1.1129
 7509SOL     OW34159   2.769   3.471   5.005 -0.1996 -0.3709  0.3953
 7509SOL    HW134160   2.699   3.474   5.071  1.5792 -0.4626  2.2909
 7509SOL    HW234161   2.839   3.529   5.036  1.1712 -1.5708 -0.4469
 7510SOL     OW34162   3.360   3.695   9.219  0.1004  0.4563 -0.4246
 7510SOL    HW134163   3.412   3.642   9.158 -1.4339  1.1820 -2.3774
 7510SOL    HW234164   3.382   3.645   9.298 -0.3993 -0.1338 -0.6562
 7511SOL     OW34165   0.288   1.319   0.718 -0.3172 -0.1831 -0.3137
 7511SOL    HW134166   0.319   1.409   0.708 -1.1748  0.0732 -0.7040
 7511SOL    HW234167   0.319   1.282   0.636  0.6194 -0.0111 -0.0359
 7512SOL     OW34168   2.025   2.274   9.587 -0.6064  0.6881 -0.2074
 7512SOL    HW134169   1.982   2.252   9.670 -0.5461  0.4302 -0.2454
 7512SOL    HW234170   2.114   2.262   9.618 -0.2679 -0.2802 -1.5633
 7513SOL     OW34171   4.004   1.085   2.468 -0.7649  0.0317  0.0897
 7513SOL    HW134172   4.049   1.079   2.384  0.3665  0.4890  0.6644
 7513SOL    HW234173   4.061   1.033   2.525 -0.3509  0.5799  0.1761
 7514SOL     OW34174   1.244   2.647   2.171 -0.4977 -0.3346 -0.3987
 7514SOL    HW134175   1.170   2.600   2.132 -2.0858  0.2867  1.8523
 7514SOL    HW234176   1.222   2.628   2.262 -0.0021  1.0350  0.0062
 7515SOL     OW34177   2.751   0.323  12.393  0.3469 -0.2996  0.0841
 7515SOL    HW134178   2.804   0.395  12.426 -1.7392  0.7688  1.0724
 7515SOL    HW234179   2.673   0.370  12.363  0.4023 -1.4447 -1.8787
 7516SOL     OW34180   4.736   3.223   2.959  0.4123 -0.3966 -0.0978
 7516SOL    HW134181   0.047   3.291   3.001  1.8444 -1.6635  0.1591
 7516SOL    HW234182   4.648   3.260   2.959  0.4781 -0.2594  1.3649
 7517SOL     OW34183   2.444   2.438   5.146 -0.2201 -0.3181 -0.7320
 7517SOL    HW134184   2.453   2.351   5.185 -2.4230 -1.0250 -1.7991
 7517SOL    HW234185   2.369   2.464   5.200  0.3421  0.6627 -0.4217
 7518SOL     OW34186   3.860   1.918   1.316 -0.6206  0.0157  0.0408
 7518SOL    HW134187   3.944   1.905   1.272 -0.5860  3.0804 -0.8423
 7518SOL    HW234188   3.889   1.943   1.404  2.0085 -2.1195 -0.2298
 7519SOL     OW34189   0.198   4.536   4.212  0.4808 -0.2526  0.4282
 7519SOL    HW134190   0.230   4.453   4.247  1.9857 -0.6829 -1.9716
 7519SOL    HW234191   0.277   4.572   4.173 -0.8631  0.2259 -1.8502
 7520SOL     OW34192   2.637   2.657  15.847 -0.2986 -0.3379 -0.3721
 7520SOL    HW134193   2.626   2.722  15.778  1.7812  0.5614  0.1695
 7520SOL    HW234194   2.548   2.657  15.883 -0.2771 -2.0213 -0.2850
 7521SOL     OW34195   0.802   2.448   5.274  0.0571  0.0993 -0.4962
 7521SOL    HW134196   0.768   2.525   5.228  2.0105  1.7303  0.7503
 7521SOL    HW234197   0.882   2.434   5.224 -0.5083  3.4199 -2.3458
 7522SOL     OW34198   1.896   3.607   9.483 -0.2061 -0.2083 -0.3438
 7522SOL    HW134199   1.987   3.635   9.477 -0.3473  0.7646  1.9729
 7522SOL    HW234200   1.879   3.582   9.393 -0.3980 -0.3756 -0.2622
 7523SOL     OW34201   3.153   4.248  10.281 -0.7385 -0.3085 -0.3981
 7523SOL    HW134202   3.209   4.205  10.347 -1.1516  1.3064  1.0162
 7523SOL    HW234203   3.105   4.173  10.246  0.8311 -1.4754 -0.0611
 7524SOL     OW34204   2.931   2.946   5.255  0.0878  0.0058 -0.6189
 7524SOL    HW134205   3.013   2.988   5.280  0.1701 -1.6235  1.8699
 7524SOL    HW234206   2.876   3.014   5.217  2.8480  1.0681 -2.7199
 7525SOL     OW34207   1.935   0.579   5.579  0.1257  0.5012 -0.2177
 7525SOL    HW134208   1.893   0.664   5.570  1.7477  1.1255 -1.9433
 7525SOL    HW234209   2.028   0.573   5.557  0.8149  0.0226  2.7410
 7526SOL     OW34210   4.561   0.730   9.002 -0.1625 -0.1884 -0.1349
 7526SOL    HW134211   4.564   0.643   9.042 -1.2178 -0.4824 -0.7144
 7526SOL    HW234212   4.633   0.776   9.047 -1.4928  0.2502  1.5431
 7527SOL     OW34213   4.131   4.122   0.830  0.3080 -0.4826 -0.1684
 7527SOL    HW134214   4.055   4.075   0.865  0.1469  0.1465  0.3273
 7527SOL    HW234215   4.101   4.206   0.796 -0.3767 -0.5535  0.2641
 7528SOL     OW34216   0.107   1.164   9.290  0.2379 -0.3549 -0.3848
 7528SOL    HW134217   0.045   1.097   9.263  1.3141 -1.8067  0.7218
 7528SOL    HW234218   0.138   1.123   9.371 -1.6030 -1.5451 -0.2843
 7529SOL     OW34219   4.344   1.462  14.417 -0.5529  0.6335  0.4191
 7529SOL    HW134220   4.276   1.519  14.381  0.3970  2.2481  1.2480
 7529SOL    HW234221   4.414   1.472  14.353 -1.2655  0.4271 -0.4002
 7530SOL     OW34222   3.322   1.635   3.088  0.3522  0.2832 -0.4201
 7530SOL    HW134223   3.245   1.686   3.063 -0.0702 -0.7531 -1.1742
 7530SOL    HW234224   3.347   1.701   3.154 -0.8599  0.5623 -0.2349
 7531SOL     OW34225   0.842   1.366   7.829 -0.1445 -0.0688  0.7132
 7531SOL    HW134226   0.921   1.333   7.786 -0.4379  2.0891 -1.4764
 7531SOL    HW234227   0.763   1.318   7.802  0.0958  0.5793 -1.1392
 7532SOL     OW34228   1.233   1.204   7.233 -0.2363  0.0332  0.2195
 7532SOL    HW134229   1.284   1.169   7.160  0.2085  0.0058  0.5376
 7532SOL    HW234230   1.159   1.144   7.231  1.3783 -1.9786  0.5238
 7533SOL     OW34231   2.754   2.300   3.847 -0.1454  0.3074  0.2274
 7533SOL    HW134232   2.698   2.227   3.819 -0.8937  0.8598  0.2803
 7533SOL    HW234233   2.814   2.257   3.907 -1.1204 -0.0150  0.9645
 7534SOL     OW34234   3.390   2.288   6.325  0.0652  0.6050 -0.2064
 7534SOL    HW134235   3.453   2.336   6.378  0.6856 -0.7929  0.3121
 7534SOL    HW234236   3.314   2.329   6.367 -0.0253 -1.9784  2.1552
 7535SOL     OW34237   3.241   2.529   8.589 -0.3489 -0.0517 -0.1107
 7535SOL    HW134238   3.311   2.579   8.547 -1.1649  0.0640 -1.3239
 7535SOL    HW234239   3.291   2.470   8.646 -0.8150  1.0090  1.4170
 7536SOL     OW34240   2.818   1.869   7.271 -0.0869  0.3957 -0.7846
 7536SOL    HW134241   2.858   1.791   7.310  0.6465 -0.4618 -3.2415
 7536SOL    HW234242   2.877   1.935   7.305 -0.7726  1.9061 -2.5245
 7537SOL     OW34243   1.110   0.435   0.483  0.3313 -0.2048 -0.1808
 7537SOL    HW134244   1.141   0.519   0.516  2.4350 -1.2964  0.6488
 7537SOL    HW234245   1.061   0.468   0.408 -2.0251 -0.6522  1.1610
 7538SOL     OW34246   3.285   4.498  16.496  0.4784  0.9400 -0.5078
 7538SOL    HW134247   3.201   4.453  16.499 -1.0039  3.6537 -1.8977
 7538SOL    HW234248   3.340   4.449  16.434 -1.5138 -0.7008 -0.9775
 7539SOL     OW34249   0.694   1.437   6.890 -0.0780  0.4102  0.1190
 7539SOL    HW134250   0.602   1.452   6.912  0.0413 -0.3537  1.1288
 7539SOL    HW234251   0.722   1.526   6.914  1.0912 -0.2861  1.3203
 7540SOL     OW34252   2.344   0.433   7.022  0.3960 -0.0052 -0.1264
 7540SOL    HW134253   2.325   0.501   7.088  0.3390 -0.7648  0.6332
 7540SOL    HW234254   2.424   0.472   6.988  0.2973  0.7292  0.4610
 7541SOL     OW34255   0.915   2.176   5.194 -0.3019 -0.2085  0.3751
 7541SOL    HW134256   0.827   2.176   5.232 -0.2441 -1.8472  0.4776
 7541SOL    HW234257   0.954   2.254   5.235 -0.0712 -0.7152  1.1109
 7542SOL     OW34258   2.585   1.730  13.806  0.5596  0.0522 -0.2685
 7542SOL    HW134259   2.661   1.783  13.830 -0.0667  1.1805 -0.7780
 7542SOL    HW234260   2.578   1.676  13.885 -1.1358  1.3073  0.4162
 7543SOL     OW34261   3.568   0.569   6.835  0.1349  0.2510 -0.4613
 7543SOL    HW134262   3.646   0.518   6.817 -0.5600 -1.5456  1.5703
 7543SOL    HW234263   3.535   0.580   6.746  0.3857  1.0286 -0.4545
 7544SOL     OW34264   1.723   4.413  16.987  0.1062 -0.1351 -0.3142
 7544SOL    HW134265   1.645   4.434  17.039  0.8381 -0.3283  0.8515
 7544SOL    HW234266   1.696   4.419  16.895 -4.3713 -2.5123  0.8113
 7545SOL     OW34267   3.147   4.658   4.836 -0.1833  0.1016 -0.4876
 7545SOL    HW134268   3.197   4.615   4.907 -3.1089 -0.4728  1.2130
 7545SOL    HW234269   3.092   4.703   4.900 -0.0223 -2.3184  1.3881
 7546SOL     OW34270   1.510   2.292   2.229 -0.0372 -0.6451 -0.3801
 7546SOL    HW134271   1.518   2.370   2.285  1.4489  0.3824 -1.9931
 7546SOL    HW234272   1.426   2.249   2.243  0.7476 -1.9073  0.4246
 7547SOL     OW34273   1.098   4.241  11.054 -0.6138 -0.1231 -0.4339
 7547SOL    HW134274   1.139   4.189  10.985 -1.3610  1.1340 -1.8298
 7547SOL    HW234275   1.138   4.211  11.136 -0.0477  2.0370  0.0777
 7548SOL     OW34276   1.946   1.886  10.302 -0.6683  0.2881  0.3155
 7548SOL    HW134277   1.854   1.872  10.280 -1.3474  2.3568  1.8586
 7548SOL    HW234278   1.946   1.981  10.316 -1.7690  0.1899  0.9823
 7549SOL     OW34279   3.891   2.810   2.783  0.0880 -0.1061  0.0854
 7549SOL    HW134280   3.930   2.726   2.803  1.7913  0.4194 -0.9867
 7549SOL    HW234281   3.802   2.777   2.788 -0.3968  1.1247 -0.2801
 7550SOL     OW34282   3.611   0.092   3.041 -0.2795  0.2058  0.2998
 7550SOL    HW134283   3.614   0.173   2.989 -1.0496  0.4037  0.5608
 7550SOL    HW234284   3.703   0.097   3.068  0.2709 -0.3149 -1.4767
 7551SOL     OW34285   3.316   3.326   7.194 -0.0338  0.1293 -0.5434
 7551SOL    HW134286   3.387   3.314   7.256  0.4411  0.9191 -0.9442
 7551SOL    HW234287   3.348   3.303   7.107 -0.9390  0.3096 -0.9315
 7552SOL     OW34288   0.853   2.312   6.675  0.1906 -0.3384 -0.7904
 7552SOL    HW134289   0.811   2.254   6.738 -0.4529  0.7897 -0.1877
 7552SOL    HW234290   0.885   2.243   6.617  0.6914 -1.1880  0.4910
 7553SOL     OW34291   3.630   3.999   8.109 -0.2285 -0.6275 -0.1689
 7553SOL    HW134292   3.666   4.004   8.021 -0.2793 -0.0651 -0.1553
 7553SOL    HW234293   3.684   3.930   8.149 -1.5130 -0.3860  1.9767
 7554SOL     OW34294   3.507   3.312   4.549 -0.0551  0.4070  0.6868
 7554SOL    HW134295   3.443   3.242   4.566  0.6780 -0.8385 -1.5922
 7554SOL    HW234296   3.562   3.318   4.626  3.1377 -1.5142 -1.4511
 7555SOL     OW34297   4.056   3.141   3.588 -0.0332  0.1710  0.4413
 7555SOL    HW134298   4.147   3.112   3.589 -0.3098 -0.7154 -0.3974
 7555SOL    HW234299   4.020   3.088   3.660 -0.8049 -1.1714 -0.9302
 7556SOL     OW34300   1.299   1.613   8.318  0.1900  0.4738 -0.3328
 7556SOL    HW134301   1.327   1.648   8.403 -0.1713 -0.3937  0.1379
 7556SOL    HW234302   1.380   1.615   8.269  0.0190  0.4088 -0.6177
 7557SOL     OW34303   2.839   0.791   9.795  0.3453  0.4001 -0.2001
 7557SOL    HW134304   2.758   0.760   9.756  0.3829 -1.1667  0.9650
 7557SOL    HW234305   2.886   0.830   9.721 -0.5524  0.7487 -0.5787
 7558SOL     OW34306   1.740   1.743   9.586  0.3681  0.6336  0.2854
 7558SOL    HW134307   1.753   1.698   9.502 -0.9250 -0.5884  0.7354
 7558SOL    HW234308   1.681   1.814   9.560 -0.3823  0.3977  1.3215
 7559SOL     OW34309   1.494   1.987   8.858  0.0072  0.6811 -0.1016
 7559SOL    HW134310   1.418   2.010   8.912  1.3821 -0.3717  2.3266
 7559SOL    HW234311   1.481   1.893   8.847 -2.3113  0.7050  2.3537
 7560SOL     OW34312   3.175   0.912   6.311 -0.3690  0.2738 -0.1082
 7560SOL    HW134313   3.195   0.823   6.281 -1.4752 -1.0125  2.9460
 7560SOL    HW234314   3.187   0.904   6.405 -0.2027 -2.5368 -0.3795
 7561SOL     OW34315   0.109   1.708   6.526  0.4198 -0.6322 -0.3379
 7561SOL    HW134316   0.020   1.684   6.500  0.9037  0.5848 -3.0418
 7561SOL    HW234317   0.080   1.721   6.617 -0.3033  0.6270 -0.7563
 7562SOL     OW34318   1.067   0.176   5.070  0.3178 -0.0616  0.4010
 7562SOL    HW134319   1.097   0.256   5.113 -0.4156  0.4074  0.0314
 7562SOL    HW234320   1.057   0.209   4.981 -0.3457  0.1441  0.5515
 7563SOL     OW34321   2.196   1.779   8.046  0.3899 -0.1138 -0.2220
 7563SOL    HW134322   2.271   1.722   8.029  0.2506  0.0819 -1.5106
 7563SOL    HW234323   2.132   1.735   7.990  1.0569 -0.8519 -0.4110
 7564SOL     OW34324   0.304   1.247   8.335  0.7824 -0.1129  0.1923
 7564SOL    HW134325   0.371   1.180   8.327  0.9078  0.4365 -3.0599
 7564SOL    HW234326   0.227   1.191   8.328 -0.3405  1.1255  2.5363
 7565SOL     OW34327   1.743   3.007  12.767  1.2353 -0.3744  0.5846
 7565SOL    HW134328   1.801   2.943  12.808  0.8713 -1.6077 -0.8388
 7565SOL    HW234329   1.733   2.954  12.688  1.2071  1.0649 -0.3835
 7566SOL     OW34330   3.091   2.654  12.969 -0.1335  0.4323  0.5286
 7566SOL    HW134331   3.015   2.693  13.011 -1.5105 -2.8215  1.0457
 7566SOL    HW234332   3.132   2.730  12.929 -0.3186  0.0288 -0.4274
 7567SOL     OW34333   0.840   2.022  13.405 -0.2066 -0.1044  0.2931
 7567SOL    HW134334   0.921   2.033  13.355 -0.2507 -1.1520  0.0032
 7567SOL    HW234335   0.856   1.938  13.448 -1.0785 -0.4186 -0.0032
 7568SOL     OW34336   0.830   1.647   7.863  0.2497 -0.4287 -0.0249
 7568SOL    HW134337   0.767   1.678   7.798 -0.6241 -1.4657  0.3085
 7568SOL    HW234338   0.800   1.557   7.878  0.9766 -0.8391 -1.0614
 7569SOL     OW34339   1.373   1.653   5.740 -0.5293 -0.5092 -0.3149
 7569SOL    HW134340   1.436   1.706   5.789 -1.6333  0.9908 -0.5473
 7569SOL    HW234341   1.392   1.567   5.779 -0.4367 -1.6023 -2.7709
 7570SOL     OW34342   0.749   0.225   4.646 -0.7434 -0.4601  0.0158
 7570SOL    HW134343   0.673   0.176   4.617 -0.8116  1.1849 -2.6162
 7570SOL    HW234344   0.751   0.310   4.602 -0.8306 -0.3049  0.3097
 7571SOL     OW34345   1.727   4.421   1.454 -0.1494 -0.3625 -0.0541
 7571SOL    HW134346   1.772   4.376   1.383 -2.4831  1.3825 -2.6593
 7571SOL    HW234347   1.774   4.380   1.526 -0.4954 -0.6073  0.0312
 7572SOL     OW34348   3.751   0.445  12.194  0.3363 -0.0472 -0.6908
 7572SOL    HW134349   3.815   0.443  12.265  0.4916  1.4841 -0.7770
 7572SOL    HW234350   3.725   0.354  12.178  2.1899 -0.6634 -0.2169
 7573SOL     OW34351   2.739   4.256   6.218  0.5953  0.1142 -0.4736
 7573SOL    HW134352   2.805   4.325   6.217  1.5810 -0.8237  0.2613
 7573SOL    HW234353   2.700   4.279   6.302  2.4797 -1.7904  0.9183
 7574SOL     OW34354   4.220   4.490   3.197 -0.2848 -0.8422  0.8011
 7574SOL    HW134355   4.238   4.437   3.119  0.8841  0.8440 -0.0867
 7574SOL    HW234356   4.145   4.443   3.232 -0.8815 -0.8267 -0.4467
 7575SOL     OW34357   3.182   1.014   7.768 -0.3185 -0.3987  0.5025
 7575SOL    HW134358   3.237   1.008   7.846  0.1508 -0.1009  0.1985
 7575SOL    HW234359   3.197   0.927   7.732  0.8767 -0.2528  0.6491
 7576SOL     OW34360   1.419   1.114  10.312 -0.1500 -0.1203  0.5085
 7576SOL    HW134361   1.351   1.151  10.369  0.0908  1.1548 -0.0296
 7576SOL    HW234362   1.482   1.184  10.297  0.0899  0.0515  2.2659
 7577SOL     OW34363   1.139   4.639   3.083  0.5949 -0.3827  0.6258
 7577SOL    HW134364   1.192   4.582   3.139 -1.0149 -0.7304  1.7874
 7577SOL    HW234365   1.078   4.675   3.148 -0.7629 -0.6449 -0.5201
 7578SOL     OW34366   4.298   0.073   7.016  0.8341 -0.2047 -0.7913
 7578SOL    HW134367   4.206   0.047   7.013  0.5850  0.5727 -0.1191
 7578SOL    HW234368   4.330   0.038   7.099 -3.3635 -1.2657  0.3475
 7579SOL     OW34369   2.692   2.878   7.923 -0.1105  0.0005  0.5195
 7579SOL    HW134370   2.704   2.918   8.009 -0.5387  1.7305 -0.2233
 7579SOL    HW234371   2.665   2.960   7.882  1.7304  0.8618  1.0405
 7580SOL     OW34372   1.392   4.552   5.677 -0.8448 -0.1056 -0.2103
 7580SOL    HW134373   1.454   4.623   5.694  0.1977 -0.7159 -1.4211
 7580SOL    HW234374   1.440   4.487   5.728  1.4152  1.7456  0.0491
 7581SOL     OW34375   1.570   3.007   3.241 -0.0155  0.6744 -0.3282
 7581SOL    HW134376   1.513   3.035   3.313  1.5428 -0.9265  1.5191
 7581SOL    HW234377   1.606   2.924   3.272 -1.4719 -0.3115 -1.2496
 7582SOL     OW34378   2.245   1.246   3.214 -0.2585 -0.2155  0.1784
 7582SOL    HW134379   2.218   1.255   3.123 -0.0100 -0.1650  0.1119
 7582SOL    HW234380   2.233   1.337   3.242 -0.5292  0.0020 -0.6379
 7583SOL     OW34381   2.545   2.879   2.878 -0.1035  0.7520  0.3886
 7583SOL    HW134382   2.565   2.802   2.824 -0.1929  0.6522  0.4966
 7583SOL    HW234383   2.598   2.865   2.957 -0.0119 -0.3630  0.1289
 7584SOL     OW34384   3.473   4.627   2.956 -0.2081 -0.4574 -0.3544
 7584SOL    HW134385   3.553   4.631   2.905  0.4036  1.7152  0.7916
 7584SOL    HW234386   3.499   4.701   3.010 -1.8456  0.4186 -0.7620
 7585SOL     OW34387   2.709   3.466   8.128 -0.0080  0.1760 -0.0356
 7585SOL    HW134388   2.658   3.451   8.049  1.1677 -1.3021 -0.5131
 7585SOL    HW234389   2.706   3.560   8.147 -0.1960  0.6099 -2.2405
 7586SOL     OW34390   1.277   0.809   3.955  0.3397  0.0831 -0.5597
 7586SOL    HW134391   1.182   0.822   3.957  0.2119 -0.9461 -0.0393
 7586SOL    HW234392   1.292   0.749   3.882  1.7136  0.8393 -0.9018
 7587SOL     OW34393   0.487   2.154   8.011 -0.3072  0.8124  0.5112
 7587SOL    HW134394   0.415   2.200   7.968 -0.1980  0.9018  0.4232
 7587SOL    HW234395   0.533   2.122   7.933 -1.2801 -0.8488  0.6276
 7588SOL     OW34396   3.639   3.970  13.241 -0.2375 -0.3510  0.5388
 7588SOL    HW134397   3.546   3.948  13.254 -0.5443  1.1199  0.7589
 7588SOL    HW234398   3.660   3.946  13.150  1.4310  1.9696  0.3466
 7589SOL     OW34399   4.563   3.230   0.451  0.1590 -0.4162  0.1242
 7589SOL    HW134400   4.480   3.187   0.433 -0.5549  0.6147  0.9249
 7589SOL    HW234401   4.524   3.317   0.445  0.0474 -0.6915 -2.9145
 7590SOL     OW34402   1.796   0.122  15.539  0.3078  0.6425 -0.0529
 7590SOL    HW134403   1.795   0.027  15.530 -1.1857  0.8651 -2.2601
 7590SOL    HW234404   1.703   0.146  15.545  0.2176  0.2000  0.2933
 7591SOL     OW34405   1.008   1.471   7.286 -0.6956 -0.6096  0.2616
 7591SOL    HW134406   0.989   1.398   7.345  1.6175 -0.3606  1.2797
 7591SOL    HW234407   1.102   1.456   7.275 -0.2317  1.0470  2.1855
 7592SOL     OW34408   4.379   2.496   6.744 -0.5056 -0.2923 -0.3186
 7592SOL    HW134409   4.440   2.567   6.727  0.1748 -0.9379 -0.5903
 7592SOL    HW234410   4.446   2.431   6.765 -0.1949 -0.2395 -1.1573
 7593SOL     OW34411   0.319   1.508   8.185  0.6415 -0.5018 -0.0818
 7593SOL    HW134412   0.242   1.555   8.217  0.8010  0.0550 -0.5112
 7593SOL    HW234413   0.320   1.437   8.249 -1.0067 -0.2098  0.2498
 7594SOL     OW34414   4.014   1.572  17.759 -0.2400 -0.6087  0.2476
 7594SOL    HW134415   3.944   1.511   0.015  0.0069 -0.4086  1.7616
 7594SOL    HW234416   4.089   1.518  17.733  2.2002  1.9791  1.8837
 7595SOL     OW34417   4.582   2.477   4.778  0.5779 -0.0893 -0.3932
 7595SOL    HW134418   4.495   2.466   4.816  0.1006  0.0527 -1.4359
 7595SOL    HW234419   4.611   2.564   4.806  0.1861  0.1815 -0.8254
 7596SOL     OW34420   2.976   2.776  15.002 -0.1780 -0.1711 -0.5754
 7596SOL    HW134421   2.977   2.868  15.026 -0.5665  0.3266 -2.4622
 7596SOL    HW234422   3.042   2.739  15.061 -0.8651  0.3608  0.4999
 7597SOL     OW34423   0.953   3.363   7.826  1.0010 -0.5762  0.2785
 7597SOL    HW134424   0.938   3.394   7.737 -0.4455 -0.6038  0.5036
 7597SOL    HW234425   0.864   3.376   7.859  1.5406 -0.1392  1.5635
 7598SOL     OW34426   1.986   0.626   3.317  0.0576 -0.1333  0.6278
 7598SOL    HW134427   2.015   0.624   3.409 -1.7632 -0.4812  1.1893
 7598SOL    HW234428   1.892   0.634   3.329  0.0827  0.7928  0.1752
 7599SOL     OW34429   4.520   1.605  12.383  0.8591  0.5727 -1.0480
 7599SOL    HW134430   4.452   1.594  12.316 -1.6320  0.7065  1.4690
 7599SOL    HW234431   4.479   1.548  12.448 -0.2301  0.7767 -1.5647
 7600SOL     OW34432   1.706   3.736   9.646  0.0332 -0.1226 -0.0315
 7600SOL    HW134433   1.760   3.792   9.702  1.1955 -0.8292 -0.4469
 7600SOL    HW234434   1.772   3.686   9.597  1.6033  0.1868  1.7690
 7601SOL     OW34435   0.335   1.079   3.671  0.3330 -0.2759 -0.4549
 7601SOL    HW134436   0.327   1.173   3.689  0.2518 -0.3393 -0.1572
 7601SOL    HW234437   0.324   1.044   3.760 -0.9027 -0.3607 -0.6518
 7602SOL     OW34438   2.914   0.831   1.424 -0.3556 -0.4629 -0.3579
 7602SOL    HW134439   2.915   0.926   1.437 -1.8087 -0.6324  0.9249
 7602SOL    HW234440   2.827   0.823   1.387 -0.9010 -0.5443  0.9497
 7603SOL     OW34441   0.805   0.892   1.791  0.3413 -0.0972 -0.5344
 7603SOL    HW134442   0.736   0.899   1.725  0.3870  0.0751 -0.5633
 7603SOL    HW234443   0.778   0.811   1.835 -0.6277 -0.4617 -1.7847
 7604SOL     OW34444   3.869   0.265   6.397 -0.3263 -0.0922  0.4846
 7604SOL    HW134445   3.891   0.207   6.470 -2.4531  0.7264  1.8147
 7604SOL    HW234446   3.858   0.202   6.326  0.2567  0.3286  0.0281
 7605SOL     OW34447   3.871   1.287   3.083  0.3256  0.2760  0.3164
 7605SOL    HW134448   3.949   1.233   3.089 -0.3328 -0.8460 -1.2000
 7605SOL    HW234449   3.842   1.282   3.174 -2.2129  0.2918 -0.4791
 7606SOL     OW34450   4.419   3.009   3.338  0.7242 -0.0642 -0.2620
 7606SOL    HW134451   4.342   3.055   3.305  1.6970  2.1711  0.5770
 7606SOL    HW234452   4.390   2.918   3.341  2.8091 -0.7891 -2.0111
 7607SOL     OW34453   1.492   4.501  17.091 -0.5831  0.0372  0.3206
 7607SOL    HW134454   1.458   4.539  17.173  0.1213 -0.9814  1.0848
 7607SOL    HW234455   1.422   4.443  17.060  0.3229 -0.6052 -0.4983
 7608SOL     OW34456   0.190   2.372  16.989  0.3686  0.2104 -0.3699
 7608SOL    HW134457   0.123   2.436  16.965  0.0280  0.2850  0.7647
 7608SOL    HW234458   0.267   2.418  16.954 -0.2945  2.0041  0.5191
 7609SOL     OW34459   2.329   2.211  14.986 -0.0921  0.2444  0.1882
 7609SOL    HW134460   2.278   2.252  14.916  0.9333 -1.4003 -1.5230
 7609SOL    HW234461   2.401   2.274  14.995 -0.5346  0.8845 -0.8152
 7610SOL     OW34462   1.564   0.358  11.225  0.2155  0.1997  0.1264
 7610SOL    HW134463   1.535   0.266  11.226  0.8039 -0.0483 -3.0501
 7610SOL    HW234464   1.478   0.397  11.211  0.4618  1.3562  1.9086
 7611SOL     OW34465   1.566   2.339   3.375  0.1215 -0.3443 -0.3413
 7611SOL    HW134466   1.485   2.304   3.412  0.3278 -1.3549 -0.8250
 7611SOL    HW234467   1.559   2.432   3.393 -1.3458 -0.4568 -0.3879
 7612SOL     OW34468   3.587   0.328   8.702 -0.5059 -0.0180 -0.8195
 7612SOL    HW134469   3.634   0.384   8.641 -2.0374  2.2239  0.0649
 7612SOL    HW234470   3.640   0.249   8.691 -2.7182 -1.5889 -0.2695
 7613SOL     OW34471   4.262   3.486  17.728  0.0288 -0.0676 -0.3036
 7613SOL    HW134472   4.247   3.471   0.058  0.7790 -0.3314 -0.2280
 7613SOL    HW234473   4.354   3.511  17.726 -0.2228  0.8499 -0.2320
 7614SOL     OW34474   1.655   2.861   4.237 -0.1793  0.1469 -0.2919
 7614SOL    HW134475   1.710   2.927   4.195  1.6004 -0.6311  0.8216
 7614SOL    HW234476   1.573   2.904   4.260  0.7436  1.3366  0.8119
 7615SOL     OW34477   0.622   1.967   9.149  0.2958 -0.0923 -0.0543
 7615SOL    HW134478   0.584   1.879   9.152  1.2762 -0.5991 -1.8252
 7615SOL    HW234479   0.694   1.950   9.209 -0.0531  0.1464  0.4239
 7616SOL     OW34480   4.160   2.464   2.586 -0.0387 -0.1479  0.6717
 7616SOL    HW134481   4.173   2.541   2.530 -2.2021  0.4942  1.0934
 7616SOL    HW234482   4.243   2.422   2.560  0.8340  0.7075  2.0806
 7617SOL     OW34483   4.157   1.589   2.019 -0.0561 -0.7294 -0.3854
 7617SOL    HW134484   4.250   1.595   2.041  0.0605 -0.9945 -0.8185
 7617SOL    HW234485   4.128   1.637   2.097 -0.6800  0.4060 -1.3264
 7618SOL     OW34486   4.418   0.544   7.282 -0.3403  0.1665  0.3138
 7618SOL    HW134487   4.403   0.594   7.363 -1.9261  0.3072 -0.0722
 7618SOL    HW234488   4.335   0.545   7.235 -1.9298  2.2391  3.1474
 7619SOL     OW34489   2.519   0.411   3.553 -0.1191 -0.4055  0.3838
 7619SOL    HW134490   2.594   0.429   3.610 -1.6749  3.2904  1.2693
 7619SOL    HW234491   2.539   0.477   3.487 -1.6522 -0.5257 -0.2015
 7620SOL     OW34492   3.166   2.390   2.957  0.1231 -0.0184 -0.3566
 7620SOL    HW134493   3.181   2.322   2.892 -1.1386 -0.5051 -0.1419
 7620SOL    HW234494   3.245   2.443   2.962 -1.6147  2.5166  0.1546
 7621SOL     OW34495   3.267   3.921  13.062  0.3255 -0.0666  0.5504
 7621SOL    HW134496   3.244   3.828  13.059  1.0666 -0.2847  1.3669
 7621SOL    HW234497   3.183   3.959  13.085 -0.6128 -0.3778 -2.4694
 7622SOL     OW34498   2.592   1.670  11.380  0.2739  0.1792  0.4100
 7622SOL    HW134499   2.663   1.663  11.444 -0.8128  2.5123  1.8838
 7622SOL    HW234500   2.638   1.660  11.297  0.6115 -1.1653  0.7648
 7623SOL     OW34501   4.028   0.309  11.076  0.8121 -0.3564  0.0604
 7623SOL    HW134502   4.027   0.285  11.168  0.3977 -4.2993 -0.9610
 7623SOL    HW234503   3.963   0.379  11.078  0.6984 -0.4343 -0.6858
 7624SOL     OW34504   4.106   0.503   0.458 -0.3632  0.3632  0.0506
 7624SOL    HW134505   4.141   0.438   0.397  0.8308 -0.1051  1.2292
 7624SOL    HW234506   4.161   0.577   0.434 -0.0523  0.9132  2.4797
 7625SOL     OW34507   2.238   2.640   5.983  0.0344  0.5921 -0.6924
 7625SOL    HW134508   2.251   2.547   5.966 -0.9628 -0.0120  1.8323
 7625SOL    HW234509   2.175   2.637   6.055  0.7033 -0.4700 -0.1574
 7626SOL     OW34510   0.335   0.564   7.041  0.1080 -0.1943  0.5292
 7626SOL    HW134511   0.430   0.578   7.033 -0.1783  1.3726 -0.1207
 7626SOL    HW234512   0.325   0.529   6.952  1.5090 -1.3681  0.8174
 7627SOL     OW34513   2.221   2.603   4.764 -0.1946  0.4996  0.0587
 7627SOL    HW134514   2.248   2.625   4.675 -1.4799  2.2191  0.1059
 7627SOL    HW234515   2.296   2.551   4.794  1.0387  2.1981 -0.0639
 7628SOL     OW34516   1.082   1.045   6.975 -0.8268  0.2790 -0.1641
 7628SOL    HW134517   1.111   1.066   6.887  0.4357  0.3809  0.2801
 7628SOL    HW234518   1.153   1.076   7.031 -1.7314  0.8490  0.6769
 7629SOL     OW34519   4.684   2.512  15.276 -0.9250  0.1167  0.2085
 7629SOL    HW134520   4.739   2.583  15.308 -1.7474  0.9563 -0.2702
 7629SOL    HW234521   4.688   2.453  15.352  2.7714 -0.1528 -0.2153
 7630SOL     OW34522   1.285   2.880   7.992  0.1338 -0.1816  0.1858
 7630SOL    HW134523   1.349   2.863   7.923 -0.5563 -0.2651 -0.4311
 7630SOL    HW234524   1.310   2.820   8.062  0.1791 -0.2500  0.1106
 7631SOL     OW34525   2.292   3.668  10.889 -0.2971 -0.5679  0.1295
 7631SOL    HW134526   2.316   3.742  10.833  0.9954 -1.4539 -0.4783
 7631SOL    HW234527   2.378   3.629  10.904  0.7732  1.5983 -0.3711
 7632SOL     OW34528   3.153   0.717  16.079  0.2907 -0.1153 -0.3854
 7632SOL    HW134529   3.197   0.697  15.996  2.8070  0.7703  0.7481
 7632SOL    HW234530   3.194   0.801  16.100  0.5953 -0.6296  1.0540
 7633SOL     OW34531   0.874   0.415  13.642 -0.1206  1.0881  0.3733
 7633SOL    HW134532   0.935   0.343  13.663 -1.2053 -0.0856 -0.4799
 7633SOL    HW234533   0.872   0.466  13.723 -0.3962  1.8869 -0.1451
 7634SOL     OW34534   0.170   3.808   2.839  0.3537 -0.1010 -0.6064
 7634SOL    HW134535   0.260   3.842   2.838  1.0952 -2.0505 -0.2546
 7634SOL    HW234536   0.125   3.886   2.805  2.3590  1.3189 -0.0415
 7635SOL     OW34537   0.560   3.307   5.570  0.4604  0.3340 -0.0645
 7635SOL    HW134538   0.563   3.220   5.610  1.7381  0.5379  0.2739
 7635SOL    HW234539   0.468   3.324   5.551  0.8935  0.5912 -2.0218
 7636SOL     OW34540   2.174   3.453  11.532 -0.2755 -0.3660  0.4207
 7636SOL    HW134541   2.194   3.526  11.473  2.9830 -0.8362  0.9151
 7636SOL    HW234542   2.131   3.505  11.599  2.3063  1.8755  0.3209
 7637SOL     OW34543   3.220   2.984   2.125  0.2341 -0.6618 -0.4729
 7637SOL    HW134544   3.217   3.038   2.204 -0.7740 -1.6823  0.1835
 7637SOL    HW234545   3.257   2.903   2.159 -0.8068 -1.4592 -1.2390
 7638SOL     OW34546   2.741   2.013   7.601 -0.2932 -0.1386  0.1916
 7638SOL    HW134547   2.664   1.985   7.552  0.7211 -0.2972 -1.3436
 7638SOL    HW234548   2.762   1.932   7.649  0.8760 -0.7940 -1.4143
 7639SOL     OW34549   1.842   2.155   1.690 -0.0987  0.2469  0.1093
 7639SOL    HW134550   1.912   2.141   1.754 -1.3810  0.8745  1.6863
 7639SOL    HW234551   1.883   2.094   1.630 -1.2467  0.4067 -0.8393
 7640SOL     OW34552   2.511   3.410   8.462  0.4096 -0.1799 -0.0905
 7640SOL    HW134553   2.492   3.322   8.494 -0.0462  0.3357  1.0657
 7640SOL    HW234554   2.461   3.408   8.381  0.1063 -2.1793  0.1374
 7641SOL     OW34555   1.499   1.203   9.403  0.1024  0.1001  0.3711
 7641SOL    HW134556   1.507   1.271   9.469  1.1655 -1.0054  1.3927
 7641SOL    HW234557   1.414   1.220   9.363  1.6299  3.0387 -1.6611
 7642SOL     OW34558   2.875   1.532   9.970  0.3982 -0.4361  0.2119
 7642SOL    HW134559   2.790   1.500  10.001 -0.1343 -1.4509 -2.2496
 7642SOL    HW234560   2.841   1.595   9.906  0.5782  0.7643  1.3066
 7643SOL     OW34561   1.074   4.060   5.804 -0.3074  0.0634 -0.2692
 7643SOL    HW134562   1.082   4.109   5.723 -1.3811  0.7836  0.0598
 7643SOL    HW234563   1.045   3.974   5.775  0.3300  0.0921 -0.9640
 7644SOL     OW34564   1.006   3.933   3.843  0.0389  0.5290  0.3051
 7644SOL    HW134565   1.080   3.901   3.791  1.5996  0.3853  2.6003
 7644SOL    HW234566   0.938   3.948   3.777 -0.8753  2.6035  1.7257
 7645SOL     OW34567   2.584   3.475  14.289  0.2110 -0.2619  0.0510
 7645SOL    HW134568   2.623   3.412  14.228 -0.0844 -1.2548  0.8845
 7645SOL    HW234569   2.649   3.466  14.358  0.8198  0.5004 -0.4305
 7646SOL     OW34570   1.445   3.953   5.261 -0.1432  0.9015  0.5700
 7646SOL    HW134571   1.514   3.921   5.320 -0.0338  1.1042  0.5519
 7646SOL    HW234572   1.489   4.037   5.246  0.9487  0.3056  0.4398
 7647SOL     OW34573   2.440   2.377   9.708  0.2833 -0.4202 -0.0768
 7647SOL    HW134574   2.468   2.460   9.668 -2.1534  0.4432  0.0403
 7647SOL    HW234575   2.405   2.328   9.634 -1.0203  0.6987 -0.2064
 7648SOL     OW34576   4.560   2.277   3.262 -0.1948 -0.1151  0.0639
 7648SOL    HW134577   4.559   2.372   3.270  1.3578 -0.2726  2.1757
 7648SOL    HW234578   4.624   2.256   3.330  2.9269 -1.2023 -3.2161
 7649SOL     OW34579   4.697   1.098   3.517 -0.1631 -0.1470 -0.5075
 7649SOL    HW134580   4.647   1.035   3.466 -0.6441 -1.0297  1.0617
 7649SOL    HW234581   0.035   1.091   3.464 -0.7197 -1.3337 -1.1881
 7650SOL     OW34582   4.286   2.719   7.161  0.3292  0.1994  0.4871
 7650SOL    HW134583   4.263   2.649   7.222 -0.9964  0.3667  0.1878
 7650SOL    HW234584   4.222   2.704   7.092 -1.6021 -1.5531  2.6796
 7651SOL     OW34585   1.352   1.207   2.822 -0.4034  0.2436 -0.2207
 7651SOL    HW134586   1.349   1.190   2.728 -1.0672 -2.5816  0.2995
 7651SOL    HW234587   1.443   1.191   2.845 -0.2102  0.9345 -0.5297
 7652SOL     OW34588   0.013   0.713   5.016 -0.2457  0.0450 -0.1453
 7652SOL    HW134589   4.704   0.687   4.939  0.3831 -0.9167 -0.2318
 7652SOL    HW234590   0.046   0.798   4.985  0.4271  0.7801  2.5935
 7653SOL     OW34591   0.677   0.886   0.188  0.2736 -0.1999  0.5767
 7653SOL    HW134592   0.669   0.965   0.241 -0.3731 -1.6208  2.6415
 7653SOL    HW234593   0.589   0.849   0.200 -1.5211  3.4472 -1.4177
 7654SOL     OW34594   4.603   3.925   3.705 -0.0020 -0.1331  0.1552
 7654SOL    HW134595   4.548   3.890   3.775 -1.0494 -0.5827 -0.9028
 7654SOL    HW234596   4.654   3.992   3.750 -0.9253 -0.7106  2.0364
 7655SOL     OW34597   0.906   0.812   7.436  0.0137 -0.2699  0.4927
 7655SOL    HW134598   0.831   0.794   7.492  0.1741 -1.0541  0.4548
 7655SOL    HW234599   0.928   0.720   7.425  0.9237  0.1722 -1.4451
 7656SOL     OW34600   3.478   2.162  13.890  0.1159  0.4723 -0.2558
 7656SOL    HW134601   3.393   2.145  13.931  0.9824 -1.4543  0.7012
 7656SOL    HW234602   3.513   2.224  13.954 -0.4270  2.4596 -1.8735
 7657SOL     OW34603   4.377   2.746   3.324  0.0744 -0.4905 -0.2327
 7657SOL    HW134604   4.368   2.757   3.419  0.5290  1.9642 -0.4581
 7657SOL    HW234605   4.291   2.721   3.291 -0.2103  0.4902 -0.2425
 7658SOL     OW34606   1.395   3.955   4.039  0.0830 -1.6453  0.1656
 7658SOL    HW134607   1.439   3.954   4.124 -2.4409  2.5496  1.5218
 7658SOL    HW234608   1.464   3.941   3.974  0.4957  1.5724 -0.1045
 7659SOL     OW34609   3.934   4.213   6.693  0.7193  0.2407 -0.3579
 7659SOL    HW134610   3.955   4.161   6.770 -0.2773 -2.4954 -1.9425
 7659SOL    HW234611   3.842   4.197   6.675  0.1493  3.8657 -0.7582
 7660SOL     OW34612   3.419   4.424   3.788 -0.4404  0.2681  0.1537
 7660SOL    HW134613   3.502   4.472   3.793  0.3189 -1.0227 -0.2170
 7660SOL    HW234614   3.357   4.496   3.772 -2.1414 -1.2456 -0.0552
 7661SOL     OW34615   2.437   4.090   1.588  0.4591 -0.1984  1.0996
 7661SOL    HW134616   2.509   4.038   1.552 -1.9666  0.5110 -4.8296
 7661SOL    HW234617   2.487   4.161   1.627  1.7751 -0.2090 -0.5639
 7662SOL     OW34618   3.973   2.647   7.985 -0.2879  0.5371 -0.0562
 7662SOL    HW134619   4.064   2.664   8.012  0.3627 -0.7813 -1.4151
 7662SOL    HW234620   3.933   2.681   8.065 -1.0744  0.4163 -0.4053
 7663SOL     OW34621   2.783   4.508   9.549 -0.4442 -0.1019 -0.0140
 7663SOL    HW134622   2.875   4.499   9.576 -0.6550 -1.0326  0.3996
 7663SOL    HW234623   2.779   4.603   9.558  0.2397 -0.2001  1.4213
 7664SOL     OW34624   2.126   3.240   3.829 -0.4390 -0.5563  0.6421
 7664SOL    HW134625   2.195   3.293   3.788 -0.7681 -0.3275  0.3819
 7664SOL    HW234626   2.141   3.265   3.920 -0.1695 -0.8990  0.6920
 7665SOL     OW34627   2.567   4.238  10.403 -0.0133  0.5163 -0.6699
 7665SOL    HW134628   2.574   4.162  10.345 -0.4234 -0.2968  0.3533
 7665SOL    HW234629   2.473   4.239  10.420  0.0645  0.4489 -0.2491
 7666SOL     OW34630   0.001   1.409   3.893  0.1155 -0.2662  0.0604
 7666SOL    HW134631   0.017   1.401   3.987  0.6709  0.2561  0.0106
 7666SOL    HW234632   0.010   1.500   3.864 -1.6348 -0.3461 -0.7784
 7667SOL     OW34633   3.046   0.263   5.817 -0.0223 -0.4382  0.1306
 7667SOL    HW134634   2.963   0.274   5.772  0.7589  2.4477 -0.5972
 7667SOL    HW234635   3.055   0.169   5.836  0.2744 -0.7181 -1.3948
 7668SOL     OW34636   2.487   0.055   8.949  0.1593  0.1625 -0.0647
 7668SOL    HW134637   2.531   0.122   8.897 -0.1288 -0.6991 -1.4497
 7668SOL    HW234638   2.404   0.069   8.904 -0.3147  0.2687  0.8631
 7669SOL     OW34639   2.465   2.019   2.526 -0.2740 -0.7529  0.0106
 7669SOL    HW134640   2.387   1.994   2.476 -0.5479  1.7521 -0.8420
 7669SOL    HW234641   2.523   2.064   2.465  0.3580  0.7124  1.6761
 7670SOL     OW34642   3.868   4.253  11.266 -0.0503 -0.1501 -0.1918
 7670SOL    HW134643   3.772   4.257  11.263  0.1213  2.8487 -2.0217
 7670SOL    HW234644   3.878   4.179  11.325 -1.6103  0.0660  0.3626
 7671SOL     OW34645   2.777   0.096   2.014  0.0321 -0.0931 -0.3387
 7671SOL    HW134646   2.791   0.017   1.962  2.7756 -0.6288  1.2397
 7671SOL    HW234647   2.814   0.074   2.100  1.0504  0.5679 -0.6117
 7672SOL     OW34648   4.247   2.112   7.573 -0.1361  0.0330  0.1911
 7672SOL    HW134649   4.182   2.093   7.506  1.0805 -0.0154 -0.9721
 7672SOL    HW234650   4.189   2.136   7.646  0.7985 -2.3823  1.7462
 7673SOL     OW34651   2.509   2.119   8.996 -0.4100  0.3481  0.2884
 7673SOL    HW134652   2.524   2.031   9.032  2.0647  0.2153 -1.0528
 7673SOL    HW234653   2.461   2.084   8.921  0.3914  0.5944 -0.3338
 7674SOL     OW34654   2.272   0.945   4.843 -0.2377  0.1168  0.5724
 7674SOL    HW134655   2.226   1.027   4.860 -0.8837 -0.7446  2.8566
 7674SOL    HW234656   2.299   0.962   4.752 -0.6788  0.5665  0.5314
 7675SOL     OW34657   3.686   4.525   2.807  0.2795  0.2002 -0.0276
 7675SOL    HW134658   3.766   4.504   2.759 -0.6671 -1.0462 -1.0957
 7675SOL    HW234659   3.699   4.473   2.886 -0.5454 -1.8779 -1.2252
 7676SOL     OW34660   2.323   1.592   5.827  0.0390 -0.7708  0.2717
 7676SOL    HW134661   2.385   1.525   5.854 -1.0843 -1.7523  0.4367
 7676SOL    HW234662   2.257   1.537   5.784  0.3104 -0.9310  0.0633
 7677SOL     OW34663   0.749   1.578   2.822  0.0434 -0.6782 -0.2405
 7677SOL    HW134664   0.671   1.625   2.795 -2.3060 -4.2145  0.3753
 7677SOL    HW234665   0.751   1.626   2.905  0.3395  1.0095 -1.2374
 7678SOL     OW34666   1.026   0.951  14.358 -0.0799  0.3970  0.6097
 7678SOL    HW134667   0.960   0.963  14.427  2.3753  1.1392  2.8075
 7678SOL    HW234668   1.000   0.867  14.321 -1.3931  0.2880  1.7751
 7679SOL     OW34669   3.431   2.765   8.545  0.3282 -0.2769 -0.0916
 7679SOL    HW134670   3.374   2.830   8.587 -0.3492 -0.6322 -0.4479
 7679SOL    HW234671   3.402   2.779   8.455  0.4052 -0.3223 -0.1231
 7680SOL     OW34672   2.243   1.124  10.721 -0.0433 -0.2925 -0.0060
 7680SOL    HW134673   2.259   1.133  10.815 -4.1899 -0.1295  0.6692
 7680SOL    HW234674   2.189   1.046  10.717  0.1524 -0.3886 -0.8532
 7681SOL     OW34675   4.226   1.683   0.572 -0.0495  0.0936  0.0678
 7681SOL    HW134676   4.242   1.608   0.514  1.0970  0.0145  0.4846
 7681SOL    HW234677   4.309   1.728   0.560  0.1901 -0.4612 -0.3842
 7682SOL     OW34678   1.881   3.753   4.270  0.2444  0.2534  0.0326
 7682SOL    HW134679   1.866   3.688   4.339  1.3195  0.4433  0.4391
 7682SOL    HW234680   1.948   3.718   4.212 -0.8927  0.0743 -1.1717
 7683SOL     OW34681   0.804   1.913   8.134 -0.1378 -0.0895  0.0749
 7683SOL    HW134682   0.748   1.899   8.210 -1.9528 -1.0749 -1.4535
 7683SOL    HW234683   0.798   2.007   8.121  2.8115 -0.2643 -2.6595
 7684SOL     OW34684   0.203   3.261   5.217  0.3406  0.7132 -0.3654
 7684SOL    HW134685   0.201   3.194   5.286  2.7494  2.0906  1.0391
 7684SOL    HW234686   0.126   3.241   5.163 -0.2003 -0.3382  0.7909
 7685SOL     OW34687   3.147   0.470   2.940  0.2596  0.6174  0.7419
 7685SOL    HW134688   3.173   0.384   2.975  0.7606  0.4163 -0.1188
 7685SOL    HW234689   3.053   0.454   2.932  0.1051  1.4487  0.8963
 7686SOL     OW34690   2.428   1.178   8.212 -0.3644  0.1063  0.2219
 7686SOL    HW134691   2.495   1.162   8.146 -0.0629  0.3429  0.4675
 7686SOL    HW234692   2.484   1.171   8.289  0.5688 -1.0451 -0.5642
 7687SOL     OW34693   2.905   3.638   7.082  0.0885  0.1689 -0.2770
 7687SOL    HW134694   2.843   3.704   7.052  2.2561  1.3687 -2.1250
 7687SOL    HW234695   2.953   3.692   7.144  0.0864 -0.0046 -0.1237
 7688SOL     OW34696   3.470   0.769   4.868  0.2286  0.0483 -0.5237
 7688SOL    HW134697   3.532   0.843   4.870  0.2514  0.0822 -1.8968
 7688SOL    HW234698   3.490   0.717   4.945 -0.7106 -0.0300 -0.3382
 7689SOL     OW34699   0.845   3.684   9.721 -0.0030  0.9324 -0.3500
 7689SOL    HW134700   0.795   3.626   9.778  0.2094  1.2266  0.1376
 7689SOL    HW234701   0.872   3.753   9.782  0.5818  1.8582 -1.6351
 7690SOL     OW34702   3.946   1.852  17.160 -0.3227 -0.6103  0.4131
 7690SOL    HW134703   3.956   1.900  17.242 -2.2427  0.6658 -0.0996
 7690SOL    HW234704   3.999   1.910  17.105  0.1610 -0.2588  1.2428
 7691SOL     OW34705   3.025   4.700  10.552 -0.1024 -1.4067  0.4297
 7691SOL    HW134706   3.063   4.671  10.635  0.1653  0.7979  1.0885
 7691SOL    HW234707   3.043   4.622  10.500  1.8326 -0.6845  0.0110
 7692SOL     OW34708   2.630   1.271   7.681  0.1982  0.3940  0.2899
 7692SOL    HW134709   2.654   1.307   7.596  5.9896 -1.5554  1.0933
 7692SOL    HW234710   2.584   1.192   7.655  2.1398 -0.6212 -0.0604
 7693SOL     OW34711   0.264   2.934  12.060 -0.0584 -0.0530 -0.3161
 7693SOL    HW134712   0.349   2.931  12.103 -1.1610 -0.0571  1.8973
 7693SOL    HW234713   0.292   2.991  11.988 -0.4951 -0.1556 -0.5683
 7694SOL     OW34714   0.346   1.130   4.901 -0.2852  0.1715  0.0356
 7694SOL    HW134715   0.386   1.191   4.839 -1.0567 -0.7365 -1.3506
 7694SOL    HW234716   0.267   1.180   4.923 -0.3252  1.3156 -2.6623
 7695SOL     OW34717   4.706   4.428   8.758 -0.7551  0.1679  0.2200
 7695SOL    HW134718   4.736   4.518   8.741  1.4922 -0.4433  1.0507
 7695SOL    HW234719   0.050   4.390   8.777 -1.3779 -0.8777  0.9292
 7696SOL     OW34720   1.624   3.043   4.703 -0.0872  0.2264 -0.1413
 7696SOL    HW134721   1.590   2.954   4.717  2.8144 -0.0521  5.1786
 7696SOL    HW234722   1.563   3.099   4.751 -0.4823  0.7497 -1.2595
 7697SOL     OW34723   1.868   3.317   6.084 -0.0683  0.5426 -0.1758
 7697SOL    HW134724   1.886   3.230   6.050 -1.3482 -0.0812  0.7209
 7697SOL    HW234725   1.803   3.345   6.020 -0.5180 -1.5161 -0.6172
 7698SOL     OW34726   3.153   2.403   7.456  0.0912 -0.0392  0.0668
 7698SOL    HW134727   3.090   2.465   7.494  1.6250  1.4803  0.1058
 7698SOL    HW234728   3.093   2.336   7.422 -1.4469  0.9294  0.8760
 7699SOL     OW34729   0.904   3.739   1.773 -0.0014 -0.0581 -0.4131
 7699SOL    HW134730   0.882   3.773   1.687  2.8030  1.2328 -0.5816
 7699SOL    HW234731   0.816   3.700   1.783  0.2587  0.1750  2.7537
 7700SOL     OW34732   4.662   0.970   5.019 -0.2913 -0.2393  0.7691
 7700SOL    HW134733   4.582   1.021   5.009 -1.3725 -1.7627  1.8566
 7700SOL    HW234734   4.732   1.033   5.036 -1.9385  1.3028  1.7988
 7701SOL     OW34735   3.178   2.475   6.418  0.0208 -0.3769 -0.4286
 7701SOL    HW134736   3.105   2.436   6.371 -1.2538  1.7245 -0.1630
 7701SOL    HW234737   3.194   2.555   6.367  1.0931 -0.1567  0.2366
 7702SOL     OW34738   2.048   4.642   5.286 -0.1076 -0.6202  0.3696
 7702SOL    HW134739   2.047   4.732   5.252  0.5757 -0.5065  0.6454
 7702SOL    HW234740   1.975   4.604   5.239  0.9410  0.0836 -1.8466
 7703SOL     OW34741   2.670   1.451   6.930 -0.1213  0.9233  0.3734
 7703SOL    HW134742   2.625   1.493   7.003 -1.5864 -1.3356  0.7715
 7703SOL    HW234743   2.609   1.458   6.856  0.8199  1.1931 -0.3781
 7704SOL     OW34744   0.525   1.677   7.484  0.9473 -0.1577  0.0918
 7704SOL    HW134745   0.578   1.599   7.466  1.3001 -0.0986  0.8860
 7704SOL    HW234746   0.482   1.652   7.566 -1.0358  1.6765 -0.3927
 7705SOL     OW34747   3.818   4.194   7.398  0.6610 -0.8376  0.2886
 7705SOL    HW134748   3.889   4.244   7.357  1.2015 -1.4545  0.4643
 7705SOL    HW234749   3.779   4.250   7.465  0.1319  0.4364 -1.0903
 7706SOL     OW34750   2.560   3.201   9.470  0.4791  0.5775  0.4308
 7706SOL    HW134751   2.512   3.118   9.459 -0.5553  1.3508 -0.8087
 7706SOL    HW234752   2.638   3.185   9.416 -1.2291  0.3613 -1.9413
 7707SOL     OW34753   4.393   1.499  14.667 -0.6703  0.3930 -0.0966
 7707SOL    HW134754   4.484   1.472  14.676 -1.5187 -2.0718  1.2549
 7707SOL    HW234755   4.380   1.472  14.576  1.6943 -0.2857 -0.2473
 7708SOL     OW34756   3.551   0.679   5.113 -0.0369 -0.2270 -0.3080
 7708SOL    HW134757   3.646   0.666   5.122 -0.0634  0.7662  1.4435
 7708SOL    HW234758   3.523   0.675   5.204  0.5453 -2.9960 -0.2560
 7709SOL     OW34759   1.662   3.525  14.488  0.0112 -0.9824 -0.0814
 7709SOL    HW134760   1.633   3.441  14.451 -0.1077 -1.0228  0.1036
 7709SOL    HW234761   1.650   3.584  14.415  0.6222 -0.1192  0.5166
 7710SOL     OW34762   3.223   3.370   8.068 -0.7540 -0.5552  0.1014
 7710SOL    HW134763   3.127   3.372   8.068 -0.7464 -0.0764 -0.0430
 7710SOL    HW234764   3.241   3.364   7.974 -1.1425 -2.0994  0.1312
 7711SOL     OW34765   4.271   0.765  14.745  0.0888  0.3291 -0.0439
 7711SOL    HW134766   4.309   0.739  14.829 -0.1370  3.2029  0.9346
 7711SOL    HW234767   4.304   0.696  14.688 -3.6097 -1.3323 -0.1901
 7712SOL     OW34768   2.893   1.633   4.150 -0.1381  0.2868  0.1943
 7712SOL    HW134769   2.912   1.648   4.243  1.5720 -1.6008  0.1313
 7712SOL    HW234770   2.977   1.649   4.106 -0.4599  0.6340 -0.2987
 7713SOL     OW34771   2.425   1.248  14.592  0.5402  0.7520 -0.0173
 7713SOL    HW134772   2.354   1.307  14.567  0.0370  0.4184  0.6251
 7713SOL    HW234773   2.409   1.167  14.542  1.1532 -0.0187  1.0452
 7714SOL     OW34774   3.791   3.921   8.747 -0.3648  0.3725  0.2218
 7714SOL    HW134775   3.743   3.865   8.808  1.8355 -1.1434  0.5485
 7714SOL    HW234776   3.795   3.856   8.677 -0.1293  1.5922 -0.8915
 7715SOL     OW34777   0.443   0.910  16.658  0.4988 -0.2539  0.2721
 7715SOL    HW134778   0.374   0.971  16.631  0.3499 -0.7341 -0.4499
 7715SOL    HW234779   0.499   0.903  16.580 -1.2385  0.7244 -1.0805
 7716SOL     OW34780   2.188   1.515   2.096 -0.0893 -0.1709 -0.1475
 7716SOL    HW134781   2.136   1.476   2.167 -1.2251 -0.9253 -1.3840
 7716SOL    HW234782   2.120   1.530   2.030  0.7393  0.9844 -0.7372
 7717SOL     OW34783   4.511   2.501   9.901  0.8613  0.7450  0.1104
 7717SOL    HW134784   4.430   2.451   9.914  0.5981  1.2161  0.2939
 7717SOL    HW234785   4.576   2.431   9.900  0.9673  0.8906 -2.5026
 7718SOL     OW34786   3.862   0.836  10.378  0.5161 -0.6487 -0.1642
 7718SOL    HW134787   3.776   0.800  10.399  0.7353 -0.9532  0.2096
 7718SOL    HW234788   3.846   0.832  10.283  1.4521  1.9453 -0.4212
 7719SOL     OW34789   3.686   2.081   1.928 -0.3610  0.5691 -0.2821
 7719SOL    HW134790   3.606   2.070   1.876 -1.4422  0.6567  1.3681
 7719SOL    HW234791   3.708   1.988   1.938 -1.2450  0.3816 -0.0572
 7720SOL     OW34792   3.207   1.391   8.354  0.0040 -0.2095 -0.4064
 7720SOL    HW134793   3.165   1.312   8.388  2.2611 -1.4839 -0.5962
 7720SOL    HW234794   3.285   1.409   8.407  0.0617  2.6514 -1.4687
 7721SOL     OW34795   1.682   1.536   2.312 -0.3329 -0.0956 -0.1678
 7721SOL    HW134796   1.642   1.505   2.230 -0.7241 -1.7123  0.6388
 7721SOL    HW234797   1.721   1.457   2.348 -3.0433 -1.7897 -0.9955
 7722SOL     OW34798   4.376   2.846   5.317  0.4960  0.1986  0.1432
 7722SOL    HW134799   4.305   2.845   5.252  2.1033  0.9281 -1.6419
 7722SOL    HW234800   4.356   2.767   5.366 -1.1917  1.0645  0.8396
 7723SOL     OW34801   4.382   0.232   2.498  0.5140  0.6905  0.1569
 7723SOL    HW134802   4.396   0.285   2.576  1.1522  0.3786  0.2531
 7723SOL    HW234803   4.471   0.197   2.493  0.0789 -0.1736 -1.7457
 7724SOL     OW34804   0.732   4.563  10.681 -0.3460  0.1222  0.5375
 7724SOL    HW134805   0.806   4.597  10.630 -0.8073 -1.6302 -1.2835
 7724SOL    HW234806   0.761   4.563  10.772  0.6595  2.4174  0.2288
 7725SOL     OW34807   2.464   0.823   6.908  0.1508  0.6824 -0.3417
 7725SOL    HW134808   2.370   0.836   6.898 -0.2873 -2.2904 -0.1444
 7725SOL    HW234809   2.507   0.909   6.907  0.9632  0.2651 -1.6579
 7726SOL     OW34810   3.121   1.632   7.243  0.0050 -0.2212  0.2807
 7726SOL    HW134811   3.154   1.718   7.214 -1.3090  0.4000  0.6452
 7726SOL    HW234812   3.137   1.648   7.336  0.7130  0.0791  0.1113
 7727SOL     OW34813   4.207   1.036  14.979 -0.0075 -0.1127  0.0569
 7727SOL    HW134814   4.150   0.996  14.913  2.9106 -1.6702 -1.5111
 7727SOL    HW234815   4.163   1.121  14.988 -1.1734 -0.6294 -0.7595
 7728SOL     OW34816   4.240   3.086  14.344  0.1237 -0.3617  0.0045
 7728SOL    HW134817   4.158   3.098  14.392  1.3599  0.8815  1.8162
 7728SOL    HW234818   4.294   3.045  14.412  0.5695  0.2984  0.0436
 7729SOL     OW34819   0.046   2.151   7.822 -0.0275  0.1392 -0.2154
 7729SOL    HW134820   4.712   2.200   7.853  1.2709  0.6061  2.2307
 7729SOL    HW234821   0.078   2.090   7.888 -0.6879 -0.6500 -0.6270
 7730SOL     OW34822   1.350   0.847  13.351 -0.4726  0.2806 -0.1803
 7730SOL    HW134823   1.436   0.888  13.357 -1.2741  1.6946  1.4675
 7730SOL    HW234824   1.360   0.770  13.295 -0.7012 -1.2829  1.9208
 7731SOL     OW34825   0.760   1.199   0.428  0.2431  0.2527  0.1428
 7731SOL    HW134826   0.687   1.221   0.487 -0.5750  2.8845 -1.8549
 7731SOL    HW234827   0.715   1.192   0.344  0.7273  0.1596 -0.1054
 7732SOL     OW34828   3.454   3.197   6.617 -0.0394  0.1683  0.3487
 7732SOL    HW134829   3.382   3.144   6.583  1.4478 -1.8885  0.3526
 7732SOL    HW234830   3.501   3.216   6.536 -1.3569 -2.3047 -1.0061
 7733SOL     OW34831   1.633   0.754   0.606 -0.5500  0.5906  0.6936
 7733SOL    HW134832   1.569   0.797   0.550  1.0690  1.6581 -0.3152
 7733SOL    HW234833   1.604   0.664   0.596  1.7223 -0.3381  2.2874
 7734SOL     OW34834   4.229   4.304   7.289 -0.3779  0.2780  0.1354
 7734SOL    HW134835   4.241   4.372   7.355 -2.9708  0.8403  0.0229
 7734SOL    HW234836   4.280   4.348   7.221  0.6475  0.6692  1.1765
 7735SOL     OW34837   4.702   0.871   3.862  0.0531 -0.1382  0.5218
 7735SOL    HW134838   4.715   0.929   3.936 -1.2776 -0.3510  0.9198
 7735SOL    HW234839   0.042   0.886   3.814 -0.5540  0.0507 -0.4661
 7736SOL     OW34840   4.307   3.947   2.819 -0.1187  0.3630  0.0449
 7736SOL    HW134841   4.228   4.000   2.828 -1.1000 -1.2084  0.5906
 7736SOL    HW234842   4.282   3.856   2.831 -0.0718  0.2368 -0.7674
 7737SOL     OW34843   1.327   1.353  10.795  0.3574  0.3339 -0.0593
 7737SOL    HW134844   1.355   1.438  10.827  0.0340  0.7489 -0.8747
 7737SOL    HW234845   1.412   1.320  10.763  0.2767  1.1820 -1.1531
 7738SOL     OW34846   0.830   2.175   8.146 -0.6736 -0.2461 -0.0845
 7738SOL    HW134847   0.771   2.244   8.114  1.4864  0.4668 -2.6113
 7738SOL    HW234848   0.894   2.223   8.199 -0.6239 -0.0403 -0.3261
 7739SOL     OW34849   4.425   2.098  10.635 -0.4895 -0.0689 -0.3857
 7739SOL    HW134850   4.384   2.012  10.626  0.6195 -0.8223  1.6654
 7739SOL    HW234851   4.471   2.107  10.551  0.5496 -2.2370 -0.0522
 7740SOL     OW34852   1.518   4.359   0.318  0.0004 -0.3233 -0.5646
 7740SOL    HW134853   1.563   4.299   0.259 -2.8567 -2.1199 -0.9371
 7740SOL    HW234854   1.573   4.437   0.315  0.0005 -0.3389 -0.8920
 7741SOL     OW34855   4.025   3.761  15.838  0.7862 -0.4040 -0.3024
 7741SOL    HW134856   4.082   3.794  15.768  2.7750  1.5561  2.2563
 7741SOL    HW234857   3.939   3.796  15.813  1.3537  1.5491  0.4519
 7742SOL     OW34858   2.539   0.000  14.047  0.1855 -0.0003 -0.4900
 7742SOL    HW134859   2.461   4.699  14.012  1.2013 -0.8088 -1.7454
 7742SOL    HW234860   2.519   0.094  14.051  0.7305  0.0737  0.4181
 7743SOL     OW34861   1.168   4.198   3.232  0.2943 -0.3055 -0.1810
 7743SOL    HW134862   1.202   4.246   3.307 -0.9087 -1.4616  1.0918
 7743SOL    HW234863   1.234   4.130   3.218  0.0965 -0.3654 -0.8184
 7744SOL     OW34864   3.973   1.006  15.414  0.5223 -0.2147 -0.0442
 7744SOL    HW134865   4.033   0.977  15.345  0.9547  1.3938 -0.3395
 7744SOL    HW234866   3.938   1.078  15.362  0.2115 -0.3228  0.0151
 7745SOL     OW34867   4.082   0.715   2.500 -0.0913  0.1624  0.0442
 7745SOL    HW134868   4.071   0.796   2.550  1.6486 -0.9848  2.2663
 7745SOL    HW234869   4.165   0.686   2.537 -0.4371 -2.9404 -1.6317
 7746SOL     OW34870   1.281   3.845  13.772 -0.3265 -0.4352 -0.3996
 7746SOL    HW134871   1.232   3.846  13.690  1.7324 -0.1392 -1.6148
 7746SOL    HW234872   1.336   3.767  13.766  2.5097  1.7311 -2.5593
 7747SOL     OW34873   1.588   2.886   1.498  0.5166 -0.1479 -0.1549
 7747SOL    HW134874   1.537   2.953   1.543 -0.6349  0.0946 -1.7914
 7747SOL    HW234875   1.671   2.892   1.545  1.6310  0.3165 -2.2045
 7748SOL     OW34876   0.437   4.418   0.050  0.0857  0.7717  0.7836
 7748SOL    HW134877   0.370   4.378  17.759  0.4499 -0.0885  0.9713
 7748SOL    HW234878   0.410   4.510   0.058 -0.1567  0.7685 -0.0315
 7749SOL     OW34879   3.247   3.707   5.689  0.3784  0.0903  0.2074
 7749SOL    HW134880   3.200   3.661   5.619  0.2435  0.1963  0.2282
 7749SOL    HW234881   3.190   3.780   5.715  1.1910 -0.0660  2.4060
 7750SOL     OW34882   3.349   4.391   8.657 -0.1803  0.1662  0.5479
 7750SOL    HW134883   3.347   4.417   8.749  1.1193  2.2216 -0.0159
 7750SOL    HW234884   3.275   4.330   8.657 -2.0135  2.3708 -0.7380
 7751SOL     OW34885   1.668   3.052   2.464 -0.4056  0.0342  0.1372
 7751SOL    HW134886   1.584   3.007   2.455 -1.5517  1.6964  2.8383
 7751SOL    HW234887   1.721   2.992   2.517  0.2591  2.0228  1.7205
 7752SOL     OW34888   4.570   1.172   0.207 -0.5867  0.3413  0.3001
 7752SOL    HW134889   4.572   1.088   0.254 -2.5669 -0.1039 -0.4221
 7752SOL    HW234890   4.621   1.147   0.130 -0.8703 -0.4230  0.3658
 7753SOL     OW34891   1.708   4.303   2.246 -0.1021  0.0556  0.4291
 7753SOL    HW134892   1.646   4.250   2.196 -1.2214  0.8967  0.9083
 7753SOL    HW234893   1.744   4.360   2.179  0.0637  0.6956  1.0636
 7754SOL     OW34894   3.016   4.101   7.735  0.2134  0.8142 -0.2238
 7754SOL    HW134895   3.063   4.184   7.734 -0.1441  1.0237  0.2488
 7754SOL    HW234896   3.093   4.053   7.766  0.6256  1.2163 -0.6314
 7755SOL     OW34897   2.065   3.430  16.738  0.3343  0.3881 -0.0911
 7755SOL    HW134898   2.098   3.366  16.674  0.1802 -1.2668  1.4761
 7755SOL    HW234899   2.053   3.502  16.676  0.2194 -0.4845 -1.0875
 7756SOL     OW34900   0.773   0.297  14.908  0.0079  0.1502  0.1826
 7756SOL    HW134901   0.822   0.215  14.911  1.2509  0.8574 -0.4843
 7756SOL    HW234902   0.684   0.270  14.927  0.5409 -1.2167  0.7470
 7757SOL     OW34903   3.415   2.830  17.098  0.1536 -0.4115  0.0721
 7757SOL    HW134904   3.479   2.877  17.151 -0.2367 -0.2951  0.4340
 7757SOL    HW234905   3.335   2.876  17.121  0.2170  1.0174 -2.5266
 7758SOL     OW34906   2.818   2.911  14.800  0.3275 -0.1290  0.5410
 7758SOL    HW134907   2.864   2.993  14.817  2.3699 -1.3624  0.9470
 7758SOL    HW234908   2.882   2.851  14.839  0.0250 -1.5090 -1.1107
 7759SOL     OW34909   3.285   4.499   6.241  0.2666  0.6272  0.6215
 7759SOL    HW134910   3.342   4.445   6.297 -1.2034  0.3057  1.8337
 7759SOL    HW234911   3.291   4.448   6.161 -1.6129 -0.6356  1.2589
 7760SOL     OW34912   0.583   4.279   5.139  0.3454 -0.6973 -0.3119
 7760SOL    HW134913   0.494   4.313   5.126  0.3270  0.5564  3.0353
 7760SOL    HW234914   0.632   4.361   5.147  0.4485 -0.5491 -2.4370
 7761SOL     OW34915   2.791   0.245   4.586 -0.7408 -0.2303  0.6515
 7761SOL    HW134916   2.830   0.169   4.629 -0.6555 -1.1215 -0.9744
 7761SOL    HW234917   2.803   0.219   4.494 -2.6190  1.7991 -0.1909
 7762SOL     OW34918   0.489   0.457   5.698  0.1563 -0.2002 -0.1433
 7762SOL    HW134919   0.579   0.434   5.720  0.3040  4.2816  3.8343
 7762SOL    HW234920   0.509   0.547   5.671 -0.2433  0.2278  1.0175
 7763SOL     OW34921   0.440   1.897  10.063  0.4515  0.4743  0.1965
 7763SOL    HW134922   0.352   1.890  10.027  0.6048  0.7519 -0.2226
 7763SOL    HW234923   0.493   1.885   9.985  0.0238 -0.2843  0.0216
 7764SOL     OW34924   0.568   0.648   7.316 -0.0366  0.2657  0.2629
 7764SOL    HW134925   0.636   0.594   7.277 -1.4288 -0.5353 -1.0701
 7764SOL    HW234926   0.580   0.731   7.269  0.4497 -0.1211 -0.2914
 7765SOL     OW34927   1.114   2.554   4.865  0.1136  0.0298 -0.5571
 7765SOL    HW134928   1.143   2.633   4.819  0.6438  0.3850  0.3927
 7765SOL    HW234929   1.198   2.515   4.889 -0.4628 -0.5379  0.5413
 7766SOL     OW34930   1.238   1.540   7.737 -0.5559  0.3801  0.1024
 7766SOL    HW134931   1.302   1.526   7.807  0.1935 -0.7766 -0.8195
 7766SOL    HW234932   1.187   1.615   7.768 -2.1073 -0.9393  0.7011
 7767SOL     OW34933   2.605   1.439   5.535  0.3137 -0.2521  0.2883
 7767SOL    HW134934   2.555   1.383   5.595 -1.0610 -0.5012 -1.1043
 7767SOL    HW234935   2.668   1.380   5.493 -0.2714 -0.0266 -0.8810
 7768SOL     OW34936   0.214   2.848   6.582 -0.3595 -0.4913  0.3006
 7768SOL    HW134937   0.300   2.823   6.549 -0.8753  0.5911 -1.8486
 7768SOL    HW234938   0.215   2.940   6.557  0.4940 -0.3313  0.9175
 7769SOL     OW34939   3.156   0.715   7.366  0.1451  0.1100 -0.7094
 7769SOL    HW134940   3.078   0.701   7.313 -1.6615 -1.9482  2.5050
 7769SOL    HW234941   3.217   0.647   7.339 -0.4251  0.0551 -1.8630
 7770SOL     OW34942   2.219   3.685   2.267  0.1554  0.2429 -0.2874
 7770SOL    HW134943   2.242   3.755   2.205  0.7981  1.3866  1.2440
 7770SOL    HW234944   2.243   3.719   2.353  1.5991 -1.0890 -0.1557
 7771SOL     OW34945   2.509   3.100   2.677 -0.2403 -0.8162 -0.2020
 7771SOL    HW134946   2.521   3.058   2.762 -2.3593 -1.5080 -0.2431
 7771SOL    HW234947   2.444   3.168   2.697  1.2089 -0.0271  1.8824
 7772SOL     OW34948   1.626   2.039  16.344 -0.6652 -0.9504  0.1688
 7772SOL    HW134949   1.716   2.067  16.329 -1.1605 -0.3040 -1.6717
 7772SOL    HW234950   1.634   1.961  16.290 -0.6409  0.2620 -1.6009
 7773SOL     OW34951   1.347   4.426   0.031 -0.6672 -0.0193  0.0031
 7773SOL    HW134952   1.417   4.361   0.037 -0.0349  0.5945 -0.7294
 7773SOL    HW234953   1.392   4.505   0.062 -0.0725 -0.3678  0.0168
 7774SOL     OW34954   3.818   0.964   3.044 -0.8376  0.2216  0.3513
 7774SOL    HW134955   3.866   0.965   3.126  1.2000  1.1152 -0.8492
 7774SOL    HW234956   3.814   1.055   3.013  0.4002 -0.0060 -0.4689
 7775SOL     OW34957   2.877   3.726   5.990  0.1726 -0.7150  0.1884
 7775SOL    HW134958   2.908   3.794   6.050  1.2868 -0.3158 -0.8302
 7775SOL    HW234959   2.920   3.649   6.027 -0.5433 -0.1486  2.1880
 7776SOL     OW34960   0.334   3.841   7.829  0.4724  0.2132  0.0188
 7776SOL    HW134961   0.418   3.860   7.871 -0.2048  1.2049  0.9191
 7776SOL    HW234962   0.286   3.920   7.853  0.0277  0.4654 -1.7039
 7777SOL     OW34963   0.823   2.976   3.770 -0.2340  0.5487  0.3170
 7777SOL    HW134964   0.842   2.902   3.712  2.0514  0.7524  0.8283
 7777SOL    HW234965   0.780   3.040   3.713  1.0245  2.4498  1.4978
 7778SOL     OW34966   0.690   0.458   4.491 -0.1763 -0.3630  0.5571
 7778SOL    HW134967   0.654   0.507   4.565 -2.6652 -1.8657  0.3457
 7778SOL    HW234968   0.614   0.442   4.435 -1.1000  0.9676  1.4240
 7779SOL     OW34969   4.175   1.823   1.632  0.0120 -0.3275  0.4216
 7779SOL    HW134970   4.095   1.772   1.618  0.2089 -1.1204  2.2240
 7779SOL    HW234971   4.131   1.891   1.683 -3.3357 -1.4447 -0.9404
 7780SOL     OW34972   2.264   0.850   6.412 -0.8510 -0.0082  0.3775
 7780SOL    HW134973   2.247   0.823   6.322 -0.3459 -0.3859  0.3975
 7780SOL    HW234974   2.294   0.939   6.391  1.0660 -0.4641  1.1672
 7781SOL     OW34975   3.202   3.010   1.385  0.0126 -0.1437 -0.0975
 7781SOL    HW134976   3.108   2.993   1.387  0.1829 -0.9642  0.6380
 7781SOL    HW234977   3.197   3.092   1.336  0.4891 -0.7765 -1.1925
 7782SOL     OW34978   0.467   3.611   5.840 -0.0803  0.0635  0.1726
 7782SOL    HW134979   0.402   3.653   5.783  1.6845  0.3301 -1.6590
 7782SOL    HW234980   0.507   3.691   5.876  0.1466  0.0977 -0.1573
 7783SOL     OW34981   4.230   3.756   2.453  0.0094  0.5203 -0.0723
 7783SOL    HW134982   4.206   3.842   2.487  3.2347  1.5193 -0.3570
 7783SOL    HW234983   4.154   3.701   2.475  0.0310  1.0388  1.2723
 7784SOL     OW34984   3.660   2.587   5.122 -0.1271  0.1683 -0.0930
 7784SOL    HW134985   3.670   2.492   5.124  0.8698  0.2643 -0.6544
 7784SOL    HW234986   3.576   2.591   5.077 -0.0592 -0.6743 -0.2873
 7785SOL     OW34987   2.869   4.482   8.438 -0.4332 -0.1157  0.3443
 7785SOL    HW134988   2.865   4.473   8.533 -0.9421 -1.1294  0.2267
 7785SOL    HW234989   2.907   4.569   8.426 -0.8803  0.4036  2.8654
 7786SOL     OW34990   4.518   0.568   8.561  0.5073 -0.7750  0.1009
 7786SOL    HW134991   4.525   0.577   8.466  0.8399 -0.9209  0.1125
 7786SOL    HW234992   4.575   0.639   8.590 -0.2450 -0.5623  1.0634
 7787SOL     OW34993   0.001   2.022  14.885  0.1200 -0.0687 -0.2481
 7787SOL    HW134994   4.682   1.949  14.891  0.3986 -0.1334  1.6286
 7787SOL    HW234995   0.034   2.003  14.797 -2.8005  0.3371 -1.4313
 7788SOL     OW34996   4.209   2.701   2.453 -0.0069 -0.0418  0.1597
 7788SOL    HW134997   4.251   2.767   2.509 -3.6923  2.5528 -0.1153
 7788SOL    HW234998   4.257   2.720   2.373  0.2689 -1.0852  0.0758
 7789SOL     OW34999   2.853   2.920   1.985  0.1495 -0.4195  0.5475
 7789SOL    HW135000   2.760   2.945   1.989  0.7605  1.7516  1.2354
 7789SOL    HW235001   2.873   2.946   1.895  1.8484 -2.2575  0.4050
 7790SOL     OW35002   0.628   3.552  17.762  0.8089 -0.3313  0.8311
 7790SOL    HW135003   0.646   3.541   0.092 -1.0939 -1.2684  1.1054
 7790SOL    HW235004   0.630   3.458  17.742 -0.4574 -0.0950 -0.4562
 7791SOL     OW35005   1.646   2.255   1.015 -0.4329  0.1239 -0.3430
 7791SOL    HW135006   1.626   2.163   1.034  0.8177 -0.2413 -0.8160
 7791SOL    HW235007   1.571   2.309   1.037 -1.4589 -0.8967 -1.2581
 7792SOL     OW35008   2.876   4.452   4.848 -0.1915  0.2842  0.0753
 7792SOL    HW135009   2.842   4.362   4.847  0.0328  0.2018 -0.2431
 7792SOL    HW235010   2.861   4.459   4.753 -0.0868  2.4374  0.2412
 7793SOL     OW35011   0.624   2.186  15.217 -0.0127  0.2612  0.3031
 7793SOL    HW135012   0.716   2.215  15.219 -0.0583  0.4848 -0.8891
 7793SOL    HW235013   0.619   2.142  15.302  0.4623 -2.4451 -1.0616
 7794SOL     OW35014   2.170   4.179   6.621  0.3971  0.5307 -0.2701
 7794SOL    HW135015   2.235   4.164   6.690 -0.1759 -0.8861 -0.0373
 7794SOL    HW235016   2.136   4.091   6.610  0.1282  0.7057 -0.8334
 7795SOL     OW35017   4.251   0.840   6.239 -0.6802 -0.6927  0.0783
 7795SOL    HW135018   4.259   0.799   6.325 -2.5958  1.2838  1.2039
 7795SOL    HW235019   4.313   0.911   6.257  1.2440 -1.8576 -1.9034
 7796SOL     OW35020   1.979   2.431  10.454 -0.1877  0.0245 -0.1698
 7796SOL    HW135021   1.931   2.375  10.515  2.7651 -0.6923  1.5188
 7796SOL    HW235022   2.056   2.375  10.439 -1.6860 -1.7435 -1.2333
 7797SOL     OW35023   3.776   4.495   0.751  0.2074 -0.3221 -0.1189
 7797SOL    HW135024   3.744   4.558   0.815 -2.3616  1.6346 -3.3795
 7797SOL    HW235025   3.707   4.429   0.752  0.5885 -0.7401 -0.7518
 7798SOL     OW35026   0.964   1.876  17.669 -0.6199  0.2611  0.1009
 7798SOL    HW135027   1.059   1.863  17.659 -0.3309  0.2484  2.8089
 7798SOL    HW235028   0.961   1.969  17.647 -1.9251 -0.0439 -0.9678
 7799SOL     OW35029   4.658   0.332   8.603  0.0702 -0.1872  0.2258
 7799SOL    HW135030   4.606   0.367   8.675  0.4347 -0.2744  0.5351
 7799SOL    HW235031   4.605   0.354   8.526  0.7121 -1.6363 -0.6183
 7800SOL     OW35032   3.808   2.285   3.597  0.1293 -0.3941 -0.7958
 7800SOL    HW135033   3.774   2.321   3.516  1.2133 -0.4542 -1.2858
 7800SOL    HW235034   3.808   2.354   3.663 -2.8293 -0.3038 -0.9097
 7801SOL     OW35035   4.072   4.437  11.259 -0.4544 -0.0474 -0.2436
 7801SOL    HW135036   4.010   4.365  11.250 -0.0657 -0.4229  0.1001
 7801SOL    HW235037   4.099   4.421  11.349  0.7122  0.9713 -0.4103
 7802SOL     OW35038   3.454   2.001   5.175 -0.8427 -0.2737 -0.2402
 7802SOL    HW135039   3.480   1.936   5.108 -2.1883  0.4779 -1.4975
 7802SOL    HW235040   3.397   1.954   5.236 -2.2249 -0.7455 -1.8945
 7803SOL     OW35041   2.548   0.909   4.408  0.2063  0.1405 -0.8835
 7803SOL    HW135042   2.596   0.860   4.342  0.7190  1.2917 -1.3796
 7803SOL    HW235043   2.502   0.836   4.448  0.2873 -0.1091 -1.2492
 7804SOL     OW35044   2.636   4.151   4.480  0.6063 -0.5560 -0.2154
 7804SOL    HW135045   2.593   4.146   4.566 -3.5776  1.1071 -2.2278
 7804SOL    HW235046   2.721   4.115   4.507  1.9602  3.5635  0.9731
 7805SOL     OW35047   1.977   1.432   8.292 -0.4847  0.2777 -0.0263
 7805SOL    HW135048   2.009   1.383   8.367 -1.2282  0.9552  0.7411
 7805SOL    HW235049   1.981   1.368   8.221 -0.0805 -0.3868  0.6045
 7806SOL     OW35050   2.366   2.352   4.617 -0.0783 -0.1157 -0.2334
 7806SOL    HW135051   2.410   2.436   4.618  0.5456 -0.4587  1.6455
 7806SOL    HW235052   2.325   2.348   4.531  0.2182 -2.1620 -0.2901
 7807SOL     OW35053   1.825   4.261  11.804 -0.6396 -0.0086 -0.3859
 7807SOL    HW135054   1.817   4.298  11.892 -0.6394  0.9290 -0.7805
 7807SOL    HW235055   1.772   4.181  11.808 -3.9123  2.2078 -0.0718
 7808SOL     OW35056   4.113   3.680   6.733 -0.5517  0.1861  0.0947
 7808SOL    HW135057   4.186   3.715   6.784  0.7867 -1.2520 -0.8409
 7808SOL    HW235058   4.040   3.702   6.791 -0.7226  1.5421 -0.6271
 7809SOL     OW35059   0.107   1.499   6.792  0.0879  0.3042 -0.2011
 7809SOL    HW135060   0.053   1.577   6.800 -1.1073 -0.5130 -0.3110
 7809SOL    HW235061   0.076   1.444   6.864 -1.4644 -1.9609 -2.6302
 7810SOL     OW35062   1.855   0.266   1.936  0.7359  0.0839  0.5551
 7810SOL    HW135063   1.871   0.220   2.018 -1.8629 -1.3435  0.2487
 7810SOL    HW235064   1.765   0.295   1.949  0.6055 -0.2612  0.4056
 7811SOL     OW35065   4.342   0.686   2.579 -0.0904 -0.3264 -0.1544
 7811SOL    HW135066   4.339   0.650   2.490  0.5184 -0.0469 -0.2891
 7811SOL    HW235067   4.387   0.770   2.567 -2.3626  0.7845 -1.0441
 7812SOL     OW35068   4.506   0.589   6.167  0.5782  0.6510 -0.7087
 7812SOL    HW135069   4.558   0.513   6.140  1.8750  1.1300  0.4270
 7812SOL    HW235070   4.415   0.581   6.138  0.5227  1.7627 -0.8151
 7813SOL     OW35071   0.356   4.129   3.868  0.6633 -0.0126  0.5364
 7813SOL    HW135072   0.392   4.084   3.792 -0.6866  0.1515 -0.2082
 7813SOL    HW235073   0.401   4.214   3.868  0.1919  0.2411 -1.5666
 7814SOL     OW35074   1.841   0.122   3.516 -0.6802  0.3498 -0.0738
 7814SOL    HW135075   1.879   0.206   3.490 -1.0070  0.4481 -0.2280
 7814SOL    HW235076   1.909   0.060   3.488 -0.6524  0.4952 -0.3331
 7815SOL     OW35077   4.037   0.869   8.841 -0.1027 -0.1222 -0.8072
 7815SOL    HW135078   3.965   0.865   8.904 -0.8885 -0.6310 -1.7289
 7815SOL    HW235079   4.086   0.793   8.873  0.7332  1.4536  1.6168
 7816SOL     OW35080   1.829   2.066   5.116  0.7407  0.2921 -0.2241
 7816SOL    HW135081   1.922   2.085   5.102  1.7484 -3.1222  1.8310
 7816SOL    HW235082   1.834   2.016   5.198 -0.4849  0.3373 -0.1240
 7817SOL     OW35083   4.009   0.735   8.607 -0.4812  0.2079 -0.4161
 7817SOL    HW135084   4.088   0.764   8.560 -0.3657  1.1679  0.3653
 7817SOL    HW235085   4.018   0.792   8.683  0.9421 -0.1329 -0.3197
 7818SOL     OW35086   2.244   2.755   2.563 -0.1220  0.1901  0.4434
 7818SOL    HW135087   2.285   2.834   2.598 -0.0749  1.2463 -1.9880
 7818SOL    HW235088   2.313   2.699   2.528  0.3394  0.0831  1.5155
 7819SOL     OW35089   0.206   4.313   8.820 -0.2190 -0.3333  0.6602
 7819SOL    HW135090   0.269   4.268   8.764 -0.4450  0.3258 -0.1207
 7819SOL    HW235091   0.204   4.259   8.899  2.6596 -1.3786  0.0413
 7820SOL     OW35092   3.647   4.290   8.955  0.4715  0.4722 -0.6087
 7820SOL    HW135093   3.589   4.356   8.918 -0.2156  0.1959 -0.0131
 7820SOL    HW235094   3.627   4.212   8.902  1.5725  1.2535 -2.1962
 7821SOL     OW35095   0.551   2.312  10.718 -0.1958 -0.4878  0.3742
 7821SOL    HW135096   0.513   2.400  10.721  1.8406  0.4068  0.0873
 7821SOL    HW235097   0.645   2.322  10.736 -0.6630  2.4769  1.1838
 7822SOL     OW35098   3.627   0.722   2.328  0.3712  0.5935 -0.7909
 7822SOL    HW135099   3.703   0.776   2.347  0.6877 -0.6275  1.3782
 7822SOL    HW235100   3.625   0.733   2.233  3.0713  0.2213 -0.9092
 7823SOL     OW35101   1.749   4.531   8.364 -0.2553 -0.1403  0.0651
 7823SOL    HW135102   1.841   4.534   8.339 -0.3309  1.2822 -0.0462
 7823SOL    HW235103   1.750   4.561   8.455  0.1380 -0.5169  0.1845
 7824SOL     OW35104   1.106   0.036  12.262 -0.0077  0.2283  0.2935
 7824SOL    HW135105   1.202   0.031  12.262 -0.0980 -1.3394 -0.0296
 7824SOL    HW235106   1.097   4.701  12.318  0.3977  1.5752  2.2163
 7825SOL     OW35107   1.053   0.921   1.693  0.1184  0.6129 -0.0084
 7825SOL    HW135108   1.078   0.848   1.749  0.9769 -0.3206 -1.6260
 7825SOL    HW235109   0.959   0.927   1.709 -0.1362 -0.2323 -1.2192
 7826SOL     OW35110   4.353   0.913   7.634  0.0680 -0.3004 -0.4087
 7826SOL    HW135111   4.305   0.873   7.706 -1.0178  0.2382 -0.8300
 7826SOL    HW235112   4.306   0.996   7.623 -3.4024 -2.0340  1.5417
 7827SOL     OW35113   3.336   0.068   3.803  0.5790  0.5585  0.0236
 7827SOL    HW135114   3.423   0.064   3.763 -0.1085  0.3145 -1.4570
 7827SOL    HW235115   3.313   0.160   3.794 -1.9203  0.1617  2.4213
 7828SOL     OW35116   2.685   1.444   4.613  0.1686 -0.4741 -0.7871
 7828SOL    HW135117   2.657   1.356   4.586 -3.7067  0.1221  1.3091
 7828SOL    HW235118   2.611   1.459   4.672  0.2162 -1.0372 -0.5882
 7829SOL     OW35119   0.197   4.612   7.603  0.6367  0.2889  0.4342
 7829SOL    HW135120   0.103   4.598   7.611  0.4194  2.2368  1.3615
 7829SOL    HW235121   0.206   4.681   7.537  0.6113 -0.7747 -0.6657
 7830SOL     OW35122   4.672   2.063  13.638  0.2625 -0.1083  0.3653
 7830SOL    HW135123   4.581   2.079  13.614  0.6222 -1.4382 -1.9318
 7830SOL    HW235124   4.709   2.077  13.550  0.5888 -0.3702  0.4598
 7831SOL     OW35125   3.721   1.089   1.943 -0.1002  0.2855 -0.9010
 7831SOL    HW135126   3.680   1.046   2.018 -0.5286 -0.4131 -1.5369
 7831SOL    HW235127   3.647   1.100   1.882 -1.1868  0.9877  0.5560
 7832SOL     OW35128   2.377   1.641   1.817 -0.4239  0.4753  0.0787
 7832SOL    HW135129   2.296   1.670   1.774  0.1956 -0.5205 -1.8068
 7832SOL    HW235130   2.394   1.707   1.884 -1.3397 -0.4908  1.2608
 7833SOL     OW35131   1.526   1.040   5.157 -0.4497 -0.7162 -0.0317
 7833SOL    HW135132   1.620   1.039   5.169 -0.4908  3.0793  0.3855
 7833SOL    HW235133   1.503   1.132   5.146 -0.2260 -0.4400  1.9787
 7834SOL     OW35134   0.578   2.201  14.513  0.2571  0.4489 -0.2459
 7834SOL    HW135135   0.634   2.268  14.475  1.0698  0.2908  0.6619
 7834SOL    HW235136   0.640   2.163  14.576 -2.2501  0.2925  2.1454
 7835SOL     OW35137   3.017   4.320   3.321  0.0547 -0.1493  0.3016
 7835SOL    HW135138   3.101   4.318   3.275 -0.1018  3.7153 -0.1200
 7835SOL    HW235139   3.037   4.290   3.409  0.4795 -2.5735 -0.6234
 7836SOL     OW35140   2.875   2.200   3.517 -0.1254 -0.1377 -0.3009
 7836SOL    HW135141   2.927   2.120   3.518 -0.2506 -0.2224 -0.6270
 7836SOL    HW235142   2.893   2.234   3.429  2.2829 -0.9893 -0.1463
 7837SOL     OW35143   3.411   4.318  10.124  0.3011 -0.4737  0.0329
 7837SOL    HW135144   3.450   4.275  10.201  0.2971 -0.0277  0.2844
 7837SOL    HW235145   3.337   4.359  10.169 -1.4069 -1.7533 -1.5729
 7838SOL     OW35146   1.546   2.049   5.808  0.2292  0.3819 -0.0347
 7838SOL    HW135147   1.458   2.071   5.778 -0.0362  0.5647  0.8844
 7838SOL    HW235148   1.568   2.120   5.868 -0.1652  0.6585 -0.2159
 7839SOL     OW35149   2.280   4.548   8.406  0.1492 -0.0853  0.0794
 7839SOL    HW135150   2.221   4.507   8.344 -1.6622 -0.4064  2.0071
 7839SOL    HW235151   2.326   4.476   8.452 -1.5585 -0.1381  1.7001
 7840SOL     OW35152   2.748   4.025   4.266  0.3560  0.0338 -0.4874
 7840SOL    HW135153   2.803   4.089   4.221  1.5959 -1.6669 -1.3839
 7840SOL    HW235154   2.710   4.088   4.327  1.8838  0.5832 -0.1238
 7841SOL     OW35155   2.202   1.102   7.056  0.0219  0.5944  0.1720
 7841SOL    HW135156   2.273   1.038   7.044  1.2128  1.4675  2.5483
 7841SOL    HW235157   2.259   1.178   7.060 -0.5280  1.0919 -1.5152
 7842SOL     OW35158   4.084   0.860   7.743 -0.0714  0.3988  0.0550
 7842SOL    HW135159   4.123   0.837   7.827  0.2771 -0.6210 -0.3919
 7842SOL    HW235160   3.991   0.846   7.761  0.2520 -0.6965  0.7943
 7843SOL     OW35161   1.020   1.113   8.826  0.3600  0.6707  0.2200
 7843SOL    HW135162   0.968   1.183   8.867  2.1830  0.7334  2.4274
 7843SOL    HW235163   1.063   1.164   8.758 -3.0730  0.9019 -1.7867
 7844SOL     OW35164   2.550   0.567  16.328 -1.0761  0.4709  0.1734
 7844SOL    HW135165   2.479   0.629  16.311 -0.4012  0.9862 -0.7997
 7844SOL    HW235166   2.595   0.576  16.244 -0.4756 -0.4837  0.3964
 7845SOL     OW35167   0.474   1.597   8.463 -0.0498 -0.2054  0.0012
 7845SOL    HW135168   0.550   1.654   8.459 -0.1750 -0.2717 -3.3315
 7845SOL    HW235169   0.490   1.550   8.381 -2.6349 -1.6266  0.2841
 7846SOL     OW35170   4.174   1.177   4.750 -0.1849 -0.0128 -0.0043
 7846SOL    HW135171   4.207   1.267   4.749 -1.3032  0.4197  1.8887
 7846SOL    HW235172   4.208   1.141   4.669  0.3785  0.9037 -0.1766
 7847SOL     OW35173   3.907   3.018  13.889  0.2332 -0.0972  0.1912
 7847SOL    HW135174   3.852   3.052  13.819 -1.7011 -0.2186  1.6332
 7847SOL    HW235175   3.965   2.959  13.841  0.1833 -1.4657  1.7863
 7848SOL     OW35176   3.903   3.340  16.372 -0.1021 -0.1997 -0.7949
 7848SOL    HW135177   3.846   3.294  16.311 -0.1916  0.1679 -0.9903
 7848SOL    HW235178   3.832   3.381  16.421  1.5362  1.1951  0.4393
 7849SOL     OW35179   1.113   1.814  14.635  0.3948 -0.3454 -0.4886
 7849SOL    HW135180   1.131   1.892  14.583  0.1380 -0.7842 -1.2469
 7849SOL    HW235181   1.108   1.846  14.725  0.5501 -1.0669 -0.2215
 7850SOL     OW35182   4.524   1.482   6.991 -0.1856  0.1235  0.1383
 7850SOL    HW135183   4.492   1.458   7.078 -0.6746 -1.2792 -0.4334
 7850SOL    HW235184   4.615   1.451   6.987 -0.3290 -0.3402  0.4186
 7851SOL     OW35185   0.897   1.154   9.681  0.1478 -0.1552 -0.0551
 7851SOL    HW135186   0.925   1.167   9.772 -1.0585 -1.6739  0.5367
 7851SOL    HW235187   0.968   1.200   9.637  0.4884 -0.0200  0.6378
 7852SOL     OW35188   0.808   1.625   6.257 -0.3555 -0.7492  0.2972
 7852SOL    HW135189   0.893   1.582   6.248 -0.8756 -2.1359  2.0332
 7852SOL    HW235190   0.779   1.562   6.324  0.9679  1.2288  2.7382
 7853SOL     OW35191   1.974   1.414   4.918 -0.1603 -0.7139  0.5199
 7853SOL    HW135192   2.018   1.330   4.926 -0.5204 -1.2543 -3.1422
 7853SOL    HW235193   2.011   1.480   4.976  1.1047  0.3674 -1.4958
 7854SOL     OW35194   0.534   0.011   5.236  0.0582  0.1869  0.5510
 7854SOL    HW135195   0.580   0.039   5.315  0.5051  1.3923 -0.1327
 7854SOL    HW235196   0.607   4.723   5.181  0.4805 -0.8034  1.6296
 7855SOL     OW35197   0.811   3.197   8.744  0.1395  0.3444  0.8210
 7855SOL    HW135198   0.774   3.204   8.831 -2.1022 -0.1982 -0.0919
 7855SOL    HW235199   0.862   3.117   8.752 -0.3186 -0.0045  0.2369
 7856SOL     OW35200   1.671   3.633   7.751  0.0507 -0.3770 -0.2843
 7856SOL    HW135201   1.755   3.612   7.792  0.6368  1.6101 -0.4854
 7856SOL    HW235202   1.658   3.556   7.696 -3.1799 -2.0277  2.8003
 7857SOL     OW35203   1.892   4.722   6.634  0.0532 -0.6425  0.4815
 7857SOL    HW135204   1.914   0.031   6.712  1.7226 -0.4523 -0.1151
 7857SOL    HW235205   1.837   4.656   6.676 -1.2181  1.1119  1.5725
 7858SOL     OW35206   1.859   1.449   4.182  0.1401 -0.4795 -0.1206
 7858SOL    HW135207   1.855   1.371   4.238 -0.5889 -0.4402 -0.1166
 7858SOL    HW235208   1.894   1.505   4.251  0.0994  0.1426 -0.6119
 7859SOL     OW35209   2.099   1.599   2.774 -0.5613 -0.0356  0.0978
 7859SOL    HW135210   2.075   1.594   2.681 -1.0070  1.7765  0.1186
 7859SOL    HW235211   2.111   1.690   2.801 -0.9740  0.6383 -1.9789
 7860SOL     OW35212   4.359   2.965   4.593  0.6290 -0.4468  0.0861
 7860SOL    HW135213   4.359   3.056   4.563  2.1986 -0.8059 -1.0126
 7860SOL    HW235214   4.423   2.969   4.665  0.4404 -0.3023  0.2481
 7861SOL     OW35215   2.755   1.577  13.486 -0.2778 -1.0645  0.0745
 7861SOL    HW135216   2.763   1.510  13.554 -2.4428 -1.6914 -0.2666
 7861SOL    HW235217   2.846   1.589  13.459 -0.3205 -1.0191 -0.0507
 7862SOL     OW35218   1.834   2.188   3.144  0.2758 -0.0184  0.3728
 7862SOL    HW135219   1.800   2.255   3.203 -0.3791  0.0227 -0.0524
 7862SOL    HW235220   1.840   2.109   3.198 -4.4823 -1.2944 -0.9584
 7863SOL     OW35221   3.420   2.027   1.817 -0.0967 -0.1412  0.4291
 7863SOL    HW135222   3.388   1.938   1.802  2.9009 -1.3169  0.8618
 7863SOL    HW235223   3.436   2.064   1.730 -0.8167  1.2390  0.8851
 7864SOL     OW35224   2.445   3.782   0.420  0.3639  0.0355 -0.7041
 7864SOL    HW135225   2.391   3.734   0.483 -1.5163 -0.7313 -2.9058
 7864SOL    HW235226   2.393   3.774   0.340  0.1311 -0.5507 -0.4950
 7865SOL     OW35227   0.309   4.700   5.370  0.3636  0.5275 -0.5457
 7865SOL    HW135228   0.372   4.722   5.301  0.3014  1.4378 -0.3093
 7865SOL    HW235229   0.359   4.727   5.446  0.1682 -0.4339 -0.0789
 7866SOL     OW35230   2.910   0.696   5.496  0.0541 -0.2759  0.2951
 7866SOL    HW135231   2.892   0.735   5.582 -3.2826 -0.5984 -0.2404
 7866SOL    HW235232   2.891   0.604   5.511 -0.0955 -0.3202 -0.1732
 7867SOL     OW35233   1.068   2.891   9.954  0.5405  0.0535 -0.1686
 7867SOL    HW135234   1.058   2.925  10.043  0.2294 -1.6117  0.4411
 7867SOL    HW235235   1.053   2.975   9.911 -0.5595  0.8518  1.7855
 7868SOL     OW35236   0.862   3.436   4.924  0.0381 -0.2312  1.0233
 7868SOL    HW135237   0.770   3.448   4.900  0.8438  1.4293 -1.1900
 7868SOL    HW235238   0.895   3.392   4.847 -0.6764 -0.6367  0.9551
 7869SOL     OW35239   3.090   0.920   1.647  0.1968 -0.1044  0.3350
 7869SOL    HW135240   3.095   0.883   1.559  0.7233  0.0269  0.3103
 7869SOL    HW235241   3.037   0.856   1.694 -2.2300  0.0708 -2.1457
 7870SOL     OW35242   2.830   1.411  16.334 -0.0060 -0.1879 -0.1023
 7870SOL    HW135243   2.755   1.370  16.291 -1.4549  2.8293 -0.4849
 7870SOL    HW235244   2.902   1.352  16.311  1.5023  1.1468  1.1794
 7871SOL     OW35245   1.837   2.673  16.124 -0.0110  0.2341 -0.1928
 7871SOL    HW135246   1.812   2.633  16.040 -3.1084 -0.3667  1.0298
 7871SOL    HW235247   1.888   2.603  16.165 -1.4918 -0.4512  0.4839
 7872SOL     OW35248   0.325   0.328  11.542 -0.5226 -0.0016  0.3578
 7872SOL    HW135249   0.284   0.414  11.529 -0.1320 -0.3634 -3.1633
 7872SOL    HW235250   0.381   0.327  11.464 -0.1931  0.9630  0.5778
 7873SOL     OW35251   4.080   4.654   7.339  0.0650 -0.0287 -0.1584
 7873SOL    HW135252   4.029   4.585   7.297 -1.3503  2.4093 -2.4049
 7873SOL    HW235253   4.053   4.730   7.289  2.3320 -0.3263 -1.8490
 7874SOL     OW35254   1.622   1.579   4.080 -0.1766 -0.2857  0.6534
 7874SOL    HW135255   1.704   1.576   4.128 -0.3452 -2.2998  0.8375
 7874SOL    HW235256   1.582   1.494   4.100  0.0273 -0.5607 -0.1134
 7875SOL     OW35257   1.384   2.241  17.166  0.0604  0.0942  0.2570
 7875SOL    HW135258   1.361   2.279  17.251 -1.4946  1.3057 -0.7099
 7875SOL    HW235259   1.321   2.170  17.175 -0.9543  1.3976  3.4129
 7876SOL     OW35260   1.924   1.314  17.069 -0.1657 -0.4096 -0.0165
 7876SOL    HW135261   1.921   1.368  17.148  0.2524 -0.4596  0.0324
 7876SOL    HW235262   1.853   1.346  17.013 -0.7309 -0.9450  0.3889
 7877SOL     OW35263   3.345   1.032   4.525 -0.1991  0.5007  0.2014
 7877SOL    HW135264   3.356   0.940   4.548  0.0144  0.3239 -0.5926
 7877SOL    HW235265   3.298   1.071   4.598 -0.7407  0.5011 -0.1488
 7878SOL     OW35266   2.011   2.673   5.814 -0.1046 -0.3432  0.0453
 7878SOL    HW135267   2.070   2.690   5.887  0.0346 -0.0288 -0.1433
 7878SOL    HW235268   1.930   2.702   5.858  0.6008 -0.7209  1.5978
 7879SOL     OW35269   4.101   1.109   8.253  0.4301 -0.5560 -0.1248
 7879SOL    HW135270   4.110   1.021   8.216 -2.4607 -0.3728 -1.2516
 7879SOL    HW235271   4.194   1.131   8.254 -0.0407  1.3377  1.5422
 7880SOL     OW35272   2.669   0.147   8.700  0.4066  0.6597  0.1659
 7880SOL    HW135273   2.633   0.178   8.618 -2.2634 -1.3731  0.5576
 7880SOL    HW235274   2.720   0.223   8.729 -0.1385  1.0417  0.1179
 7881SOL     OW35275   3.485   2.623   3.629  0.3187 -0.3409  0.6818
 7881SOL    HW135276   3.394   2.646   3.643 -0.2918 -0.5191 -2.9308
 7881SOL    HW235277   3.515   2.643   3.718  1.1504  1.5429 -0.0244
 7882SOL     OW35278   2.811   1.082   5.138 -0.5122  0.4111  0.1495
 7882SOL    HW135279   2.859   1.085   5.055  2.2364  1.5078  1.7770
 7882SOL    HW235280   2.856   1.010   5.180  0.6192  0.5324 -0.8710
 7883SOL     OW35281   3.076   2.894  12.512  0.2700 -0.1626  0.0251
 7883SOL    HW135282   3.042   2.843  12.585 -0.4030 -2.0443 -1.5949
 7883SOL    HW235283   3.066   2.980  12.552 -1.1858 -0.6858  0.7812
 7884SOL     OW35284   3.239   3.843  11.555 -0.0515  0.5628 -0.3882
 7884SOL    HW135285   3.278   3.862  11.640  1.8157  0.8962 -1.3130
 7884SOL    HW235286   3.309   3.803  11.504 -1.5025 -1.9911 -0.4012
 7885SOL     OW35287   1.307   4.673   9.659  0.0917  0.3714  0.1367
 7885SOL    HW135288   1.257   4.614   9.715  1.3548 -1.3398 -0.5663
 7885SOL    HW235289   1.239   4.736   9.635  1.0164  1.0595 -0.7188
 7886SOL     OW35290   3.365   3.601  15.189  0.4779 -0.6436  0.2290
 7886SOL    HW135291   3.323   3.614  15.104  0.0944  0.5417  0.5986
 7886SOL    HW235292   3.291   3.608  15.249 -1.3975  2.3188 -2.4085
 7887SOL     OW35293   2.835   2.923  11.451 -0.0895 -0.1492  0.4181
 7887SOL    HW135294   2.854   3.016  11.455  1.4438 -0.3506 -2.6192
 7887SOL    HW235295   2.832   2.915  11.356  0.4990  0.8037  0.3189
 7888SOL     OW35296   1.516   3.018   4.001  0.3709  0.0419  0.3511
 7888SOL    HW135297   1.535   3.086   3.937 -2.9031 -0.6191 -1.3870
 7888SOL    HW235298   1.423   3.037   4.019  0.0879 -0.3778 -0.6348
 7889SOL     OW35299   2.222   1.756   8.308 -0.9874  0.5438 -0.6187
 7889SOL    HW135300   2.226   1.775   8.214 -3.0534 -0.5141 -0.9047
 7889SOL    HW235301   2.280   1.680   8.317  0.0345  1.1168 -2.3330
 7890SOL     OW35302   1.826   1.109  17.198  0.0301 -0.5218  0.2853
 7890SOL    HW135303   1.867   1.188  17.164  0.7145 -0.8766  0.2953
 7890SOL    HW235304   1.892   1.044  17.173 -1.4594 -2.9962  2.8190
 7891SOL     OW35305   2.234   0.440   3.523  1.1270 -0.3619 -0.1146
 7891SOL    HW135306   2.316   0.410   3.562  1.2145 -0.1465 -0.1322
 7891SOL    HW235307   2.257   0.409   3.436  0.5904  0.1794 -0.4504
 7892SOL     OW35308   3.639   0.958   4.979  0.5860 -0.4135 -0.1960
 7892SOL    HW135309   3.707   0.976   5.043 -0.3681  0.0371  0.7061
 7892SOL    HW235310   3.603   1.047   4.975  1.0739 -0.1827  0.8122
 7893SOL     OW35311   3.206   1.958  17.599 -0.0015  0.2246  0.8714
 7893SOL    HW135312   3.208   1.916  17.514  0.3302 -0.0416  1.0090
 7893SOL    HW235313   3.292   1.999  17.603  0.5290 -0.6482 -2.1520
 7894SOL     OW35314   3.818   1.697  14.056  0.7704  0.3735  0.2683
 7894SOL    HW135315   3.765   1.722  13.981  0.7292 -1.4407 -0.3017
 7894SOL    HW235316   3.840   1.787  14.083  2.0303  0.8568 -2.3279
 7895SOL     OW35317   3.049   4.311   4.472  0.2569 -0.1899  0.4476
 7895SOL    HW135318   3.043   4.215   4.477 -2.0410 -0.0098  0.7633
 7895SOL    HW235319   3.122   4.314   4.409  0.1123 -0.0337  0.2883
 7896SOL     OW35320   2.064   2.831   4.919  0.0004 -0.5928  0.2117
 7896SOL    HW135321   2.085   2.875   5.001 -2.2335  0.3101  0.2844
 7896SOL    HW235322   2.029   2.754   4.963 -0.2277  0.3940  1.7498
 7897SOL     OW35323   2.229   1.994  17.189 -0.2023 -0.4156  0.0241
 7897SOL    HW135324   2.165   1.943  17.239  0.0454  0.1051  0.8806
 7897SOL    HW235325   2.222   2.083  17.224  0.4402 -0.3764  0.0368
 7898SOL     OW35326   2.110   3.916   0.003 -0.2963  0.0837 -0.1153
 7898SOL    HW135327   2.187   3.888   0.052 -1.3568  0.3035  1.6442
 7898SOL    HW235328   2.050   3.852   0.041  0.4538 -1.4799 -1.5662
 7899SOL     OW35329   2.023   1.851   4.891 -0.0161 -0.1573 -0.2007
 7899SOL    HW135330   1.962   1.908   4.842  0.7199  0.6489 -0.1830
 7899SOL    HW235331   1.959   1.787   4.922  0.4782  0.3734  1.8826
 7900SOL     OW35332   1.394   3.364   4.022 -0.3189 -0.0913 -0.0746
 7900SOL    HW135333   1.459   3.335   3.958 -2.1569  0.6022 -2.2394
 7900SOL    HW235334   1.427   3.449   4.053  0.2332 -0.6347  0.8274
 7901SOL     OW35335   3.445   2.926   5.894  0.4025  0.4058 -0.3043
 7901SOL    HW135336   3.524   2.965   5.856  2.5822 -2.7565  1.0052
 7901SOL    HW235337   3.397   3.003   5.924  0.1824  0.5632 -1.0502
 7902SOL     OW35338   0.210   2.542  16.464 -0.5654  0.0773  0.1018
 7902SOL    HW135339   0.223   2.598  16.388 -0.3824 -0.4709 -0.2745
 7902SOL    HW235340   0.218   2.603  16.536  2.0460  0.0757 -0.1815
 7903SOL     OW35341   0.416   4.432  10.198  0.1382 -0.2389  0.0135
 7903SOL    HW135342   0.355   4.370  10.159  0.4828 -0.4233 -0.2309
 7903SOL    HW235343   0.375   4.456  10.282 -0.6586 -4.3769  0.7859
 7904SOL     OW35344   3.479   0.854   2.525  0.2502 -0.2622  0.0765
 7904SOL    HW135345   3.537   0.852   2.601  1.4766  0.4120 -0.8403
 7904SOL    HW235346   3.525   0.792   2.469 -1.8714 -1.5540 -0.2394
 7905SOL     OW35347   3.738   2.208   6.455 -0.0958 -0.0846  0.0040
 7905SOL    HW135348   3.720   2.188   6.363  0.3287 -0.2546 -0.0423
 7905SOL    HW235349   3.696   2.136   6.502  1.0948 -1.2619 -0.7357
 7906SOL     OW35350   2.550   2.436  10.067 -0.1056  0.1385  0.3120
 7906SOL    HW135351   2.638   2.451  10.100 -0.1485  0.3751  0.3225
 7906SOL    HW235352   2.518   2.527  10.063  0.3182  0.3399  1.3858
 7907SOL     OW35353   4.196   0.760   2.926  0.0550 -0.1795 -0.2383
 7907SOL    HW135354   4.259   0.689   2.910 -0.7866 -1.4990  2.2663
 7907SOL    HW235355   4.118   0.707   2.942 -0.5009  0.1408 -1.9520
 7908SOL     OW35356   3.818   2.698   7.547  0.0819 -0.4542 -0.0906
 7908SOL    HW135357   3.789   2.779   7.505  2.3401  1.4440  1.9741
 7908SOL    HW235358   3.880   2.746   7.602 -0.5355  0.9467 -0.6139
 7909SOL     OW35359   1.046   2.776  13.528  0.0654 -0.3838 -0.1600
 7909SOL    HW135360   0.984   2.795  13.599 -0.4849  1.8544 -1.2529
 7909SOL    HW235361   1.057   2.684  13.553 -1.8147 -0.4427  0.4664
 7910SOL     OW35362   2.976   3.083   2.574 -0.1734 -0.2310 -0.6477
 7910SOL    HW135363   3.063   3.096   2.611 -0.6902  0.4765  0.3216
 7910SOL    HW235364   2.987   2.996   2.536 -0.3620  0.0432 -1.3404
 7911SOL     OW35365   3.706   1.856   6.227 -0.1501 -0.5206 -0.2267
 7911SOL    HW135366   3.784   1.827   6.275 -0.0817  0.7412  0.4248
 7911SOL    HW235367   3.697   1.945   6.262  1.0498  0.3793 -2.2148
 7912SOL     OW35368   0.386   0.416   2.414 -0.0322  0.2237 -0.1000
 7912SOL    HW135369   0.398   0.322   2.427 -2.2372 -0.4108 -2.4815
 7912SOL    HW235370   0.296   0.428   2.444 -0.3982 -0.0033 -1.1013
 7913SOL     OW35371   0.176   3.133   5.467  0.7452  0.3795 -0.3588
 7913SOL    HW135372   0.120   3.056   5.482  0.7922  0.6685  1.2662
 7913SOL    HW235373   0.253   3.089   5.431 -0.6371 -1.2045 -1.4263
 7914SOL     OW35374   2.091   2.424  15.933 -0.4563  0.1552  0.3132
 7914SOL    HW135375   2.175   2.404  15.892 -1.6371  0.2224 -2.1248
 7914SOL    HW235376   2.083   2.518  15.923  0.6275  0.1804 -0.3230
 7915SOL     OW35377   0.905   0.737  14.260 -0.2439 -0.1970 -0.0247
 7915SOL    HW135378   0.817   0.758  14.228 -0.4199  1.1677  1.3285
 7915SOL    HW235379   0.889   0.667  14.324 -1.2696 -0.0584 -0.1315
 7916SOL     OW35380   2.549   2.375  14.903 -0.3507  0.8820 -0.4086
 7916SOL    HW135381   2.604   2.343  14.832 -0.6654 -0.5751  0.0022
 7916SOL    HW235382   2.489   2.433  14.857 -0.4320  0.8755 -0.3127
 7917SOL     OW35383   3.869   3.843   6.095  0.1975  0.1563  0.3608
 7917SOL    HW135384   3.941   3.902   6.117  1.2764  0.1073 -3.0228
 7917SOL    HW235385   3.836   3.885   6.016 -0.6495 -0.6746  0.2696
 7918SOL     OW35386   0.873   1.265   5.490 -0.1615  0.2390  0.7527
 7918SOL    HW135387   0.879   1.261   5.394  0.7648 -0.4609  0.8415
 7918SOL    HW235388   0.787   1.307   5.490 -1.8586 -3.2926 -0.8133
 7919SOL     OW35389   3.800   2.926   5.977 -0.4253  0.3711  0.3002
 7919SOL    HW135390   3.891   2.915   5.950 -0.8600  0.9705 -1.4132
 7919SOL    HW235391   3.760   2.936   5.890  1.6692  1.1220 -0.5623
 7920SOL     OW35392   1.631   2.480  10.598  0.3935 -0.0279 -0.5870
 7920SOL    HW135393   1.679   2.531  10.533  0.5451  0.3011 -0.2188
 7920SOL    HW235394   1.694   2.412  10.622 -0.2198 -0.4406 -0.1767
 7921SOL     OW35395   0.798   4.166  11.782 -0.1685 -0.1555 -0.1102
 7921SOL    HW135396   0.737   4.155  11.709  0.8247  1.4312 -1.1682
 7921SOL    HW235397   0.863   4.100  11.759  0.8078  0.2838  1.3702
 7922SOL     OW35398   4.236   1.709   9.030  0.3139  0.1356 -0.3585
 7922SOL    HW135399   4.167   1.688   9.092 -0.0706  1.8108 -0.2142
 7922SOL    HW235400   4.309   1.663   9.072 -0.3040  0.8338  1.4649
 7923SOL     OW35401   0.709   1.433  14.825 -0.3130  0.3087  0.1809
 7923SOL    HW135402   0.645   1.442  14.896  2.4818 -0.4932  2.8263
 7923SOL    HW235403   0.778   1.383  14.869 -1.9198 -1.3179  0.8849
 7924SOL     OW35404   2.759   0.186   4.260  0.1998 -0.1948 -0.4068
 7924SOL    HW135405   2.718   0.185   4.173 -0.7282 -1.8325  0.0572
 7924SOL    HW235406   2.817   0.112   4.247 -0.7389 -1.0248  0.0974
 7925SOL     OW35407   4.666   0.186   7.758 -0.3640 -0.3193 -0.2753
 7925SOL    HW135408   4.609   0.111   7.742 -0.9327  0.5332 -2.2386
 7925SOL    HW235409   4.595   0.248   7.770  0.9280  0.9073  1.0854
 7926SOL     OW35410   3.772   0.704   4.835  0.2067 -0.2232 -0.4242
 7926SOL    HW135411   3.739   0.794   4.845 -0.6706 -0.4699 -1.0632
 7926SOL    HW235412   3.864   0.727   4.820  0.6771 -1.7077  0.2000
 7927SOL     OW35413   3.297   2.363   4.004 -0.2460  0.8108 -0.2083
 7927SOL    HW135414   3.233   2.293   4.019  0.0036 -0.0405 -3.0371
 7927SOL    HW235415   3.354   2.313   3.945  0.7306  1.3826  0.2696
 7928SOL     OW35416   4.658   0.891  15.485  0.0626 -0.0081  0.5759
 7928SOL    HW135417   4.621   0.954  15.546  0.5188  0.6682  0.1526
 7928SOL    HW235418   4.740   0.881  15.533  0.9351 -0.4447 -0.9924
 7929SOL     OW35419   3.995   2.377   8.750 -0.6692  0.4176 -0.6407
 7929SOL    HW135420   3.997   2.286   8.777  0.7262  1.0760  1.4523
 7929SOL    HW235421   3.927   2.417   8.804 -2.0757 -1.2065 -1.1806
 7930SOL     OW35422   0.548   0.143  15.019 -0.1987  0.3601  0.4903
 7930SOL    HW135423   0.525   0.075  15.083 -1.3806  0.2636 -0.0284
 7930SOL    HW235424   0.466   0.163  14.973  0.3923  0.3355 -0.5819
 7931SOL     OW35425   1.506   3.644   9.250 -0.0758  0.2473  0.0822
 7931SOL    HW135426   1.443   3.657   9.180 -0.7416  0.9355  0.8144
 7931SOL    HW235427   1.580   3.605   9.203 -0.1037  1.3739 -0.8965
 7932SOL     OW35428   1.821   2.295   6.339 -0.3753 -0.0381  0.1275
 7932SOL    HW135429   1.749   2.247   6.298 -0.2923 -0.1845  0.1525
 7932SOL    HW235430   1.885   2.225   6.353  1.5408  1.9019  1.1256
 7933SOL     OW35431   0.633   4.380  10.523  0.4010  0.7590 -0.4318
 7933SOL    HW135432   0.639   4.450  10.458  1.1297 -0.6802 -1.9227
 7933SOL    HW235433   0.655   4.431  10.600  0.8525  2.0389 -1.3988
 7934SOL     OW35434   3.882   1.197   0.963  0.1908 -0.0447 -0.5747
 7934SOL    HW135435   3.857   1.130   0.899 -0.4638 -0.2153 -0.1394
 7934SOL    HW235436   3.894   1.267   0.899  1.0809  1.0714  0.8072
 7935SOL     OW35437   2.656   3.297  11.220  0.3895 -0.4408 -0.3196
 7935SOL    HW135438   2.664   3.202  11.228 -0.5849 -0.3657  1.4108
 7935SOL    HW235439   2.636   3.299  11.126 -0.6883 -0.7163 -0.0968
 7936SOL     OW35440   3.143   2.035   4.312 -0.2490  0.1068  0.0836
 7936SOL    HW135441   3.147   1.947   4.275 -4.2798 -0.3291  0.6458
 7936SOL    HW235442   3.090   2.004   4.386  0.3199 -3.3578 -0.9559
 7937SOL     OW35443   1.614   3.708   6.038 -0.1861  0.6377 -0.5021
 7937SOL    HW135444   1.551   3.642   6.068 -0.0301  0.3412 -0.8234
 7937SOL    HW235445   1.696   3.659   6.030 -0.7823 -0.5635  0.9150
 7938SOL     OW35446   3.295   3.470  16.230 -0.1136  0.0558  0.0966
 7938SOL    HW135447   3.361   3.411  16.268  0.9531  1.6051  0.6438
 7938SOL    HW235448   3.219   3.434  16.275  0.2993 -1.1088 -0.1332
 7939SOL     OW35449   3.053   0.883   6.982 -0.3398  0.3380 -0.0089
 7939SOL    HW135450   3.131   0.827   6.981 -0.3883  0.2862 -1.0000
 7939SOL    HW235451   2.984   0.821   7.004 -0.0607 -0.5936 -1.7307
 7940SOL     OW35452   0.261   0.102  14.382  0.8742  0.4124 -0.0836
 7940SOL    HW135453   0.291   0.138  14.299  1.5129 -0.8477 -0.3927
 7940SOL    HW235454   0.173   0.074  14.357  0.8062 -0.7792  1.5070
 7941SOL     OW35455   4.167   2.003   0.125  0.0795 -0.1276  0.1521
 7941SOL    HW135456   4.166   2.098   0.114  0.8287 -0.2659 -1.0443
 7941SOL    HW235457   4.213   2.000   0.209  0.8026 -0.0579 -0.2470
 7942SOL     OW35458   2.952   2.947   4.935  0.2161  0.1156  0.0957
 7942SOL    HW135459   3.017   3.009   4.969 -0.9839  1.9812 -0.9970
 7942SOL    HW235460   2.869   2.995   4.934  0.3894  0.4317  1.9975
 7943SOL     OW35461   1.574   3.000   8.603 -0.4053  0.2014 -0.4451
 7943SOL    HW135462   1.583   3.093   8.583  0.8338  0.7006  2.4694
 7943SOL    HW235463   1.637   3.000   8.674  1.1372 -1.7658 -1.8106
 7944SOL     OW35464   3.066   3.236   1.269 -0.0136  0.0799 -0.4402
 7944SOL    HW135465   3.077   3.318   1.221  0.5980  2.4568  3.7459
 7944SOL    HW235466   2.994   3.263   1.326 -0.1351 -0.6986 -0.2249
 7945SOL     OW35467   2.933   1.874   6.217 -0.2337  0.5788 -0.6019
 7945SOL    HW135468   2.895   1.933   6.282  3.4849  1.9928  0.2495
 7945SOL    HW235469   2.868   1.887   6.148  0.6200  0.4675 -1.4157
 7946SOL     OW35470   2.686   3.572  11.678 -0.9026  0.0416  0.3303
 7946SOL    HW135471   2.638   3.551  11.597 -1.3492  0.9163  0.3673
 7946SOL    HW235472   2.654   3.660  11.698 -0.1115  0.0234  1.6259
 7947SOL     OW35473   2.227   3.618  12.635 -0.2728 -0.3504  0.7164
 7947SOL    HW135474   2.151   3.559  12.633  0.3303 -1.1515  1.6100
 7947SOL    HW235475   2.189   3.703  12.659 -0.0665  0.1245 -0.6696
 7948SOL     OW35476   3.731   4.488  16.345  0.0256 -0.0650  0.2637
 7948SOL    HW135477   3.752   4.491  16.252 -0.6583 -2.3042  0.0532
 7948SOL    HW235478   3.682   4.568  16.363  0.0288 -0.0430  0.1725
 7949SOL     OW35479   0.333   1.376  10.260 -0.0320  0.3193  0.1215
 7949SOL    HW135480   0.295   1.358  10.346  2.1910  3.1121  1.7102
 7949SOL    HW235481   0.383   1.452  10.290  0.0946  0.8355 -1.4189
 7950SOL     OW35482   2.204   1.409   7.510  0.0338  0.1696  0.2740
 7950SOL    HW135483   2.205   1.416   7.606  0.5047  1.2230  0.1904
 7950SOL    HW235484   2.109   1.416   7.507 -0.1610 -1.6309  2.0978
 7951SOL     OW35485   2.232   0.403  13.598 -0.1154  0.0934 -0.1313
 7951SOL    HW135486   2.304   0.349  13.630 -0.9374 -1.1409 -0.3828
 7951SOL    HW235487   2.158   0.372  13.650  0.3638  3.1193  2.3775
 7952SOL     OW35488   4.250   0.615   6.070 -0.1816  0.4774  0.1623
 7952SOL    HW135489   4.163   0.596   6.106 -0.4457 -0.1636 -0.8125
 7952SOL    HW235490   4.259   0.709   6.082  3.6724  0.3376 -1.6018
 7953SOL     OW35491   1.894   0.338   7.218 -0.2175 -0.0081 -0.0336
 7953SOL    HW135492   1.877   0.362   7.309  0.8437  1.6129 -0.2569
 7953SOL    HW235493   1.986   0.312   7.221 -0.2230  0.0678  0.6451
 7954SOL     OW35494   2.429   0.860  12.007 -0.4278 -0.6983 -0.3541
 7954SOL    HW135495   2.432   0.774  12.050 -0.6476 -0.7161 -0.3725
 7954SOL    HW235496   2.380   0.913  12.070  0.2833 -1.5794  0.9419
 7955SOL     OW35497   0.997   3.669   6.512 -0.4097  0.1053 -0.1579
 7955SOL    HW135498   0.959   3.757   6.513 -0.2751  0.1575  0.2996
 7955SOL    HW235499   1.021   3.649   6.421 -3.0432  1.1258 -1.0800
 7956SOL     OW35500   2.715   2.180   5.420  0.4221  0.4055 -0.2523
 7956SOL    HW135501   2.667   2.107   5.381  0.2205 -0.1650  1.0544
 7956SOL    HW235502   2.802   2.168   5.383 -0.3556  0.1224 -1.9707
 7957SOL     OW35503   0.180   1.986   6.663 -0.6776  0.4925 -0.4124
 7957SOL    HW135504   0.169   1.962   6.571 -1.4279  2.0946 -0.7244
 7957SOL    HW235505   0.153   2.077   6.658  2.0947  1.4938  2.7294
 7958SOL     OW35506   2.093   0.978   5.265  0.3666 -0.5065 -0.2062
 7958SOL    HW135507   2.090   0.995   5.359  1.0065 -0.5350 -0.1870
 7958SOL    HW235508   2.186   0.975   5.243  0.0211  0.2328 -1.7806
 7959SOL     OW35509   0.503   3.560   4.082  0.3473  0.0855  0.0169
 7959SOL    HW135510   0.509   3.653   4.104  2.0763  0.4880 -2.1449
 7959SOL    HW235511   0.557   3.562   4.003  1.7533  0.1904  0.9771
 7960SOL     OW35512   1.517   4.324   7.276 -0.0058 -0.5874  0.6733
 7960SOL    HW135513   1.427   4.309   7.303 -0.0145 -0.4829  0.7000
 7960SOL    HW235514   1.565   4.305   7.356  0.7731 -0.8369  0.1542
 7961SOL     OW35515   4.435   0.246  15.067 -0.6666 -0.0732  0.0588
 7961SOL    HW135516   4.523   0.271  15.095 -0.0595 -1.7102 -0.4268
 7961SOL    HW235517   4.378   0.320  15.089  1.6746  2.3347 -1.8240
 7962SOL     OW35518   3.032   4.206   2.605  0.3187  0.2184 -0.4462
 7962SOL    HW135519   3.073   4.288   2.633 -1.1641  1.0142 -0.6221
 7962SOL    HW235520   2.951   4.209   2.656 -1.2638  1.8425 -3.0373
 7963SOL     OW35521   0.200   3.264   2.507  0.1446  0.7344  0.0007
 7963SOL    HW135522   0.205   3.175   2.542  2.4549 -0.1491 -2.6130
 7963SOL    HW235523   0.108   3.259   2.478 -0.0863 -1.2775  1.0777
 7964SOL     OW35524   2.281   2.447  14.117  0.5072  0.4229 -0.1331
 7964SOL    HW135525   2.281   2.356  14.146  0.8303  0.1534 -0.9868
 7964SOL    HW235526   2.315   2.490  14.196  5.0107 -2.3997 -0.5476
 7965SOL     OW35527   1.734   4.156  10.842 -0.0014 -0.1201  0.2583
 7965SOL    HW135528   1.816   4.198  10.815  0.4609 -1.1784 -0.0025
 7965SOL    HW235529   1.684   4.164  10.761 -2.0359 -1.9989  1.3178
 7966SOL     OW35530   3.195   0.263  14.143 -0.2236 -0.5872 -0.0079
 7966SOL    HW135531   3.285   0.282  14.118 -0.1937 -2.0605 -0.9917
 7966SOL    HW235532   3.150   0.282  14.061 -0.5348  0.2768  0.3625
 7967SOL     OW35533   2.565   3.944   0.062  0.0039  0.3416  0.0852
 7967SOL    HW135534   2.531   4.024   0.023 -0.6786  0.0625  0.1093
 7967SOL    HW235535   2.619   3.913  17.753  0.8495  1.0701  0.4018
 7968SOL     OW35536   0.027   4.015   6.670 -0.0897  0.6221 -0.1568
 7968SOL    HW135537   4.697   4.002   6.608  0.5472 -3.0096 -0.1346
 7968SOL    HW235538   4.728   4.067   6.739  0.2821 -1.8577  1.9554
 7969SOL     OW35539   1.495   2.584   8.162 -0.1700 -1.0966 -0.8831
 7969SOL    HW135540   1.510   2.524   8.235  1.4877  0.8561  0.3712
 7969SOL    HW235541   1.450   2.663   8.193  0.3808 -1.3833  0.6178
 7970SOL     OW35542   3.989   3.509   1.804  0.6747  0.5799 -0.3140
 7970SOL    HW135543   4.060   3.446   1.818  0.2479  0.0276 -0.6643
 7970SOL    HW235544   3.954   3.532   1.890 -0.2864  1.3565 -0.9106
 7971SOL     OW35545   0.566   2.282   4.083  0.9335 -0.1073  0.1238
 7971SOL    HW135546   0.496   2.283   4.149  0.2829  0.7228 -0.5875
 7971SOL    HW235547   0.643   2.236   4.117  2.0747  1.4423 -0.3796
 7972SOL     OW35548   1.856   1.863  12.106  0.0391 -0.0719  0.3254
 7972SOL    HW135549   1.804   1.937  12.135  0.5357 -0.3698  1.9351
 7972SOL    HW235550   1.893   1.908  12.030  0.1498  0.7948  0.8934
 7973SOL     OW35551   1.380   2.184   3.529  0.0375  0.5515 -0.4549
 7973SOL    HW135552   1.382   2.088   3.535 -0.2867  0.6447  1.0378
 7973SOL    HW235553   1.393   2.200   3.622 -0.2108 -0.9194 -0.1714
 7974SOL     OW35554   4.584   4.462   2.690 -0.0816 -0.8861  0.7510
 7974SOL    HW135555   4.555   4.521   2.759  0.9147 -0.5785  0.8960
 7974SOL    HW235556   4.678   4.451   2.702 -0.1854 -0.5085  1.9096
 7975SOL     OW35557   2.192   3.140   7.610  0.0492  0.5338  0.2126
 7975SOL    HW135558   2.153   3.208   7.665  2.1897 -0.2807  2.7473
 7975SOL    HW235559   2.181   3.062   7.666 -1.8024  1.2268  0.8122
 7976SOL     OW35560   4.715   0.270   3.227 -0.2929  0.4404 -0.1773
 7976SOL    HW135561   4.738   0.328   3.300  0.1009 -0.7249  0.6253
 7976SOL    HW235562   0.046   0.266   3.166  1.9146  2.3052  2.3202
 7977SOL     OW35563   3.584   2.743   4.085  0.1857  0.2671 -0.0202
 7977SOL    HW135564   3.605   2.836   4.088 -0.8078  0.4149  2.3935
 7977SOL    HW235565   3.564   2.722   4.176  1.9356  1.2812  0.6000
 7978SOL     OW35566   2.201   3.962   5.758  0.5015  0.4884 -0.6702
 7978SOL    HW135567   2.174   4.018   5.685 -3.3861 -1.7162 -0.9503
 7978SOL    HW235568   2.273   3.915   5.716  1.5206  1.0149  0.5148
 7979SOL     OW35569   2.876   0.875   6.410  0.3842  0.3790  0.1743
 7979SOL    HW135570   2.967   0.863   6.384  0.3312 -1.7168  0.9146
 7979SOL    HW235571   2.899   0.898   6.500 -1.0805  0.5994  0.4924
 7980SOL     OW35572   1.633   2.397  17.184 -0.5179 -0.0268 -0.4964
 7980SOL    HW135573   1.554   2.348  17.207 -0.6256 -0.1209 -1.0728
 7980SOL    HW235574   1.607   2.486  17.208 -1.1507 -0.2586 -0.3228
 7981SOL     OW35575   0.248   3.601   7.906 -0.4767  0.6459 -0.0851
 7981SOL    HW135576   0.167   3.651   7.920  0.0391  1.1169  1.1844
 7981SOL    HW235577   0.293   3.668   7.854  0.9980 -0.8340 -0.6839
 7982SOL     OW35578   3.325   2.171   4.672  0.4154  0.3275  0.1066
 7982SOL    HW135579   3.375   2.184   4.752  1.0571 -1.5299  0.0132
 7982SOL    HW235580   3.244   2.217   4.693 -1.1471 -3.1427  1.7049
 7983SOL     OW35581   4.078   3.003  15.401 -0.5808  0.2233 -0.3704
 7983SOL    HW135582   4.163   2.982  15.440 -0.5252  1.3293  0.0825
 7983SOL    HW235583   4.076   2.969  15.311 -0.2602  1.2453 -0.7595
 7984SOL     OW35584   3.602   1.110   2.766 -0.3553 -0.9184  0.2164
 7984SOL    HW135585   3.597   1.201   2.794  2.5304 -1.2420  1.6731
 7984SOL    HW235586   3.657   1.114   2.688 -0.3267  1.4154  0.3609
 7985SOL     OW35587   0.948   3.414   2.072 -0.4611 -0.0490  0.5062
 7985SOL    HW135588   0.985   3.326   2.076 -1.5627 -0.5356  0.0187
 7985SOL    HW235589   0.890   3.410   2.147 -0.1843  1.2071  0.7909
 7986SOL     OW35590   0.108   2.414   3.354  0.2929 -0.4169 -0.0704
 7986SOL    HW135591   0.050   2.479   3.313  0.4425 -0.1897  0.0768
 7986SOL    HW235592   0.072   2.391   3.440 -0.5095  3.0588  0.5556
 7987SOL     OW35593   4.263   2.975   0.030  0.1092 -0.0661 -0.1353
 7987SOL    HW135594   4.193   3.040   0.034 -0.2409 -0.4959  0.6947
 7987SOL    HW235595   4.288   2.986  17.702  0.4544 -0.9957 -0.1517
 7988SOL     OW35596   0.866   3.779   1.511  0.7509  0.8943  0.0911
 7988SOL    HW135597   0.844   3.817   1.426 -0.8742  1.4296  0.7521
 7988SOL    HW235598   0.945   3.728   1.495 -0.2491 -0.8599  0.7481
 7989SOL     OW35599   2.930   0.052  12.161  0.2426  0.2770 -0.6532
 7989SOL    HW135600   2.979   0.134  12.166  0.0695  0.4182 -1.2730
 7989SOL    HW235601   2.950   0.013  12.246 -3.6280  0.5502  0.3349
 7990SOL     OW35602   3.900   4.047   9.407  0.1747 -0.1429 -0.2908
 7990SOL    HW135603   3.981   4.054   9.356  0.8993  0.7611  1.0053
 7990SOL    HW235604   3.837   4.085   9.346 -0.8011  0.9641  1.4268
 7991SOL     OW35605   1.166   0.579  17.040  0.4653  0.3468  0.4174
 7991SOL    HW135606   1.168   0.578  17.136 -1.2406 -1.7786  0.4289
 7991SOL    HW235607   1.076   0.611  17.029 -0.7127 -2.9883  0.3823
 7992SOL     OW35608   0.045   2.237  13.802 -0.3488  0.2899  0.1056
 7992SOL    HW135609   4.733   2.173  13.756  1.6603 -1.1457 -0.2476
 7992SOL    HW235610   4.731   2.231  13.880  0.8196  0.7490  0.9925
 7993SOL     OW35611   3.900   0.862   5.718 -0.3054  0.1865  0.3568
 7993SOL    HW135612   3.993   0.841   5.718 -0.4018 -0.3798  3.9414
 7993SOL    HW235613   3.903   0.957   5.710 -2.0747  0.3781  1.9216
 7994SOL     OW35614   4.707   4.083   1.828  0.3204  0.2475  0.1202
 7994SOL    HW135615   4.692   4.077   1.922 -1.4005 -3.1921 -0.3774
 7994SOL    HW235616   4.639   4.143   1.796  0.3160 -1.0093 -2.2559
 7995SOL     OW35617   0.095   1.647   4.506 -0.5909 -0.6059  0.5211
 7995SOL    HW135618   0.047   1.618   4.429 -0.1970  0.4419 -0.1229
 7995SOL    HW235619   0.018   1.649   4.563 -0.1712  1.0685  1.0253
 7996SOL     OW35620   4.678   4.516   7.089  0.3717  0.2106  0.2941
 7996SOL    HW135621   4.593   4.517   7.044  0.6381  1.1464 -0.1973
 7996SOL    HW235622   4.657   4.568   7.167 -1.5031 -0.2161  0.0729
 7997SOL     OW35623   0.726   0.789   5.813  0.4455  0.0089  0.6734
 7997SOL    HW135624   0.740   0.852   5.885  1.5351 -0.0631  0.5301
 7997SOL    HW235625   0.797   0.725   5.820 -0.2585 -1.1636 -3.2752
 7998SOL     OW35626   1.828   4.163  17.741 -0.2373 -0.1146 -0.3673
 7998SOL    HW135627   1.838   4.175  17.646 -3.5986 -0.2774 -0.7408
 7998SOL    HW235628   1.844   4.071  17.762 -0.8077 -0.1007  0.1188
 7999SOL     OW35629   1.552   1.281   1.884  0.0770  0.0451 -0.3502
 7999SOL    HW135630   1.519   1.250   1.800 -0.1346 -0.2731 -0.1518
 7999SOL    HW235631   1.589   1.367   1.866  0.6641 -0.1493 -0.0576
 8000SOL     OW35632   3.084   3.249   8.658  0.0496 -0.1145 -0.3293
 8000SOL    HW135633   3.069   3.308   8.585  0.8777  1.5789  0.8628
 8000SOL    HW235634   3.002   3.202   8.675  2.1924 -3.1610  1.7926
 8001SOL     OW35635   1.550   2.755   3.957 -0.4635  0.1410 -0.0292
 8001SOL    HW135636   1.548   2.850   3.946 -0.3458  0.2434  0.8608
 8001SOL    HW235637   1.644   2.738   3.954 -0.4720  0.0627  0.1327
 8002SOL     OW35638   3.859   3.216   5.833  0.7217 -0.1675 -0.2471
 8002SOL    HW135639   3.864   3.156   5.759 -0.3057 -1.0972  0.4501
 8002SOL    HW235640   3.941   3.199   5.879 -0.6516 -1.7764  1.6168
 8003SOL     OW35641   3.917   1.599   1.901 -0.6257 -0.0439 -0.2826
 8003SOL    HW135642   4.001   1.587   1.945 -1.3923 -1.5301  0.7820
 8003SOL    HW235643   3.956   1.614   1.815  1.3585  0.4855  0.7114
 8004SOL     OW35644   1.352   2.235   7.803  0.2132 -0.7806 -0.2703
 8004SOL    HW135645   1.394   2.298   7.861 -1.7387 -1.1580  1.5286
 8004SOL    HW235646   1.281   2.207   7.861 -0.9098  0.6875 -0.9320
 8005SOL     OW35647   0.590   4.473   6.721  0.3349 -0.0145  0.1744
 8005SOL    HW135648   0.576   4.475   6.627  0.7791  0.1917  0.1128
 8005SOL    HW235649   0.610   4.380   6.736  2.1388  0.1921 -0.9540
 8006SOL     OW35650   3.708   4.073   5.785  0.0210 -0.0670  0.4277
 8006SOL    HW135651   3.704   4.168   5.791 -0.9896  0.0744 -2.6944
 8006SOL    HW235652   3.800   4.055   5.806  1.0483  2.9779 -1.5187
 8007SOL     OW35653   2.961   2.749  12.715  0.2761  0.8125 -0.1104
 8007SOL    HW135654   2.876   2.775  12.749  0.3618  2.8954 -1.5123
 8007SOL    HW235655   2.943   2.659  12.689 -1.6936  1.1121  0.2509
 8008SOL     OW35656   0.038   3.018   2.217  0.2059 -0.0636 -0.4889
 8008SOL    HW135657   4.713   3.087   2.217 -1.3354 -1.5491  0.5534
 8008SOL    HW235658   0.034   2.981   2.306 -2.2495 -0.4467 -0.7526
 8009SOL     OW35659   2.433   3.170   8.544 -0.4315 -0.3297  0.8029
 8009SOL    HW135660   2.344   3.183   8.577 -0.9456  1.5099 -1.3521
 8009SOL    HW235661   2.434   3.074   8.544 -0.5851 -0.3301  1.3153
 8010SOL     OW35662   3.142   1.104   3.830 -0.6850  0.5775  0.1389
 8010SOL    HW135663   3.111   1.144   3.911 -2.4950  0.4343 -0.4930
 8010SOL    HW235664   3.230   1.141   3.820 -0.1014 -0.9490 -0.2993
 8011SOL     OW35665   3.298   2.297   2.741  0.5220  0.2975 -0.0007
 8011SOL    HW135666   3.304   2.221   2.683  0.1978  1.1945 -1.1870
 8011SOL    HW235667   3.388   2.312   2.773  1.1999  0.5986 -2.0680
 8012SOL     OW35668   3.753   0.533   7.972 -0.3786  0.3515  0.6029
 8012SOL    HW135669   3.665   0.566   7.991  0.2443  2.4897 -0.2003
 8012SOL    HW235670   3.738   0.442   7.947 -0.4957  0.7808 -0.8912
 8013SOL     OW35671   1.452   4.102  14.857 -0.3862 -0.4423 -0.0295
 8013SOL    HW135672   1.363   4.131  14.878 -0.6082 -0.1128 -1.4844
 8013SOL    HW235673   1.514   4.129  14.925 -0.8047 -0.4486  0.3546
 8014SOL     OW35674   1.378   3.425   7.200  0.1280  0.0083  0.1796
 8014SOL    HW135675   1.289   3.423   7.166  0.8578 -2.2282 -1.6395
 8014SOL    HW235676   1.432   3.420   7.121  0.7508  4.0738  0.3837
 8015SOL     OW35677   2.478   3.614   3.523  0.3809 -0.2141 -0.2012
 8015SOL    HW135678   2.520   3.697   3.543  1.5817 -1.0327  0.6894
 8015SOL    HW235679   2.498   3.595   3.431 -2.9750 -2.0909 -0.5574
 8016SOL     OW35680   4.458   0.925   2.519  0.5383 -0.2215 -0.8123
 8016SOL    HW135681   4.494   0.953   2.435  0.0510  1.2279 -0.5420
 8016SOL    HW235682   4.533   0.935   2.578 -1.2479 -1.0096  1.5893
 8017SOL     OW35683   1.307   3.469  17.274  0.2446 -0.1977  0.4359
 8017SOL    HW135684   1.359   3.549  17.264 -1.0753  0.7103  0.7369
 8017SOL    HW235685   1.218   3.498  17.253  0.6102 -0.1002 -1.0259
 8018SOL     OW35686   1.262   1.174   9.253  0.3172  0.4351  0.6313
 8018SOL    HW135687   1.182   1.206   9.295  0.0428  1.2046 -0.4770
 8018SOL    HW235688   1.273   1.089   9.295 -2.6837 -0.5409 -0.5300
 8019SOL     OW35689   1.501   3.415   6.968  0.5211 -0.1035  0.9477
 8019SOL    HW135690   1.523   3.491   6.914  1.3337 -0.6391  0.5211
 8019SOL    HW235691   1.589   3.394   7.001  1.0431 -1.5207 -1.3169
 8020SOL     OW35692   1.422   3.154   1.808  0.0924 -0.4063  0.0856
 8020SOL    HW135693   1.492   3.149   1.873  1.1780 -0.4186 -1.0636
 8020SOL    HW235694   1.460   3.221   1.751 -0.0794 -0.5797 -0.2387
 8021SOL     OW35695   2.940   3.310   2.146 -0.6950  0.8326 -0.4098
 8021SOL    HW135696   3.034   3.323   2.156 -0.3903 -1.9314  0.4124
 8021SOL    HW235697   2.904   3.371   2.210 -0.2172  1.8369 -1.0972
 8022SOL     OW35698   3.966   4.291   8.940  0.6799  1.0609  0.1529
 8022SOL    HW135699   3.873   4.294   8.915  0.5141  3.0718  0.9830
 8022SOL    HW235700   3.989   4.383   8.923 -1.1278  1.4296 -0.3710
 8023SOL     OW35701   3.384   2.469   1.687  0.0961  0.1507  0.5507
 8023SOL    HW135702   3.335   2.537   1.733  2.1228  1.6295  0.5054
 8023SOL    HW235703   3.459   2.460   1.746 -0.0011 -0.7066  0.5454
 8024SOL     OW35704   0.589   3.707   3.111 -0.9234  0.3035  0.2094
 8024SOL    HW135705   0.544   3.634   3.067 -0.7816  0.2198  0.2030
 8024SOL    HW235706   0.648   3.674   3.179  0.9904  2.1144 -0.5750
 8025SOL     OW35707   0.861   4.308   7.637 -0.0255  0.3795 -0.0428
 8025SOL    HW135708   0.786   4.321   7.579 -0.6570  0.2343  0.7453
 8025SOL    HW235709   0.837   4.231   7.688  1.0844  0.6578  0.8945
 8026SOL     OW35710   0.954   0.194   2.222  0.3239  0.5014 -0.3137
 8026SOL    HW135711   0.951   0.263   2.288 -1.5910  1.7776 -1.7313
 8026SOL    HW235712   0.868   0.153   2.227  0.6485 -0.2850 -1.0964
 8027SOL     OW35713   3.889   2.754   9.407 -0.2886  0.6517 -0.2098
 8027SOL    HW135714   3.932   2.669   9.413  0.0239  0.7480 -1.0277
 8027SOL    HW235715   3.831   2.744   9.332 -2.2205 -0.1005  1.3820
 8028SOL     OW35716   3.581   4.530  11.322  0.0568  0.3569  0.6319
 8028SOL    HW135717   3.665   4.563  11.355 -0.5247  2.4237  0.0134
 8028SOL    HW235718   3.602   4.487  11.239 -1.2831 -0.1837  0.5728
 8029SOL     OW35719   4.260   4.601  13.278  0.5194 -0.0362  0.1997
 8029SOL    HW135720   4.309   4.674  13.316 -0.8327 -0.1024  2.0761
 8029SOL    HW235721   4.196   4.639  13.218 -0.3264 -0.1396  1.0328
 8030SOL     OW35722   1.435   1.420   5.961  0.3116  0.0017 -0.4213
 8030SOL    HW135723   1.365   1.485   5.963 -0.1837 -0.5367 -0.0690
 8030SOL    HW235724   1.420   1.380   6.047 -0.9682 -0.5707 -0.9162
 8031SOL     OW35725   2.685   3.592   1.537 -0.7852  0.0866 -0.0276
 8031SOL    HW135726   2.761   3.542   1.508  0.8502  2.4853  0.2213
 8031SOL    HW235727   2.709   3.668   1.484  1.2485 -0.9938 -0.6760
 8032SOL     OW35728   1.490   4.420   4.758  0.1624 -0.5760 -0.2894
 8032SOL    HW135729   1.407   4.393   4.718 -1.2964  0.8949  1.7513
 8032SOL    HW235730   1.486   4.364   4.836  3.5754  0.5627  0.6642
 8033SOL     OW35731   0.700   1.495   8.272  0.2208  0.1158 -0.0104
 8033SOL    HW135732   0.668   1.439   8.201 -0.0706  0.3408 -0.0570
 8033SOL    HW235733   0.786   1.525   8.243 -0.6295  1.8318 -0.7417
 8034SOL     OW35734   0.856   3.911  13.723  0.0482 -0.1543  0.8780
 8034SOL    HW135735   0.816   3.986  13.680  1.2335  0.6915  1.2630
 8034SOL    HW235736   0.938   3.894  13.677  0.3328 -0.6096  1.5443
 8035SOL     OW35737   1.666   2.192   0.748  0.2036  0.0377 -0.3771
 8035SOL    HW135738   1.653   2.228   0.836 -1.6399 -1.8407  0.1311
 8035SOL    HW235739   1.757   2.166   0.759  0.9101  1.8288 -2.0415
 8036SOL     OW35740   1.060   3.037   7.927 -0.0652  0.3153 -0.5162
 8036SOL    HW135741   1.079   3.102   7.859  0.4330  1.4429  0.6923
 8036SOL    HW235742   1.132   2.974   7.922 -0.8088 -0.3641 -2.9450
 8037SOL     OW35743   1.551   3.059   5.860  0.2469  0.4463  0.2958
 8037SOL    HW135744   1.550   3.076   5.766  1.6358 -1.8767 -0.1532
 8037SOL    HW235745   1.536   3.149   5.889 -0.7079  0.7603 -1.1745
 8038SOL     OW35746   4.732   2.725   7.906  0.2232  0.1964 -0.3639
 8038SOL    HW135747   4.723   2.775   7.825  3.2042  1.2111 -0.0562
 8038SOL    HW235748   4.641   2.704   7.927  0.1477  0.6476 -0.2399
 8039SOL     OW35749   1.820   1.395  14.212 -0.1060  0.3376  0.1465
 8039SOL    HW135750   1.839   1.423  14.122  3.6689  3.3918  1.9441
 8039SOL    HW235751   1.731   1.429  14.220 -0.4228 -0.1465 -1.2015
 8040SOL     OW35752   2.723   2.367   5.148 -0.1572 -0.0481 -0.1982
 8040SOL    HW135753   2.762   2.412   5.223 -0.3869 -0.2574  0.0455
 8040SOL    HW235754   2.633   2.371   5.179 -0.2525 -1.0657 -0.3464
 8041SOL     OW35755   2.372   2.474   8.271 -0.0720  0.3627 -0.4941
 8041SOL    HW135756   2.359   2.433   8.357 -1.4445  0.8363 -0.4687
 8041SOL    HW235757   2.418   2.555   8.291  0.5827  0.5869 -2.9724
 8042SOL     OW35758   3.518   0.799   4.301  0.5933 -0.0712  0.0058
 8042SOL    HW135759   3.511   0.717   4.251 -5.6370 -0.8492  2.1516
 8042SOL    HW235760   3.528   0.868   4.235  2.4292  0.0548  0.4213
 8043SOL     OW35761   1.105   3.182   8.366  0.0341  0.5348 -0.4495
 8043SOL    HW135762   1.052   3.238   8.423 -0.1264 -0.1275  0.0522
 8043SOL    HW235763   1.057   3.183   8.282 -0.6324  1.1409 -0.0653
 8044SOL     OW35764   2.823   2.084   8.838  0.0270  0.3636  0.6266
 8044SOL    HW135765   2.846   2.133   8.760  3.4512  0.5980  1.7822
 8044SOL    HW235766   2.768   2.146   8.886 -1.2461 -0.2272 -0.0611
 8045SOL     OW35767   2.921   2.493   3.566  0.3680 -0.4315 -0.0465
 8045SOL    HW135768   2.890   2.403   3.571 -0.8647  0.0843  1.3580
 8045SOL    HW235769   2.856   2.538   3.512  1.7252  0.0113 -1.3064
 8046SOL     OW35770   2.857   2.930  13.037 -0.0228 -0.2132  0.5107
 8046SOL    HW135771   2.860   3.025  13.053 -0.3584 -0.1682  0.3059
 8046SOL    HW235772   2.882   2.898  13.124  0.5242 -0.0285  0.4223
 8047SOL     OW35773   0.882   4.168   6.353  0.9311 -0.3923 -0.7410
 8047SOL    HW135774   0.810   4.135   6.406  0.3325  3.0873  0.5537
 8047SOL    HW235775   0.961   4.117   6.373  0.1240 -1.5075 -0.3807
 8048SOL     OW35776   0.737   0.910   3.339  0.4753 -0.4242  0.3293
 8048SOL    HW135777   0.673   0.975   3.370  0.7281 -1.0109  2.0965
 8048SOL    HW235778   0.731   0.855   3.417 -0.3838 -1.3260 -0.3712
 8049SOL     OW35779   2.497   0.127   3.606  0.0851  0.0124 -0.8807
 8049SOL    HW135780   2.525   0.202   3.555  1.8703 -1.7257 -2.4640
 8049SOL    HW235781   2.470   0.171   3.686 -1.7922  1.1867 -2.1531
 8050SOL     OW35782   1.589   2.105   5.239  0.0102 -0.0526 -0.7427
 8050SOL    HW135783   1.650   2.111   5.165  1.6744 -2.6460  0.4271
 8050SOL    HW235784   1.548   2.020   5.221  1.1413 -0.6652 -0.4166
 8051SOL     OW35785   1.150   4.217   5.596  0.0542  0.7295 -0.1722
 8051SOL    HW135786   1.242   4.213   5.570 -0.5795  1.3790 -2.5380
 8051SOL    HW235787   1.102   4.204   5.514 -0.9502 -2.0544  0.8648
 8052SOL     OW35788   0.863   0.407  14.114 -0.2414  0.0418 -0.2605
 8052SOL    HW135789   0.929   0.343  14.088 -0.0428  0.4133 -0.6626
 8052SOL    HW235790   0.899   0.437  14.197  1.9324  1.0416 -1.5866
 8053SOL     OW35791   2.514   0.588   2.143 -0.0132  0.4180  0.7620
 8053SOL    HW135792   2.444   0.617   2.085 -1.4997 -1.2113  1.7660
 8053SOL    HW235793   2.573   0.545   2.081 -0.6841  1.7941 -0.8456
 8054SOL     OW35794   0.032   2.823   9.032  0.4517 -0.2949  0.2982
 8054SOL    HW135795   4.705   2.811   8.966  1.1064 -0.2047 -0.4032
 8054SOL    HW235796   0.086   2.874   8.973  1.6178 -0.2871  1.3790
 8055SOL     OW35797   0.203   0.179   3.090 -0.0288  0.1535  0.0828
 8055SOL    HW135798   0.263   0.206   3.159  0.1798  1.9046 -0.7783
 8055SOL    HW235799   0.262   0.133   3.030 -1.1055  0.3178 -1.1019
 8056SOL     OW35800   1.537   1.442   6.465 -0.5685 -0.4332  0.1006
 8056SOL    HW135801   1.533   1.471   6.556  0.1161 -0.0691  0.0183
 8056SOL    HW235802   1.468   1.498   6.430  1.2378  2.1018  0.6376
 8057SOL     OW35803   4.451   2.322   5.152 -0.1807  0.0735  0.4399
 8057SOL    HW135804   4.467   2.280   5.236 -0.2423 -1.1217 -0.1405
 8057SOL    HW235805   4.516   2.279   5.096 -0.9032  0.1325 -0.4572
 8058SOL     OW35806   1.048   2.694   3.528  0.3279  0.4378  0.1421
 8058SOL    HW135807   1.101   2.696   3.449  1.4430  0.6818  0.9069
 8058SOL    HW235808   1.110   2.709   3.600 -0.8142  1.7090  0.8739
 8059SOL     OW35809   2.199   2.849  10.278 -0.0585 -0.0891 -0.5659
 8059SOL    HW135810   2.234   2.807  10.356  0.4104 -0.2789 -0.8849
 8059SOL    HW235811   2.120   2.796  10.265 -0.4902  0.9728 -2.2537
 8060SOL     OW35812   4.682   1.768  14.727  0.4077 -0.7980  0.9118
 8060SOL    HW135813   4.650   1.744  14.640 -0.1814 -1.3612  1.2915
 8060SOL    HW235814   0.014   1.815  14.688  0.4868 -2.6486 -1.1720
 8061SOL     OW35815   3.130   4.737  10.814 -0.0990  0.2434 -0.3398
 8061SOL    HW135816   3.044   0.028  10.841 -0.2676  0.4561 -1.1520
 8061SOL    HW235817   3.180   0.065  10.858  0.4319  1.2529 -2.5204
 8062SOL     OW35818   0.062   2.027   4.558 -0.0187 -0.0826  0.0570
 8062SOL    HW135819   0.130   2.054   4.620  2.1136  0.4259 -2.5423
 8062SOL    HW235820   0.039   2.119   4.542 -0.3083  0.2573  2.4228
 8063SOL     OW35821   2.909   1.044   7.143  0.1014  0.2163  0.0035
 8063SOL    HW135822   2.968   1.095   7.199  0.1205  2.0850 -1.7026
 8063SOL    HW235823   2.972   0.992   7.093  2.2089  1.3895  1.4256
 8064SOL     OW35824   3.686   2.013   4.409 -0.0737 -0.2473 -0.0539
 8064SOL    HW135825   3.604   2.048   4.375  0.0756 -0.2440 -0.4022
 8064SOL    HW235826   3.731   1.982   4.331 -2.8366  1.5914 -2.3627
 8065SOL     OW35827   2.451   0.132  16.916 -0.2115 -0.4125  0.1584
 8065SOL    HW135828   2.482   0.054  16.962  0.1392  0.0296  0.6744
 8065SOL    HW235829   2.372   0.140  16.968  0.5898  2.3647  0.9426
 8066SOL     OW35830   1.387   3.474  13.572 -0.6005 -0.1081 -0.2326
 8066SOL    HW135831   1.322   3.442  13.635  0.6669 -0.2491  1.0178
 8066SOL    HW235832   1.442   3.530  13.627 -0.5302 -0.0464 -0.3667
 8067SOL     OW35833   1.380   1.218   5.395  0.1782 -0.2839 -0.8129
 8067SOL    HW135834   1.356   1.296   5.345 -2.5781 -2.0354 -2.1725
 8067SOL    HW235835   1.293   1.199   5.430  1.3215 -2.2271  0.9572
 8068SOL     OW35836   4.340   4.349  11.181  0.4928 -0.5213 -0.7342
 8068SOL    HW135837   4.251   4.384  11.192  0.4947 -1.3360  1.7840
 8068SOL    HW235838   4.328   4.257  11.203  0.7647 -0.1361  1.0063
 8069SOL     OW35839   2.883   1.166   2.936 -0.1220 -0.9215 -0.0857
 8069SOL    HW135840   2.809   1.108   2.918 -1.3065  0.5438  0.1434
 8069SOL    HW235841   2.859   1.211   3.017  2.0381  1.4544 -0.7577
 8070SOL     OW35842   4.449   3.464   1.901  0.1220  0.3197 -0.9971
 8070SOL    HW135843   4.360   3.497   1.911 -0.2558 -1.6247  1.8811
 8070SOL    HW235844   4.456   3.495   1.811 -0.8497  2.7344 -0.2367
 8071SOL     OW35845   0.785   0.445   6.221 -0.0966 -0.8337  0.1617
 8071SOL    HW135846   0.702   0.439   6.268 -0.6485  3.5133 -0.2188
 8071SOL    HW235847   0.792   0.541   6.214  3.5660 -1.2061 -1.5327
 8072SOL     OW35848   4.519   3.975   3.438  0.1786 -0.2025 -0.0822
 8072SOL    HW135849   4.531   3.958   3.531 -2.7367 -0.6470  0.2065
 8072SOL    HW235850   4.563   4.058   3.419 -0.8987  0.1482 -1.0881
 8073SOL     OW35851   4.026   1.489  13.352  0.0434  0.0670  0.3407
 8073SOL    HW135852   4.109   1.454  13.385 -1.6191 -2.9654  1.2350
 8073SOL    HW235853   4.040   1.574  13.395 -0.2675  0.7035 -0.8246
 8074SOL     OW35854   3.622   3.062   2.485  0.0242  0.3520  0.0335
 8074SOL    HW135855   3.642   2.979   2.529  1.5791  0.4078 -0.5758
 8074SOL    HW235856   3.603   3.021   2.401  1.4304  0.6855 -0.4344
 8075SOL     OW35857   3.729   2.489   0.334 -0.0720  0.2419  0.0252
 8075SOL    HW135858   3.711   2.400   0.305 -0.6060  1.5659 -3.7235
 8075SOL    HW235859   3.641   2.510   0.366 -0.2122 -0.1570 -0.0952
 8076SOL     OW35860   0.187   1.788   7.563  0.3549  0.6036 -0.6726
 8076SOL    HW135861   0.233   1.870   7.582  0.6807  0.1134  0.6638
 8076SOL    HW235862   0.105   1.800   7.610  1.2361  0.8885  0.8132
 8077SOL     OW35863   3.150   3.841  16.063  0.3852 -0.2045 -0.1854
 8077SOL    HW135864   3.243   3.817  16.064  0.9912  2.1725 -1.0469
 8077SOL    HW235865   3.123   3.822  16.153  0.5120 -1.4298 -0.4028
 8078SOL     OW35866   4.445   3.493   9.115 -0.4727  0.1596 -0.0198
 8078SOL    HW135867   4.444   3.554   9.188  1.7444 -0.9040  0.9092
 8078SOL    HW235868   4.393   3.543   9.052 -2.4234  0.6999  2.0508
 8079SOL     OW35869   2.679   3.813   7.747  0.7795  0.0822  0.1639
 8079SOL    HW135870   2.636   3.858   7.820  2.5251  2.3610 -0.2129
 8079SOL    HW235871   2.715   3.887   7.698 -0.5855  0.4802 -0.2265
 8080SOL     OW35872   4.680   4.006   5.519  0.9118 -0.1392  0.6093
 8080SOL    HW135873   4.701   3.953   5.442 -0.2152 -1.5722  1.2823
 8080SOL    HW235874   4.586   4.019   5.502  0.7623  0.1137  1.6230
 8081SOL     OW35875   3.428   0.547   3.620  0.5476  0.0442  0.8452
 8081SOL    HW135876   3.339   0.556   3.586 -0.3694 -0.5631  3.0981
 8081SOL    HW235877   3.433   0.454   3.639 -0.2867  0.1098  1.3698
 8082SOL     OW35878   2.366   0.967   5.182 -0.4569 -0.4817 -0.1619
 8082SOL    HW135879   2.448   0.924   5.161  1.1869  1.9077  1.3062
 8082SOL    HW235880   2.397   1.055   5.206 -0.2536 -1.1748  2.1284
 8083SOL     OW35881   3.937   2.051   7.852 -0.3433  0.0580 -0.0519
 8083SOL    HW135882   4.005   1.983   7.852 -1.1296 -0.7394 -2.0313
 8083SOL    HW235883   3.896   2.053   7.938  0.9741 -0.7612  0.5907
 8084SOL     OW35884   1.983   0.691   1.829 -0.3151  0.0380 -0.3159
 8084SOL    HW135885   2.013   0.675   1.740  1.3201  0.4793  0.1518
 8084SOL    HW235886   1.989   0.784   1.851  2.7684  0.3395 -2.4562
 8085SOL     OW35887   1.261   4.085   4.963  0.1717 -0.1880  0.7810
 8085SOL    HW135888   1.290   4.009   4.914  1.6586 -0.1756  1.6384
 8085SOL    HW235889   1.184   4.111   4.913  0.1496 -0.4106  0.7004
 8086SOL     OW35890   0.530   0.392  10.308 -0.2090 -0.3640 -0.0189
 8086SOL    HW135891   0.549   0.300  10.288 -1.8691 -0.6987 -0.0659
 8086SOL    HW235892   0.547   0.390  10.402 -3.4808 -0.0254  0.5847
 8087SOL     OW35893   3.680   4.703   7.650 -0.1152  0.3239  0.2173
 8087SOL    HW135894   3.607   4.674   7.705  1.7746 -0.1195  2.4926
 8087SOL    HW235895   3.703   0.046   7.688 -3.1304  1.4031 -0.4320
 8088SOL     OW35896   1.956   3.247  10.009  0.0060  0.1875 -0.0892
 8088SOL    HW135897   2.025   3.190  10.041  0.8787 -0.3774 -2.9079
 8088SOL    HW235898   1.916   3.225   9.924 -2.2883 -1.5203  1.4238
 8089SOL     OW35899   2.338   3.013   9.799 -0.4640  0.7650  0.2770
 8089SOL    HW135900   2.343   2.928   9.755 -4.5480  0.2241  0.8354
 8089SOL    HW235901   2.388   2.993   9.878 -2.2050 -0.5771  1.0502
 8090SOL     OW35902   2.342   2.112   7.606 -0.3743 -0.1829 -0.8381
 8090SOL    HW135903   2.385   2.175   7.548 -1.1158  1.5374  0.4756
 8090SOL    HW235904   2.274   2.165   7.648 -1.7637 -1.0404 -2.0215
 8091SOL     OW35905   0.766   2.747   4.143  0.1330 -0.8995 -0.4676
 8091SOL    HW135906   0.829   2.708   4.204  1.1085 -0.8230 -1.4327
 8091SOL    HW235907   0.814   2.820   4.105 -1.7612  0.7466  0.3379
 8092SOL     OW35908   4.430   4.108   3.010  0.3111 -0.2783 -0.5677
 8092SOL    HW135909   4.417   4.195   2.972  2.1581  1.0645  1.8425
 8092SOL    HW235910   4.374   4.053   2.955 -1.1118  2.5047 -1.9398
 8093SOL     OW35911   2.234   4.134   5.137  0.7311  0.2863 -0.5406
 8093SOL    HW135912   2.311   4.088   5.105  0.3706 -0.9845  0.4574
 8093SOL    HW235913   2.160   4.099   5.087  0.9531  1.7463 -1.8893
 8094SOL     OW35914   1.000   2.371   4.356  0.2182 -0.4566 -0.4494
 8094SOL    HW135915   1.007   2.411   4.443 -2.2580 -1.6509  0.3119
 8094SOL    HW235916   1.043   2.289   4.379  1.1225  0.0864 -0.2026
 8095SOL     OW35917   1.709   0.787   2.978  0.2641 -0.1781  0.2519
 8095SOL    HW135918   1.654   0.714   2.952  3.3984 -1.6402 -2.2209
 8095SOL    HW235919   1.795   0.753   3.000 -0.4996 -3.3616 -1.6926
 8096SOL     OW35920   0.603   3.699   8.900 -0.2634 -0.0921  0.2517
 8096SOL    HW135921   0.507   3.704   8.907 -0.3363 -0.4029 -0.5561
 8096SOL    HW235922   0.629   3.670   8.987 -0.5506 -2.3419 -0.4333
 8097SOL     OW35923   0.418   3.093   6.774  0.3444  0.4286  0.4559
 8097SOL    HW135924   0.501   3.124   6.810  0.8175 -2.0521  1.4550
 8097SOL    HW235925   0.359   3.138   6.835  1.2090  2.1443  0.0203
 8098SOL     OW35926   1.652   0.028   4.140  0.4939  0.6224 -0.1706
 8098SOL    HW135927   1.698   0.105   4.107  1.0285  0.9549  1.3691
 8098SOL    HW235928   1.695   0.005   4.222  0.6422 -1.8842 -0.9382
 8099SOL     OW35929   2.812   2.839   0.108 -0.3685 -0.0511 -0.3662
 8099SOL    HW135930   2.732   2.891   0.106 -1.7588 -2.3968 -3.8905
 8099SOL    HW235931   2.779   2.762   0.062  1.3776 -0.2294 -1.3275
 8100SOL     OW35932   2.975   1.292  13.373 -0.0324 -0.2234 -0.0817
 8100SOL    HW135933   3.014   1.351  13.438  1.5297 -0.3913 -0.8933
 8100SOL    HW235934   2.900   1.252  13.419  0.9905 -0.1811  1.6209
 8101SOL     OW35935   2.761   4.523   1.581  0.8432  0.0394  1.0318
 8101SOL    HW135936   2.714   4.596   1.542 -0.0961  0.4855  3.0163
 8101SOL    HW235937   2.847   4.535   1.541  0.6159  3.0668  1.4832
 8102SOL     OW35938   1.676   4.346  17.498 -0.0346 -0.2104 -0.1854
 8102SOL    HW135939   1.757   4.301  17.474  0.4660  0.4963  0.1762
 8102SOL    HW235940   1.654   4.379  17.411 -0.1836  0.1599 -0.0039
 8103SOL     OW35941   4.180   1.424   4.975 -0.3367  0.8257 -0.5217
 8103SOL    HW135942   4.242   1.469   5.033  2.4553 -1.1098 -2.0399
 8103SOL    HW235943   4.235   1.407   4.899  0.0735 -0.7661  0.1243
 8104SOL     OW35944   1.342   2.630  13.278 -0.1192 -0.0160  0.2943
 8104SOL    HW135945   1.365   2.666  13.193 -0.7339 -0.3892 -0.0274
 8104SOL    HW235946   1.431   2.608  13.306  0.2203 -1.5790 -2.0286
 8105SOL     OW35947   3.191   1.990   7.985  0.1837 -0.6530 -0.0258
 8105SOL    HW135948   3.157   2.004   8.074  2.0374 -0.2736  0.6233
 8105SOL    HW235949   3.123   1.933   7.948  0.1354 -0.7782  0.2547
 8106SOL     OW35950   3.470   0.816   0.211  0.4786 -0.1567 -0.1198
 8106SOL    HW135951   3.524   0.758   0.157 -0.2555  0.3371 -1.3737
 8106SOL    HW235952   3.386   0.802   0.166 -0.2959 -1.0842  1.6165
 8107SOL     OW35953   2.699   2.991   3.746 -0.0577 -0.3672  0.1889
 8107SOL    HW135954   2.687   2.945   3.662 -1.7791  0.4941 -0.0444
 8107SOL    HW235955   2.744   2.918   3.789  1.4263  0.5849  0.2299
 8108SOL     OW35956   4.293   2.941  10.893  0.2773 -0.0324 -0.5480
 8108SOL    HW135957   4.344   3.022  10.903  1.0579 -0.5287 -0.5143
 8108SOL    HW235958   4.212   2.964  10.938 -0.5753 -0.0015 -2.0866
 8109SOL     OW35959   2.940   3.274   5.384  0.4936 -0.2924  0.1457
 8109SOL    HW135960   2.939   3.247   5.475 -2.1142 -0.8035 -0.0387
 8109SOL    HW235961   2.936   3.370   5.388 -0.7294 -0.2807 -1.1198
 8110SOL     OW35962   0.022   2.956   7.398 -0.1611 -0.4039 -0.2991
 8110SOL    HW135963   4.728   2.869   7.418  0.1853 -0.1615  1.2976
 8110SOL    HW235964   0.065   2.939   7.314 -1.0153 -0.0272 -0.8103
 8111SOL     OW35965   0.378   4.486   9.065 -0.0875  0.1343  0.0109
 8111SOL    HW135966   0.386   4.515   8.974 -1.0526  2.2740  0.6150
 8111SOL    HW235967   0.288   4.513   9.081  0.0275  0.4050  0.2070
 8112SOL     OW35968   3.093   4.528   2.590  0.1353 -0.3343 -0.1328
 8112SOL    HW135969   3.135   4.591   2.649  2.3023 -2.4099  0.5594
 8112SOL    HW235970   3.169   4.525   2.532  1.9402 -2.6813  2.3573
 8113SOL     OW35971   0.152   2.614  15.431  0.1511 -0.0908 -0.2409
 8113SOL    HW135972   0.241   2.579  15.438  0.2095  0.0029 -0.5549
 8113SOL    HW235973   0.175   2.685  15.371  1.7830 -1.0597 -0.7603
 8114SOL     OW35974   4.640   1.421   3.001 -0.3087 -0.1863  0.3402
 8114SOL    HW135975   4.583   1.476   3.055 -0.9575 -0.6099  0.0813
 8114SOL    HW235976   4.653   1.348   3.062 -2.3562 -0.9672 -0.1457
 8115SOL     OW35977   1.168   4.674  14.984 -0.3022  0.4473  0.1080
 8115SOL    HW135978   1.113   4.595  14.983  0.1642  0.1140  0.5646
 8115SOL    HW235979   1.251   4.633  14.959  1.0853  2.3877  1.5666
 8116SOL     OW35980   1.654   0.349   0.380 -0.4154 -0.7665 -0.0015
 8116SOL    HW135981   1.718   0.325   0.312 -1.0683  0.3492 -1.0218
 8116SOL    HW235982   1.668   0.273   0.436 -2.7892  0.1902  1.8766
 8117SOL     OW35983   0.577   1.379  12.019 -0.5495 -0.3592 -0.0370
 8117SOL    HW135984   0.523   1.355  11.944 -0.1134 -3.2194  0.5716
 8117SOL    HW235985   0.555   1.308  12.079 -0.7167 -0.2418  0.0371
 8118SOL     OW35986   0.272   1.397  15.535 -0.6100 -0.0115  0.5251
 8118SOL    HW135987   0.294   1.455  15.608 -0.0616 -0.0516  0.3927
 8118SOL    HW235988   0.221   1.332  15.584 -0.8357 -1.6282 -1.8312
 8119SOL     OW35989   0.928   2.297   7.913  0.1563  0.3220 -0.3666
 8119SOL    HW135990   0.847   2.343   7.935 -1.0888 -0.5362 -3.1477
 8119SOL    HW235991   0.909   2.214   7.957 -1.9356  0.9174 -0.1259
 8120SOL     OW35992   2.627   2.639   8.044 -0.0905 -0.3310 -0.4171
 8120SOL    HW135993   2.666   2.693   7.976  0.7747  0.8589  1.0198
 8120SOL    HW235994   2.540   2.621   8.009  0.6071  0.2684 -2.4508
 8121SOL     OW35995   0.215   2.372  13.622  0.4173 -0.7951 -0.2720
 8121SOL    HW135996   0.206   2.398  13.714  1.5719 -2.1537  0.2122
 8121SOL    HW235997   0.125   2.342  13.605 -0.4399  0.6856  1.6195
 8122SOL     OW35998   2.505   0.458   7.858 -0.8367  0.1858  0.2407
 8122SOL    HW135999   2.417   0.472   7.824 -0.0088  0.4186 -1.7686
 8122SOL    HW236000   2.544   0.542   7.832 -2.4613  1.0510  0.6061
 8123SOL     OW36001   3.531   1.186   4.937  0.2637  0.8615  0.2649
 8123SOL    HW136002   3.452   1.218   4.981 -0.5715 -3.5365  1.9250
 8123SOL    HW236003   3.585   1.264   4.946  1.8810 -0.4816  2.2001
 8124SOL     OW36004   1.117   3.908   3.068 -0.2803  0.5053  0.0971
 8124SOL    HW136005   1.075   3.962   3.135  1.4502 -2.8305  3.8316
 8124SOL    HW236006   1.137   3.835   3.127  0.0000  1.0203  0.6385
 8125SOL     OW36007   0.184   3.099   4.903  0.4101 -0.3451  0.1440
 8125SOL    HW136008   0.207   3.043   4.829 -0.0015 -0.9720  0.4860
 8125SOL    HW236009   0.221   3.179   4.867 -1.7177  0.1652 -0.8582
 8126SOL     OW36010   4.609   1.628  14.483 -0.5041 -0.3052  0.3517
 8126SOL    HW136011   4.533   1.637  14.426 -0.0825  0.6151 -0.0661
 8126SOL    HW236012   4.650   1.545  14.456 -0.5752 -0.0715 -0.4796
 8127SOL     OW36013   1.591   0.847   3.850  0.0983  0.4165 -0.2795
 8127SOL    HW136014   1.569   0.796   3.772  3.1267 -0.9055 -0.2537
 8127SOL    HW236015   1.543   0.926   3.826 -0.9666 -0.1570 -0.0364
 8128SOL     OW36016   3.596   4.175  16.007 -0.7898 -0.9733  0.0463
 8128SOL    HW136017   3.640   4.259  15.993 -0.3926 -1.0038  1.1099
 8128SOL    HW236018   3.515   4.200  15.964 -1.4809  0.4801  2.2062
 8129SOL     OW36019   3.578   1.938   8.834  0.4309 -0.4303  0.2248
 8129SOL    HW136020   3.573   1.896   8.920 -0.6714 -0.8175 -0.0157
 8129SOL    HW236021   3.515   1.885   8.784  0.6670  2.1000 -2.7501
 8130SOL     OW36022   2.608   2.177   3.661  0.0805  0.3455 -0.0475
 8130SOL    HW136023   2.671   2.158   3.591 -0.7811  1.0878 -1.0170
 8130SOL    HW236024   2.613   2.272   3.652  0.6598  0.2748 -0.5209
 8131SOL     OW36025   2.670   3.509   6.633  0.1125  0.9969 -0.2008
 8131SOL    HW136026   2.575   3.501   6.643  0.3828 -1.6178  0.3550
 8131SOL    HW236027   2.697   3.478   6.720  2.0222 -0.7797 -1.4229
 8132SOL     OW36028   2.535   2.023   4.447 -0.0956 -0.1033  0.1584
 8132SOL    HW136029   2.474   1.955   4.476 -0.0427  0.5737  1.8758
 8132SOL    HW236030   2.578   1.970   4.380  2.4514 -1.0918  2.5907
 8133SOL     OW36031   2.611   3.959  13.113 -0.0001  0.3780  0.1535
 8133SOL    HW136032   2.574   3.875  13.085 -1.0891  1.1297 -0.6450
 8133SOL    HW236033   2.553   4.026  13.077  0.2806 -0.4932 -1.8947
 8134SOL     OW36034   2.257   1.275   5.873 -0.7833 -0.0496  0.4663
 8134SOL    HW136035   2.296   1.302   5.955 -0.1687  0.4602  0.0076
 8134SOL    HW236036   2.247   1.180   5.885 -0.0586  0.0389  1.6897
 8135SOL     OW36037   4.235   1.012   5.858  0.0773 -0.1499 -0.7714
 8135SOL    HW136038   4.209   0.923   5.834  1.1842 -1.0724  1.4641
 8135SOL    HW236039   4.184   1.012   5.939  2.5282  0.0640  0.7760
 8136SOL     OW36040   1.360   4.054   9.221 -0.4397 -0.3381  0.5865
 8136SOL    HW136041   1.356   3.965   9.254 -1.4493  0.0245  1.4629
 8136SOL    HW236042   1.282   4.094   9.261 -1.2114 -1.9246  0.6763
 8137SOL     OW36043   0.679   1.296   2.583  0.2710 -0.1417  0.0791
 8137SOL    HW136044   0.756   1.300   2.640  0.7271 -0.5783 -0.5140
 8137SOL    HW236045   0.719   1.275   2.499 -0.1595  0.1723 -0.2081
 8138SOL     OW36046   1.709   1.757  16.261 -0.3412 -0.2084 -0.5249
 8138SOL    HW136047   1.709   1.704  16.341  1.7103  0.7623  0.1109
 8138SOL    HW236048   1.774   1.702  16.217  1.8941  0.9779  1.3503
 8139SOL     OW36049   3.590   4.222   2.461 -0.5805  0.3199 -0.0352
 8139SOL    HW136050   3.617   4.155   2.398  1.7216  0.4847  0.7804
 8139SOL    HW236051   3.588   4.296   2.401  0.5230  0.3585 -0.0269
 8140SOL     OW36052   1.062   0.376   3.239 -0.5270 -0.3774  0.3314
 8140SOL    HW136053   1.058   0.471   3.231 -2.8861 -0.4003  1.2383
 8140SOL    HW236054   1.143   0.369   3.290 -1.8611 -0.9233  2.3892
 8141SOL     OW36055   2.765   1.335  14.467  0.1808 -0.3946 -0.1655
 8141SOL    HW136056   2.675   1.302  14.460  0.2559 -0.5682 -0.3021
 8141SOL    HW236057   2.791   1.338  14.375 -1.2074  0.5896 -0.5242
 8142SOL     OW36058   1.632   3.907   2.375 -0.1431 -0.2389  0.2883
 8142SOL    HW136059   1.603   3.998   2.376  0.2071 -0.1183 -0.4703
 8142SOL    HW236060   1.547   3.864   2.370  0.2386 -1.0487  0.7453
 8143SOL     OW36061   0.236   0.851   3.099 -0.6599  0.4046 -0.7900
 8143SOL    HW136062   0.316   0.883   3.142 -0.0885  1.3824 -2.6099
 8143SOL    HW236063   0.278   0.789   3.040 -0.1153 -1.1346  1.1903
 8144SOL     OW36064   1.918   0.062   8.833 -0.1920  0.1289  0.2161
 8144SOL    HW136065   1.972   0.116   8.891  0.5302 -0.5443  0.1619
 8144SOL    HW236066   1.861   0.027   8.901 -2.3947  2.6669 -0.3108
 8145SOL     OW36067   2.091   1.431  15.900 -0.0945 -0.0078  0.0313
 8145SOL    HW136068   2.108   1.337  15.904  0.3027 -0.0007 -1.6935
 8145SOL    HW236069   2.153   1.468  15.838  1.5037  2.2236  3.0037
 8146SOL     OW36070   4.328   3.962  13.441 -0.0766 -0.5154  0.6447
 8146SOL    HW136071   4.407   3.908  13.443  0.4772  0.1945 -1.6257
 8146SOL    HW236072   4.263   3.899  13.474 -0.7495  0.3111  0.8933
 8147SOL     OW36073   0.470   0.839   4.462  0.6444 -0.3177 -0.0474
 8147SOL    HW136074   0.405   0.892   4.507 -0.6102 -2.9252  1.2392
 8147SOL    HW236075   0.479   0.765   4.523 -2.2218 -0.5811  0.0176
 8148SOL     OW36076   4.037   2.368   1.791  0.1961  0.2549  0.6969
 8148SOL    HW136077   3.942   2.354   1.794  0.3428 -1.0935 -0.9431
 8148SOL    HW236078   4.056   2.313   1.715 -1.6839  0.1890  0.2794
 8149SOL     OW36079   4.309   2.521   0.041 -0.0088 -0.2160  0.0858
 8149SOL    HW136080   4.365   2.544   0.116 -1.0173  1.7318  0.2505
 8149SOL    HW236081   4.314   2.590  17.738  0.2944  2.9033  3.3149
 8150SOL     OW36082   1.941   3.408   6.330 -0.4748  0.1587  0.3971
 8150SOL    HW136083   1.951   3.323   6.372 -1.9202 -0.4738 -0.5464
 8150SOL    HW236084   1.920   3.390   6.239  1.1373 -1.2935  0.3018
 8151SOL     OW36085   3.714   3.616   2.578  0.5451 -0.1244 -0.6522
 8151SOL    HW136086   3.699   3.584   2.489  1.4788 -0.6590 -0.6116
 8151SOL    HW236087   3.699   3.541   2.636  1.1765  2.1427  2.4251
 8152SOL     OW36088   2.288   0.825  10.919  0.4455  0.0399 -1.0190
 8152SOL    HW136089   2.381   0.808  10.903  0.8133  1.3247 -0.2238
 8152SOL    HW236090   2.287   0.910  10.962 -0.0136  1.1626 -3.2836
 8153SOL     OW36091   3.294   0.518   5.519  0.5312  0.1279 -0.5681
 8153SOL    HW136092   3.256   0.603   5.496  1.4943  0.7801  0.2633
 8153SOL    HW236093   3.360   0.561   5.573  0.8774 -1.4894  0.2833
 8154SOL     OW36094   0.360   0.758   9.144 -0.3447 -0.1911  0.0142
 8154SOL    HW136095   0.381   0.792   9.231  2.0724 -1.3274 -0.1144
 8154SOL    HW236096   0.326   0.831   9.093  2.1629  1.7885  1.1894
 8155SOL     OW36097   0.229   3.560   2.185 -0.2348  0.1445 -0.1020
 8155SOL    HW136098   0.276   3.555   2.101 -0.4347  2.4950 -0.3742
 8155SOL    HW236099   0.204   3.468   2.189  2.2016 -0.4914  0.6545
 8156SOL     OW36100   2.599   4.317   2.783 -0.3511 -0.1268  0.3353
 8156SOL    HW136101   2.653   4.394   2.769 -1.2475  0.4958  0.2925
 8156SOL    HW236102   2.613   4.279   2.697 -0.3949 -1.5316  0.9517
 8157SOL     OW36103   4.172   4.198   7.603 -0.5358 -0.4882 -0.0808
 8157SOL    HW136104   4.211   4.173   7.519 -0.0001 -2.1107  0.6593
 8157SOL    HW236105   4.154   4.291   7.589  1.9519  0.0950  0.6278
 8158SOL     OW36106   3.962   0.605   8.215  0.3399  0.2580 -0.3044
 8158SOL    HW136107   4.024   0.678   8.209 -1.5248  1.8090 -0.7662
 8158SOL    HW236108   3.898   0.633   8.149 -1.2677 -1.7935  0.3965
 8159SOL     OW36109   3.322   2.997   3.091 -0.4867 -0.1777  0.2022
 8159SOL    HW136110   3.416   2.990   3.076 -0.3848 -1.5992  1.4560
 8159SOL    HW236111   3.298   2.905   3.098 -1.0963 -0.0938 -0.8450
 8160SOL     OW36112   2.047   4.468   6.598 -0.0291 -0.0872 -0.6315
 8160SOL    HW136113   2.095   4.408   6.656 -2.2076  0.9512  2.2718
 8160SOL    HW236114   1.955   4.460   6.624  0.1527 -0.4933 -0.1038
 8161SOL     OW36115   1.532   3.228   7.920  0.3627 -0.8252  0.0892
 8161SOL    HW136116   1.613   3.178   7.908  0.0557 -0.8632 -1.7483
 8161SOL    HW236117   1.571   3.307   7.958 -0.6007 -0.6832  0.7803
 8162SOL     OW36118   0.561   1.123   4.402 -0.2384 -0.3916 -0.2847
 8162SOL    HW136119   0.536   1.036   4.433 -0.8040 -1.0079 -2.4747
 8162SOL    HW236120   0.478   1.171   4.392 -1.4446 -2.2667  0.7867
 8163SOL     OW36121   3.924   0.706   0.029  0.4109 -0.3023  0.4419
 8163SOL    HW136122   4.003   0.668   0.066  0.4393 -0.1451  0.5415
 8163SOL    HW236123   3.939   0.693  17.699 -2.3957 -1.8438  0.1949
 8164SOL     OW36124   2.552   1.108   6.977 -0.8289  0.5346  0.0666
 8164SOL    HW136125   2.560   1.116   7.072 -0.0314  1.0800 -0.0416
 8164SOL    HW236126   2.501   1.187   6.958 -1.6078 -0.0160 -0.1263
 8165SOL     OW36127   4.541   2.124   7.995 -0.1645  0.7202  0.1143
 8165SOL    HW136128   4.477   2.056   8.015  1.4424 -0.5630  0.9695
 8165SOL    HW236129   4.491   2.198   7.960  0.6195  1.8031  1.2445
 8166SOL     OW36130   2.215   1.917   4.644  0.0417 -0.0109 -0.2527
 8166SOL    HW136131   2.158   1.971   4.699  1.8506 -0.9370  2.5641
 8166SOL    HW236132   2.245   1.842   4.696 -0.6507  0.2224  0.4836
 8167SOL     OW36133   0.523   3.837   3.822  0.0176 -0.1627  0.0804
 8167SOL    HW136134   0.472   3.915   3.801  0.4060 -0.3598 -1.5651
 8167SOL    HW236135   0.524   3.798   3.735  0.2225  0.7022 -0.2982
 8168SOL     OW36136   3.785   3.148   7.994 -0.0488  0.0808 -0.1764
 8168SOL    HW136137   3.830   3.072   8.032 -0.4716  0.4952  1.1403
 8168SOL    HW236138   3.835   3.227   8.016  2.7218 -1.2206 -1.7655
 8169SOL     OW36139   0.759   1.676   9.090 -0.1721  0.0122  0.0031
 8169SOL    HW136140   0.762   1.589   9.131 -1.9633  0.6189  1.3983
 8169SOL    HW236141   0.805   1.726   9.158  1.5836 -1.0530 -0.3801
 8170SOL     OW36142   3.429   4.236   1.375 -0.2962  0.1018 -0.1061
 8170SOL    HW136143   3.427   4.220   1.469  2.1954 -2.5671 -0.5107
 8170SOL    HW236144   3.384   4.321   1.374  0.9914  0.7796  0.3068
 8171SOL     OW36145   0.772   1.854   9.970 -0.7392  0.2362  0.8143
 8171SOL    HW136146   0.743   1.878  10.058  0.9273  1.8324  0.9183
 8171SOL    HW236147   0.686   1.836   9.932 -1.2278 -2.9850  3.3730
 8172SOL     OW36148   1.943   4.572   0.925 -0.0772 -0.0353 -0.6039
 8172SOL    HW136149   1.963   4.485   0.888  2.0640  0.0115  0.4835
 8172SOL    HW236150   1.854   4.553   0.954  0.3165  1.8511  1.8124
 8173SOL     OW36151   1.575   2.465   9.787 -0.0182 -0.0462 -0.2709
 8173SOL    HW136152   1.492   2.512   9.779  0.0390 -0.0403 -0.8217
 8173SOL    HW236153   1.549   2.389   9.840 -1.8998  0.0885 -0.9864
 8174SOL     OW36154   1.172   2.579   7.793 -0.1247  0.2665 -0.1922
 8174SOL    HW136155   1.254   2.544   7.828 -1.3279 -2.4343 -0.0488
 8174SOL    HW236156   1.196   2.629   7.716 -0.8218 -0.1591 -0.6901
 8175SOL     OW36157   4.576   2.110  15.433 -0.3665  0.4610  0.5787
 8175SOL    HW136158   4.599   2.203  15.438 -3.7448  1.2201  2.0335
 8175SOL    HW236159   4.495   2.104  15.483 -0.7244  0.1321 -0.0432
 8176SOL     OW36160   2.015   3.748   5.158 -1.1239  0.8019  0.9460
 8176SOL    HW136161   1.984   3.767   5.069  0.6586 -0.4026  0.0796
 8176SOL    HW236162   1.929   3.737   5.199 -1.6130  2.0692  0.2833
 8177SOL     OW36163   2.444   2.229   3.971  0.0490  0.1390 -0.2468
 8177SOL    HW136164   2.428   2.164   3.902  0.3116 -0.2739  0.0794
 8177SOL    HW236165   2.428   2.181   4.053 -0.4241  1.3744  0.3770
 8178SOL     OW36166   2.985   2.877  13.977 -0.3356  0.2389 -0.2830
 8178SOL    HW136167   2.941   2.945  13.927 -0.5866 -0.8980 -1.5903
 8178SOL    HW236168   2.978   2.906  14.068  1.2662  2.3524 -0.8131
 8179SOL     OW36169   2.561   2.167   8.554  0.3581  0.4461 -0.9376
 8179SOL    HW136170   2.655   2.152   8.568 -0.3013  0.0204  3.0748
 8179SOL    HW236171   2.548   2.132   8.466  1.0860 -0.1839 -0.7942
 8180SOL     OW36172   0.315   1.205   3.398  0.2130 -0.5398 -0.0341
 8180SOL    HW136173   0.314   1.159   3.482 -0.5215 -2.5340 -1.1417
 8180SOL    HW236174   0.397   1.255   3.400  0.7016 -1.3000 -1.0609
 8181SOL     OW36175   0.845   0.102   6.017 -0.0086 -0.4844 -0.1704
 8181SOL    HW136176   0.820   0.069   5.931  1.6567 -1.8525 -0.1402
 8181SOL    HW236177   0.777   0.068   6.075 -0.2300 -0.0622 -0.1878
 8182SOL     OW36178   1.276   3.376   3.357 -0.3383  0.0833 -0.3314
 8182SOL    HW136179   1.290   3.298   3.304 -1.0902  0.0242 -0.4507
 8182SOL    HW236180   1.354   3.423   3.330 -2.4823  3.3087 -0.9214
 8183SOL     OW36181   1.500   3.712   9.956 -0.0102  0.1441  0.2638
 8183SOL    HW136182   1.565   3.653   9.916  0.9833 -0.2641  2.4822
 8183SOL    HW236183   1.559   3.745  10.024  2.5207 -3.3337 -0.2119
 8184SOL     OW36184   1.524   4.046   6.936 -0.2235  0.0538 -0.1140
 8184SOL    HW136185   1.590   4.110   6.965  0.7047 -0.7003 -0.5438
 8184SOL    HW236186   1.525   4.053   6.841 -0.5399 -2.7561 -0.3401
 8185SOL     OW36187   4.731   2.872  13.449  0.5338 -0.4287 -1.0796
 8185SOL    HW136188   4.656   2.812  13.449  0.5726 -0.4814 -1.5170
 8185SOL    HW236189   4.687   2.957  13.441 -2.5007 -1.8953  0.4182
 8186SOL     OW36190   1.470   3.360  15.014 -0.2996  0.2546  0.2464
 8186SOL    HW136191   1.476   3.309  14.934 -1.4759  0.6803 -0.1170
 8186SOL    HW236192   1.523   3.435  14.988 -0.8604  1.5126  2.7477
 8187SOL     OW36193   3.710   3.361   3.663 -0.0691  0.0549  0.0574
 8187SOL    HW136194   3.622   3.345   3.629  0.2559  1.4158 -1.3742
 8187SOL    HW236195   3.711   3.342   3.757  1.6235 -1.0375 -0.1907
 8188SOL     OW36196   0.673   2.427  14.345 -0.6102  0.1183  0.0922
 8188SOL    HW136197   0.662   2.364  14.273 -0.7534 -2.1974  2.1635
 8188SOL    HW236198   0.589   2.472  14.333 -1.8925 -1.8861  1.5709
 8189SOL     OW36199   0.152   4.529   4.920  0.1331  0.1456 -0.1009
 8189SOL    HW136200   0.062   4.506   4.941 -0.4779  1.7944 -0.9533
 8189SOL    HW236201   0.137   4.586   4.845 -0.7601 -0.1567 -0.1531
 8190SOL     OW36202   4.483   3.994   8.671 -0.0587  0.1020  0.4849
 8190SOL    HW136203   4.552   3.932   8.647 -0.3108 -1.0796  2.8542
 8190SOL    HW236204   4.476   3.992   8.766 -0.0161  0.2638  0.4915
 8191SOL     OW36205   2.524   4.160   5.619  0.2414  0.2085 -0.0126
 8191SOL    HW136206   2.594   4.170   5.555  0.1850 -2.4805 -0.4898
 8191SOL    HW236207   2.512   4.066   5.611 -1.8419  0.6434 -1.8652
 8192SOL     OW36208   3.594   2.294   2.532 -0.3275  0.2408 -0.4980
 8192SOL    HW136209   3.626   2.205   2.540  2.6336  1.2674 -0.8512
 8192SOL    HW236210   3.669   2.322   2.480 -0.1129 -1.1655 -0.9379
 8193SOL     OW36211   3.951   3.940   5.744  0.0354  0.4801 -0.2170
 8193SOL    HW136212   3.894   3.865   5.731  1.4633 -0.8615  1.2562
 8193SOL    HW236213   4.038   3.905   5.763 -0.1839 -0.3410 -0.7169
 8194SOL     OW36214   1.717   2.529   8.833  0.2191  0.0633  0.3574
 8194SOL    HW136215   1.724   2.621   8.809  0.6595  0.1196  0.7043
 8194SOL    HW236216   1.672   2.537   8.917  0.5378  2.0951  0.3337
 8195SOL     OW36217   1.018   3.832   5.039  0.1787  0.1705 -0.8351
 8195SOL    HW136218   1.028   3.889   4.963 -0.6190  1.3175 -0.0880
 8195SOL    HW236219   1.074   3.870   5.107 -1.2825 -1.3175  1.2144
 8196SOL     OW36220   2.372   4.195   5.348  0.6535  0.2209  1.1241
 8196SOL    HW136221   2.333   4.136   5.283  1.1208 -1.5863  2.4934
 8196SOL    HW236222   2.295   4.235   5.388  0.7439  0.4710  1.0474
 8197SOL     OW36223   1.713   0.366   3.610  0.1868  0.2253 -0.1536
 8197SOL    HW136224   1.722   0.273   3.589 -0.9402  0.1359 -0.2812
 8197SOL    HW236225   1.797   0.380   3.654  0.1414 -0.2765  0.1001
 8198SOL     OW36226   1.314   4.693   2.313 -0.0665  0.2926 -0.2801
 8198SOL    HW136227   1.258   0.012   2.265 -0.2561 -0.8834 -1.5446
 8198SOL    HW236228   1.271   4.684   2.398  1.4226  1.1700  0.5701
 8199SOL     OW36229   1.645   2.559   1.809 -0.2353 -0.3230 -0.1859
 8199SOL    HW136230   1.691   2.544   1.891  0.7329  1.3105 -0.4506
 8199SOL    HW236231   1.724   2.548   1.756  0.8439 -2.5969  1.9193
 8200SOL     OW36232   0.275   1.352   3.758 -0.9940 -0.1384  0.0508
 8200SOL    HW136233   0.346   1.382   3.815 -1.2716 -0.7883  0.7400
 8200SOL    HW236234   0.211   1.417   3.787 -0.8994 -0.1848  0.3708
 8201SOL     OW36235   3.860   3.370  13.779  0.1379 -0.8478  0.4563
 8201SOL    HW136236   3.859   3.294  13.720  1.7754  1.2814 -2.3307
 8201SOL    HW236237   3.923   3.341  13.845  0.9958 -0.9655 -0.4092
 8202SOL     OW36238   0.867   1.262   3.666  0.1528 -0.0110  0.0676
 8202SOL    HW136239   0.813   1.269   3.588  1.3295  0.5677 -0.7041
 8202SOL    HW236240   0.803   1.285   3.733  0.0866 -0.5881  0.2050
 8203SOL     OW36241   3.375   3.509   3.673  0.2035 -0.2654 -0.1118
 8203SOL    HW136242   3.283   3.490   3.654  0.1607 -0.8218  0.6436
 8203SOL    HW236243   3.418   3.442   3.621 -0.6342 -2.1464  1.6398
 8204SOL     OW36244   3.210   3.039   6.038  0.3441  0.0243  0.2278
 8204SOL    HW136245   3.151   3.055   6.112 -0.1922  0.4989 -0.2951
 8204SOL    HW236246   3.290   3.083   6.068  0.3179  2.1490 -2.7189
 8205SOL     OW36247   2.658   2.685  14.683 -0.1306  0.3165  0.5634
 8205SOL    HW136248   2.662   2.777  14.657 -0.9897  0.5919  1.4169
 8205SOL    HW236249   2.672   2.685  14.778 -0.6212  1.0558  0.6407
 8206SOL     OW36250   1.294   2.595   6.955  0.0101  0.0612 -0.0726
 8206SOL    HW136251   1.352   2.610   6.881  1.4500  0.6689  1.1757
 8206SOL    HW236252   1.223   2.538   6.926  1.1982 -0.1812 -2.5301
 8207SOL     OW36253   3.082   4.159   6.398 -0.3882  0.0148  0.6437
 8207SOL    HW136254   3.167   4.153   6.354 -0.4579 -1.4130  0.6804
 8207SOL    HW236255   3.059   4.077   6.443 -1.0730 -1.1821 -1.8728
 8208SOL     OW36256   4.669   1.458   5.803  0.3132 -0.2308  0.3397
 8208SOL    HW136257   0.006   1.431   5.755 -0.0902 -1.3551  0.2977
 8208SOL    HW236258   4.672   1.552   5.785 -0.8653 -0.5526 -1.5054
 8209SOL     OW36259   0.822   0.168  10.270 -0.2168 -0.1747 -0.1782
 8209SOL    HW136260   0.727   0.179  10.257 -0.3626  2.0011  2.6458
 8209SOL    HW236261   0.828   0.165  10.366 -2.2801  1.1513  0.0018
 8210SOL     OW36262   4.290   2.992   0.905 -0.1254  0.1127 -0.3712
 8210SOL    HW136263   4.260   3.081   0.888  0.6923  0.4999  0.2447
 8210SOL    HW236264   4.324   2.962   0.821  1.8445  0.7033  0.2347
 8211SOL     OW36265   2.033   2.805   4.074  0.4012 -0.2508  0.1382
 8211SOL    HW136266   1.954   2.857   4.089  1.4844  1.7759 -1.0868
 8211SOL    HW236267   2.066   2.856   4.000  1.0876  0.7080  1.1055
 8212SOL     OW36268   3.609   3.738   8.840  0.1363 -0.1638  0.3624
 8212SOL    HW136269   3.562   3.657   8.822  1.2816 -0.3899 -1.5479
 8212SOL    HW236270   3.546   3.797   8.799 -0.9048 -1.8829 -0.5050
 8213SOL     OW36271   2.160   0.530   9.698  0.1666  0.1820 -0.0360
 8213SOL    HW136272   2.158   0.486   9.613 -0.0600  1.2042 -0.5647
 8213SOL    HW236273   2.255   0.538   9.704  0.1469 -0.8066  1.7382
 8214SOL     OW36274   1.589   1.713   2.699 -0.4264 -0.1373  0.2677
 8214SOL    HW136275   1.493   1.718   2.706 -0.5707 -0.2291 -1.7352
 8214SOL    HW236276   1.597   1.671   2.614 -0.7113 -2.2743  1.3137
 8215SOL     OW36277   0.406   0.944   6.779  0.2838 -0.1451  0.0760
 8215SOL    HW136278   0.451   1.022   6.813 -0.5230  0.6884 -0.8044
 8215SOL    HW236279   0.348   0.921   6.852 -1.3814  1.4193 -0.7854
 8216SOL     OW36280   2.067   2.407   1.489  0.5594  0.2333 -0.0498
 8216SOL    HW136281   2.150   2.453   1.498 -0.3076  2.2716 -2.4850
 8216SOL    HW236282   2.095   2.321   1.520 -2.5671 -0.2026  1.6029
 8217SOL     OW36283   1.949   3.123   9.212  0.4278  0.0523 -0.4002
 8217SOL    HW136284   2.036   3.107   9.175 -1.0060 -2.0957 -2.8379
 8217SOL    HW236285   1.898   3.060   9.161  0.4635  1.4151 -2.1305
 8218SOL     OW36286   1.708   1.942  16.657 -0.7197 -0.6355 -0.0252
 8218SOL    HW136287   1.622   1.924  16.618  0.2044 -0.9258 -1.9208
 8218SOL    HW236288   1.670   1.976  16.738  0.3927 -1.4839  0.8385
 8219SOL     OW36289   3.137   3.931  11.055 -0.1358  0.2432  0.4274
 8219SOL    HW136290   3.044   3.927  11.031 -0.2459  1.1180  0.7019
 8219SOL    HW236291   3.149   3.973  11.140  1.9016 -0.1060  0.3250
 8220SOL     OW36292   0.390   0.107   2.059  0.5399  0.0569 -0.2713
 8220SOL    HW136293   0.459   0.080   1.998  0.3480  1.1676 -0.9713
 8220SOL    HW236294   0.346   0.176   2.009 -1.1723  0.9319  2.4321
 8221SOL     OW36295   4.633   0.491   5.452 -0.3323  0.4753 -0.4318
 8221SOL    HW136296   4.690   0.481   5.376 -0.1848 -0.5127 -0.1840
 8221SOL    HW236297   4.677   0.563   5.498  0.6122 -0.1039 -0.4091
 8222SOL     OW36298   0.556   4.321  11.665 -0.1693  0.4719  0.1728
 8222SOL    HW136299   0.512   4.257  11.722 -1.3258 -1.2747 -2.6858
 8222SOL    HW236300   0.481   4.364  11.623  0.9078  2.3046  0.1507
 8223SOL     OW36301   1.361   3.977   2.127  0.4705 -0.1428  0.1076
 8223SOL    HW136302   1.374   4.071   2.135 -1.3650  0.1971 -0.9992
 8223SOL    HW236303   1.284   3.972   2.184 -0.0302 -0.2187 -0.5745
 8224SOL     OW36304   3.414   2.329   3.572 -0.5642  0.2218  0.8774
 8224SOL    HW136305   3.454   2.411   3.602 -1.6136  1.8476 -2.1175
 8224SOL    HW236306   3.385   2.299   3.658  1.2515  2.5794  2.3217
 8225SOL     OW36307   0.207   1.980   8.970 -0.6122  0.7654 -0.3308
 8225SOL    HW136308   0.172   2.068   8.976 -2.5758 -0.0194 -0.3499
 8225SOL    HW236309   0.301   1.990   8.952 -0.7416 -0.4842 -1.7473
 8226SOL     OW36310   1.499   2.002   6.409  0.2795 -0.4404 -0.0338
 8226SOL    HW136311   1.408   2.006   6.380  0.5905  2.1794 -0.6322
 8226SOL    HW236312   1.511   2.093   6.436 -0.2975 -1.1222  2.5210
 8227SOL     OW36313   0.584   0.702  12.272 -0.0130 -0.8536 -0.2999
 8227SOL    HW136314   0.675   0.682  12.251  0.0940  0.7212 -1.3374
 8227SOL    HW236315   0.573   0.654  12.354  0.9311 -0.7303 -0.1066
 8228SOL     OW36316   2.597   4.201   8.353 -0.0490 -0.2283  1.2672
 8228SOL    HW136317   2.530   4.192   8.285  1.2637 -1.1016  0.1046
 8228SOL    HW236318   2.544   4.250   8.416  0.4622 -0.1308  1.6142
 8229SOL     OW36319   0.409   3.846   6.622  0.0382  0.1171 -0.3373
 8229SOL    HW136320   0.501   3.840   6.599 -0.4197  0.9314 -2.3424
 8229SOL    HW236321   0.399   3.783   6.693 -0.9735 -0.0335 -0.6065
 8230SOL     OW36322   1.485   0.031   8.069 -0.3821 -0.1464  0.0379
 8230SOL    HW136323   1.541   4.696   8.054  0.8525  1.5794 -3.9578
 8230SOL    HW236324   1.420   0.020   7.999  0.2306 -0.8983 -0.4116
 8231SOL     OW36325   3.379   1.403  17.750 -0.2684  0.0641  0.1705
 8231SOL    HW136326   3.319   1.410   0.061  0.7529  1.4459  0.8568
 8231SOL    HW236327   3.461   1.397   0.034 -0.2873 -1.8380 -0.0670
 8232SOL     OW36328   1.953   3.458   3.123 -0.0395  0.7156  0.1018
 8232SOL    HW136329   1.904   3.409   3.057  1.1410  0.9252 -0.9294
 8232SOL    HW236330   1.877   3.477   3.178 -0.5273  0.6667 -0.5489
 8233SOL     OW36331   0.431   4.217   6.313  0.1181  0.4028 -0.2166
 8233SOL    HW136332   0.442   4.190   6.404 -1.4716  1.6808  0.3485
 8233SOL    HW236333   0.359   4.156   6.292  0.4776  0.0355 -0.4029
 8234SOL     OW36334   2.042   4.327   7.812 -0.5676  0.5075  0.0929
 8234SOL    HW136335   2.119   4.365   7.770 -0.0609 -0.8449 -0.1936
 8234SOL    HW236336   2.050   4.234   7.791  0.6304  0.4665  0.7588
 8235SOL     OW36337   3.883   0.088  16.325  0.3362 -0.4108 -0.1569
 8235SOL    HW136338   3.855   0.107  16.415  1.2762 -1.6997  0.3978
 8235SOL    HW236339   3.796   0.093  16.285 -0.1325 -1.9587  0.6560
 8236SOL     OW36340   4.631   3.028   3.754 -0.6882  0.7315  0.0635
 8236SOL    HW136341   4.554   3.081   3.731 -0.3787 -0.5043 -3.8838
 8236SOL    HW236342   4.704   3.082   3.724 -1.8099  1.3782 -1.5068
 8237SOL     OW36343   2.885   2.183   7.827 -0.1069 -0.2360  0.3366
 8237SOL    HW136344   2.819   2.251   7.812  0.0266 -0.6254 -1.9102
 8237SOL    HW236345   2.848   2.108   7.781 -2.8779  2.4479 -1.7346
 8238SOL     OW36346   2.474   0.259   4.483 -0.4179  0.1185  0.2622
 8238SOL    HW136347   2.484   0.201   4.559 -1.2562  0.9314  0.9844
 8238SOL    HW236348   2.518   0.201   4.420 -0.0276  1.2872 -0.5276
 8239SOL     OW36349   2.898   4.282   7.998 -0.5884  0.0928  0.0949
 8239SOL    HW136350   2.857   4.322   8.075  1.2266  0.0333  1.0991
 8239SOL    HW236351   2.900   4.188   8.016 -2.8804  0.3380  1.7286
 8240SOL     OW36352   4.346   3.347   2.161  0.8864 -0.1894 -0.1565
 8240SOL    HW136353   4.381   3.353   2.072 -0.2980  0.0029 -0.6053
 8240SOL    HW236354   4.354   3.435   2.198 -1.7558 -0.2557  0.5061
 8241SOL     OW36355   2.204   1.785   6.896  0.5792  0.3041  0.1051
 8241SOL    HW136356   2.238   1.776   6.807  4.3645  0.7523  1.5076
 8241SOL    HW236357   2.265   1.841   6.945  1.0922 -0.0612 -0.1267
 8242SOL     OW36358   1.024   2.421   9.202  0.1398 -0.5442  0.2776
 8242SOL    HW136359   1.078   2.499   9.212  0.0762 -0.7026  1.8663
 8242SOL    HW236360   0.962   2.421   9.275 -3.0693  0.5294 -2.4617
 8243SOL     OW36361   2.736   1.958   6.049  0.5556  0.0665  0.0521
 8243SOL    HW136362   2.764   2.019   5.982 -1.5726  0.9657 -0.0105
 8243SOL    HW236363   2.687   2.018   6.105  0.0351  1.3371 -1.7967
 8244SOL     OW36364   0.401   1.212   9.733 -0.5027 -0.5230 -0.2202
 8244SOL    HW136365   0.474   1.271   9.716 -2.5759  2.9019  2.9447
 8244SOL    HW236366   0.384   1.228   9.825 -1.8106 -2.0727 -0.1915
 8245SOL     OW36367   0.133   0.317   7.625 -0.1497  0.6131 -0.5858
 8245SOL    HW136368   0.166   0.374   7.695 -1.1003  0.6693 -0.1888
 8245SOL    HW236369   0.069   0.260   7.667  0.5813 -0.4220 -0.8959
 8246SOL     OW36370   2.886   1.117   1.534  0.1616 -0.4546  0.6426
 8246SOL    HW136371   2.884   1.159   1.620  1.5177  2.2776 -0.6473
 8246SOL    HW236372   2.932   1.182   1.480  0.6028 -1.6248 -0.3839
 8247SOL     OW36373   1.563   4.073   6.664  0.3309 -0.1662  0.3193
 8247SOL    HW136374   1.546   4.160   6.629  2.7445 -0.0566 -0.6429
 8247SOL    HW236375   1.658   4.069   6.675  0.3450  0.2525  0.3554
 8248SOL     OW36376   1.481   4.139   2.443 -0.4638 -0.0441 -0.1004
 8248SOL    HW136377   1.427   4.171   2.370 -1.2125 -1.8149 -0.3128
 8248SOL    HW236378   1.477   4.225   2.487 -0.5450 -0.8191  1.4015
 8249SOL     OW36379   1.981   1.907   0.015 -0.2514  0.9748  0.5903
 8249SOL    HW136380   1.992   1.970  17.706 -1.0947 -0.1455 -0.5018
 8249SOL    HW236381   1.890   1.919   0.040 -0.0160 -1.0951  2.3515
 8250SOL     OW36382   2.384   1.373  14.917  0.2470  0.4174  0.2407
 8250SOL    HW136383   2.391   1.381  14.822  0.2530 -1.1066  0.1174
 8250SOL    HW236384   2.298   1.406  14.944  0.2183 -2.0220  3.2014
 8251SOL     OW36385   4.295   4.538   8.757  0.2097  0.0155 -0.2754
 8251SOL    HW136386   4.302   4.510   8.666  1.1445 -0.5523 -0.0353
 8251SOL    HW236387   4.345   4.463   8.790 -0.9338 -1.1988 -1.3448
 8252SOL     OW36388   0.104   1.339   0.397  0.1880  0.3157  0.1855
 8252SOL    HW136389   0.034   1.360   0.336 -1.2096 -3.6141  0.4732
 8252SOL    HW236390   0.147   1.424   0.408  0.9996 -0.4510  3.0048
 8253SOL     OW36391   1.619   4.478   4.483 -0.4003 -0.0840 -0.9951
 8253SOL    HW136392   1.648   4.569   4.484  2.0651 -0.8855  0.0536
 8253SOL    HW236393   1.597   4.469   4.576 -0.8804  1.3991 -0.9580
 8254SOL     OW36394   0.469   3.980   4.610 -0.4837  0.7777  0.0240
 8254SOL    HW136395   0.472   3.896   4.564 -0.7624 -0.4769  2.2991
 8254SOL    HW236396   0.374   3.996   4.607 -0.7760 -0.9124  0.6024
 8255SOL     OW36397   2.524   2.589  12.653  0.2191  0.0153  0.2903
 8255SOL    HW136398   2.558   2.608  12.565  0.6740  0.5397  0.5790
 8255SOL    HW236399   2.592   2.531  12.687 -0.7539 -0.7180  0.9964
 8256SOL     OW36400   1.375   0.626   2.012  0.3913 -0.2584 -0.6216
 8256SOL    HW136401   1.323   0.630   1.932  1.6381 -2.4679 -1.5454
 8256SOL    HW236402   1.300   0.614   2.070  1.1124  1.9211  0.7925
 8257SOL     OW36403   0.481   0.299   9.911 -0.0117 -0.7222  0.0842
 8257SOL    HW136404   0.541   0.364   9.874 -0.5420 -0.7451 -0.8179
 8257SOL    HW236405   0.425   0.356   9.963  1.5377  1.9170 -1.1016
 8258SOL     OW36406   0.242   1.749  15.684 -0.1215  0.0081  0.0235
 8258SOL    HW136407   0.252   1.662  15.722  1.4276 -0.3627 -1.2287
 8258SOL    HW236408   0.185   1.791  15.748 -1.9538 -0.4199 -1.3240
 8259SOL     OW36409   3.090   1.484   4.988 -0.3585  0.5199  0.1537
 8259SOL    HW136410   3.125   1.464   4.901 -0.0811 -0.5850  0.5262
 8259SOL    HW236411   3.117   1.575   5.000 -0.3378  0.9764 -3.4002
 8260SOL     OW36412   0.705   3.542   9.538 -0.4373  0.1860 -0.1564
 8260SOL    HW136413   0.617   3.553   9.573 -0.7188 -1.7026 -0.2990
 8260SOL    HW236414   0.747   3.611   9.590 -0.7668  0.6920 -0.5738
 8261SOL     OW36415   3.614   3.495   0.188 -0.6564  0.0772  0.1556
 8261SOL    HW136416   3.623   3.540   0.272 -1.3424  1.0688 -0.2898
 8261SOL    HW236417   3.700   3.468   0.158 -0.9406  0.3771 -0.9578
 8262SOL     OW36418   0.389   0.981  13.149  0.1811  0.1792 -0.0645
 8262SOL    HW136419   0.310   0.927  13.158 -0.3181  0.6553 -1.6797
 8262SOL    HW236420   0.389   0.975  13.054 -1.6218 -2.0933  0.0569
 8263SOL     OW36421   1.175   2.905   0.502  0.2886 -0.4012  0.1385
 8263SOL    HW136422   1.262   2.945   0.509 -0.5805  2.1384 -3.9388
 8263SOL    HW236423   1.112   2.976   0.493  0.1296 -0.5805 -0.1696
 8264SOL     OW36424   4.057   0.634   9.669 -0.0449 -0.2147 -0.2347
 8264SOL    HW136425   4.047   0.647   9.763  2.9062  0.6498 -0.0303
 8264SOL    HW236426   4.150   0.613   9.659 -0.4192 -0.8271 -2.4522
 8265SOL     OW36427   0.123   1.700   6.038  0.0546  0.1060 -0.3526
 8265SOL    HW136428   0.106   1.785   5.997 -0.3939 -0.2545 -0.9232
 8265SOL    HW236429   0.068   1.716   6.114 -0.6292  2.0037 -1.2305
 8266SOL     OW36430   4.588   0.380  11.045  0.2442 -0.3093 -0.2556
 8266SOL    HW136431   4.595   0.384  11.141 -1.6992  0.9531 -0.1681
 8266SOL    HW236432   4.637   0.458  11.018 -0.9954  1.2407  1.9680
 8267SOL     OW36433   3.535   4.203  15.144 -0.2752 -0.0098  0.6575
 8267SOL    HW136434   3.443   4.222  15.162 -0.4322 -1.1719  1.1342
 8267SOL    HW236435   3.530   4.108  15.133  0.0627  0.2313 -1.4377
 8268SOL     OW36436   1.825   0.950   7.784 -0.0235  0.5046 -0.5529
 8268SOL    HW136437   1.861   0.944   7.872 -2.3733 -1.9368  0.2586
 8268SOL    HW236438   1.784   1.036   7.792  1.3858  0.9684  1.7064
 8269SOL     OW36439   2.438   0.535   9.744  0.3019 -0.6427  0.1144
 8269SOL    HW136440   2.482   0.471   9.688  0.1595 -1.4235  0.8961
 8269SOL    HW236441   2.488   0.614   9.721 -0.0697 -0.6428 -0.6853
 8270SOL     OW36442   4.354   2.259   7.382 -0.2782  0.5446  0.7257
 8270SOL    HW136443   4.271   2.263   7.334  0.4406 -2.0856 -0.7553
 8270SOL    HW236444   4.334   2.209   7.461  0.7753 -0.5750  0.2992
 8271SOL     OW36445   2.059   3.818   4.588 -0.0890 -0.0334 -0.2500
 8271SOL    HW136446   1.985   3.850   4.639 -2.0191  0.6618 -3.4786
 8271SOL    HW236447   2.128   3.815   4.654 -0.7256 -0.4652  0.3923
 8272SOL     OW36448   0.911   1.474   1.179  0.4701 -0.0883 -0.8569
 8272SOL    HW136449   0.917   1.386   1.140 -1.8576 -0.2310 -0.9128
 8272SOL    HW236450   0.980   1.467   1.245  0.0642  1.0279 -0.3201
 8273SOL     OW36451   4.239   4.286   6.237  0.2541 -0.1306  0.1511
 8273SOL    HW136452   4.240   4.318   6.147  0.3923 -0.1770  0.1358
 8273SOL    HW236453   4.330   4.293   6.268  0.9914 -0.6099 -1.8693
 8274SOL     OW36454   2.369   2.064   6.730  0.3260  0.1422 -0.3860
 8274SOL    HW136455   2.328   2.119   6.662 -0.5717 -0.6545 -0.4924
 8274SOL    HW236456   2.399   2.137   6.785 -1.5465 -1.3662  2.6346
 8275SOL     OW36457   3.896   1.664   8.985 -0.1328 -0.4609  0.2559
 8275SOL    HW136458   3.944   1.617   8.916 -0.5149  0.3485 -0.5603
 8275SOL    HW236459   3.941   1.632   9.063 -0.8475  1.9008  1.6393
 8276SOL     OW36460   1.692   2.819   5.909 -0.0188  0.4975 -0.2116
 8276SOL    HW136461   1.643   2.779   5.981  0.7370  0.2590  0.1677
 8276SOL    HW236462   1.664   2.911   5.914 -1.5383 -0.1027  2.3789
 8277SOL     OW36463   2.274   2.520  13.864 -0.4881 -0.0833  0.0380
 8277SOL    HW136464   2.268   2.507  13.958  2.2571  0.3897  0.2881
 8277SOL    HW236465   2.357   2.474  13.849  0.5295  2.1032 -1.0429
 8278SOL     OW36466   3.278   1.001  11.954  0.4797  0.0704  0.0832
 8278SOL    HW136467   3.240   1.088  11.946  0.9338  0.2201 -0.4370
 8278SOL    HW236468   3.362   1.017  11.911  0.2303 -1.2368 -0.9108
 8279SOL     OW36469   3.942   1.190  15.205  0.5273  0.9570 -0.2771
 8279SOL    HW136470   4.011   1.226  15.150  0.0497  0.1677 -1.3884
 8279SOL    HW236471   3.879   1.191  15.133  0.1139 -1.1587  0.0475
 8280SOL     OW36472   3.749   4.424  13.686 -0.5206  0.1687 -0.6022
 8280SOL    HW136473   3.668   4.450  13.729 -0.3155  3.0164 -1.9314
 8280SOL    HW236474   3.769   4.338  13.722 -1.3760  0.1065 -0.2734
 8281SOL     OW36475   1.291   4.040   7.499 -0.2914 -0.0726 -0.1361
 8281SOL    HW136476   1.235   4.079   7.432  1.2636  0.8012 -0.9038
 8281SOL    HW236477   1.232   4.000   7.563 -0.5354 -0.6217 -0.7067
 8282SOL     OW36478   1.976   1.200   4.324 -0.4060 -0.6255  0.3282
 8282SOL    HW136479   2.060   1.244   4.313 -1.1133  0.2760 -1.4103
 8282SOL    HW236480   1.972   1.164   4.236  0.4180 -1.6334  0.6957
 8283SOL     OW36481   3.858   0.590   5.859  0.0861 -0.4560  0.0278
 8283SOL    HW136482   3.832   0.638   5.781 -1.1557 -0.8522  0.1900
 8283SOL    HW236483   3.913   0.651   5.908  0.7019 -0.4920 -0.6242
 8284SOL     OW36484   3.546   3.903   8.425  0.3073  0.2941 -0.0295
 8284SOL    HW136485   3.572   3.854   8.347 -0.4208  1.6867 -1.1295
 8284SOL    HW236486   3.520   3.986   8.385  2.0502  1.0918  0.5007
 8285SOL     OW36487   2.399   2.203   1.013 -0.1043  0.0910 -0.0667
 8285SOL    HW136488   2.370   2.217   1.104  0.0211 -0.8230  0.1110
 8285SOL    HW236489   2.471   2.143   1.032 -2.3702 -2.2440  1.1024
 8286SOL     OW36490   2.640   0.320   5.767  0.3408 -0.5703 -0.2180
 8286SOL    HW136491   2.668   0.322   5.859 -1.5101  0.5031  0.3104
 8286SOL    HW236492   2.636   0.226   5.749  3.8339 -0.2664 -2.6172
 8287SOL     OW36493   4.550   0.141   4.304 -0.1999  0.2531  0.9696
 8287SOL    HW136494   4.578   0.088   4.229 -0.9928 -0.7841  1.4103
 8287SOL    HW236495   4.496   0.214   4.273 -0.4687 -0.4278 -0.1981
 8288SOL     OW36496   3.068   4.616   6.328  0.2239  0.0556  0.1368
 8288SOL    HW136497   3.150   4.572   6.307 -0.8678 -1.5961 -0.6742
 8288SOL    HW236498   3.088   4.667   6.406 -3.2015 -0.3566  1.3214
 8289SOL     OW36499   2.127   4.504   9.524  0.3476 -0.0424  0.2919
 8289SOL    HW136500   2.208   4.495   9.574  0.5410  2.3593  0.4098
 8289SOL    HW236501   2.136   4.591   9.486  1.3206 -0.6524 -0.8625
 8290SOL     OW36502   0.639   3.388   4.498  0.9067 -0.4612 -0.0566
 8290SOL    HW136503   0.644   3.484   4.492 -0.9217 -0.3089  0.8653
 8290SOL    HW236504   0.561   3.361   4.547 -0.3180  0.1297 -1.6904
 8291SOL     OW36505   2.901   1.644   3.608 -0.0633 -0.1972  0.0580
 8291SOL    HW136506   2.920   1.709   3.675 -0.5892 -1.2630  1.2379
 8291SOL    HW236507   2.822   1.681   3.568 -1.6110 -0.8116  2.5703
 8292SOL     OW36508   1.294   3.940  12.331 -0.6631 -0.6660  0.4140
 8292SOL    HW136509   1.322   3.887  12.257  2.6447  0.9043  0.5556
 8292SOL    HW236510   1.200   3.948  12.311 -1.1324  0.3478  2.9917
 8293SOL     OW36511   2.159   3.274  16.533 -0.2278  0.7016 -0.1673
 8293SOL    HW136512   2.233   3.215  16.544 -0.8807 -0.3559 -1.3692
 8293SOL    HW236513   2.190   3.324  16.457 -0.4814  1.2897  0.1139
 8294SOL     OW36514   2.950   3.559  17.188 -0.5853 -0.6156  0.2044
 8294SOL    HW136515   2.888   3.593  17.124 -2.6424 -2.0890  1.4170
 8294SOL    HW236516   3.014   3.521  17.128  0.6432  1.7702  0.0006
 8295SOL     OW36517   1.159   3.903   9.638 -0.6662  0.2608 -0.0271
 8295SOL    HW136518   1.217   3.918   9.564  0.3221 -0.1560  0.6628
 8295SOL    HW236519   1.205   3.842   9.695 -1.1229 -1.6518 -1.7276
 8296SOL     OW36520   3.017   4.106   6.093 -0.4185  0.0689 -0.2020
 8296SOL    HW136521   2.945   4.137   6.149  0.6049  0.4335  0.9167
 8296SOL    HW236522   3.073   4.183   6.100 -2.1227  1.4141 -1.1737
 8297SOL     OW36523   4.649   2.532   4.369  0.0343 -0.0423 -0.1714
 8297SOL    HW136524   4.678   2.613   4.411  0.7784  0.4625 -1.6557
 8297SOL    HW236525   4.611   2.557   4.284 -0.3267 -0.6982 -0.1985
 8298SOL     OW36526   4.013   3.424  10.220 -0.4781  0.0659 -0.4297
 8298SOL    HW136527   3.995   3.486  10.149  1.4996 -1.4450 -2.2251
 8298SOL    HW236528   4.063   3.479  10.281 -2.1546  0.7179  0.3769
 8299SOL     OW36529   0.223   3.975   4.023  0.3729 -0.0941  0.3837
 8299SOL    HW136530   0.288   4.031   3.981 -0.5064 -0.2992 -1.2512
 8299SOL    HW236531   0.258   3.960   4.111  2.2011 -0.3234 -0.3868
 8300SOL     OW36532   1.213   1.247  10.420  0.1117 -0.4426 -0.0854
 8300SOL    HW136533   1.166   1.185  10.364 -0.5137  0.3885 -0.4818
 8300SOL    HW236534   1.161   1.260  10.500  0.8735  0.9055  0.1842
 8301SOL     OW36535   0.523   0.400   7.721 -0.2598 -0.1265  0.3135
 8301SOL    HW136536   0.487   0.378   7.807 -1.7564  0.5765 -0.1360
 8301SOL    HW236537   0.510   0.317   7.676  1.7459 -0.4239  0.2718
 8302SOL     OW36538   4.732   1.135   5.301 -0.2122  0.4276 -0.1248
 8302SOL    HW136539   4.664   1.131   5.369 -1.2924  2.1483 -1.1184
 8302SOL    HW236540   0.071   1.136   5.354 -0.8195  0.5985  0.7957
 8303SOL     OW36541   0.879   0.360   7.011  0.2975 -0.3567  0.2361
 8303SOL    HW136542   0.928   0.341   6.931  0.6815  1.5534 -0.0064
 8303SOL    HW236543   0.866   0.270   7.039 -0.0620 -0.8294 -1.4321
 8304SOL     OW36544   0.703   1.686   0.210 -0.0048 -0.0990 -0.4301
 8304SOL    HW136545   0.790   1.663   0.178 -0.1155  0.0940 -0.8678
 8304SOL    HW236546   0.712   1.782   0.209 -0.2763 -0.0708 -0.1993
 8305SOL     OW36547   1.864   0.619  17.728  0.0060 -0.0114 -0.2278
 8305SOL    HW136548   1.802   0.547  17.725 -1.4147  1.3197 -2.1508
 8305SOL    HW236549   1.807   0.695  17.728 -1.7989 -1.3785 -0.7266
 8306SOL     OW36550   3.881   1.879  14.586 -0.2175 -0.4847 -0.1697
 8306SOL    HW136551   3.918   1.822  14.518 -0.8034 -1.7850  0.5887
 8306SOL    HW236552   3.913   1.831  14.662  0.5985  0.2819 -0.0386
 8307SOL     OW36553   0.355   3.186  11.101 -0.4156 -0.2526 -0.0162
 8307SOL    HW136554   0.276   3.135  11.120 -1.2774  1.0127 -0.1938
 8307SOL    HW236555   0.348   3.240  11.180  0.3435  0.2797 -0.3117
 8308SOL     OW36556   0.137   1.176  10.359  0.6394 -0.1356  0.1978
 8308SOL    HW136557   0.162   1.158  10.449  0.7712 -1.3462 -0.0822
 8308SOL    HW236558   0.218   1.152  10.315  0.4425 -1.7057  0.6937
 8309SOL     OW36559   1.999   1.795   2.370  0.1069  0.2519 -0.6267
 8309SOL    HW136560   1.929   1.859   2.357  0.7000  0.8100 -1.1175
 8309SOL    HW236561   2.083   1.842   2.367  1.1628 -1.7021 -1.8105
 8310SOL     OW36562   3.645   3.457   7.021 -0.2211 -0.4687 -0.4212
 8310SOL    HW136563   3.674   3.394   7.087 -0.9233 -0.7857 -0.4057
 8310SOL    HW236564   3.653   3.407   6.940 -1.1153 -2.4520  0.7084
 8311SOL     OW36565   2.698   1.843  13.527 -0.8134 -0.2230 -0.0918
 8311SOL    HW136566   2.724   1.766  13.476 -1.3429  0.1883 -0.9843
 8311SOL    HW236567   2.725   1.819  13.615  0.9554  1.4528 -0.1580
 8312SOL     OW36568   1.012   4.692   8.599  0.4501 -0.0886  0.4165
 8312SOL    HW136569   1.081   4.719   8.540  0.5551  0.5675  0.8433
 8312SOL    HW236570   1.058   4.727   8.675 -1.7791  0.5941  1.4653
 8313SOL     OW36571   2.998   0.608  14.838  0.0340 -0.3509 -0.4979
 8313SOL    HW136572   3.004   0.602  14.933 -0.2822  2.8933 -0.2784
 8313SOL    HW236573   3.092   0.615  14.820 -0.2658  0.2422 -1.7929
 8314SOL     OW36574   0.458   0.944  14.132 -0.1667 -0.4626  0.5500
 8314SOL    HW136575   0.367   0.944  14.104 -0.6323  1.3548  2.0522
 8314SOL    HW236576   0.459   0.904  14.219 -0.3756 -0.8992  0.3481
 8315SOL     OW36577   0.859   1.763   5.471  0.3352  0.1574 -0.1999
 8315SOL    HW136578   0.922   1.832   5.450 -0.7262  1.3615  0.5132
 8315SOL    HW236579   0.912   1.685   5.484 -1.4523 -1.4252 -2.4210
 8316SOL     OW36580   0.098   0.539   6.348  0.1745  0.1770 -0.1368
 8316SOL    HW136581   0.170   0.495   6.302 -1.4945 -1.5313 -1.1396
 8316SOL    HW236582   0.121   0.624   6.310  1.0801  0.4145  0.9598
 8317SOL     OW36583   4.242   2.386   9.961 -0.0242 -0.1502  0.0645
 8317SOL    HW136584   4.147   2.397   9.954  0.3381  1.6824 -2.0200
 8317SOL    HW236585   4.254   2.297   9.994  1.7889  0.5692  1.3256
 8318SOL     OW36586   1.400   4.510   5.270 -0.3849  0.7240 -0.4686
 8318SOL    HW136587   1.334   4.571   5.302 -0.5808  1.5761 -2.4925
 8318SOL    HW236588   1.387   4.528   5.177 -0.0104  0.8969 -0.4883
 8319SOL     OW36589   3.669   2.529   6.140 -0.2409 -0.0382 -0.4736
 8319SOL    HW136590   3.690   2.609   6.093 -1.8670  0.4025 -0.4372
 8319SOL    HW236591   3.699   2.453   6.089  0.2250  0.2314 -0.5955
 8320SOL     OW36592   2.070   3.674  12.348  0.2445  0.1667  0.2583
 8320SOL    HW136593   2.021   3.616  12.406 -1.1097  2.8922  1.8609
 8320SOL    HW236594   2.054   3.758  12.392  0.0395  0.1028  0.3075
 8321SOL     OW36595   1.996   3.783   5.836 -0.1613  0.3333 -0.4483
 8321SOL    HW136596   1.976   3.786   5.930 -0.2347  3.0989 -0.5537
 8321SOL    HW236597   2.078   3.833   5.831  0.3364 -0.7147 -2.8994
 8322SOL     OW36598   4.692   1.682  15.205  0.2244 -0.0600 -0.4738
 8322SOL    HW136599   4.717   1.605  15.256  0.7346 -2.0622 -3.7624
 8322SOL    HW236600   4.716   1.752  15.265 -2.0199 -0.0753  0.4427
 8323SOL     OW36601   0.802   4.263   5.471 -0.1540  0.2171 -0.1802
 8323SOL    HW136602   0.838   4.347   5.442  2.6015 -0.6180  0.7982
 8323SOL    HW236603   0.864   4.193   5.450 -0.6395  0.2391 -1.6821
 8324SOL     OW36604   2.908   3.778   1.711  0.6025 -0.9799  0.4339
 8324SOL    HW136605   2.860   3.775   1.793 -2.4830  0.7688 -1.3319
 8324SOL    HW236606   2.863   3.715   1.655 -0.1954 -0.2252  0.2244
 8325SOL     OW36607   3.707   3.007   3.898 -0.2049  0.1122  0.1489
 8325SOL    HW136608   3.672   2.944   3.835  1.9538 -1.8213  0.8671
 8325SOL    HW236609   3.624   3.039   3.934 -0.4179 -0.0630 -0.1902
 8326SOL     OW36610   3.306   3.826   0.985  0.0143 -0.1409  0.0669
 8326SOL    HW136611   3.343   3.903   1.027 -3.4668  1.7056 -0.3272
 8326SOL    HW236612   3.252   3.870   0.919 -0.1081 -1.4645 -0.7215
 8327SOL     OW36613   1.198   2.817   5.194 -0.0398 -0.1956 -0.1133
 8327SOL    HW136614   1.138   2.862   5.255 -1.9693 -1.6137 -0.9781
 8327SOL    HW236615   1.217   2.886   5.131 -0.9857 -0.9396 -1.2002
 8328SOL     OW36616   4.099   2.033  12.318 -0.4739  0.0967  0.0224
 8328SOL    HW136617   4.092   1.966  12.385 -1.9037  0.7541  0.5370
 8328SOL    HW236618   4.174   2.007  12.265  0.3110  1.3464  0.5109
 8329SOL     OW36619   1.301   1.168   8.545 -0.2597  0.2030  0.4711
 8329SOL    HW136620   1.210   1.195   8.554 -0.3350 -0.0791  0.5651
 8329SOL    HW236621   1.306   1.127   8.631 -2.6539 -0.0390  0.4808
 8330SOL     OW36622   4.128   0.803  11.373  0.1357 -0.0214 -0.7343
 8330SOL    HW136623   4.162   0.854  11.299 -1.5050 -0.3625 -1.7127
 8330SOL    HW236624   4.035   0.789  11.355 -0.8548  0.9009  3.7757
 8331SOL     OW36625   3.250   0.997   1.980  0.2448  0.6025  0.3181
 8331SOL    HW136626   3.178   1.036   2.030  1.0059  2.2049  0.1627
 8331SOL    HW236627   3.188   0.949   1.925  0.7825  1.3928 -0.9571
 8332SOL     OW36628   3.188   2.750   7.484  0.7483  0.4268  0.3932
 8332SOL    HW136629   3.122   2.696   7.527 -0.3735  1.0626 -0.5634
 8332SOL    HW236630   3.139   2.791   7.414  2.3879  2.0489  0.1903
 8333SOL     OW36631   1.941   0.918   4.693 -0.1691 -0.3702 -0.0590
 8333SOL    HW136632   1.886   0.934   4.617 -3.8570  2.8649  3.3201
 8333SOL    HW236633   1.884   0.850   4.730  1.1533 -0.8847  1.0595
 8334SOL     OW36634   3.915   0.501   8.697  0.3589  0.2176  0.1298
 8334SOL    HW136635   3.827   0.532   8.719  0.1939 -0.3338  0.2456
 8334SOL    HW236636   3.966   0.579   8.674  1.7555 -0.3032  1.3946
 8335SOL     OW36637   3.583   2.260   7.864 -0.3779 -0.5025  0.8325
 8335SOL    HW136638   3.627   2.190   7.815  1.5775  1.9158 -0.8720
 8335SOL    HW236639   3.538   2.311   7.798 -1.6707 -0.8428  1.4602
 8336SOL     OW36640   2.547   2.687   6.043 -0.6318  0.0416  0.0135
 8336SOL    HW136641   2.547   2.777   6.009 -1.3124 -0.0194 -0.1674
 8336SOL    HW236642   2.464   2.667   5.999  0.5901 -2.3605 -1.2323
 8337SOL     OW36643   1.056   2.320   8.272 -0.5363 -0.1296 -0.2007
 8337SOL    HW136644   1.136   2.321   8.324 -1.3432 -1.4282  1.0594
 8337SOL    HW236645   1.000   2.378   8.323 -2.9419 -1.8951 -0.8142
 8338SOL     OW36646   0.334   0.922   7.085 -0.2530  0.1808 -0.6378
 8338SOL    HW136647   0.421   0.930   7.125 -0.1026 -0.8221 -0.7569
 8338SOL    HW236648   0.307   0.851   7.143  0.1662  1.8629  1.6203
 8339SOL     OW36649   0.552   2.647   4.779  0.2872  0.4477  0.3260
 8339SOL    HW136650   0.529   2.720   4.722  0.1116 -1.4949 -2.1237
 8339SOL    HW236651   0.574   2.576   4.718  0.8329  1.8295 -1.0972
 8340SOL     OW36652   3.742   1.269   2.237 -0.0378  0.5291 -0.2439
 8340SOL    HW136653   3.817   1.265   2.177 -1.6232 -2.3783 -2.0445
 8340SOL    HW236654   3.760   1.358   2.267 -2.3193  0.5245  1.0770
 8341SOL     OW36655   2.509   2.216  13.443 -0.1090  0.0037 -0.2459
 8341SOL    HW136656   2.527   2.143  13.384  0.3831  0.6457 -0.8874
 8341SOL    HW236657   2.484   2.175  13.526 -0.1295 -0.3944 -0.4527
 8342SOL     OW36658   2.568   2.469   9.319 -0.1813  0.5199  0.1383
 8342SOL    HW136659   2.642   2.420   9.356  0.6942  1.9547  0.2602
 8342SOL    HW236660   2.519   2.395   9.283 -1.2314  0.6328  1.3232
 8343SOL     OW36661   1.983   2.120  11.656  0.3882  0.6946 -0.6146
 8343SOL    HW136662   2.059   2.101  11.601 -0.3542 -0.3117 -1.3075
 8343SOL    HW236663   1.911   2.127  11.593  1.0511  3.9175 -1.0143
 8344SOL     OW36664   0.219   0.773   9.618 -0.3523  0.0558  0.3776
 8344SOL    HW136665   0.263   0.771   9.702  0.8127 -1.2618 -0.2751
 8344SOL    HW236666   0.229   0.681   9.596  1.7670  0.5241 -0.6218
 8345SOL     OW36667   2.255   0.797   4.345  0.2497 -0.4842  0.1542
 8345SOL    HW136668   2.196   0.722   4.337 -0.7548 -0.1447  4.2847
 8345SOL    HW236669   2.300   0.772   4.426  2.5437  2.9816 -0.0665
 8346SOL     OW36670   0.402   3.717   4.541 -0.3360  0.2872  0.2121
 8346SOL    HW136671   0.331   3.727   4.605 -0.6353  0.4061 -0.1350
 8346SOL    HW236672   0.363   3.661   4.474 -0.4394  0.4752  0.1167
 8347SOL     OW36673   3.164   2.894   1.877  0.7114 -0.0948 -0.2487
 8347SOL    HW136674   3.134   2.982   1.856 -1.5464 -0.4765  1.4036
 8347SOL    HW236675   3.164   2.911   1.971  3.8931 -2.4804  0.1934
 8348SOL     OW36676   1.264   0.895  16.686 -0.0753 -0.4771 -0.2345
 8348SOL    HW136677   1.351   0.860  16.668 -0.8185 -0.5441 -3.6781
 8348SOL    HW236678   1.208   0.842  16.630 -1.2895  0.7275 -0.1571
 8349SOL     OW36679   4.647   1.625   4.331  0.2664 -0.3761 -0.3320
 8349SOL    HW136680   4.553   1.608   4.342  0.1091  1.2129  0.6892
 8349SOL    HW236681   4.650   1.647   4.238  0.6425 -1.3570 -0.5596
 8350SOL     OW36682   0.148   3.158  15.608 -0.0742  0.1779  0.6738
 8350SOL    HW136683   0.112   3.088  15.663  2.2198 -1.8095 -0.3255
 8350SOL    HW236684   0.088   3.218  15.652 -0.7325  1.3389 -1.7879
 8351SOL     OW36685   2.018   0.942  11.851 -0.0733  0.5625  0.6049
 8351SOL    HW136686   2.098   0.959  11.801  0.8161 -1.7292  1.2413
 8351SOL    HW236687   2.006   1.028  11.891  1.1015  0.7444  0.5654
 8352SOL     OW36688   2.381   2.245   8.079 -0.5410  0.6750 -0.4766
 8352SOL    HW136689   2.476   2.236   8.070 -0.5691 -1.8602  1.8156
 8352SOL    HW236690   2.366   2.315   8.142  1.3179  0.1967  0.5235
 8353SOL     OW36691   0.872   1.131  17.107 -0.0798  0.4471 -0.1929
 8353SOL    HW136692   0.867   1.036  17.096  0.3325  0.4281 -0.2163
 8353SOL    HW236693   0.860   1.142  17.202 -0.4745 -0.8971 -0.0848
 8354SOL     OW36694   0.072   2.264   6.147 -0.7105 -0.2305 -0.0591
 8354SOL    HW136695   0.098   2.175   6.173 -0.7850  0.2931  1.7550
 8354SOL    HW236696   0.160   2.293   6.122 -1.1632 -0.1546 -1.5842
 8355SOL     OW36697   3.416   1.483   8.488  0.0252 -0.0677  0.2837
 8355SOL    HW136698   3.485   1.451   8.429  0.7449  1.3561  0.3636
 8355SOL    HW236699   3.449   1.489   8.578 -1.0829  0.5321  0.6429
 8356SOL     OW36700   4.505   3.728  13.503 -0.1401 -0.2479  0.2122
 8356SOL    HW136701   4.500   3.652  13.561  2.5815 -0.2519  0.4785
 8356SOL    HW236702   4.526   3.683  13.421  0.5211  2.0340 -0.8963
 8357SOL     OW36703   2.684   0.753   4.235 -0.4751  0.4128  0.1562
 8357SOL    HW136704   2.766   0.764   4.186 -1.7850 -1.2856 -2.4320
 8357SOL    HW236705   2.667   0.664   4.203 -1.2452  0.5991  0.0390
 8358SOL     OW36706   2.690   4.565   3.009  0.3811 -1.0415 -0.1398
 8358SOL    HW136707   2.766   4.622   3.015  0.3911 -1.0003 -0.7119
 8358SOL    HW236708   2.611   4.619   3.017  0.2415 -1.3208  0.4009
 8359SOL     OW36709   0.499   1.267   3.140  0.0632 -0.2625  0.3233
 8359SOL    HW136710   0.432   1.328   3.109  1.2625  0.3496 -1.0632
 8359SOL    HW236711   0.584   1.308   3.123 -0.7687  0.5956 -1.6991
 8360SOL     OW36712   4.007   0.310   0.645  0.2306 -0.0183  0.0738
 8360SOL    HW136713   4.015   0.392   0.596 -1.3595 -1.8810 -3.3588
 8360SOL    HW236714   4.080   0.259   0.610  1.3863 -0.7308  3.5464
 8361SOL     OW36715   1.074   3.728   5.925  0.6285 -0.3843  0.2143
 8361SOL    HW136716   1.044   3.642   5.953 -1.3781 -0.0344 -0.8870
 8361SOL    HW236717   1.005   3.736   5.860  1.1540 -0.6460 -0.3798
 8362SOL     OW36718   4.095   2.886   8.579  0.2176  0.4633  0.2921
 8362SOL    HW136719   4.046   2.953   8.627  1.0384  0.4345  1.1574
 8362SOL    HW236720   4.186   2.914   8.587  1.2369 -2.5907 -0.8379
 8363SOL     OW36721   2.449   3.392  17.679 -0.4396 -0.2315 -0.1733
 8363SOL    HW136722   2.459   3.470  17.625 -2.1272  0.1430  0.0820
 8363SOL    HW236723   2.384   3.340  17.631 -0.9740 -0.4479  0.7967
 8364SOL     OW36724   0.367   4.283  10.609 -0.5482 -0.0424 -0.4195
 8364SOL    HW136725   0.459   4.276  10.587 -0.7024  0.0290 -1.0806
 8364SOL    HW236726   0.355   4.204  10.662  0.8527  1.1616  1.6912
 8365SOL     OW36727   2.796   0.713   6.847  0.3739 -0.1101 -0.2322
 8365SOL    HW136728   2.753   0.641   6.802 -0.2996 -0.6582  1.2733
 8365SOL    HW236729   2.726   0.731   6.910 -0.6001 -2.1383 -0.7345
 8366SOL     OW36730   2.665   0.354   1.873  0.1973  0.2590 -0.2875
 8366SOL    HW136731   2.690   0.306   1.793 -1.4846  0.7269 -1.0958
 8366SOL    HW236732   2.685   0.280   1.931  5.0460  0.6408 -1.4397
 8367SOL     OW36733   2.423   1.803   2.903  0.2976  0.9226  0.0461
 8367SOL    HW136734   2.489   1.767   2.843  1.2744  0.5773  1.3269
 8367SOL    HW236735   2.397   1.885   2.861  0.7663  0.9537 -0.1879
 8368SOL     OW36736   0.556   1.415   0.843  0.1401 -0.2975 -0.1426
 8368SOL    HW136737   0.575   1.368   0.762  0.2087  1.6061 -1.2447
 8368SOL    HW236738   0.486   1.478   0.825  0.4714 -0.0932 -0.7199
 8369SOL     OW36739   0.836   0.178   8.605 -0.1237 -0.4160  0.4587
 8369SOL    HW136740   0.876   0.090   8.609  0.9487 -0.0784 -2.9517
 8369SOL    HW236741   0.911   0.234   8.583  0.6402 -1.5980  0.0194
 8370SOL     OW36742   3.824   1.883   0.743 -0.0580  0.0875  0.8380
 8370SOL    HW136743   3.880   1.849   0.813 -0.4700 -1.2701  0.5131
 8370SOL    HW236744   3.786   1.804   0.704 -0.0940 -0.1896  1.4290
 8371SOL     OW36745   1.220   0.952   9.414  0.5511  0.1256 -0.1851
 8371SOL    HW136746   1.133   0.986   9.390 -0.1591 -1.8064 -0.3583
 8371SOL    HW236747   1.204   0.963   9.508  1.4809 -0.6685  0.0606
 8372SOL     OW36748   2.070   0.322   7.665  0.3530 -0.0859  0.1007
 8372SOL    HW136749   2.106   0.299   7.751 -0.8624  0.1771  0.6980
 8372SOL    HW236750   2.121   0.269   7.605 -0.4027  1.2489 -1.7153
 8373SOL     OW36751   4.530   4.328  17.750  0.1436  0.2989 -0.5163
 8373SOL    HW136752   4.483   4.305  17.670 -2.0693  0.0601  0.8378
 8373SOL    HW236753   4.613   4.286  17.727 -0.5511 -1.1251 -0.4636
 8374SOL     OW36754   3.187   0.407   9.020 -0.4805  0.4094  0.0906
 8374SOL    HW136755   3.102   0.364   9.020 -0.3420  0.1361  0.1274
 8374SOL    HW236756   3.241   0.336   8.985  0.4530  0.6622  1.0245
 8375SOL     OW36757   1.403   1.547   7.956  0.5851 -0.5506 -0.1156
 8375SOL    HW136758   1.432   1.553   8.046  0.2250  0.4659 -0.0677
 8375SOL    HW236759   1.422   1.454   7.945  0.6677 -0.3607 -1.6183
 8376SOL     OW36760   4.554   2.839   7.099  0.4474  0.1156 -0.8048
 8376SOL    HW136761   4.574   2.786   7.176  0.3485 -0.0071 -0.8625
 8376SOL    HW236762   4.470   2.800   7.073  0.2784 -1.3063  1.8686
 8377SOL     OW36763   4.108   4.039  11.421 -0.5024  0.0016  0.4187
 8377SOL    HW136764   4.023   3.995  11.421 -0.8377  0.6717 -1.1982
 8377SOL    HW236765   4.108   4.092  11.501 -2.1486  0.6413 -0.0235
 8378SOL     OW36766   4.240   0.554  17.321 -0.0262 -0.0013 -0.1402
 8378SOL    HW136767   4.223   0.648  17.320 -1.6408 -0.3282 -2.1810
 8378SOL    HW236768   4.151   0.525  17.303  0.4938 -1.3073 -0.6802
 8379SOL     OW36769   2.271   0.173   0.927 -0.5631  0.4916 -0.4560
 8379SOL    HW136770   2.204   0.116   0.890 -1.0702  0.8374 -0.0701
 8379SOL    HW236771   2.346   0.115   0.916 -0.2838  0.7783 -0.0756
 8380SOL     OW36772   3.515   4.549   5.549  0.0091 -0.3930 -0.3011
 8380SOL    HW136773   3.596   4.533   5.597  0.0343 -0.0666 -0.2369
 8380SOL    HW236774   3.543   4.566   5.459 -1.6241 -0.1671 -0.7643
 8381SOL     OW36775   4.618   4.500   8.424  0.0073 -0.0166  0.1886
 8381SOL    HW136776   4.632   4.586   8.464  1.4245 -0.0657 -0.2064
 8381SOL    HW236777   4.651   4.513   8.335 -1.7396  4.5683  0.2145
 8382SOL     OW36778   0.407   4.590   8.820 -0.2589  0.1610 -0.7259
 8382SOL    HW136779   0.386   4.563   8.731 -0.7575  0.3399 -0.6637
 8382SOL    HW236780   0.442   4.678   8.815 -0.9064  0.5717  1.5097
 8383SOL     OW36781   0.967   0.624  17.259  0.4805 -0.4882  0.1057
 8383SOL    HW136782   0.946   0.662  17.345  0.7591  1.6098 -0.7673
 8383SOL    HW236783   0.973   0.531  17.280  0.5921 -0.3620  0.6487
 8384SOL     OW36784   1.640   1.359  12.224 -0.1564  0.3194  0.1018
 8384SOL    HW136785   1.656   1.315  12.141  2.9206 -0.6305  1.1865
 8384SOL    HW236786   1.566   1.418  12.204  0.6145  0.9726 -0.8028
 8385SOL     OW36787   2.453   3.207   3.249 -0.4200  0.1884  0.4756
 8385SOL    HW136788   2.470   3.280   3.190  1.0541  0.1703  0.8771
 8385SOL    HW236789   2.397   3.251   3.313 -0.1852 -0.8889  1.4138
 8386SOL     OW36790   0.936   2.227  14.508  0.0672 -0.1752 -0.2109
 8386SOL    HW136791   0.874   2.173  14.558 -0.2360  1.6353  1.3424
 8386SOL    HW236792   0.924   2.190  14.420  2.7839  1.3764 -1.2200
 8387SOL     OW36793   0.869   0.155  10.540 -0.0195  0.0426  0.2679
 8387SOL    HW136794   0.915   0.071  10.542  1.8207  1.0294  0.3121
 8387SOL    HW236795   0.817   0.158  10.620  0.6848  1.2978  0.6932
 8388SOL     OW36796   0.762   0.760   8.213  0.3104  0.0727  1.0292
 8388SOL    HW136797   0.847   0.784   8.177  0.4612 -0.6864  0.8839
 8388SOL    HW236798   0.757   0.675   8.171 -0.7357  0.6032  0.0871
 8389SOL     OW36799   2.092   3.765   5.564  0.1691 -0.7416  0.2494
 8389SOL    HW136800   2.081   3.858   5.544  1.4552 -1.1915 -2.4913
 8389SOL    HW236801   2.058   3.749   5.652 -2.0327  3.2295  0.1290
 8390SOL     OW36802   0.823   3.990   2.801  0.1176 -0.1365 -0.1926
 8390SOL    HW136803   0.815   3.968   2.708 -1.9736  2.2779 -0.5623
 8390SOL    HW236804   0.819   3.901   2.837  0.3816  1.2151  3.1508
 8391SOL     OW36805   3.935   1.644   2.467  0.5907 -0.0684 -0.1842
 8391SOL    HW136806   3.984   1.690   2.534  2.0619 -2.0558  0.0854
 8391SOL    HW236807   3.846   1.648   2.504 -0.1685 -0.6939 -1.9147
 8392SOL     OW36808   1.277   2.531   6.522  0.1859 -0.2520 -0.5491
 8392SOL    HW136809   1.336   2.533   6.447  1.3185 -1.3514  0.2964
 8392SOL    HW236810   1.197   2.577   6.498  0.5159  0.5545 -0.0927
 8393SOL     OW36811   1.016   4.496   2.409 -0.3894  0.2539  0.0577
 8393SOL    HW136812   0.975   4.426   2.460 -2.0366 -0.0761 -1.7196
 8393SOL    HW236813   1.081   4.454   2.353 -1.2696  0.7160 -1.3135
 8394SOL     OW36814   2.641   3.299   1.727 -0.4770  0.4029  0.1886
 8394SOL    HW136815   2.723   3.330   1.688 -0.6174  3.0821  2.0274
 8394SOL    HW236816   2.655   3.316   1.820  1.9178 -1.4601  0.1822
 8395SOL     OW36817   3.461   1.106   8.684  0.5435  0.1692 -0.2232
 8395SOL    HW136818   3.545   1.148   8.666  0.7284 -0.4429 -0.7883
 8395SOL    HW236819   3.466   1.039   8.616 -2.4579 -0.0990 -0.1528
 8396SOL     OW36820   3.121   3.573   3.040 -0.6091  0.2085 -0.3487
 8396SOL    HW136821   3.051   3.508   3.041 -0.3783 -0.0456 -0.6002
 8396SOL    HW236822   3.082   3.656   3.013 -0.5736  0.0642 -0.8409
 8397SOL     OW36823   0.288   1.892  17.157 -0.2337  0.3764  0.1757
 8397SOL    HW136824   0.338   1.820  17.196  0.0772  0.6347  0.2541
 8397SOL    HW236825   0.338   1.912  17.078 -1.1392  1.3062 -0.1674
 8398SOL     OW36826   3.682   4.121   6.257  0.0427 -0.1165  0.3162
 8398SOL    HW136827   3.664   4.094   6.347 -1.5164 -1.7488 -0.4940
 8398SOL    HW236828   3.703   4.035   6.220 -1.4607 -0.3195 -0.0713
 8399SOL     OW36829   1.108   0.203  14.509 -0.0314  0.5411 -0.4547
 8399SOL    HW136830   1.066   0.150  14.577  0.5793  1.0345  0.3034
 8399SOL    HW236831   1.143   0.130  14.457  1.3149  1.1736 -0.4206
 8400SOL     OW36832   2.191   3.491  16.970  0.2431  0.2634 -0.9278
 8400SOL    HW136833   2.120   3.468  16.910 -0.8665  1.8039 -0.1931
 8400SOL    HW236834   2.252   3.422  16.943 -2.0568 -2.2888  0.3047
 8401SOL     OW36835   2.106   1.090   1.686 -0.1351  0.1357  0.0841
 8401SOL    HW136836   2.034   1.150   1.665  0.0573  0.9901  1.8134
 8401SOL    HW236837   2.059   1.041   1.754  0.4458 -1.0312 -0.3703
 8402SOL     OW36838   1.285   2.603   5.308  0.1212 -0.0177  0.5078
 8402SOL    HW136839   1.357   2.663   5.330 -2.1266  1.7176  3.1935
 8402SOL    HW236840   1.234   2.661   5.253  1.0512 -0.1726 -0.5147
 8403SOL     OW36841   0.329   0.495   6.770 -0.1875  0.0223 -0.3848
 8403SOL    HW136842   0.362   0.408   6.794 -2.6153 -0.0362  2.7665
 8403SOL    HW236843   0.365   0.513   6.683  0.0282 -1.6955 -0.6514
 8404SOL     OW36844   4.707   4.605  14.121  0.3468  0.3836 -0.3785
 8404SOL    HW136845   4.616   4.590  14.146  0.0519 -1.2109 -2.3905
 8404SOL    HW236846   4.689   4.636  14.033 -1.3862  2.1824  0.6088
 8405SOL     OW36847   3.097   4.074   3.704  0.4154  0.1277 -0.6864
 8405SOL    HW136848   3.116   4.075   3.798 -0.1684 -0.0059 -0.5676
 8405SOL    HW236849   3.050   4.158   3.704 -0.8162 -0.5674 -2.0127
 8406SOL     OW36850   3.946   3.404   0.754  0.0048  0.0761  0.0165
 8406SOL    HW136851   3.859   3.410   0.794  0.5211  1.8892  0.8560
 8406SOL    HW236852   3.959   3.318   0.714 -0.0510  0.3468 -0.5785
 8407SOL     OW36853   4.014   2.298   4.172  0.2243 -0.2637  0.0965
 8407SOL    HW136854   3.944   2.354   4.205  1.1894 -0.3970  2.3892
 8407SOL    HW236855   3.991   2.302   4.079 -2.2490  2.2397  0.8244
 8408SOL     OW36856   4.055   1.491   8.522  0.2195  0.1780  0.5020
 8408SOL    HW136857   4.012   1.409   8.496  1.1721  0.5736 -2.3916
 8408SOL    HW236858   4.027   1.476   8.612 -1.5024 -0.9851 -0.2213
 8409SOL     OW36859   2.029   0.320   4.031  0.3315  1.0883  0.5694
 8409SOL    HW136860   2.124   0.314   4.042  0.2502 -0.5134  0.3311
 8409SOL    HW236861   2.003   0.317   4.123  2.4742 -0.2945  1.1072
 8410SOL     OW36862   4.585   2.418   0.999  0.3171 -0.2465 -0.3081
 8410SOL    HW136863   4.579   2.342   0.942  0.5826 -0.9227  0.5693
 8410SOL    HW236864   4.512   2.474   0.971  1.1769  1.5629  1.0044
 8411SOL     OW36865   1.724   3.263   0.567 -0.3085  0.0021  0.0234
 8411SOL    HW136866   1.645   3.264   0.513 -1.9641 -1.4568  2.4103
 8411SOL    HW236867   1.700   3.324   0.637  0.0560  1.4420 -1.0853
 8412SOL     OW36868   2.219   2.526   5.330  0.3151  0.2944  0.0287
 8412SOL    HW136869   2.184   2.537   5.418 -1.4619 -2.3219 -0.3260
 8412SOL    HW236870   2.135   2.502   5.291  0.6794 -3.4749  1.5007
 8413SOL     OW36871   0.262   1.052   4.269 -0.4509  0.1489  0.3798
 8413SOL    HW136872   0.296   0.975   4.224 -0.6538 -0.4656  1.2814
 8413SOL    HW236873   0.306   1.114   4.210 -0.6315  0.9405  1.0834
 8414SOL     OW36874   0.827   3.009   2.812  0.0165 -0.4585 -0.2017
 8414SOL    HW136875   0.811   2.965   2.896 -1.4585  0.1867 -0.1542
 8414SOL    HW236876   0.856   2.937   2.756  0.9574  0.0135 -0.3186
 8415SOL     OW36877   1.330   1.576   2.326  0.4086  0.2325  0.0689
 8415SOL    HW136878   1.374   1.579   2.411  1.7846 -2.7935 -0.5447
 8415SOL    HW236879   1.241   1.547   2.346  0.6137 -0.4386  0.0007
 8416SOL     OW36880   4.410   2.264  17.678 -0.6064  0.1643  0.1123
 8416SOL    HW136881   4.402   2.281  17.584 -1.3541 -0.7728  0.0071
 8416SOL    HW236882   4.336   2.318  17.706 -0.2595 -0.3643  2.0715
 8417SOL     OW36883   1.955   2.136  10.401  0.2940 -0.7036  0.3628
 8417SOL    HW136884   1.927   2.093  10.482 -1.4751  0.0939  0.1635
 8417SOL    HW236885   2.042   2.165  10.430  1.5539 -1.5385 -2.5990
 8418SOL     OW36886   3.728   4.319   6.974 -0.0589  0.2888 -0.6610
 8418SOL    HW136887   3.708   4.273   6.892 -1.2337  0.7215 -0.6224
 8418SOL    HW236888   3.686   4.262   7.038 -1.2397  0.8547 -0.9298
 8419SOL     OW36889   2.957   1.685   2.798  0.5657 -0.2445  0.4458
 8419SOL    HW136890   2.968   1.631   2.720 -0.0303 -0.8775  0.8079
 8419SOL    HW236891   2.950   1.773   2.759 -3.0554 -0.3399  0.8486
 8420SOL     OW36892   1.914   3.493   7.525  0.1595  0.3662  0.4702
 8420SOL    HW136893   1.832   3.469   7.569  0.1581 -1.6674 -0.6562
 8420SOL    HW236894   1.915   3.434   7.450 -1.8464  1.7572 -0.6488
 8421SOL     OW36895   1.757   4.035  17.476  0.1811 -0.0429  0.3634
 8421SOL    HW136896   1.748   4.007  17.385  1.8800  0.7707 -0.0724
 8421SOL    HW236897   1.760   3.952  17.523  0.1441 -0.4671 -0.3810
 8422SOL     OW36898   1.225   2.087   1.956  0.1149  0.4369 -0.1713
 8422SOL    HW136899   1.139   2.103   1.996  0.3718  0.4337  0.3793
 8422SOL    HW236900   1.271   2.044   2.028  1.6143 -0.1936 -1.5185
 8423SOL     OW36901   0.502   0.319   7.163  0.0950  0.6799 -0.0954
 8423SOL    HW136902   0.544   0.379   7.101 -0.2217 -1.3970 -2.3304
 8423SOL    HW236903   0.520   0.230   7.132 -0.1150  1.3156 -2.0718
 8424SOL     OW36904   2.484   3.751  11.277 -0.2819 -0.1019 -0.0175
 8424SOL    HW136905   2.453   3.833  11.238  0.6752 -0.3370 -1.2741
 8424SOL    HW236906   2.579   3.757  11.269 -0.2908 -0.2168 -0.1862
 8425SOL     OW36907   3.808   1.778   1.091 -0.0449 -0.1096 -0.1130
 8425SOL    HW136908   3.881   1.789   1.029  1.1244  1.0231  1.4472
 8425SOL    HW236909   3.840   1.825   1.168  0.5915 -1.5590  0.4949
 8426SOL     OW36910   3.368   2.123   1.494 -0.2663 -0.0708  0.3740
 8426SOL    HW136911   3.391   2.105   1.403 -1.5392 -0.6021  0.1598
 8426SOL    HW236912   3.432   2.193   1.507 -3.7889  3.2889 -0.4728
 8427SOL     OW36913   4.037   3.179  14.719 -0.2743  0.3789 -0.2419
 8427SOL    HW136914   3.958   3.138  14.686 -1.2213  0.9477  1.3107
 8427SOL    HW236915   4.013   3.271  14.728 -1.0893 -0.0697  2.1798
 8428SOL     OW36916   4.430   2.430   6.371 -0.2228 -0.3563  0.3825
 8428SOL    HW136917   4.478   2.362   6.419  0.5313 -0.0796  0.0281
 8428SOL    HW236918   4.507   2.467   6.326  0.2553 -3.2876 -1.1866
 8429SOL     OW36919   0.075   1.149  11.671  0.4958  0.7265 -0.0646
 8429SOL    HW136920   0.005   1.175  11.729  0.1225  0.6472 -0.4777
 8429SOL    HW236921   0.031   1.154  11.586 -0.8750 -1.2061  0.5260
 8430SOL     OW36922   4.274   1.206   7.605 -0.5822 -0.4323 -0.3626
 8430SOL    HW136923   4.241   1.196   7.516 -1.2638 -3.4593  0.2226
 8430SOL    HW236924   4.201   1.252   7.646 -2.9266 -2.1118 -2.6693
 8431SOL     OW36925   2.509   4.722   1.255 -0.1608  0.1206 -0.1730
 8431SOL    HW136926   2.499   0.056   1.313  1.1365  0.4440 -0.3783
 8431SOL    HW236927   2.424   4.678   1.254  0.6700 -1.4780  0.3544
 8432SOL     OW36928   4.010   2.441   6.246 -0.1982 -0.0936  0.1951
 8432SOL    HW136929   4.011   2.399   6.332 -0.0096  0.7165  0.5827
 8432SOL    HW236930   4.011   2.535   6.263 -1.0051  0.4115 -2.4786
 8433SOL     OW36931   3.355   2.037   2.609 -0.0075  0.6378 -0.0744
 8433SOL    HW136932   3.404   1.993   2.539  0.6584  2.1081 -0.5317
 8433SOL    HW236933   3.379   1.995   2.691  1.2902  1.0753 -0.2141
 8434SOL     OW36934   1.034   2.191  17.083  0.0476  0.2192  0.5905
 8434SOL    HW136935   1.019   2.150  17.168 -1.0873  0.8079  0.6658
 8434SOL    HW236936   1.021   2.120  17.019 -0.4902  0.5698  0.3156
 8435SOL     OW36937   1.047   3.858   7.974 -0.2551 -0.3206  0.3030
 8435SOL    HW136938   1.027   3.784   7.917 -1.2139  0.3270 -0.2026
 8435SOL    HW236939   1.121   3.828   8.027  0.1087  0.2800  0.1379
 8436SOL     OW36940   1.766   0.474   8.659  0.3820 -0.3073  0.2841
 8436SOL    HW136941   1.680   0.498   8.693  0.0913  1.5124 -1.7098
 8436SOL    HW236942   1.763   0.379   8.646 -0.2164  0.0920 -2.6332
 8437SOL     OW36943   3.334   4.406   2.455  0.5382 -0.2647  0.1773
 8437SOL    HW136944   3.429   4.407   2.451  0.4732  2.2665 -0.6776
 8437SOL    HW236945   3.303   4.328   2.501 -1.0788  0.2169 -0.0612
 8438SOL     OW36946   0.466   0.539   4.885  0.5237 -0.5220  0.2202
 8438SOL    HW136947   0.527   0.470   4.908 -2.2740 -3.7115 -2.0032
 8438SOL    HW236948   0.397   0.489   4.841  0.1508  0.2358 -0.0627
 8439SOL     OW36949   1.161   1.605  10.218 -0.1266  0.0765  0.0589
 8439SOL    HW136950   1.093   1.629  10.281  0.2366  2.3892 -0.4355
 8439SOL    HW236951   1.113   1.581  10.139  1.8816 -2.3662 -0.4267
 8440SOL     OW36952   3.632   2.574   0.881  0.5305 -0.4971  0.1237
 8440SOL    HW136953   3.644   2.530   0.796  1.5499 -0.6486  0.3477
 8440SOL    HW236954   3.710   2.630   0.883 -0.3801  0.8259 -1.3575
 8441SOL     OW36955   0.629   2.437   9.199 -0.2780 -0.3668  0.8272
 8441SOL    HW136956   0.704   2.377   9.196  1.2934  1.5441  2.4968
 8441SOL    HW236957   0.640   2.485   9.280 -0.6556  1.0976  0.0200
 8442SOL     OW36958   2.760   3.919   3.865 -0.7710  0.2460 -0.0400
 8442SOL    HW136959   2.800   3.908   3.778  0.1063  1.5473  0.2103
 8442SOL    HW236960   2.728   3.832   3.886 -0.3319 -0.6851 -3.1581
 8443SOL     OW36961   0.725   4.282  16.776  0.2538 -0.6071 -0.0173
 8443SOL    HW136962   0.718   4.348  16.707 -1.6517 -1.9927 -1.1583
 8443SOL    HW236963   0.775   4.326  16.845  1.6341  2.4998 -3.0178
 8444SOL     OW36964   0.989   1.708  10.391  0.1322  0.4025 -0.1881
 8444SOL    HW136965   0.932   1.781  10.416 -1.4263 -0.8650 -0.0597
 8444SOL    HW236966   0.995   1.656  10.471  0.1818  2.3626  1.0946
 8445SOL     OW36967   1.610   2.605   4.696 -0.2031 -0.4265 -0.5518
 8445SOL    HW136968   1.620   2.510   4.696 -1.5756 -0.5807 -1.1432
 8445SOL    HW236969   1.701   2.634   4.690 -0.3868  0.2267 -0.2030
 8446SOL     OW36970   0.777   3.522   8.032 -0.3001  0.2646 -0.1969
 8446SOL    HW136971   0.848   3.517   8.097 -0.0436  3.1348 -0.2533
 8446SOL    HW236972   0.705   3.468   8.064  0.4872  1.1923  3.1393
 8447SOL     OW36973   3.958   0.100   7.884  0.2431  0.0045 -0.2048
 8447SOL    HW136974   3.936   0.007   7.883  0.7101 -0.1377  1.7696
 8447SOL    HW236975   3.880   0.137   7.844  0.7626  0.1839 -1.0477
 8448SOL     OW36976   1.991   0.217   6.727 -0.0382  0.1446 -0.0536
 8448SOL    HW136977   2.010   0.293   6.783 -0.6661  0.8745 -0.8353
 8448SOL    HW236978   1.945   0.266   6.659 -0.1490 -0.3692 -0.3426
 8449SOL     OW36979   3.601   2.954  17.255 -0.2114  0.3522 -0.3893
 8449SOL    HW136980   3.604   2.982  17.346  0.7936 -0.1639 -0.2640
 8449SOL    HW236981   3.691   2.980  17.238  0.1011 -0.7840 -0.4562
 8450SOL     OW36982   2.689   0.201   3.224  1.2351  0.7095 -0.0824
 8450SOL    HW136983   2.745   0.256   3.278  2.5115 -0.4526 -0.2358
 8450SOL    HW236984   2.682   0.129   3.286 -0.5457  2.5463  1.8728
 8451SOL     OW36985   0.365   3.597  17.590  0.0338  0.4968 -0.0882
 8451SOL    HW136986   0.360   3.686  17.625  2.4824 -0.0246  1.5522
 8451SOL    HW236987   0.443   3.573  17.639  0.2112 -0.0173 -0.6188
 8452SOL     OW36988   1.289   2.330   4.618 -0.2805  0.2938  0.4919
 8452SOL    HW136989   1.225   2.390   4.655 -1.7298 -0.7766 -0.2990
 8452SOL    HW236990   1.336   2.302   4.698  1.6067  1.6316 -0.1558
 8453SOL     OW36991   0.167   4.696  13.965 -0.1201 -0.0878 -0.6971
 8453SOL    HW136992   0.194   4.614  14.007 -3.4024 -1.2919 -0.8966
 8453SOL    HW236993   0.133   4.728  14.048  2.4075  2.9872 -0.8365
 8454SOL     OW36994   3.347   1.935   4.529 -0.4620 -0.1048  0.3137
 8454SOL    HW136995   3.340   2.015   4.582 -1.7072  1.6727 -2.5199
 8454SOL    HW236996   3.434   1.898   4.540  0.1278  1.6606  1.5392
 8455SOL     OW36997   3.557   4.096   8.773 -0.0910  0.0787 -0.0205
 8455SOL    HW136998   3.497   4.028   8.741 -1.6421  0.7380  1.5023
 8455SOL    HW236999   3.638   4.056   8.741 -0.5817  2.1130 -3.8513
 8456SOL     OW37000   1.183   1.539   4.465  0.1791 -0.1086  0.5284
 8456SOL    HW137001   1.268   1.574   4.493  0.6392  0.7129 -1.8956
 8456SOL    HW237002   1.154   1.612   4.410  0.2112 -0.3014  0.2572
 8457SOL     OW37003   4.193   3.594   1.983 -0.3608 -0.0191  0.4237
 8457SOL    HW137004   4.235   3.648   2.050  1.7065 -2.5543  1.1580
 8457SOL    HW237005   4.152   3.667   1.936  0.2600 -1.3757 -2.2477
 8458SOL     OW37006   4.132   0.841   8.184 -0.1194  0.3610 -0.2066
 8458SOL    HW137007   4.210   0.855   8.238  0.2566  0.8849 -0.8888
 8458SOL    HW237008   4.164   0.814   8.099  0.3706  0.3053 -0.0022
 8459SOL     OW37009   0.014   2.912   6.901  0.0342  0.4347 -0.0812
 8459SOL    HW137010   4.701   2.859   6.959  1.0898 -1.6335 -0.9627
 8459SOL    HW237011   0.022   2.991   6.954 -0.1102 -0.3891  1.1592
 8460SOL     OW37012   4.569   3.894   2.415 -0.6001 -0.3642  0.6437
 8460SOL    HW137013   4.563   3.848   2.498  0.6656 -3.6149 -1.0847
 8460SOL    HW237014   4.606   3.826   2.359  0.1106  1.9715 -1.7025
 8461SOL     OW37015   2.087   3.330   9.596 -0.5222  0.0876  0.1727
 8461SOL    HW137016   2.125   3.415   9.619  0.7680 -0.8198  1.3698
 8461SOL    HW237017   2.002   3.336   9.639 -0.2458 -4.4795  1.3085
 8462SOL     OW37018   2.709   1.790   7.837  0.4232  0.0267 -0.7368
 8462SOL    HW137019   2.695   1.695   7.842 -0.5567  0.2265  0.3262
 8462SOL    HW237020   2.625   1.829   7.814 -0.1509 -0.0823  1.1748
 8463SOL     OW37021   0.404   4.220   8.593 -0.8203 -0.6195 -0.1377
 8463SOL    HW137022   0.437   4.176   8.671 -0.6503  1.5936  1.0445
 8463SOL    HW237023   0.335   4.158   8.570 -0.5572 -0.7553 -0.5619
 8464SOL     OW37024   4.124   3.453  16.269  0.2457  0.0664  0.1830
 8464SOL    HW137025   4.050   3.412  16.314  0.3627 -0.3255  0.0088
 8464SOL    HW237026   4.155   3.381  16.215  0.1283  1.5154 -1.8389
 8465SOL     OW37027   0.310   2.475  16.174  0.3532 -0.2650  0.3048
 8465SOL    HW137028   0.259   2.477  16.093  0.1934 -0.1722  0.4061
 8465SOL    HW237029   0.276   2.557  16.211  0.4853 -0.1920  0.2623
 8466SOL     OW37030   0.214   3.836   3.555  0.0512 -0.6109  0.2906
 8466SOL    HW137031   0.250   3.762   3.507 -1.3209 -0.6268 -0.6891
 8466SOL    HW237032   0.139   3.862   3.502  0.7927 -0.5126 -0.7145
 8467SOL     OW37033   4.106   0.066  16.165 -0.3051 -0.2281  0.2062
 8467SOL    HW137034   4.094   0.152  16.125  2.7490 -0.8105 -1.9869
 8467SOL    HW237035   4.025   0.051  16.213 -0.4602  3.6279  1.1597
 8468SOL     OW37036   3.723   1.726  13.212 -0.2697  0.1323  0.6055
 8468SOL    HW137037   3.812   1.759  13.226  0.5841 -2.6732  2.0670
 8468SOL    HW237038   3.734   1.635  13.242  0.6573  0.1938  0.4351
 8469SOL     OW37039   2.388   1.535   3.099  0.7183  0.2297 -0.3543
 8469SOL    HW137040   2.428   1.582   3.026  1.1619  0.2529 -0.0965
 8469SOL    HW237041   2.467   1.489   3.127  1.9277  1.9082 -1.0040
 8470SOL     OW37042   0.677   3.943   3.175 -0.0385  0.1462  0.6088
 8470SOL    HW137043   0.636   3.864   3.141  1.2064 -0.2177 -0.0907
 8470SOL    HW237044   0.690   3.994   3.095  3.4571  1.2474  1.8395
 8471SOL     OW37045   2.782   1.596   8.702 -0.3763  0.1311 -0.7175
 8471SOL    HW137046   2.800   1.688   8.723 -1.0015  0.6852 -2.7001
 8471SOL    HW237047   2.749   1.600   8.613  2.1697 -1.5801 -1.7379
 8472SOL     OW37048   2.790   2.542   9.715 -0.2406 -0.2154  0.1367
 8472SOL    HW137049   2.737   2.590   9.652  3.0700  1.8248 -1.0749
 8472SOL    HW237050   2.733   2.467   9.731 -2.8118  1.4136 -1.3389
 8473SOL     OW37051   1.185   0.064   8.423 -0.0270  0.4030  0.0862
 8473SOL    HW137052   1.270   0.104   8.406 -0.4996  1.6546  0.6861
 8473SOL    HW237053   1.167   0.022   8.339 -0.0960 -0.5698  0.5796
 8474SOL     OW37054   0.925   2.961   3.104  0.4541 -0.3823 -0.0178
 8474SOL    HW137055   0.959   2.881   3.143 -0.1141  0.5290  2.3701
 8474SOL    HW237056   0.830   2.949   3.109  0.6626 -1.8807  0.3734
 8475SOL     OW37057   2.425   3.958   3.956  0.1459 -0.6374 -0.4864
 8475SOL    HW137058   2.438   3.876   3.909  2.5354 -1.5003  1.6424
 8475SOL    HW237059   2.503   4.010   3.937 -0.7824  0.9810  0.0937
 8476SOL     OW37060   2.381   4.166   9.931  0.7525 -0.9175 -0.3307
 8476SOL    HW137061   2.448   4.229   9.955 -0.9448  1.0096 -0.7084
 8476SOL    HW237062   2.437   4.108   9.879 -0.7351 -3.2283  0.6475
 8477SOL     OW37063   2.257   4.401   8.981  0.4555  0.1130 -0.2184
 8477SOL    HW137064   2.216   4.410   9.067  0.6305 -0.8170 -0.0365
 8477SOL    HW237065   2.337   4.449   9.001  1.3633 -2.0534  1.3538
 8478SOL     OW37066   3.314   4.405   6.970  0.0133  0.5356 -0.2908
 8478SOL    HW137067   3.236   4.363   7.006  0.7829  0.2382  1.0204
 8478SOL    HW237068   3.389   4.362   7.011 -1.1994 -0.7027  0.6405
 8479SOL     OW37069   3.090   3.499   4.318 -0.0496 -0.0338 -0.5769
 8479SOL    HW137070   3.030   3.448   4.265 -0.7184  1.2109 -1.0170
 8479SOL    HW237071   3.113   3.580   4.272 -1.8891  1.9137  1.9434
 8480SOL     OW37072   2.623   1.667   3.372  0.8201 -0.1776 -0.0437
 8480SOL    HW137073   2.554   1.600   3.370  0.3360  0.2869  1.2276
 8480SOL    HW237074   2.586   1.736   3.426 -0.2345 -1.0070  0.2922
 8481SOL     OW37075   4.450   1.091   3.312 -0.3156 -0.5945 -0.2193
 8481SOL    HW137076   4.416   1.010   3.350 -0.6077 -0.8323 -0.9695
 8481SOL    HW237077   4.451   1.147   3.389 -0.8728 -0.1978 -0.4945
 8482SOL     OW37078   1.729   4.350   3.761  0.1288  0.0730 -0.1454
 8482SOL    HW137079   1.763   4.403   3.833 -0.3568  0.1775  0.0056
 8482SOL    HW237080   1.805   4.292   3.766 -0.3839 -0.5272  0.7369
 8483SOL     OW37081   0.840   2.954  12.949  0.0407  0.4677  0.1483
 8483SOL    HW137082   0.862   2.862  12.965  1.7850  0.5503 -1.7973
 8483SOL    HW237083   0.766   2.956  13.009  0.9035 -0.8074  1.2571
 8484SOL     OW37084   1.469   1.085   8.789 -0.0476 -0.3337  0.1220
 8484SOL    HW137085   1.534   1.093   8.859  0.8410  1.7697 -0.9442
 8484SOL    HW237086   1.390   1.102   8.841  1.1471 -1.3771  2.2845
 8485SOL     OW37087   2.095   4.732   9.728  0.3447  0.6093 -0.5073
 8485SOL    HW137088   2.049   4.669   9.783  0.8005 -0.6124 -1.5492
 8485SOL    HW237089   2.153   4.668   9.688 -0.1124 -0.2134  0.1424
 8486SOL     OW37090   4.070   2.078   5.218 -0.1495 -0.0340 -0.4095
 8486SOL    HW137091   3.999   2.143   5.218 -0.5170 -0.4324  2.1910
 8486SOL    HW237092   4.133   2.119   5.277  1.2013 -0.7737 -1.3449
 8487SOL     OW37093   3.255   0.888   3.463  0.1867  0.0735  0.0455
 8487SOL    HW137094   3.336   0.924   3.425 -0.2690 -0.1214 -1.1335
 8487SOL    HW237095   3.245   0.825   3.391  0.8499 -0.9070  0.8163
 8488SOL     OW37096   1.248   0.583   7.972  0.4945  0.1866  0.2650
 8488SOL    HW137097   1.267   0.616   7.884 -0.8707  0.7325  0.1671
 8488SOL    HW237098   1.303   0.642   8.024  1.9949  0.1217 -1.2375
 8489SOL     OW37099   0.296   4.221  16.053 -0.1640 -0.3385 -0.1354
 8489SOL    HW137100   0.291   4.255  16.142  0.3024 -1.1565  0.2047
 8489SOL    HW237101   0.368   4.273  16.017  0.5593 -0.3703  1.2736
 8490SOL     OW37102   2.632   4.489   3.893  0.4728 -0.3328 -0.3515
 8490SOL    HW137103   2.601   4.555   3.831  0.0779  0.6839  0.9204
 8490SOL    HW237104   2.622   4.411   3.839 -2.0135  1.0029 -1.8013
 8491SOL     OW37105   1.095   3.940  12.914 -0.5403  0.2354  0.1566
 8491SOL    HW137106   1.141   3.924  12.831 -1.8066 -0.6961 -0.3578
 8491SOL    HW237107   1.030   4.004  12.887  0.9267  1.3197 -0.7681
 8492SOL     OW37108   2.929   3.457   6.867  0.3644  0.4445  0.2164
 8492SOL    HW137109   2.834   3.462   6.877  0.2981  0.2627 -0.3351
 8492SOL    HW237110   2.946   3.506   6.948  1.5870 -0.9023  0.7769
 8493SOL     OW37111   0.528   4.656   8.249  0.1289  0.1087  0.0013
 8493SOL    HW137112   0.598   4.696   8.302 -0.0994  1.0641 -0.4089
 8493SOL    HW237113   0.545   4.689   8.161  0.0556  1.4998  0.4952
 8494SOL     OW37114   2.592   0.609  15.826  0.0383 -0.2836 -0.4124
 8494SOL    HW137115   2.558   0.528  15.865  1.0091 -1.1640 -1.4185
 8494SOL    HW237116   2.677   0.573  15.802 -0.8757 -3.3412  0.8532
 8495SOL     OW37117   4.537   2.722   6.667 -0.4732 -0.4046  0.0746
 8495SOL    HW137118   4.632   2.710   6.676 -0.3902 -0.3743 -0.7585
 8495SOL    HW237119   4.536   2.765   6.581 -0.5446  0.7875  0.6827
 8496SOL     OW37120   3.194   1.686   7.530  0.5619 -0.6937  0.3057
 8496SOL    HW137121   3.126   1.624   7.558 -0.4179 -0.2637 -1.1095
 8496SOL    HW237122   3.269   1.632   7.553 -0.3388 -1.0183  2.5048
 8497SOL     OW37123   1.129   0.245  10.492  0.2880 -0.1947  0.1476
 8497SOL    HW137124   1.166   0.160  10.468 -0.6177 -0.5946  0.1820
 8497SOL    HW237125   1.037   0.223  10.505  0.3013 -0.9260 -0.9819
 8498SOL     OW37126   0.392   2.438   2.077  0.4918  0.4629  0.0004
 8498SOL    HW137127   0.305   2.474   2.059 -0.0222  0.0389  1.5523
 8498SOL    HW237128   0.427   2.512   2.126  0.0647  0.2085  0.6930
 8499SOL     OW37129   0.885   3.773  16.977  0.0403  0.1861 -0.6405
 8499SOL    HW137130   0.851   3.847  17.027  0.1332  0.8378 -1.5418
 8499SOL    HW237131   0.807   3.720  16.990 -0.9265  2.1772  1.6462
 8500SOL     OW37132   3.855   1.630  17.506 -0.0309 -0.0415  0.1129
 8500SOL    HW137133   3.914   1.651  17.578 -3.0324  2.8343  1.7191
 8500SOL    HW237134   3.784   1.692  17.523  0.7106  0.8062  0.0400
 8501SOL     OW37135   3.254   1.992  12.434  0.3650 -0.6106  0.3119
 8501SOL    HW137136   3.196   1.981  12.510  0.4293 -0.0776  0.4407
 8501SOL    HW237137   3.294   2.075  12.462 -0.7196 -0.6671  2.0264
 8502SOL     OW37138   2.825   3.141   2.791 -0.2887 -0.4199 -0.4539
 8502SOL    HW137139   2.894   3.150   2.857 -0.1928  0.1944 -0.6422
 8502SOL    HW237140   2.876   3.148   2.710 -0.7780  1.5083 -0.5789
 8503SOL     OW37141   3.209   1.294   5.987  0.2529  0.5188  0.5563
 8503SOL    HW137142   3.121   1.304   5.952  0.6371  1.0684 -0.2752
 8503SOL    HW237143   3.178   1.228   6.048 -1.1917  1.2772  0.6501
 8504SOL     OW37144   0.757   0.270   4.110  0.6782 -0.2327 -0.9731
 8504SOL    HW137145   0.757   0.192   4.053  0.1712 -0.0992 -1.1587
 8504SOL    HW237146   0.663   0.269   4.129  0.3499  1.0829 -2.5313
 8505SOL     OW37147   2.591   1.739   2.716  0.5317  0.1527 -0.4632
 8505SOL    HW137148   2.662   1.796   2.687 -0.1798  1.3781  0.2052
 8505SOL    HW237149   2.524   1.754   2.649  0.5847 -1.3151 -0.8523
 8506SOL     OW37150   1.996   1.186  11.903 -0.2473  0.0343 -0.3005
 8506SOL    HW137151   1.953   1.223  11.981  0.4030 -0.3582  0.2464
 8506SOL    HW237152   2.080   1.232  11.906  1.3732 -2.9237 -0.0909
 8507SOL     OW37153   0.914   0.481   2.422  0.2143 -0.2676 -0.3075
 8507SOL    HW137154   0.943   0.573   2.425  0.3084 -0.2651 -1.3607
 8507SOL    HW237155   0.820   0.488   2.405  0.1341  0.1656  0.2967
 8508SOL     OW37156   0.908   4.431   4.300  0.1761 -0.1597 -0.6885
 8508SOL    HW137157   0.983   4.487   4.283  0.2138 -0.0383 -0.1138
 8508SOL    HW237158   0.844   4.490   4.259  1.5396  1.4037 -0.5637
 8509SOL     OW37159   3.440   3.177   6.968  0.3484 -0.0068  0.5498
 8509SOL    HW137160   3.479   3.106   6.916  2.0141  1.8031 -0.6635
 8509SOL    HW237161   3.347   3.153   6.967  0.2165  0.6580 -3.8357
 8510SOL     OW37162   2.172   1.816   4.059 -0.5571 -0.1614  0.0257
 8510SOL    HW137163   2.181   1.864   3.977 -3.6378  1.1374  0.4358
 8510SOL    HW237164   2.112   1.744   4.037  1.0929 -0.9177 -1.9470
 8511SOL     OW37165   0.283   2.940   7.903  0.3641  0.0428  0.3356
 8511SOL    HW137166   0.343   2.987   7.960 -0.5162  0.8718  0.5802
 8511SOL    HW237167   0.208   2.998   7.890  1.0416  0.5649 -1.3235
 8512SOL     OW37168   0.235   4.592   7.025 -0.0360  0.1033  0.5241
 8512SOL    HW137169   0.184   4.647   7.083  0.3329 -0.5625  1.4777
 8512SOL    HW237170   0.211   4.623   6.937  1.9318 -0.6796 -0.2983
 8513SOL     OW37171   3.488   2.278  10.612 -0.2181 -0.1205  0.4519
 8513SOL    HW137172   3.454   2.340  10.676 -1.3429 -0.2339 -0.0442
 8513SOL    HW237173   3.456   2.319  10.531  1.0238  1.8478  0.9442
 8514SOL     OW37174   2.319   2.470   1.945  0.3690 -0.1344 -0.0956
 8514SOL    HW137175   2.330   2.387   1.900  0.9345 -0.6280  0.9373
 8514SOL    HW237176   2.267   2.452   2.023  0.4364 -0.2801 -0.0853
 8515SOL     OW37177   3.937   2.122   8.839  0.0106 -0.0975 -0.9011
 8515SOL    HW137178   3.881   2.045   8.847 -0.8065  0.4647 -1.1697
 8515SOL    HW237179   4.005   2.091   8.898 -1.8937  0.4312  1.5499
 8516SOL     OW37180   1.467   0.936  16.080  0.1615 -0.4008 -0.7566
 8516SOL    HW137181   1.372   0.928  16.073 -0.2403  0.9994  3.3148
 8516SOL    HW237182   1.475   1.030  16.071  0.3155 -0.4588 -1.1911
 8517SOL     OW37183   2.964   3.289  15.220 -0.9501  0.3544 -0.3636
 8517SOL    HW137184   3.057   3.309  15.236 -1.0096  0.6596 -0.4096
 8517SOL    HW237185   2.942   3.230  15.292 -0.1842  1.0674  0.4630
 8518SOL     OW37186   1.268   2.643  14.728 -0.0381 -0.5269 -0.6643
 8518SOL    HW137187   1.308   2.639  14.814  0.3694 -0.7527 -0.8653
 8518SOL    HW237188   1.222   2.559  14.723  1.0575 -1.1566 -0.0729
 8519SOL     OW37189   0.476   1.637   2.749  0.3146 -0.2811 -0.5787
 8519SOL    HW137190   0.397   1.687   2.766  0.9215  0.3659  0.3705
 8519SOL    HW237191   0.450   1.587   2.672 -3.2893  1.1987 -0.3148
 8520SOL     OW37192   0.821   2.230   9.271 -0.4003 -0.2167 -0.0865
 8520SOL    HW137193   0.846   2.165   9.336 -1.0364 -1.9524 -1.5769
 8520SOL    HW237194   0.795   2.303   9.327 -1.0920 -0.1026 -0.5574
 8521SOL     OW37195   0.269   0.584   4.325 -0.4355  0.1521  0.1687
 8521SOL    HW137196   0.253   0.656   4.264 -1.1344 -0.1924 -0.0667
 8521SOL    HW237197   0.180   0.550   4.335 -0.5115  1.0039  2.3613
 8522SOL     OW37198   3.167   4.211   6.704 -0.0468 -0.5634  0.0695
 8522SOL    HW137199   3.238   4.275   6.697  0.2150 -0.8593  0.0496
 8522SOL    HW237200   3.132   4.214   6.614 -0.8781  0.9578  0.4239
 8523SOL     OW37201   2.619   3.636   2.451  0.3945  0.0416  0.1798
 8523SOL    HW137202   2.649   3.716   2.493 -0.2144  0.4281 -0.1232
 8523SOL    HW237203   2.537   3.673   2.417  1.2919  2.7487  0.9729
 8524SOL     OW37204   4.475   1.949   5.631  0.0185  0.2464  0.3382
 8524SOL    HW137205   4.441   1.907   5.710 -1.6450  0.7073 -0.1149
 8524SOL    HW237206   4.442   1.892   5.561  1.4139  0.0445 -0.1544
 8525SOL     OW37207   2.470   2.008  16.035 -0.4065 -0.5151 -0.1168
 8525SOL    HW137208   2.549   2.013  15.981  0.3573 -0.6658  0.9914
 8525SOL    HW237209   2.456   1.914  16.021 -0.2269 -0.7102  1.0613
 8526SOL     OW37210   1.806   4.324   7.695 -0.7540 -0.0127 -0.9824
 8526SOL    HW137211   1.761   4.243   7.717  0.3367 -0.3371  0.0489
 8526SOL    HW237212   1.876   4.334   7.760 -1.9361 -0.4584  0.3437
 8527SOL     OW37213   2.985   2.566   3.218  0.8154  0.5545  0.3904
 8527SOL    HW137214   2.912   2.562   3.280 -0.6746  1.7403 -1.3010
 8527SOL    HW237215   3.016   2.476   3.228 -0.0947  0.3553  1.3436
 8528SOL     OW37216   2.484   1.897   0.994  0.3940 -0.1458  0.3109
 8528SOL    HW137217   2.558   1.950   1.023 -0.1003  0.8728 -0.3009
 8528SOL    HW237218   2.439   1.885   1.078 -0.4842 -0.6937 -0.2394
 8529SOL     OW37219   2.574   1.832   8.170  0.3357  0.7029  0.1842
 8529SOL    HW137220   2.550   1.876   8.088  2.3944  0.2523 -0.6636
 8529SOL    HW237221   2.527   1.895   8.224 -0.0359  0.2504  0.3920
 8530SOL     OW37222   1.998   1.615   3.984  0.1480  0.6758 -0.0474
 8530SOL    HW137223   2.020   1.565   3.906  0.6370  0.9008 -0.0509
 8530SOL    HW237224   1.945   1.555   4.037  0.7082 -1.0246 -1.4264
 8531SOL     OW37225   2.457   0.323  10.427 -0.3492  0.3727 -0.2196
 8531SOL    HW137226   2.486   0.400  10.477 -0.6177  0.8133 -0.7474
 8531SOL    HW237227   2.501   0.337  10.343  0.7161  2.4930  0.6728
 8532SOL     OW37228   4.626   3.521   8.745 -0.0417 -0.0790  0.1340
 8532SOL    HW137229   4.648   3.613   8.728  1.4430 -0.9448 -2.7144
 8532SOL    HW237230   4.691   3.479   8.689 -0.3041 -0.3975  0.0723
 8533SOL     OW37231   3.788   3.776   9.460  0.1682  0.3604  0.1272
 8533SOL    HW137232   3.835   3.857   9.440  0.3329  0.2756  0.1722
 8533SOL    HW237233   3.850   3.732   9.518  1.3382  0.7686 -0.8020
 8534SOL     OW37234   1.048   3.578  15.870  0.0484  0.3409  0.0819
 8534SOL    HW137235   1.123   3.564  15.812  0.4141 -0.8352  0.8469
 8534SOL    HW237236   0.996   3.638  15.816  2.0669 -0.3585 -2.6871
 8535SOL     OW37237   4.256   3.779   7.697 -0.2280  0.0309  0.0860
 8535SOL    HW137238   4.192   3.833   7.743 -0.0441  1.9249 -1.8932
 8535SOL    HW237239   4.203   3.745   7.624  0.8116  2.4315 -1.7662
 8536SOL     OW37240   2.001   3.906   3.545 -0.3119 -0.2120 -0.3177
 8536SOL    HW137241   2.040   3.824   3.515 -1.1895 -0.3054 -1.1997
 8536SOL    HW237242   2.048   3.920   3.627  1.8672 -1.4474 -1.3504
 8537SOL     OW37243   4.140   0.757   5.310  0.0351  0.5720 -0.2979
 8537SOL    HW137244   4.069   0.777   5.250  1.3625  1.3814 -1.6138
 8537SOL    HW237245   4.219   0.787   5.265  0.4298 -1.2662 -0.8482
 8538SOL     OW37246   2.573   4.739   9.824  0.3930  0.1309 -0.4759
 8538SOL    HW137247   2.562   0.030   9.914  0.7187 -2.5764  0.5466
 8538SOL    HW237248   2.627   4.663   9.846 -1.0891 -0.8068 -0.0607
 8539SOL     OW37249   0.845   2.777   7.402  0.0566 -0.3769 -0.1723
 8539SOL    HW137250   0.786   2.702   7.394  1.7598 -1.6038 -1.2355
 8539SOL    HW237251   0.875   2.766   7.492  1.1904  0.7993 -0.4231
 8540SOL     OW37252   0.342   1.196   7.586  0.2197 -0.4724  0.0239
 8540SOL    HW137253   0.385   1.277   7.560  0.9552 -0.6836  0.5860
 8540SOL    HW237254   0.250   1.217   7.571  0.4997  0.9151  0.2974
 8541SOL     OW37255   0.213   1.098  10.614  0.3911 -0.0849 -0.2328
 8541SOL    HW137256   0.264   1.018  10.606  1.7601  0.6919  0.8301
 8541SOL    HW237257   0.210   1.112  10.709 -1.8352  2.2442 -0.6380
 8542SOL     OW37258   2.308   4.296  16.502 -0.5570 -0.0432  0.4780
 8542SOL    HW137259   2.403   4.300  16.491 -0.7373  0.6854 -0.8388
 8542SOL    HW237260   2.284   4.207  16.530 -0.8331  0.7136  2.6110
 8543SOL     OW37261   2.758   1.288   7.137  0.0345  0.1689  0.2028
 8543SOL    HW137262   2.808   1.208   7.116  1.7040  1.1617  0.3586
 8543SOL    HW237263   2.741   1.322   7.050  0.3325 -1.4745 -0.4983
 8544SOL     OW37264   2.463   3.092   6.592 -0.0218 -0.0024 -0.3847
 8544SOL    HW137265   2.377   3.093   6.633 -1.0259 -1.9178 -2.4399
 8544SOL    HW237266   2.452   3.146   6.514  0.1593  2.6352  1.3963
 8545SOL     OW37267   1.966   0.957  15.946  0.5134 -0.1293 -0.0668
 8545SOL    HW137268   2.051   0.960  15.991 -0.3239 -0.7028  1.5432
 8545SOL    HW237269   1.929   1.042  15.968 -0.5652 -0.2294 -1.5071
 8546SOL     OW37270   1.188   0.929   4.216 -0.2227 -0.4323 -0.5836
 8546SOL    HW137271   1.110   0.886   4.252 -0.0390 -0.0566  0.2716
 8546SOL    HW237272   1.229   0.864   4.159  0.2170  1.8934 -2.8967
 8547SOL     OW37273   1.864   2.613  15.783 -0.4964 -0.1865  0.6814
 8547SOL    HW137274   1.900   2.690  15.740 -1.9999 -0.4601 -1.0670
 8547SOL    HW237275   1.774   2.615  15.750  0.5029  0.5472 -1.9557
 8548SOL     OW37276   0.759   1.879   5.719  0.4188  0.0257 -0.7774
 8548SOL    HW137277   0.760   1.817   5.646  0.2885  0.1319 -0.8719
 8548SOL    HW237278   0.670   1.863   5.751  0.2267  0.4925 -1.0639
 8549SOL     OW37279   1.412   3.806   0.769  0.0127 -0.6036  0.4696
 8549SOL    HW137280   1.489   3.757   0.741  1.7386  1.5947  1.3307
 8549SOL    HW237281   1.375   3.816   0.681  0.2345  2.9690  0.7676
 8550SOL     OW37282   0.064   0.070   1.877 -0.3360  0.1740 -0.4615
 8550SOL    HW137283   0.066   0.082   1.782 -2.2510 -0.9987 -0.6450
 8550SOL    HW237284   4.721   0.107   1.903 -0.6534 -2.8700  2.7752
 8551SOL     OW37285   1.534   0.156   5.445 -0.4246 -0.1018  0.4486
 8551SOL    HW137286   1.566   0.246   5.444 -0.7171 -0.0052 -0.7646
 8551SOL    HW237287   1.607   0.101   5.473  1.1326  1.2345 -0.9806
 8552SOL     OW37288   0.630   4.142   1.152 -0.0434 -0.1349  0.1426
 8552SOL    HW137289   0.680   4.069   1.188  0.2644 -0.1113 -0.2411
 8552SOL    HW237290   0.657   4.213   1.210  1.9300 -2.0816  1.5796
 8553SOL     OW37291   0.914   4.624  11.561  0.1944 -0.1711 -0.3921
 8553SOL    HW137292   0.832   4.577  11.547 -0.4700  0.6766  0.6512
 8553SOL    HW237293   0.885   4.714  11.574  2.7966  0.7451 -0.8671
 8554SOL     OW37294   0.377   2.892   3.737 -0.4355  0.0870  0.3689
 8554SOL    HW137295   0.440   2.881   3.808  1.7537  0.3284 -1.5514
 8554SOL    HW237296   0.397   2.977   3.697  2.0001 -0.0087  1.4013
 8555SOL     OW37297   2.185   3.116   5.566 -0.2185 -0.0306 -0.1571
 8555SOL    HW137298   2.186   3.179   5.494 -2.2971  0.7110  0.4703
 8555SOL    HW237299   2.198   3.032   5.523  0.3459 -0.6360  1.1636
 8556SOL     OW37300   1.554   1.456   8.846 -0.1322  0.3459 -0.2906
 8556SOL    HW137301   1.556   1.394   8.774 -0.0208  0.8050 -0.6868
 8556SOL    HW237302   1.550   1.404   8.926  1.1138  0.3168 -0.2487
 8557SOL     OW37303   3.681   3.546   2.331  0.1368 -0.0876 -0.0691
 8557SOL    HW137304   3.606   3.595   2.299  0.5943 -0.0962 -1.1772
 8557SOL    HW237305   3.664   3.456   2.303  1.1764 -0.3732  0.1951
 8558SOL     OW37306   0.529   4.725   1.563  0.1904 -0.3329 -0.8649
 8558SOL    HW137307   0.472   4.649   1.563 -1.8368  1.1870  4.4866
 8558SOL    HW237308   0.531   0.010   1.471 -1.9234 -1.5267 -1.2504
 8559SOL     OW37309   0.991   4.231   2.006 -0.3607  0.0049  0.1632
 8559SOL    HW137310   0.933   4.281   1.949  2.9878  0.8815 -2.4359
 8559SOL    HW237311   1.016   4.155   1.954 -3.0898 -0.1969 -0.8425
 8560SOL     OW37312   3.797   2.714   8.183  0.1245 -0.0301  0.0975
 8560SOL    HW137313   3.782   2.621   8.198  0.7139 -0.3401 -1.1867
 8560SOL    HW237314   3.726   2.726   8.119 -1.4816  0.9428  2.0414
 8561SOL     OW37315   4.034   3.019   2.400  0.4260  0.0607  0.5800
 8561SOL    HW137316   4.042   2.998   2.308 -0.7820 -1.2243  0.7765
 8561SOL    HW237317   4.081   3.102   2.411 -0.2487  0.6435 -0.9934
 8562SOL     OW37318   4.270   2.719   4.857 -0.7425 -0.3247  0.0214
 8562SOL    HW137319   4.231   2.685   4.777 -1.6816 -4.1456  2.1148
 8562SOL    HW237320   4.315   2.639   4.883 -3.0550 -1.6513 -0.0610
 8563SOL     OW37321   1.359   3.488   7.808 -0.3803  0.0828  0.1016
 8563SOL    HW137322   1.442   3.530   7.788 -0.0167 -1.4554 -1.6526
 8563SOL    HW237323   1.379   3.442   7.890 -2.1716  0.9796  1.0404
 8564SOL     OW37324   3.905   3.365   2.406  0.0641 -0.1174  0.0225
 8564SOL    HW137325   3.921   3.455   2.435  2.0618  0.0690 -1.6554
 8564SOL    HW237326   3.995   3.333   2.399  0.1307  0.0030  0.3003
 8565SOL     OW37327   2.258   1.239   2.032  0.1148 -0.0219 -0.0165
 8565SOL    HW137328   2.291   1.214   2.118 -0.2737  0.4856  0.2830
 8565SOL    HW237329   2.165   1.223   2.044  0.5122 -2.9059 -0.7981
 8566SOL     OW37330   4.014   2.055   4.291 -0.0396  0.5457  0.0760
 8566SOL    HW137331   3.940   2.031   4.235  0.1794  0.3240 -0.1215
 8566SOL    HW237332   4.006   2.149   4.276  2.6773  0.2349 -3.5005
 8567SOL     OW37333   3.209   4.661  10.180  0.3792 -0.4348  0.3194
 8567SOL    HW137334   3.145   4.730  10.198 -1.1517 -1.5789 -0.8044
 8567SOL    HW237335   3.209   4.666  10.085 -0.8863  2.8430  0.4746
 8568SOL     OW37336   2.234   0.268   7.878  0.0218  0.0052 -0.2861
 8568SOL    HW137337   2.250   0.227   7.963  0.8013  1.2869  0.1802
 8568SOL    HW237338   2.252   0.185   7.834  0.1734 -1.0251  1.7162
 8569SOL     OW37339   1.039   0.893   2.037  0.2992 -0.6846 -0.4093
 8569SOL    HW137340   1.053   0.819   1.978  0.4518 -0.5421 -0.5501
 8569SOL    HW237341   1.111   0.951   2.014  0.3581 -0.6532 -0.1502
 8570SOL     OW37342   3.121   3.737   4.192 -0.2436 -0.1854  0.4901
 8570SOL    HW137343   3.137   3.826   4.161 -0.3012 -0.2853  0.1746
 8570SOL    HW237344   3.066   3.699   4.124  0.4956  1.9026 -1.2611
 8571SOL     OW37345   0.321   1.387   2.246 -0.3209 -0.5702  0.1009
 8571SOL    HW137346   0.282   1.356   2.165  1.3489  2.2250 -1.7513
 8571SOL    HW237347   0.240   1.391   2.299  0.6581 -2.1987  1.7336
 8572SOL     OW37348   3.012   0.685  16.983 -0.4066  0.9065  0.6422
 8572SOL    HW137349   3.076   0.756  16.975  0.9408 -0.4753 -0.6673
 8572SOL    HW237350   2.940   0.740  17.015  1.9721  3.2222  2.0021
 8573SOL     OW37351   0.371   4.475   8.559  0.5131  0.5814  0.2342
 8573SOL    HW137352   0.389   4.390   8.598 -0.2508  0.3177 -0.0087
 8573SOL    HW237353   0.308   4.442   8.496  0.6062  1.3767 -0.2763
 8574SOL     OW37354   0.331   1.476   3.020  0.4228  0.6389 -0.3856
 8574SOL    HW137355   0.345   1.510   3.109  2.4267 -0.8573 -0.1206
 8574SOL    HW237356   0.344   1.554   2.966 -1.6412  2.0830  1.2199
 8575SOL     OW37357   1.833   2.292  10.618  0.2246  0.2712  0.2417
 8575SOL    HW137358   1.881   2.316  10.697  1.1534 -1.7162  0.2841
 8575SOL    HW237359   1.838   2.197  10.602  1.1900  0.5998 -1.4134
 8576SOL     OW37360   4.539   2.216   0.831 -0.0566 -0.7102 -0.1289
 8576SOL    HW137361   4.506   2.164   0.758  0.0181 -1.0923  0.1111
 8576SOL    HW237362   4.603   2.151   0.861 -0.5748 -0.8031  0.7917
 8577SOL     OW37363   0.452   3.529   2.974 -0.0195 -0.7392 -0.1017
 8577SOL    HW137364   0.457   3.562   2.885 -1.5697  1.2195  0.5261
 8577SOL    HW237365   0.466   3.437   2.955 -1.7092 -1.2238  0.9855
 8578SOL     OW37366   3.049   0.452  14.340 -0.0779  0.3790 -0.2746
 8578SOL    HW137367   3.060   0.545  14.363  0.9664 -0.0250  0.8475
 8578SOL    HW237368   2.972   0.446  14.396 -0.5960  0.3362 -0.9849
 8579SOL     OW37369   2.112   1.484   3.750 -0.1762 -0.2055  0.6733
 8579SOL    HW137370   2.075   1.405   3.711 -0.0090 -0.1222  0.3521
 8579SOL    HW237371   2.160   1.521   3.676 -1.5801  1.2526  0.5190
 8580SOL     OW37372   0.710   4.403   2.492  0.2695  0.2991 -0.1180
 8580SOL    HW137373   0.772   4.399   2.565 -0.0446 -1.2886  0.0645
 8580SOL    HW237374   0.655   4.330   2.518  0.5104  0.7057  1.5153
 8581SOL     OW37375   2.059   2.965   3.840  0.3196 -0.0090  0.3134
 8581SOL    HW137376   2.059   2.940   3.748  0.1820 -2.0997  0.8788
 8581SOL    HW237377   2.062   3.061   3.838  0.7028 -0.0390 -0.4895
 8582SOL     OW37378   1.727   0.813   6.858 -0.2374 -0.1513  0.0528
 8582SOL    HW137379   1.778   0.733   6.866  0.1204  0.1792  1.1372
 8582SOL    HW237380   1.796   0.879   6.847 -0.1818  0.0901  1.8491
 8583SOL     OW37381   1.707   2.397   6.806 -0.2336 -0.0030  0.0353
 8583SOL    HW137382   1.650   2.381   6.881  1.3433  2.8882  1.8496
 8583SOL    HW237383   1.794   2.389   6.845  0.1739  3.6460 -0.1940
 8584SOL     OW37384   1.885   1.889   3.225  0.1429 -0.4490  0.4645
 8584SOL    HW137385   1.832   1.914   3.300 -0.3054 -0.0681  0.0161
 8584SOL    HW237386   1.974   1.887   3.260  0.3022 -0.3476  0.0732
 8585SOL     OW37387   2.659   1.975  15.587 -0.3059  0.3645 -0.4399
 8585SOL    HW137388   2.689   1.963  15.496 -2.1003  1.2862 -1.1340
 8585SOL    HW237389   2.700   2.060  15.606  2.8741 -1.3690  0.5830
 8586SOL     OW37390   1.923   1.199   8.853 -0.4176 -0.1538 -0.0676
 8586SOL    HW137391   1.906   1.268   8.917 -2.9291  1.3676 -2.3690
 8586SOL    HW237392   1.893   1.243   8.774  0.7372 -1.4976 -1.2493
 8587SOL     OW37393   3.789   1.688  15.291  0.0955  0.6294  0.4763
 8587SOL    HW137394   3.819   1.763  15.241  1.2078  1.1934  1.9983
 8587SOL    HW237395   3.820   1.701  15.380  0.0634  1.7208  0.3193
 8588SOL     OW37396   2.232   4.735   5.528  0.4579 -0.1778 -0.0318
 8588SOL    HW137397   2.166   4.676   5.491 -1.0766  1.5740 -0.0934
 8588SOL    HW237398   2.283   0.021   5.452 -1.1799 -1.5641 -1.6643
 8589SOL     OW37399   3.045   3.022   5.797 -0.0030 -0.2968  0.0475
 8589SOL    HW137400   3.086   3.037   5.882  1.6639 -0.7608 -0.6709
 8589SOL    HW237401   3.122   3.004   5.743  0.6172 -0.8685  1.1063
 8590SOL     OW37402   1.070   0.596   9.029 -0.5030  0.0827  0.0031
 8590SOL    HW137403   1.041   0.675   9.074  0.3748 -0.5018  1.5642
 8590SOL    HW237404   1.103   0.543   9.101  2.2950  1.0281 -0.6057
 8591SOL     OW37405   1.285   1.974   8.240 -0.6067  0.2711  0.5706
 8591SOL    HW137406   1.216   2.008   8.297 -1.1453 -2.2014  1.4049
 8591SOL    HW237407   1.339   1.922   8.300  1.2636  2.3044  0.6681
 8592SOL     OW37408   4.312   0.620  14.056 -0.1547  0.1928  0.0534
 8592SOL    HW137409   4.241   0.558  14.043  0.7928 -0.6783 -1.0346
 8592SOL    HW237410   4.264   0.702  14.067  0.9771  0.6813  1.3505
 8593SOL     OW37411   3.199   0.101  13.910 -0.1190 -0.5239  0.1087
 8593SOL    HW137412   3.210   0.036  13.980  0.8109 -1.8074 -1.2210
 8593SOL    HW237413   3.192   0.042  13.834  0.8555 -0.3675 -0.0998
 8594SOL     OW37414   3.380   3.951  15.747 -0.6111  0.0755 -0.3362
 8594SOL    HW137415   3.400   3.923  15.837  3.0606  1.6265 -0.6481
 8594SOL    HW237416   3.464   3.989  15.721 -0.0628  0.3218  1.7579
 8595SOL     OW37417   2.473   0.684  11.215 -0.1219  0.4013 -0.5648
 8595SOL    HW137418   2.465   0.707  11.307  3.2177  1.7588 -0.5993
 8595SOL    HW237419   2.453   0.770  11.179 -0.5024 -0.3615 -2.1557
 8596SOL     OW37420   2.927   3.961   3.331  0.1270  0.1356  0.4815
 8596SOL    HW137421   2.941   3.870   3.304  2.8248  0.5182  0.5975
 8596SOL    HW237422   2.849   3.975   3.279 -0.2416 -2.8500  0.2120
 8597SOL     OW37423   1.562   2.605   2.763 -0.2375 -0.0533 -0.1515
 8597SOL    HW137424   1.638   2.656   2.792  1.0254 -2.8022  1.2854
 8597SOL    HW237425   1.533   2.571   2.848 -0.0241  1.3718  0.5119
 8598SOL     OW37426   4.707   3.909  13.116  0.6232  0.3986 -0.2012
 8598SOL    HW137427   4.726   3.919  13.209  1.9412  1.1184 -0.5457
 8598SOL    HW237428   4.617   3.881  13.129  0.6664  0.4932  0.3044
 8599SOL     OW37429   0.450   3.315   8.833 -0.1462 -0.4274  0.4976
 8599SOL    HW137430   0.478   3.297   8.743  0.5914 -2.4171  1.1243
 8599SOL    HW237431   0.537   3.336   8.869 -0.5412  1.1171  0.5402
 8600SOL     OW37432   1.072   3.841   3.462  0.1684  0.1206  0.4073
 8600SOL    HW137433   1.108   3.904   3.524 -0.2723 -0.9527  1.7562
 8600SOL    HW237434   1.040   3.769   3.517  0.8053 -0.0795  0.5145
 8601SOL     OW37435   1.891   0.180   9.314  0.3703  0.3678 -0.2045
 8601SOL    HW137436   1.887   0.263   9.266  1.4772  1.7016  2.0000
 8601SOL    HW237437   1.881   0.214   9.402  0.3542 -1.3426  0.4498
 8602SOL     OW37438   1.058   2.518   0.113 -0.1843 -0.6570  0.1928
 8602SOL    HW137439   1.127   2.453   0.097 -0.5497 -1.7127  2.7436
 8602SOL    HW237440   1.019   2.515   0.026  0.1223 -0.3328  0.0464
 8603SOL     OW37441   4.505   0.591  17.543 -0.3194  0.1904  0.0698
 8603SOL    HW137442   4.475   0.504  17.569 -0.4485  0.3141  0.3403
 8603SOL    HW237443   4.462   0.604  17.459 -0.5355  0.9940  0.3074
 8604SOL     OW37444   3.113   3.138   6.308 -0.1864  0.4477 -0.7286
 8604SOL    HW137445   3.031   3.122   6.356  0.2715 -1.6597 -0.6419
 8604SOL    HW237446   3.174   3.096   6.369  0.6676  1.0489 -1.1768
 8605SOL     OW37447   0.425   1.006   9.305 -0.0999  0.0874 -0.4501
 8605SOL    HW137448   0.506   1.031   9.350 -0.6911 -1.0248  1.2539
 8605SOL    HW237449   0.362   1.014   9.377  1.2743 -1.8432  1.0092
 8606SOL     OW37450   1.915   2.819   6.179  0.0608  0.1410 -0.2341
 8606SOL    HW137451   1.864   2.779   6.250  1.6845  0.5503  1.1469
 8606SOL    HW237452   1.851   2.880   6.143 -1.0123 -0.1324  1.2090
 8607SOL     OW37453   0.151   1.862   0.246 -0.4334  0.0065 -0.5211
 8607SOL    HW137454   0.147   1.876   0.341 -0.5474 -1.7979 -0.2574
 8607SOL    HW237455   0.060   1.884   0.223 -0.0937  3.1405  1.1565
 8608SOL     OW37456   4.481   4.374   9.665 -0.7645  0.5130 -0.2727
 8608SOL    HW137457   4.525   4.389   9.749 -0.1165 -1.2141 -0.3016
 8608SOL    HW237458   4.555   4.369   9.606 -0.2265 -1.8590  0.5827
 8609SOL     OW37459   2.375   1.718   8.758  0.3944  0.1621  0.0982
 8609SOL    HW137460   2.307   1.667   8.713 -1.3270  1.5995  1.0743
 8609SOL    HW237461   2.327   1.730   8.839  1.4423 -1.9568  1.0425
 8610SOL     OW37462   3.774   0.626   9.140 -0.0502  0.3072  0.4514
 8610SOL    HW137463   3.775   0.719   9.162  0.2535  0.0075  1.6838
 8610SOL    HW237464   3.866   0.600   9.142 -0.3098 -0.7953 -1.4685
 8611SOL     OW37465   3.958   1.210   1.892  0.7950 -0.5205 -0.1014
 8611SOL    HW137466   3.869   1.176   1.902  0.7397 -0.6761 -1.0976
 8611SOL    HW237467   3.976   1.229   1.984 -2.4447 -2.3337  0.8930
 8612SOL     OW37468   2.667   2.478   7.313 -0.2179 -0.5412  0.2482
 8612SOL    HW137469   2.575   2.477   7.338  0.9259 -2.2911  4.2621
 8612SOL    HW237470   2.702   2.416   7.377  0.4088  2.0978  2.4055
 8613SOL     OW37471   0.337   1.422   1.147 -0.4219 -0.6340 -0.2258
 8613SOL    HW137472   0.323   1.379   1.231  1.4144 -1.1703 -0.1922
 8613SOL    HW237473   0.429   1.446   1.158 -0.7599 -0.4941  2.2215
 8614SOL     OW37474   1.705   3.596   6.750 -0.1859 -0.1814  0.1530
 8614SOL    HW137475   1.614   3.619   6.732  0.1775  2.0260  1.1308
 8614SOL    HW237476   1.747   3.629   6.670  1.9255  1.2403  1.8402
 8615SOL     OW37477   0.308   0.389   2.690  0.0362 -0.3357 -0.0454
 8615SOL    HW137478   0.306   0.448   2.765 -0.6191 -0.5275  0.0986
 8615SOL    HW237479   0.399   0.362   2.686 -0.4592 -2.2607  1.3991
 8616SOL     OW37480   3.650   2.489   3.471  0.1209 -0.0983 -0.2558
 8616SOL    HW137481   3.589   2.522   3.537 -0.9617  0.3545 -1.4953
 8616SOL    HW237482   3.672   2.561   3.413 -3.7081  2.1074  1.0362
 8617SOL     OW37483   1.449   1.582   4.605  0.0023  0.2328 -0.2703
 8617SOL    HW137484   1.455   1.616   4.694  1.1755 -0.2016 -0.1939
 8617SOL    HW237485   1.539   1.553   4.596 -0.3944 -0.5384 -1.8001
 8618SOL     OW37486   2.146   0.977   8.792 -0.3133 -0.2464  0.2299
 8618SOL    HW137487   2.158   1.070   8.811 -0.5653 -0.6368  2.3171
 8618SOL    HW237488   2.084   0.976   8.718  1.2127  0.4780 -1.0492
 8619SOL     OW37489   1.308   3.701   9.747  0.3144  0.3129  0.4825
 8619SOL    HW137490   1.357   3.701   9.829 -0.2643  0.3424  0.8242
 8619SOL    HW237491   1.265   3.616   9.754 -0.3085  0.5361 -0.5351
 8620SOL     OW37492   3.658   0.757  17.559  0.2609  0.4848 -0.0447
 8620SOL    HW137493   3.751   0.739  17.544  0.4816  0.6560  1.1795
 8620SOL    HW237494   3.655   0.844  17.519  2.8842 -0.2753 -1.9189
 8621SOL     OW37495   2.290   3.821   4.753 -0.0379 -0.7673 -0.5654
 8621SOL    HW137496   2.363   3.761   4.742  0.2943 -0.4520 -0.0652
 8621SOL    HW237497   2.336   3.905   4.748  1.2677 -1.3892  0.7718
 8622SOL     OW37498   2.450   1.896  13.627  0.4399 -0.0166  0.7110
 8622SOL    HW137499   2.487   1.850  13.702 -0.7954 -0.5513  0.9984
 8622SOL    HW237500   2.528   1.886  13.572 -0.3971 -0.4684 -0.4007
 8623SOL     OW37501   2.700   1.771  10.818  0.0509 -0.0327 -0.1726
 8623SOL    HW137502   2.789   1.737  10.832 -0.2027 -1.4340 -1.9603
 8623SOL    HW237503   2.711   1.799  10.727 -2.8587  0.1457 -0.4660
 8624SOL     OW37504   4.662   3.714   5.008 -0.7195  0.5756 -0.0192
 8624SOL    HW137505   4.614   3.670   4.938  0.5805 -1.3866  0.2917
 8624SOL    HW237506   4.688   3.633   5.052  0.0911  1.0103  0.3004
 8625SOL     OW37507   0.521   2.006  15.029  0.0729  0.0314 -0.5974
 8625SOL    HW137508   0.435   2.040  15.006 -0.3528  0.4021  1.5707
 8625SOL    HW237509   0.542   2.062  15.103 -1.9897 -0.6806  0.5109
 8626SOL     OW37510   4.586   0.078   8.682  0.0835 -0.3322 -0.1164
 8626SOL    HW137511   4.636   0.158   8.665  1.3973 -0.9431  0.8626
 8626SOL    HW237512   4.502   0.086   8.637 -0.2137  2.2475  0.9228
 8627SOL     OW37513   4.447   0.213   3.380 -0.3304 -0.3665  0.4947
 8627SOL    HW137514   4.505   0.138   3.367 -1.0478 -1.3983  3.3265
 8627SOL    HW237515   4.494   0.272   3.321 -2.1973 -1.2230 -1.8398
 8628SOL     OW37516   1.238   4.491   3.565 -0.2914 -0.1082  0.3323
 8628SOL    HW137517   1.290   4.472   3.643 -1.8425 -2.4221  0.8226
 8628SOL    HW237518   1.157   4.449   3.594  0.3516 -1.8437 -0.3999
 8629SOL     OW37519   4.397   2.098   5.321 -0.2086  0.2439 -0.4616
 8629SOL    HW137520   4.480   2.126   5.360 -1.3998  2.3168  0.6169
 8629SOL    HW237521   4.386   2.011   5.359  0.2092  0.4579  0.1535
 8630SOL     OW37522   1.755   2.611   2.451  0.3590 -0.1469  0.4151
 8630SOL    HW137523   1.820   2.682   2.443 -0.5040  0.5666 -0.2970
 8630SOL    HW237524   1.707   2.639   2.530  0.0903  3.1408 -0.8876
 8631SOL     OW37525   0.900   4.192   7.048 -0.1410  0.0723  0.0053
 8631SOL    HW137526   0.902   4.272   6.996  0.9433  1.2718  1.9056
 8631SOL    HW237527   0.826   4.206   7.107  1.1139  1.9456  1.1352
 8632SOL     OW37528   4.186   1.885   7.856 -0.2456 -0.5454 -0.0701
 8632SOL    HW137529   4.255   1.831   7.818 -0.0825 -1.1975  1.1422
 8632SOL    HW237530   4.119   1.819   7.875  1.6368 -2.1383  1.1148
 8633SOL     OW37531   3.172   1.723   0.010 -0.0823 -0.3278  0.2563
 8633SOL    HW137532   3.157   1.801  17.720 -0.7684 -1.3682 -1.0661
 8633SOL    HW237533   3.090   1.719   0.058 -0.0006 -1.0849  0.3251
 8634SOL     OW37534   0.051   4.239   6.396  0.1058  0.2028 -0.0696
 8634SOL    HW137535   0.036   4.205   6.307  3.0800 -0.7282 -0.2230
 8634SOL    HW237536   4.704   4.254   6.427  0.2442  0.1770  0.3347
 8635SOL     OW37537   3.919   4.594  11.086  0.5709  0.7101  0.4950
 8635SOL    HW137538   3.970   4.562  11.161  0.7931  0.4923  0.2540
 8635SOL    HW237539   3.836   4.547  11.083  1.4826 -0.8832 -0.0681
 8636SOL     OW37540   4.219   1.907   0.368 -0.8961 -0.2340  0.4136
 8636SOL    HW137541   4.219   1.964   0.445 -1.7744  0.1937  0.1016
 8636SOL    HW237542   4.190   1.835   0.423 -1.7686 -1.2913 -1.4552
 8637SOL     OW37543   4.058   2.638   4.674 -0.0135 -0.1149 -0.6006
 8637SOL    HW137544   4.119   2.692   4.624 -0.0911  1.2071  0.7001
 8637SOL    HW237545   4.016   2.583   4.608  1.9583 -0.9546 -1.1217
 8638SOL     OW37546   0.512   1.427   8.038 -0.1193 -0.0883 -0.0669
 8638SOL    HW137547   0.433   1.470   8.070 -0.7926 -1.0771 -0.4216
 8638SOL    HW237548   0.473   1.341   8.026 -1.7227  0.5697  0.4769
 8639SOL     OW37549   3.595   3.404   1.956  0.2753 -0.0037 -0.4233
 8639SOL    HW137550   3.559   3.345   1.890  0.9902 -0.0479 -0.7713
 8639SOL    HW237551   3.645   3.344   2.012  0.7143  0.1346 -0.6657
 8640SOL     OW37552   0.780   0.776   6.503  0.3494 -0.4212  0.2882
 8640SOL    HW137553   0.776   0.839   6.575 -2.0709 -1.3591  0.9794
 8640SOL    HW237554   0.868   0.740   6.518  0.2366 -0.9202 -0.2669
 8641SOL     OW37555   3.590   0.572   4.611  0.1067 -0.6028  0.2025
 8641SOL    HW137556   3.637   0.594   4.692 -1.0205 -0.2086  0.7570
 8641SOL    HW237557   3.511   0.626   4.625 -0.4899 -0.7846 -2.5359
 8642SOL     OW37558   2.500   4.587   5.019  0.0602 -0.3864  0.1071
 8642SOL    HW137559   2.549   4.578   5.101 -1.9551 -1.8666  1.1664
 8642SOL    HW237560   2.566   4.615   4.956  0.8603 -0.4094  0.9366
 8643SOL     OW37561   2.481   1.701   2.338  0.4547 -0.1966 -0.0652
 8643SOL    HW137562   2.468   1.613   2.304 -0.2759 -0.2612  0.3901
 8643SOL    HW237563   2.576   1.702   2.354  0.1314  1.8050  1.7818
 8644SOL     OW37564   0.236   2.925   6.286 -0.5957  0.1836  0.6596
 8644SOL    HW137565   0.196   2.865   6.349  1.5628 -0.0182  1.8300
 8644SOL    HW237566   0.207   3.011   6.316 -1.5563  0.4490 -1.0490
 8645SOL     OW37567   1.209   1.188   9.882  0.0728  0.1041  0.5526
 8645SOL    HW137568   1.254   1.263   9.920 -2.8756  1.3801  1.5774
 8645SOL    HW237569   1.120   1.210   9.910 -0.2490  2.1494 -2.1777
 8646SOL     OW37570   2.421   3.431  10.622 -0.2910 -0.0631  0.3644
 8646SOL    HW137571   2.498   3.374  10.627  0.2134  0.4761 -1.5915
 8646SOL    HW237572   2.424   3.474  10.707 -0.5437  2.6898 -1.0454
 8647SOL     OW37573   4.049   1.382   7.732 -1.2644 -0.0438  0.2232
 8647SOL    HW137574   3.990   1.317   7.770  1.0123 -1.2190  1.7486
 8647SOL    HW237575   4.014   1.389   7.643  0.4823  0.4095 -0.4163
 8648SOL     OW37576   1.734   1.881   4.556  0.7307  0.2558  0.3645
 8648SOL    HW137577   1.691   1.854   4.475  1.9056 -0.6248  0.0365
 8648SOL    HW237578   1.755   1.797   4.597  0.0392 -0.2637 -0.3580
 8649SOL     OW37579   2.440   2.832   5.688 -0.7119  0.0129 -0.0275
 8649SOL    HW137580   2.453   2.737   5.688 -1.3289 -0.0631  1.5687
 8649SOL    HW237581   2.453   2.850   5.594  0.4404 -1.5554 -0.1650
 8650SOL     OW37582   0.050   2.236  17.187  0.3798 -0.7402 -0.2580
 8650SOL    HW137583   0.105   2.287  17.128 -0.8720 -2.1185 -2.6009
 8650SOL    HW237584   4.715   2.225  17.131  1.0351  0.2830 -1.3634
 8651SOL     OW37585   1.042   0.190   4.695 -0.0429  0.1986  0.0447
 8651SOL    HW137586   1.122   0.209   4.645  0.7275  0.5037  1.4093
 8651SOL    HW237587   0.975   0.182   4.626 -0.3672 -0.5023  0.4477
 8652SOL     OW37588   3.236   4.331   2.759  0.1617  0.1788  0.5436
 8652SOL    HW137589   3.236   4.424   2.737  1.6000  0.4940  1.8317
 8652SOL    HW237590   3.325   4.320   2.794  0.0914 -0.1937  0.6046
 8653SOL     OW37591   0.077   0.196   9.467 -0.2896 -0.3383 -0.0942
 8653SOL    HW137592   0.070   0.143   9.546  1.8152 -0.8068 -0.2248
 8653SOL    HW237593   0.145   0.259   9.493 -0.8096  0.5255 -0.8294
 8654SOL     OW37594   0.451   2.882   2.423 -0.0944  0.5673  0.5581
 8654SOL    HW137595   0.385   2.857   2.488 -2.1919  1.2788 -1.3212
 8654SOL    HW237596   0.448   2.977   2.409 -1.0639 -0.1327 -3.8816
 8655SOL     OW37597   4.138   3.164  13.265 -0.7332 -0.3222 -0.0438
 8655SOL    HW137598   4.150   3.203  13.178  1.3691 -0.9107 -0.0090
 8655SOL    HW237599   4.157   3.074  13.237 -1.7796 -1.7272  3.7870
 8656SOL     OW37600   1.231   0.865   5.471  0.4644 -0.0547 -0.2707
 8656SOL    HW137601   1.244   0.774   5.497  0.0918 -0.2756 -0.8738
 8656SOL    HW237602   1.254   0.865   5.378  0.6641 -0.1894 -0.2201
 8657SOL     OW37603   4.463   2.947   7.477 -0.2727 -0.0213  0.5685
 8657SOL    HW137604   4.443   3.000   7.400 -1.3322 -2.0792 -0.5684
 8657SOL    HW237605   4.502   3.013   7.535 -0.1861  0.1479  0.3152
 8658SOL     OW37606   4.272   2.628   4.280  0.0050  0.0941 -0.5725
 8658SOL    HW137607   4.195   2.615   4.335  1.1940  0.5506  1.2288
 8658SOL    HW237608   4.229   2.631   4.195  0.3135 -0.6065 -0.7551
 8659SOL     OW37609   1.357   2.009   3.158 -0.3438  0.1422 -0.1004
 8659SOL    HW137610   1.414   2.085   3.153  0.4666 -0.3559  1.8004
 8659SOL    HW237611   1.406   1.963   3.226 -0.2510 -0.8596 -0.8477
 8660SOL     OW37612   0.139   1.313   0.955 -0.4519  0.0704 -0.3906
 8660SOL    HW137613   0.187   1.330   1.036 -1.5533 -4.5042  1.2420
 8660SOL    HW237614   0.203   1.316   0.883  0.2345 -2.3034  0.0950
 8661SOL     OW37615   3.639   1.909   7.895  0.1926 -0.0945 -0.4098
 8661SOL    HW137616   3.689   1.846   7.844  1.1498  0.6622 -0.3995
 8661SOL    HW237617   3.563   1.851   7.900 -0.1654  0.3123 -0.9774
 8662SOL     OW37618   1.722   2.923  16.031  0.2065  0.0664  1.0987
 8662SOL    HW137619   1.718   2.881  16.117  2.4723 -2.4646 -0.0097
 8662SOL    HW237620   1.655   2.870  15.988  2.5617 -1.6066 -0.5278
 8663SOL     OW37621   3.265   3.564   6.560 -0.0490  0.1632 -0.2338
 8663SOL    HW137622   3.199   3.494   6.565 -2.4746  2.4059 -0.4012
 8663SOL    HW237623   3.344   3.524   6.595  0.0422 -0.1477 -0.8002
 8664SOL     OW37624   2.400   0.244   2.504  0.0087  0.3131 -0.9459
 8664SOL    HW137625   2.416   0.302   2.578  3.0618 -0.7379 -0.7765
 8664SOL    HW237626   2.378   0.316   2.445  0.4155 -0.2322 -1.7634
 8665SOL     OW37627   2.357   2.384   4.311  0.1417 -0.2744 -0.6295
 8665SOL    HW137628   2.398   2.448   4.254  2.3536 -0.8488  0.3327
 8665SOL    HW237629   2.365   2.309   4.252 -2.0053 -0.3945 -0.7779
 8666SOL     OW37630   4.047   3.285   7.168 -0.0014 -0.2435 -0.0883
 8666SOL    HW137631   4.135   3.266   7.201  0.1835 -0.7421 -0.8761
 8666SOL    HW237632   4.057   3.311   7.077  1.2521  2.3921  0.8145
 8667SOL     OW37633   1.600   1.171   7.184  0.6254 -0.2030  0.4586
 8667SOL    HW137634   1.655   1.186   7.261  0.9438  0.4354  0.1078
 8667SOL    HW237635   1.668   1.151   7.119  0.1996 -1.4189  0.3986
 8668SOL     OW37636   4.332   1.192   3.087  0.1130 -0.9168 -0.4851
 8668SOL    HW137637   4.382   1.146   3.020  1.6992  2.3916 -1.5581
 8668SOL    HW237638   4.378   1.153   3.162 -0.1898 -0.5244 -0.0946
 8669SOL     OW37639   2.658   1.843   6.488  0.0619  0.3975  0.3711
 8669SOL    HW137640   2.646   1.751   6.463  0.0930  0.4896  0.0264
 8669SOL    HW237641   2.695   1.841   6.576 -1.9198 -1.0712  1.1913
 8670SOL     OW37642   1.546   4.258  10.659 -0.1196  0.0533 -0.3047
 8670SOL    HW137643   1.470   4.241  10.604  0.2876 -3.6904  0.3228
 8670SOL    HW237644   1.528   4.334  10.714 -0.9882  1.6945 -2.8575
 8671SOL     OW37645   3.085   4.718   2.941 -0.4799  0.6470  0.4345
 8671SOL    HW137646   3.037   4.646   2.982 -0.6410 -1.5871 -3.6577
 8671SOL    HW237647   3.127   4.675   2.867 -3.4232  1.3791 -1.6471
 8672SOL     OW37648   1.342   2.785   8.253 -0.0438  0.1006  0.5561
 8672SOL    HW137649   1.291   2.719   8.299 -0.6102 -0.4520 -0.8782
 8672SOL    HW237650   1.307   2.864   8.295 -2.3638 -0.2132 -0.7734
 8673SOL     OW37651   4.697   0.320  13.933 -0.1664 -0.8386 -0.3133
 8673SOL    HW137652   4.638   0.381  13.977  0.2044 -0.6898 -0.0242
 8673SOL    HW237653   4.741   0.386  13.878  2.5485 -1.7019  0.8055
 8674SOL     OW37654   4.228   3.477   4.118  0.1619 -0.2777 -0.6865
 8674SOL    HW137655   4.321   3.492   4.134 -0.2151  1.2150  0.2083
 8674SOL    HW237656   4.191   3.559   4.086 -0.3866  0.3460  1.5196
 8675SOL     OW37657   1.194   1.855   1.054 -0.0996 -0.1840 -0.1091
 8675SOL    HW137658   1.251   1.793   1.100 -1.6012 -1.0482  0.5646
 8675SOL    HW237659   1.115   1.821   1.096 -0.3993 -0.0968 -0.6047
 8676SOL     OW37660   2.854   0.816   2.857  0.3904  0.5224 -0.0598
 8676SOL    HW137661   2.834   0.757   2.785 -0.4979  0.2877  0.3761
 8676SOL    HW237662   2.770   0.829   2.902 -1.5213 -0.2359 -3.4830
 8677SOL     OW37663   3.000   2.490   4.932 -0.0404  0.0699  0.0021
 8677SOL    HW137664   2.988   2.554   5.001 -1.7684 -2.3402  1.9385
 8677SOL    HW237665   2.931   2.525   4.874 -0.5466 -1.6057 -0.4239
 8678SOL     OW37666   1.148   3.667  11.889 -0.0253 -1.0093  0.2526
 8678SOL    HW137667   1.225   3.630  11.844  0.8165 -0.1157  0.9687
 8678SOL    HW237668   1.108   3.582  11.909  1.1530 -2.2447 -2.5282
 8679SOL     OW37669   4.609   1.539   6.528  0.2284 -0.4947 -0.2546
 8679SOL    HW137670   4.689   1.495   6.501 -0.1104 -1.2959  0.0453
 8679SOL    HW237671   4.586   1.492   6.609 -1.0838 -1.6905 -1.3217
 8680SOL     OW37672   0.632   3.215  17.746 -0.2952 -0.2246  1.3087
 8680SOL    HW137673   0.727   3.226  17.749 -0.6751  3.2692  0.2112
 8680SOL    HW237674   0.616   3.162   0.061 -2.3177  0.8015  1.6095
 8681SOL     OW37675   0.950   1.700   9.826 -0.4398  0.8398  0.5635
 8681SOL    HW137676   0.898   1.706   9.746  1.1447 -0.7310 -0.5918
 8681SOL    HW237677   0.940   1.786   9.866 -1.4696 -0.0410  2.1806
 8682SOL     OW37678   1.209   0.333   7.174 -0.7098  0.4627 -0.2969
 8682SOL    HW137679   1.136   0.390   7.149 -2.0489 -0.8404  0.7039
 8682SOL    HW237680   1.198   0.318   7.268  1.4260 -1.3001 -0.3204
 8683SOL     OW37681   1.864   2.279   2.869  0.5913  0.5880 -0.1029
 8683SOL    HW137682   1.861   2.236   2.955  0.2912  0.0160 -0.3995
 8683SOL    HW237683   1.775   2.261   2.837  1.1962  0.4929 -1.7158
 8684SOL     OW37684   0.374   2.514   6.413  0.0547 -0.2626 -0.0669
 8684SOL    HW137685   0.326   2.593   6.437  1.0417  0.2178  0.3412
 8684SOL    HW237686   0.361   2.512   6.319  0.3969  0.2534 -0.1242
 8685SOL     OW37687   0.879   4.569   0.742 -0.1942  0.2215 -0.0711
 8685SOL    HW137688   0.795   4.524   0.744 -1.8928  3.4467  0.6840
 8685SOL    HW237689   0.934   4.511   0.688  0.3616 -1.0451  1.8374
 8686SOL     OW37690   3.436   0.910   6.862  0.7331  0.3507  0.2751
 8686SOL    HW137691   3.455   0.961   6.784 -0.9441  0.6263  0.0398
 8686SOL    HW237692   3.368   0.967   6.897 -1.8269 -1.4468 -1.7901
 8687SOL     OW37693   1.871   3.724   2.032 -0.3196 -0.5954  0.0480
 8687SOL    HW137694   1.917   3.804   2.058  0.5235 -1.3867  0.9930
 8687SOL    HW237695   1.782   3.725   2.069 -1.7712  0.2938 -3.4854
 8688SOL     OW37696   2.993   3.787   9.317  0.2457 -0.4038  0.1969
 8688SOL    HW137697   3.079   3.777   9.359  0.7707  2.4950 -0.2120
 8688SOL    HW237698   2.952   3.714   9.364 -0.1607 -1.0376 -1.1359
 8689SOL     OW37699   1.770   1.296   6.023 -0.2031 -0.0715 -0.2834
 8689SOL    HW137700   1.742   1.323   5.936 -2.7545 -0.2827  0.4569
 8689SOL    HW237701   1.699   1.235   6.045 -1.0397  2.1595  3.2601
 8690SOL     OW37702   0.542   1.423   8.704 -0.3295  0.2355 -0.1555
 8690SOL    HW137703   0.609   1.410   8.637 -0.4457 -2.2141  0.1998
 8690SOL    HW237704   0.502   1.503   8.671 -0.3038  1.6093  3.0990
 8691SOL     OW37705   3.286   2.103  14.762  0.1614 -0.3164  0.4221
 8691SOL    HW137706   3.203   2.121  14.807 -1.1675 -3.1040 -0.9512
 8691SOL    HW237707   3.250   2.119  14.675  0.7931 -1.5183 -0.0464
 8692SOL     OW37708   4.085   0.986   6.097  0.3534 -0.2334 -0.1850
 8692SOL    HW137709   4.116   0.908   6.142 -1.3566  0.0610  1.4900
 8692SOL    HW237710   3.991   0.968   6.097  0.4292 -0.6330  0.2976
 8693SOL     OW37711   0.678   2.629  13.198 -0.1557  0.2387  0.0500
 8693SOL    HW137712   0.598   2.582  13.179  1.2789 -1.3244 -2.1035
 8693SOL    HW237713   0.666   2.615  13.292 -0.4386 -0.0741 -0.0338
 8694SOL     OW37714   3.681   1.974  13.994  0.6481  0.5182 -0.1548
 8694SOL    HW137715   3.740   1.932  13.932  1.7649  0.2993  1.0630
 8694SOL    HW237716   3.666   2.064  13.963 -0.2244  0.6734  0.7190
 8695SOL     OW37717   4.660   0.256   6.920 -0.6054 -0.3603 -0.1987
 8695SOL    HW137718   4.636   0.339   6.877 -2.2256 -0.5818  0.2972
 8695SOL    HW237719   4.633   0.263   7.011  2.5258 -0.5977  0.7477
 8696SOL     OW37720   1.443   1.078   4.256 -0.6759  0.4340  0.0193
 8696SOL    HW137721   1.442   0.982   4.264 -1.1249  0.1994 -2.8175
 8696SOL    HW237722   1.470   1.086   4.164 -2.2404  0.4698 -0.4450
 8697SOL     OW37723   4.632   2.915  16.254 -0.4301 -0.1650  0.5432
 8697SOL    HW137724   4.643   2.935  16.347  0.0157  1.9385  0.0438
 8697SOL    HW237725   4.647   2.820  16.252  0.2035 -0.0710  0.7013
 8698SOL     OW37726   4.487   3.933   7.712  0.5070  0.0575 -0.5061
 8698SOL    HW137727   4.541   3.858   7.687  0.8318  1.1706 -3.2059
 8698SOL    HW237728   4.406   3.883   7.725  1.9491 -2.0629  0.2327
 8699SOL     OW37729   3.186   0.463   2.191 -0.1447 -0.4618  0.4960
 8699SOL    HW137730   3.208   0.535   2.250 -1.0132  0.9920 -0.9403
 8699SOL    HW237731   3.094   0.489   2.191 -0.5136 -1.7737  2.1456
 8700SOL     OW37732   0.631   1.373   5.596  0.3368  0.1972 -0.6562
 8700SOL    HW137733   0.711   1.400   5.642  0.3529 -0.8420 -0.0669
 8700SOL    HW237734   0.571   1.439   5.632 -0.2801 -1.6024  1.6792
 8701SOL     OW37735   3.353   1.780   8.783  0.1975  0.6549 -0.0262
 8701SOL    HW137736   3.301   1.726   8.723 -0.8637  2.7265 -0.9656
 8701SOL    HW237737   3.290   1.793   8.853  1.0900 -2.5109  1.3739
 8702SOL     OW37738   4.184   2.332   6.939  0.0493  0.3445  0.5311
 8702SOL    HW137739   4.221   2.389   6.871 -1.3997  0.9026  0.2026
 8702SOL    HW237740   4.146   2.265   6.881  0.0605  0.4686  0.3800
 8703SOL     OW37741   1.320   0.659   3.105 -0.2481  0.4726 -0.4570
 8703SOL    HW137742   1.273   0.726   3.056 -0.1430  1.3549  0.6551
 8703SOL    HW237743   1.386   0.629   3.043 -0.4238 -2.5382  0.7921
 8704SOL     OW37744   0.549   1.522   9.523 -0.4613 -0.1535  0.0313
 8704SOL    HW137745   0.494   1.589   9.563  0.4478  1.3181 -1.1980
 8704SOL    HW237746   0.483   1.486   9.464 -0.2684 -2.2786  1.1069
 8705SOL     OW37747   4.004   3.596   7.316  0.2983 -0.2056  0.1070
 8705SOL    HW137748   3.946   3.527   7.284 -0.3764  0.5740 -0.3668
 8705SOL    HW237749   3.939   3.640   7.371 -0.7008 -0.9376 -0.4836
 8706SOL     OW37750   2.016   2.552   7.624 -0.4856  0.4291  0.1952
 8706SOL    HW137751   2.078   2.608   7.577  2.0477 -1.2669  1.5080
 8706SOL    HW237752   1.956   2.612   7.667 -0.5026  0.1840  0.5105
 8707SOL     OW37753   2.399   2.899   1.472  0.2307 -0.0001 -0.0627
 8707SOL    HW137754   2.488   2.925   1.495  0.3421 -0.1860 -0.2885
 8707SOL    HW237755   2.352   2.959   1.531 -0.4486 -1.2494  0.6666
 8708SOL     OW37756   2.086   2.445   6.688  0.1341 -0.2592 -0.4743
 8708SOL    HW137757   2.007   2.467   6.638 -0.9346 -0.2434  1.2125
 8708SOL    HW237758   2.138   2.525   6.686 -1.3551  0.7486  0.6005
 8709SOL     OW37759   0.264   1.591   5.191  0.3714 -0.2860  0.3380
 8709SOL    HW137760   0.252   1.594   5.096  0.3907 -0.9731  0.3125
 8709SOL    HW237761   0.357   1.569   5.194  0.2826 -0.7194 -0.0328
 8710SOL     OW37762   4.696   1.637   1.682 -0.3309  0.1894  0.6183
 8710SOL    HW137763   4.621   1.671   1.731 -1.2298 -1.0837  0.1294
 8710SOL    HW237764   4.666   1.569   1.622  0.6759 -0.8162  1.2525
 8711SOL     OW37765   3.910   3.648   7.579 -0.1838  0.5172 -0.4042
 8711SOL    HW137766   3.915   3.681   7.669  1.0875 -1.5855  0.3212
 8711SOL    HW237767   3.905   3.552   7.587 -0.0850  0.6434  1.2611
 8712SOL     OW37768   0.708   4.282   3.381 -0.3938  0.1778  0.4195
 8712SOL    HW137769   0.658   4.288   3.462  0.9063 -0.4905  1.2754
 8712SOL    HW237770   0.795   4.308   3.411 -0.5677 -0.7681  1.7494
 8713SOL     OW37771   4.561   4.014   6.121 -0.5334 -0.2591  0.0144
 8713SOL    HW137772   4.527   4.080   6.060 -1.2436 -0.8208 -0.1926
 8713SOL    HW237773   4.645   3.992   6.081 -2.4784 -2.7318 -2.6598
 8714SOL     OW37774   3.235   3.522   1.805  0.1164  0.0294 -0.0681
 8714SOL    HW137775   3.220   3.495   1.715  0.1242  2.0248 -0.6530
 8714SOL    HW237776   3.221   3.442   1.856 -1.5811 -0.5111 -1.4139
 8715SOL     OW37777   2.181   2.894   6.209 -0.1720 -0.5659  0.3430
 8715SOL    HW137778   2.089   2.872   6.226 -0.4617 -1.5499 -2.4361
 8715SOL    HW237779   2.229   2.880   6.290  0.7274  0.0344 -0.0814
 8716SOL     OW37780   2.972   2.802   2.667 -0.0269 -0.0643 -0.5023
 8716SOL    HW137781   2.893   2.843   2.702 -0.7225 -3.4653  1.9063
 8716SOL    HW237782   2.967   2.709   2.689  0.9600  0.3238  1.3452
 8717SOL     OW37783   1.150   1.539   9.729  0.2373  0.1409  0.2099
 8717SOL    HW137784   1.184   1.491   9.805 -2.4516  0.9055  1.9158
 8717SOL    HW237785   1.083   1.591   9.774 -0.2733 -0.3905  0.0599
 8718SOL     OW37786   1.050   3.795  10.794  0.3767 -0.2633 -0.1341
 8718SOL    HW137787   1.142   3.810  10.813 -0.0205 -1.0860  2.4342
 8718SOL    HW237788   1.035   3.701  10.801  1.9564 -0.5574 -0.8007
 8719SOL     OW37789   1.380   2.132   9.159  0.1954  0.2200  0.3209
 8719SOL    HW137790   1.407   2.223   9.147  0.3070  0.2855  1.0355
 8719SOL    HW237791   1.297   2.142   9.206  1.5630  2.7045  2.2268
 8720SOL     OW37792   3.950   4.559   4.370  0.2465 -0.1710 -0.1392
 8720SOL    HW137793   3.988   4.635   4.326 -0.6884 -0.2306 -1.0518
 8720SOL    HW237794   3.940   4.506   4.291 -0.5461 -0.5716  0.2315
 8721SOL     OW37795   0.699   3.676   4.537  0.0284  0.1560 -0.2130
 8721SOL    HW137796   0.722   3.710   4.623  2.3179 -0.9322 -0.3930
 8721SOL    HW237797   0.606   3.695   4.542 -0.3961 -1.1600 -3.1172
 8722SOL     OW37798   1.928   0.400   9.149 -0.6951 -0.9215 -0.3209
 8722SOL    HW137799   1.837   0.389   9.120 -1.1396  0.2951  0.6068
 8722SOL    HW237800   1.937   0.493   9.128  1.0485 -0.7687  1.0966
 8723SOL     OW37801   0.906   1.416  12.636  0.1445  0.1666  0.3138
 8723SOL    HW137802   0.954   1.437  12.715 -1.0013 -2.8460  1.8072
 8723SOL    HW237803   0.815   1.420  12.666  0.8414 -1.5706  2.6429
 8724SOL     OW37804   4.568   0.540   7.576 -0.0023  0.4399  0.2474
 8724SOL    HW137805   4.588   0.604   7.508 -0.6459  0.6733  0.2861
 8724SOL    HW237806   4.597   0.462   7.528  0.0228 -0.1848  1.2897
 8725SOL     OW37807   0.189   0.947   8.972 -0.6482  0.0443  0.1926
 8725SOL    HW137808   0.168   0.864   8.930 -1.0719  0.0079  0.4697
 8725SOL    HW237809   0.185   1.013   8.903 -0.7335 -0.4913 -0.3083
 8726SOL     OW37810   1.472   0.893   1.646  0.3124  1.0109 -0.5509
 8726SOL    HW137811   1.417   0.959   1.605 -0.9420 -0.0180 -0.5077
 8726SOL    HW237812   1.559   0.921   1.614  0.4856  0.1106 -0.8637
 8727SOL     OW37813   0.129   2.209   6.995 -0.7133  0.3087 -0.7093
 8727SOL    HW137814   0.107   2.278   7.057  2.5135 -0.7595  1.6283
 8727SOL    HW237815   0.187   2.264   6.941  0.1759 -0.0231 -0.0991
 8728SOL     OW37816   2.814   3.841   4.585  0.0690  0.2690 -0.2030
 8728SOL    HW137817   2.829   3.748   4.603  1.0216  0.4534 -0.0522
 8728SOL    HW237818   2.766   3.836   4.503 -2.7669  0.2003  1.4650
 8729SOL     OW37819   4.557   2.996  17.599  0.0634  0.6697  0.2293
 8729SOL    HW137820   4.464   2.992  17.577  0.6395 -0.4592 -1.9804
 8729SOL    HW237821   4.544   3.078  17.647 -0.8734 -0.4591  1.9302
 8730SOL     OW37822   0.265   1.884   4.908 -0.1163  0.4749  0.3387
 8730SOL    HW137823   0.342   1.834   4.883 -2.6172 -2.3431 -1.7672
 8730SOL    HW237824   0.263   1.958   4.847  1.3906 -0.7737 -1.2033
 8731SOL     OW37825   0.651   4.439   7.519 -0.2819  0.2907  0.2503
 8731SOL    HW137826   0.663   4.534   7.524  1.0159  0.0454  1.9883
 8731SOL    HW237827   0.570   4.431   7.569 -0.6854 -1.6123 -0.7104
 8732SOL     OW37828   0.361   2.612   7.214  0.2314 -0.0314 -0.0020
 8732SOL    HW137829   0.406   2.696   7.215  0.3848 -0.1212  0.4101
 8732SOL    HW237830   0.329   2.608   7.304 -0.5381 -0.6399 -0.2966
 8733SOL     OW37831   0.136   0.578   4.628  0.0111  0.0450 -0.1282
 8733SOL    HW137832   0.099   0.659   4.592  1.7154  0.9618  0.1558
 8733SOL    HW237833   0.058   0.528   4.652 -0.5308  0.7652 -0.3857
 8734SOL     OW37834   2.645   2.395   2.299 -0.2653 -0.0045 -0.2290
 8734SOL    HW137835   2.563   2.441   2.279 -0.3022  0.1900  0.3768
 8734SOL    HW237836   2.622   2.302   2.300  2.6239 -0.7213 -0.9855
 8735SOL     OW37837   0.096   3.128  15.326 -0.3959  0.4420 -0.8745
 8735SOL    HW137838   0.126   3.145  15.415 -0.1115  0.8041 -1.0424
 8735SOL    HW237839   0.036   3.058  15.352 -0.0994  0.1118 -1.0698
 8736SOL     OW37840   3.406   1.164   8.279 -0.5069  0.1834  0.1898
 8736SOL    HW137841   3.496   1.140   8.258 -0.7847 -2.6307  2.2250
 8736SOL    HW237842   3.395   1.248   8.234  1.4846  1.2692  1.7012
 8737SOL     OW37843   4.464   4.505  15.728 -0.1198  0.1324  0.5815
 8737SOL    HW137844   4.542   4.463  15.765 -0.1908 -1.8229 -1.5104
 8737SOL    HW237845   4.403   4.431  15.741  1.1775 -0.7372  1.7507
 8738SOL     OW37846   2.480   0.499   0.503 -0.1535  0.0879  0.2527
 8738SOL    HW137847   2.508   0.433   0.566  0.9241 -0.1152 -0.4488
 8738SOL    HW237848   2.525   0.577   0.536  0.6302  0.1180 -0.8861
 8739SOL     OW37849   0.980   1.526  10.591  0.2050 -0.7632 -0.0693
 8739SOL    HW137850   1.015   1.440  10.616  0.5201 -0.1480  1.5959
 8739SOL    HW237851   0.906   1.528  10.652 -0.5919  0.5150 -1.0997
 8740SOL     OW37852   2.588   2.349   5.859 -0.1058 -0.5244  0.7547
 8740SOL    HW137853   2.660   2.402   5.825  0.2234 -1.4407  0.0109
 8740SOL    HW237854   2.603   2.278   5.796 -1.8352 -0.3092  0.1068
 8741SOL     OW37855   2.184   1.446   8.913  0.1670 -0.0650 -0.1899
 8741SOL    HW137856   2.247   1.378   8.887  0.4512 -0.0430  0.4491
 8741SOL    HW237857   2.157   1.493   8.834  0.3570  2.1955  1.1131
 8742SOL     OW37858   0.025   0.323   7.379 -0.1083  0.3278 -0.1177
 8742SOL    HW137859   0.081   0.340   7.303 -0.7059 -1.1335 -0.8932
 8742SOL    HW237860   0.088   0.293   7.444  0.0577  1.1229  0.0844
 8743SOL     OW37861   0.684   3.528   3.857 -0.3651 -0.9040  0.2874
 8743SOL    HW137862   0.740   3.452   3.873  0.6714 -0.5574 -1.6496
 8743SOL    HW237863   0.752   3.594   3.873 -2.1549  0.6042  1.6819
 8744SOL     OW37864   0.248   1.531   4.920  0.2130  0.0542 -0.2962
 8744SOL    HW137865   0.251   1.441   4.954 -0.1578  0.1448 -0.0226
 8744SOL    HW237866   0.301   1.525   4.841 -1.0047  0.0656 -1.1224
 8745SOL     OW37867   1.365   1.993   8.518  0.0445 -0.2999 -0.1841
 8745SOL    HW137868   1.423   1.918   8.521  1.5664  0.8167 -1.5841
 8745SOL    HW237869   1.297   1.980   8.584  0.3614 -3.5750 -0.5476
 8746SOL     OW37870   3.753   1.522  10.180 -0.0403  0.0117 -0.2593
 8746SOL    HW137871   3.719   1.569  10.104  0.4153  0.3674 -0.2402
 8746SOL    HW237872   3.696   1.561  10.246  0.2897  0.3826 -0.1913
 8747SOL     OW37873   1.449   0.908   4.916  0.1284  0.5575 -0.3007
 8747SOL    HW137874   1.397   0.973   4.963  0.7808  0.0976  1.0634
 8747SOL    HW237875   1.401   0.890   4.835 -2.3866 -1.2600  1.5908
 8748SOL     OW37876   1.542   1.997   1.051 -0.2952  0.1075 -0.2368
 8748SOL    HW137877   1.490   2.015   1.129 -0.6749 -0.2010 -0.4180
 8748SOL    HW237878   1.478   1.950   0.996  1.0212 -1.3178 -0.5496
 8749SOL     OW37879   2.322   0.504   7.521 -0.4527  0.4258  0.2826
 8749SOL    HW137880   2.404   0.456   7.518 -2.4036 -2.9427  0.3764
 8749SOL    HW237881   2.310   0.536   7.610  3.0235  1.3885  0.3986
 8750SOL     OW37882   0.542   2.608  11.139 -0.1092 -0.0070 -0.1796
 8750SOL    HW137883   0.462   2.556  11.141  0.8736 -1.5217  0.2525
 8750SOL    HW237884   0.597   2.561  11.076 -1.0272 -1.0082 -0.2464
 8751SOL     OW37885   0.404   0.616   3.031  0.4554  0.1460 -0.3916
 8751SOL    HW137886   0.405   0.520   3.029  0.3052  0.1551 -0.8190
 8751SOL    HW237887   0.495   0.640   3.012  0.5549 -1.0513 -1.4415
 8752SOL     OW37888   1.244   1.295  16.734  0.3135  0.6492 -0.1676
 8752SOL    HW137889   1.254   1.204  16.763  0.6339  0.4754 -0.8209
 8752SOL    HW237890   1.339   1.311  16.726  0.1746  0.8029 -1.5779
 8753SOL     OW37891   4.211   4.251   4.886  0.1901 -0.0145 -0.2523
 8753SOL    HW137892   4.192   4.244   4.793  1.9418 -0.7526 -0.5670
 8753SOL    HW237893   4.160   4.182   4.929  0.4193 -0.9725 -1.5307
 8754SOL     OW37894   4.052   0.544   6.664  0.6358 -0.0746 -0.3781
 8754SOL    HW137895   4.089   0.539   6.576 -0.4794 -1.3321 -0.7868
 8754SOL    HW237896   4.132   0.563   6.712 -0.9217  1.4390  1.6237
 8755SOL     OW37897   2.201   0.599   2.905 -0.2151  0.1587  0.5034
 8755SOL    HW137898   2.295   0.610   2.890  0.0557 -2.2913  0.4754
 8755SOL    HW237899   2.214   0.591   2.999  0.0535  2.0872  0.6317
 8756SOL     OW37900   3.058   0.361   7.151  0.3291  0.2247  0.0153
 8756SOL    HW137901   2.999   0.334   7.081  0.2641  0.4025  0.0004
 8756SOL    HW237902   3.035   0.296   7.217 -1.9415  1.1922  0.1658
 8757SOL     OW37903   1.192   0.631   2.225 -0.0164  0.1497  0.4511
 8757SOL    HW137904   1.193   0.573   2.301  1.9626  2.2890  2.0499
 8757SOL    HW237905   1.135   0.697   2.265 -2.6497 -1.6555 -0.3081
 8758SOL     OW37906   1.874   0.243   0.241 -0.0648  0.5784 -0.2485
 8758SOL    HW137907   1.933   0.316   0.256  0.1991  0.0329  1.4156
 8758SOL    HW237908   1.845   0.250   0.151 -0.6558 -0.9067 -0.1921
 8759SOL     OW37909   0.135   3.953   3.293  0.3719 -0.0978  0.5985
 8759SOL    HW137910   0.080   3.988   3.222 -0.1661 -0.5285  0.8000
 8759SOL    HW237911   0.171   3.875   3.252  1.3653  0.7321 -0.1152
 8760SOL     OW37912   2.680   1.335   7.390 -0.2866 -0.1603 -0.1645
 8760SOL    HW137913   2.665   1.428   7.406 -1.0010 -0.1976 -0.6107
 8760SOL    HW237914   2.704   1.343   7.298 -0.9116 -1.0603 -0.4060
 8761SOL     OW37915   3.836   0.998  13.276  0.6871  0.2484  0.7661
 8761SOL    HW137916   3.861   1.076  13.326  0.7246  1.5863 -1.3390
 8761SOL    HW237917   3.927   0.972  13.264  0.3635 -1.1157  1.2554
 8762SOL     OW37918   3.739   0.581   5.480  0.3499  0.0458 -0.3264
 8762SOL    HW137919   3.762   0.648   5.416 -2.7230  0.6911 -0.7400
 8762SOL    HW237920   3.806   0.517   5.454 -0.1505 -0.3925 -0.5370
 8763SOL     OW37921   0.937   3.144   2.115  0.2966 -0.2733  0.0931
 8763SOL    HW137922   0.923   3.051   2.129  0.6006 -0.3708 -0.2598
 8763SOL    HW237923   0.978   3.137   2.029  1.7111  0.7267  0.6804
 8764SOL     OW37924   0.466   4.354   1.340  0.0711 -0.1005  0.1833
 8764SOL    HW137925   0.372   4.340   1.327 -0.1201  2.8104 -1.4938
 8764SOL    HW237926   0.484   4.382   1.250  2.3485  0.1393  0.7251
 8765SOL     OW37927   2.433   2.010   8.764  0.0200 -0.4395 -0.5721
 8765SOL    HW137928   2.423   2.056   8.680  1.6857  0.8120 -0.0820
 8765SOL    HW237929   2.389   1.927   8.749  0.0320 -0.6018  0.2973
 8766SOL     OW37930   1.657   1.524   9.939 -0.0731  0.0747  0.6277
 8766SOL    HW137931   1.622   1.529  10.028  0.0596  2.4573  0.5587
 8766SOL    HW237932   1.710   1.603   9.926 -3.5179  2.1892 -0.6184
 8767SOL     OW37933   0.710   2.787  17.258 -0.2093  0.0161  0.2906
 8767SOL    HW137934   0.713   2.764  17.165 -0.3319  0.8580  0.0740
 8767SOL    HW237935   0.619   2.766  17.277  0.0361 -1.9890 -0.7161
 8768SOL     OW37936   3.280   0.107   9.169  0.3838  0.5072 -0.1933
 8768SOL    HW137937   3.283   0.016   9.200  0.5242  0.1393 -1.2709
 8768SOL    HW237938   3.316   0.104   9.080  0.0059  0.6043 -0.3513
 8769SOL     OW37939   0.142   4.344   7.048 -0.0594 -0.9781  0.3642
 8769SOL    HW137940   0.057   4.382   7.070 -0.5251 -1.3291 -0.8337
 8769SOL    HW237941   0.175   4.432   7.035 -1.5655 -0.4555  0.0636
 8770SOL     OW37942   4.056   2.908   7.405  0.1496 -0.3048 -0.9023
 8770SOL    HW137943   4.062   2.892   7.499 -2.1897  1.5187 -0.4457
 8770SOL    HW237944   3.962   2.920   7.390 -0.1551 -1.3369  0.1881
 8771SOL     OW37945   0.814   3.842   8.510 -0.1012 -0.4718 -0.3603
 8771SOL    HW137946   0.775   3.832   8.597  2.3033  2.1145  0.9868
 8771SOL    HW237947   0.781   3.930   8.492 -0.9735 -0.9031 -0.8636
 8772SOL     OW37948   0.518   2.284   5.564 -0.0234 -0.4109  0.2597
 8772SOL    HW137949   0.582   2.320   5.503 -0.3673  1.0034  0.7491
 8772SOL    HW237950   0.461   2.358   5.578 -0.1394 -0.2444 -1.0781
 8773SOL     OW37951   0.534   2.658   3.463 -0.4058  0.1368 -0.0783
 8773SOL    HW137952   0.625   2.627   3.470 -0.0003  0.8994 -2.1648
 8773SOL    HW237953   0.509   2.665   3.556  0.5974  0.2068  0.1843
 8774SOL     OW37954   0.624   3.488   6.622 -0.4962  0.0111  0.1395
 8774SOL    HW137955   0.704   3.498   6.674 -0.5531 -1.2023  0.4408
 8774SOL    HW237956   0.554   3.504   6.686  0.9156 -0.8387  1.9020
 8775SOL     OW37957   1.836   0.547   9.630 -0.4718  0.5538 -0.3014
 8775SOL    HW137958   1.809   0.476   9.571  1.1234 -0.0889 -0.2501
 8775SOL    HW237959   1.765   0.609   9.615 -1.3936 -0.5719 -0.6311
 8776SOL     OW37960   0.221   2.090  17.342 -0.0959  0.6086  0.3589
 8776SOL    HW137961   0.271   2.045  17.274  1.5917 -1.7159  3.1495
 8776SOL    HW237962   0.152   2.120  17.283  0.5879  2.4309  0.4738
 8777SOL     OW37963   0.081   1.813  16.182 -0.2136  0.7351  0.1158
 8777SOL    HW137964   0.165   1.799  16.227 -0.3152 -2.3490 -0.7017
 8777SOL    HW237965   0.084   1.908  16.168 -0.2234  0.5673 -1.0385
 8778SOL     OW37966   3.721   0.938   3.940  0.0446  0.2722 -0.3244
 8778SOL    HW137967   3.677   0.878   3.880  1.6671  0.1263 -1.3488
 8778SOL    HW237968   3.653   0.965   4.003  1.0541  0.4936  0.6653
 8779SOL     OW37969   0.491   2.373   6.642 -0.1189  0.4951 -0.0261
 8779SOL    HW137970   0.418   2.323   6.678  0.3156 -0.8880 -1.0453
 8779SOL    HW237971   0.448   2.425   6.573  1.6226  0.9263 -0.7895
 8780SOL     OW37972   0.148   1.326  11.324 -0.2085  0.5270  0.1212
 8780SOL    HW137973   0.195   1.382  11.385  0.4552  0.1288 -0.0201
 8780SOL    HW237974   0.182   1.243  11.359 -1.0045  0.7765  1.4722
 8781SOL     OW37975   3.956   2.625   3.504  0.0668 -0.5871  0.3200
 8781SOL    HW137976   4.023   2.581   3.557  0.1102  0.0582  0.8076
 8781SOL    HW237977   3.944   2.557   3.438 -0.3351  0.8029 -1.0672
 8782SOL     OW37978   4.552   3.120   5.536  0.2759  0.2423 -0.1591
 8782SOL    HW137979   4.471   3.073   5.516  2.1198 -2.3281 -1.5438
 8782SOL    HW237980   4.566   3.105   5.630  0.3255  0.2988 -0.1578
 8783SOL     OW37981   0.782   3.696   2.136 -0.1722 -0.7330  0.6961
 8783SOL    HW137982   0.815   3.623   2.188 -1.0987 -2.8845 -1.7909
 8783SOL    HW237983   0.690   3.670   2.136 -0.3116 -0.2323 -3.0180
 8784SOL     OW37984   2.041   1.975   7.835  0.4507 -0.2902 -0.0431
 8784SOL    HW137985   2.101   1.901   7.820 -2.1391 -2.1966 -1.0077
 8784SOL    HW237986   2.077   2.006   7.918  2.6354 -0.1821 -1.0350
 8785SOL     OW37987   3.317   2.698  12.419 -0.1583  0.2313 -0.1422
 8785SOL    HW137988   3.262   2.668  12.347 -0.5752  2.0844 -0.6096
 8785SOL    HW237989   3.276   2.782  12.441 -0.6242 -0.2940  1.0149
 8786SOL     OW37990   2.173   1.713   3.052  0.1093 -0.5655 -0.0835
 8786SOL    HW137991   2.248   1.769   3.032 -0.2895 -0.4248 -1.1690
 8786SOL    HW237992   2.215   1.635   3.087 -2.3237 -0.3706  3.2618
 8787SOL     OW37993   0.133   2.394   5.297 -0.2170 -0.4535 -0.2386
 8787SOL    HW137994   0.122   2.456   5.224 -1.4511 -0.9331 -0.4684
 8787SOL    HW237995   0.048   2.398   5.340  0.3177  0.2413  0.7464
 8788SOL     OW37996   2.859   4.469   4.570  0.2280 -0.2264 -0.5072
 8788SOL    HW137997   2.802   4.479   4.494 -1.4018 -2.9152  0.3625
 8788SOL    HW237998   2.921   4.403   4.539  1.3178  1.3528 -1.6525
 8789SOL     OW37999   0.379   1.738   9.639 -0.1378 -0.4853  0.9252
 8789SOL    HW138000   0.322   1.664   9.621 -1.4189  0.5528  0.6814
 8789SOL    HW238001   0.343   1.799   9.574  1.7480 -2.1320 -1.6261
 8790SOL     OW38002   3.286   4.603   6.764  0.0375 -0.5201  0.0044
 8790SOL    HW138003   3.302   4.559   6.847 -0.2887  0.4975  0.6081
 8790SOL    HW238004   3.225   4.675   6.777  0.4251 -0.1692 -0.0986
 8791SOL     OW38005   0.743   1.385   3.347  0.3634 -0.2041  0.0513
 8791SOL    HW138006   0.802   1.446   3.392  1.3229 -0.5327 -0.7551
 8791SOL    HW238007   0.796   1.374   3.267  1.1604 -0.0454  0.5564
 8792SOL     OW38008   2.630   3.537   9.887 -0.2505  0.1943 -0.3818
 8792SOL    HW138009   2.655   3.462   9.941  0.2278  0.7709  0.2027
 8792SOL    HW238010   2.638   3.485   9.808  3.0094 -1.6427  1.1670
 8793SOL     OW38011   4.574   4.485  10.699  0.5956  0.0624  0.0829
 8793SOL    HW138012   4.495   4.471  10.647  0.4568 -0.9473  0.5743
 8793SOL    HW238013   4.534   4.453  10.780  0.1753 -0.8303 -0.4757
 8794SOL     OW38014   1.831   0.580   7.062  0.2524  0.5770 -0.5442
 8794SOL    HW138015   1.825   0.533   6.979 -1.0725  0.8203 -0.5858
 8794SOL    HW238016   1.867   0.509   7.115  0.0799  1.4798  0.7927
 8795SOL     OW38017   4.076   3.181  12.016  0.8744 -0.2237 -0.2037
 8795SOL    HW138018   4.120   3.128  11.950  0.7828  0.1082 -0.5332
 8795SOL    HW238019   4.069   3.119  12.089 -2.9573 -0.9129 -1.1718
 8796SOL     OW38020   2.995   0.508   4.609 -0.1624 -0.1355 -0.1795
 8796SOL    HW138021   2.949   0.439   4.560  1.6033 -0.7092 -1.0296
 8796SOL    HW238022   3.027   0.461   4.686 -0.8350  0.0385  0.2048
 8797SOL     OW38023   3.492   2.895   8.860 -1.0221 -0.1372  0.6819
 8797SOL    HW138024   3.455   2.807   8.865 -0.8671 -0.2641 -0.2702
 8797SOL    HW238025   3.417   2.953   8.851  1.0995  2.3438 -0.8720
 8798SOL     OW38026   3.218   0.922   5.069  0.1893 -0.0129  0.3594
 8798SOL    HW138027   3.308   0.905   5.097  0.7764 -0.6814 -1.9665
 8798SOL    HW238028   3.178   0.836   5.085 -0.6041  0.2926 -0.0097
 8799SOL     OW38029   0.142   4.069   8.568 -0.9676  0.0029  0.3593
 8799SOL    HW138030   0.058   4.112   8.551 -0.8791 -0.0471 -0.2099
 8799SOL    HW238031   0.138   4.059   8.663  1.1944 -1.3597  0.3051
 8800SOL     OW38032   2.031   2.643   5.125  0.4384 -0.6823  0.4430
 8800SOL    HW138033   1.969   2.667   5.194  0.4389  0.4631  0.0433
 8800SOL    HW238034   1.973   2.593   5.068  1.5531 -0.2576 -1.0668
 8801SOL     OW38035   2.820   0.243  14.437  0.3343  0.2159  0.2520
 8801SOL    HW138036   2.897   0.192  14.413  0.6777 -0.8082  3.4547
 8801SOL    HW238037   2.788   0.174  14.495  0.7648 -0.0752  0.1387
 8802SOL     OW38038   2.077   4.446   1.503 -0.5105 -0.7526 -0.2262
 8802SOL    HW138039   2.014   4.413   1.566 -1.4638  0.7019 -0.4135
 8802SOL    HW238040   2.056   4.539   1.506  1.2436 -0.4009  0.9773
 8803SOL     OW38041   3.050   2.329   8.484  0.5742  0.2676 -0.0251
 8803SOL    HW138042   3.116   2.271   8.446  2.4993  2.2009  0.3987
 8803SOL    HW238043   3.106   2.403   8.508 -0.4314  0.3224  2.1865
 8804SOL     OW38044   2.531   4.468   1.003 -0.1757  0.1334  0.6469
 8804SOL    HW138045   2.598   4.403   0.983 -1.2108 -0.4267 -1.0406
 8804SOL    HW238046   2.532   4.452   1.097 -1.9470  1.7254  0.9336
 8805SOL     OW38047   3.281   0.086   8.218 -0.0715  0.0932 -0.5852
 8805SOL    HW138048   3.212   0.139   8.176 -0.0382  1.4644  1.0907
 8805SOL    HW238049   3.287   0.122   8.306 -0.6675 -1.1871 -0.0270
 8806SOL     OW38050   2.652   0.966   3.248 -0.0710 -0.3316  0.7347
 8806SOL    HW138051   2.580   1.020   3.281  0.4740  0.4362  0.6694
 8806SOL    HW238052   2.642   0.893   3.309 -1.2597 -0.6459  0.1719
 8807SOL     OW38053   2.144   2.523   0.932 -0.3360  0.4828 -0.1461
 8807SOL    HW138054   2.055   2.489   0.938  0.7981 -1.9189  3.2736
 8807SOL    HW238055   2.178   2.513   1.021  1.0925  2.2125 -0.5102
 8808SOL     OW38056   0.763   4.624   8.703  0.2834 -0.4684  0.3223
 8808SOL    HW138057   0.842   4.676   8.692 -0.3835  0.0975 -1.7468
 8808SOL    HW238058   0.762   4.613   8.798  3.0870 -1.0777  0.2642
 8809SOL     OW38059   3.915   0.264   6.948 -0.1474  0.6060  0.0811
 8809SOL    HW138060   3.832   0.312   6.940  0.8602  2.4667  0.6296
 8809SOL    HW238061   3.945   0.266   6.858 -2.3942 -0.3468 -0.6907
 8810SOL     OW38062   4.630   0.864   9.709 -0.4720  0.5153  0.3075
 8810SOL    HW138063   4.559   0.853   9.772 -1.7725  2.4370 -0.8397
 8810SOL    HW238064   4.696   0.875   9.778  0.8199  3.7806 -1.4381
 8811SOL     OW38065   4.023   2.570  14.946 -0.2570  0.0324  0.1886
 8811SOL    HW138066   4.101   2.587  14.999  0.1548 -0.5862 -0.2288
 8811SOL    HW238067   4.040   2.614  14.863  1.7535 -0.0979  0.5277
 8812SOL     OW38068   1.152   1.041   6.695  0.0887 -0.2501  0.2749
 8812SOL    HW138069   1.195   0.970   6.647  0.8800 -0.2087  0.9035
 8812SOL    HW238070   1.221   1.107   6.695  1.1987 -1.4017  0.8582
 8813SOL     OW38071   3.109   2.596   3.727  0.0518  0.1947  0.5000
 8813SOL    HW138072   3.037   2.570   3.669  0.5495  1.8123 -0.8788
 8813SOL    HW238073   3.151   2.511   3.736 -0.3174 -0.1757 -1.2216
 8814SOL     OW38074   0.463   3.288  15.525  0.7225 -0.0410 -0.1636
 8814SOL    HW138075   0.503   3.368  15.558 -0.2998  1.0440 -1.5283
 8814SOL    HW238076   0.370   3.304  15.545  0.9523  0.6406  0.3563
 8815SOL     OW38077   2.595   4.112   4.981  0.2076 -0.5631  0.5231
 8815SOL    HW138078   2.518   4.168   4.975  1.0271  0.5595  0.4362
 8815SOL    HW238079   2.609   4.100   5.075 -0.7004  0.2859  0.7705
 8816SOL     OW38080   1.906   3.761   1.745 -0.0211 -0.4138  0.0800
 8816SOL    HW138081   1.887   3.738   1.835  1.0290 -0.2701  0.3433
 8816SOL    HW238082   2.001   3.773   1.739 -0.1371  0.5360  0.1952
 8817SOL     OW38083   3.068   0.432   9.681 -0.3907 -0.2829  0.7854
 8817SOL    HW138084   3.021   0.468   9.756 -1.0649 -0.4222  0.4308
 8817SOL    HW238085   3.153   0.429   9.725  0.6763 -0.9419 -1.3059
 8818SOL     OW38086   1.136   3.896   4.097  0.4525 -0.7514  0.2295
 8818SOL    HW138087   1.090   3.925   4.018  1.7650 -0.8071 -0.5643
 8818SOL    HW238088   1.230   3.896   4.077 -0.0025  1.2164 -1.9413
 8819SOL     OW38089   2.930   1.737   4.390 -0.2332 -0.0943  0.3319
 8819SOL    HW138090   2.967   1.795   4.456  1.0921 -0.8380  0.2540
 8819SOL    HW238091   2.931   1.668   4.456  1.8258  1.9193  2.3945
 8820SOL     OW38092   1.812   1.525  13.981  0.3995 -0.5463  0.6391
 8820SOL    HW138093   1.773   1.585  14.044 -1.0065  0.2763 -1.0178
 8820SOL    HW238094   1.737   1.480  13.942 -0.6006  0.5932  1.2414
 8821SOL     OW38095   2.639   2.925  17.506 -0.1915  0.3222  0.1410
 8821SOL    HW138096   2.690   2.893  17.432 -1.5820 -1.8360  0.1104
 8821SOL    HW238097   2.626   2.840  17.548  0.6803 -0.2550 -0.7507
 8822SOL     OW38098   2.043   3.190  11.547 -0.4203  0.2041 -0.4246
 8822SOL    HW138099   2.080   3.263  11.596 -1.3939 -0.0665  0.7003
 8822SOL    HW238100   1.961   3.230  11.518  0.1307  0.4395 -1.6723
 8823SOL     OW38101   1.666   2.167   1.886 -0.3099  0.4350 -0.0856
 8823SOL    HW138102   1.691   2.169   1.794 -0.0322  0.6248 -0.0066
 8823SOL    HW238103   1.572   2.178   1.873 -0.5972 -2.0406 -0.1010
 8824SOL     OW38104   1.350   2.894   3.105  0.0722 -0.0532 -0.0730
 8824SOL    HW138105   1.420   2.950   3.137 -1.4154  0.4426  2.3524
 8824SOL    HW238106   1.376   2.802   3.099  1.4785  0.3623 -0.3315
 8825SOL     OW38107   1.283   3.055   1.350 -0.1279 -0.0581 -0.1047
 8825SOL    HW138108   1.348   3.126   1.352  0.1851 -0.3907  1.4146
 8825SOL    HW238109   1.316   2.995   1.283  1.9165  0.0572  0.8028
 8826SOL     OW38110   3.570   4.268   7.762  0.0617  0.1866  0.4997
 8826SOL    HW138111   3.591   4.175   7.772  0.5224  0.4712  2.3185
 8826SOL    HW238112   3.642   4.310   7.809  1.7343 -0.4601 -1.5281
 8827SOL     OW38113   0.946   1.555   8.570  0.2879 -0.1253 -0.3147
 8827SOL    HW138114   0.930   1.574   8.662 -1.8213  2.6096 -1.2437
 8827SOL    HW238115   0.983   1.637   8.536  0.4106  0.3494  0.9673
 8828SOL     OW38116   3.879   3.166   3.325  0.5366  0.1635  0.1814
 8828SOL    HW138117   3.889   3.071   3.335  0.3730  0.1430  0.1570
 8828SOL    HW238118   3.920   3.194   3.407 -0.9038 -0.2164  1.0419
 8829SOL     OW38119   1.914   2.019   4.723  0.1495  0.1725 -0.3813
 8829SOL    HW138120   1.877   2.107   4.720  1.1624  0.5370 -2.5758
 8829SOL    HW238121   1.864   1.972   4.656 -0.8857  1.2382 -0.3656
 8830SOL     OW38122   4.230   1.697   0.157 -0.2780 -0.0006  0.8269
 8830SOL    HW138123   4.216   1.765   0.222  1.4785  0.9875  0.1554
 8830SOL    HW238124   4.150   1.704   0.105 -0.0314  2.1946  0.7689
 8831SOL     OW38125   1.565   2.859   7.759  1.0736  0.2796 -0.5214
 8831SOL    HW138126   1.490   2.914   7.737  0.0406 -0.8913  0.1082
 8831SOL    HW238127   1.563   2.784   7.699  2.2301 -0.7499  0.7263
 8832SOL     OW38128   2.810   0.319  14.746 -0.4218  0.3447 -0.3720
 8832SOL    HW138129   2.756   0.371  14.686 -0.4491 -0.4805 -1.0529
 8832SOL    HW238130   2.787   0.227  14.732  0.8539 -0.1925  1.0721
 8833SOL     OW38131   0.418   0.458  13.390  0.0452  0.1532 -0.0930
 8833SOL    HW138132   0.338   0.416  13.358  0.4776 -0.2840 -0.5988
 8833SOL    HW238133   0.383   0.492  13.473 -0.0518  0.8555 -0.4257
 8834SOL     OW38134   1.911   2.216  17.506  0.0457  0.3972 -0.4236
 8834SOL    HW138135   1.834   2.160  17.502  1.1294 -1.1190  0.0716
 8834SOL    HW238136   1.918   2.227  17.601 -0.4630  0.7363 -0.4267
 8835SOL     OW38137   3.794   0.170   9.722 -0.5356 -0.3395  0.2120
 8835SOL    HW138138   3.846   0.246   9.695 -0.3512 -1.1791 -1.8282
 8835SOL    HW238139   3.728   0.208   9.780  1.3599  1.6298  1.0905
 8836SOL     OW38140   2.829   4.108   2.865  0.2517 -0.3063 -0.3553
 8836SOL    HW138141   2.882   4.173   2.911 -1.3852  1.1012 -0.4622
 8836SOL    HW238142   2.749   4.123   2.916  0.1793 -0.2544 -0.4849
 8837SOL     OW38143   1.065   1.299   8.598  0.1478  0.6844  0.6556
 8837SOL    HW138144   1.036   1.391   8.593 -1.3328  0.2805  1.7559
 8837SOL    HW238145   0.994   1.259   8.547  0.6353  0.7912 -0.1126
 8838SOL     OW38146   2.306   2.336   8.834  0.2493 -0.1957 -0.2912
 8838SOL    HW138147   2.290   2.296   8.920 -1.0629  1.0993  0.0856
 8838SOL    HW238148   2.390   2.306   8.801  0.6906 -0.0217  0.6482
 8839SOL     OW38149   4.643   1.805   4.664  0.9378  0.1332 -0.1085
 8839SOL    HW138150   4.685   1.865   4.603  0.2289  0.0292 -0.7092
 8839SOL    HW238151   4.693   1.793   4.745  1.4698  1.5558 -0.2363
 8840SOL     OW38152   1.643   3.881   7.107 -0.0309 -0.4929 -0.1492
 8840SOL    HW138153   1.662   3.941   7.179 -0.0869  0.6979 -1.1151
 8840SOL    HW238154   1.582   3.932   7.053 -1.2369 -0.5716  1.1503
 8841SOL     OW38155   3.001   0.277   4.858  0.6360  0.1993 -0.3226
 8841SOL    HW138156   3.016   0.253   4.949 -0.7647  0.8474  0.0709
 8841SOL    HW238157   3.063   0.350   4.849  0.1516  0.4912 -1.2287
 8842SOL     OW38158   2.881   4.445   7.597  0.1259 -0.3773 -0.5473
 8842SOL    HW138159   2.924   4.463   7.513  1.0195  0.7341  0.1539
 8842SOL    HW238160   2.941   4.384   7.639  0.9310  0.5851 -0.3052
 8843SOL     OW38161   2.925   2.417  13.947  0.7031 -0.3409 -0.7119
 8843SOL    HW138162   2.939   2.472  14.024 -1.4016 -2.1169  0.9380
 8843SOL    HW238163   2.984   2.347  13.976  0.0190 -0.0280  1.4800
 8844SOL     OW38164   3.335   4.559   3.188 -0.1748  0.3489 -0.1087
 8844SOL    HW138165   3.307   4.468   3.174  1.9745 -0.1302 -1.2685
 8844SOL    HW238166   3.379   4.587   3.107  0.4818 -1.1872 -0.2882
 8845SOL     OW38167   4.312   0.264   9.068 -0.7739  0.5679 -0.6130
 8845SOL    HW138168   4.330   0.281   9.160  0.1511  1.1931 -0.9032
 8845SOL    HW238169   4.294   0.171   9.075  1.2600  0.3223  1.4816
 8846SOL     OW38170   3.879   4.462   2.229 -0.1277 -0.1148  0.1368
 8846SOL    HW138171   3.923   4.502   2.304  2.2383 -1.1828 -0.7175
 8846SOL    HW238172   3.941   4.392   2.211  1.7673  1.6895 -0.2701
 8847SOL     OW38173   1.828   2.631  17.070 -0.2989 -0.3980 -0.0332
 8847SOL    HW138174   1.769   2.690  17.024 -1.8319 -1.2089  0.8978
 8847SOL    HW238175   1.826   2.660  17.161  2.2723 -3.3506  0.9453
 8848SOL     OW38176   0.963   1.443   3.164 -0.0513  0.1170 -0.4816
 8848SOL    HW138177   0.920   1.527   3.177  0.4461  0.5566 -1.6002
 8848SOL    HW238178   1.032   1.472   3.103  2.0022 -2.4064  0.6658
 8849SOL     OW38179   1.964   0.808   9.734  0.2881 -0.3946 -0.4721
 8849SOL    HW138180   1.919   0.861   9.669 -0.6511  0.7124  1.0657
 8849SOL    HW238181   2.011   0.878   9.781  0.1771 -0.6097 -0.0443
 8850SOL     OW38182   4.341   4.141  15.111 -0.2188 -0.2784  0.2813
 8850SOL    HW138183   4.288   4.180  15.182  1.4664 -0.0029  1.4054
 8850SOL    HW238184   4.423   4.190  15.121 -1.4668  2.2239 -1.6964
 8851SOL     OW38185   1.217   3.914  14.044  0.1747 -0.3355  0.4545
 8851SOL    HW138186   1.126   3.899  14.019  0.0034 -0.9655  1.4407
 8851SOL    HW238187   1.257   3.916  13.957 -0.4829 -0.8702  0.1444
 8852SOL     OW38188   4.048   1.725  13.467 -0.2137 -0.3959 -0.7937
 8852SOL    HW138189   3.995   1.770  13.401 -1.7605 -0.8811  0.1355
 8852SOL    HW238190   3.990   1.731  13.543 -0.6919 -0.6453 -1.1443
 8853SOL     OW38191   2.776   1.756   2.392 -0.2212  0.0875  0.5449
 8853SOL    HW138192   2.799   1.668   2.420 -0.6733  0.2628  1.4641
 8853SOL    HW238193   2.827   1.759   2.310  0.7574 -2.1515  1.0855
 8854SOL     OW38194   0.290   3.252   3.866 -0.0458 -0.0221  0.2928
 8854SOL    HW138195   0.368   3.201   3.889  0.6213  0.5850 -0.6474
 8854SOL    HW238196   0.326   3.332   3.830  2.4574 -0.0259  2.8113
 8855SOL     OW38197   3.681   0.700   7.546 -0.4855  0.1989 -0.4448
 8855SOL    HW138198   3.731   0.780   7.528  0.9344 -0.2877  1.3023
 8855SOL    HW238199   3.671   0.650   7.465 -1.4377  0.9623 -0.7928
 8856SOL     OW38200   2.181   0.923  16.744 -0.1700  0.1391  0.1317
 8856SOL    HW138201   2.275   0.927  16.760 -0.4755  3.3108  0.9608
 8856SOL    HW238202   2.178   0.951  16.652  2.3304 -0.7997 -0.2383
 8857SOL     OW38203   1.919   1.548   8.642 -0.3592  0.1635 -0.1436
 8857SOL    HW138204   1.881   1.470   8.603 -0.3230  0.1200 -0.0915
 8857SOL    HW238205   1.930   1.614   8.573  1.0512  0.7325  0.6302
 8858SOL     OW38206   0.442   2.759   5.453 -0.2022 -0.4782 -0.0331
 8858SOL    HW138207   0.455   2.665   5.460  3.0703 -0.0662 -0.6332
 8858SOL    HW238208   0.435   2.766   5.357 -2.2785 -1.8717  0.0040
 8859SOL     OW38209   3.445   0.880   3.074 -0.0175  0.1314 -0.1684
 8859SOL    HW138210   3.397   0.959   3.052  0.5914  0.2961 -0.9196
 8859SOL    HW238211   3.465   0.842   2.988  1.3768  0.4504  0.0230
 8860SOL     OW38212   1.090   0.104   9.568  0.1599  0.3288  0.0077
 8860SOL    HW138213   1.079   0.059   9.485 -0.1052 -1.3304  0.9360
 8860SOL    HW238214   1.024   0.064   9.625 -2.2728  1.9945 -1.6020
 8861SOL     OW38215   3.054   0.120  10.258 -0.2854  0.3796  0.5718
 8861SOL    HW138216   3.020   0.204  10.227 -1.8625 -0.1613  0.8184
 8861SOL    HW238217   2.970   0.078  10.279 -0.4864  2.3343  3.6516
 8862SOL     OW38218   3.842   0.860   2.370 -0.4980  0.6022  0.0103
 8862SOL    HW138219   3.862   0.935   2.426  1.0922  0.4154 -0.2919
 8862SOL    HW238220   3.928   0.849   2.328 -0.3121 -0.7151  0.7178
 8863SOL     OW38221   2.863   3.135  13.847  0.2104 -0.2211  0.2262
 8863SOL    HW138222   2.795   3.102  13.789 -0.8060  1.4667  0.4703
 8863SOL    HW238223   2.920   3.182  13.786 -0.3763  1.2240  0.7993
 8864SOL     OW38224   1.279   3.831   4.727  0.4663 -0.3820 -0.0142
 8864SOL    HW138225   1.354   3.791   4.684  1.6418  1.5417  0.2766
 8864SOL    HW238226   1.261   3.753   4.779  3.1574 -2.1898 -1.8012
 8865SOL     OW38227   3.605   2.138  10.877 -0.3118  0.2868  0.0134
 8865SOL    HW138228   3.526   2.188  10.900 -1.7090 -1.2903 -1.2900
 8865SOL    HW238229   3.628   2.185  10.797  0.7250 -2.2713 -1.2185
 8866SOL     OW38230   2.637   0.000  13.621 -0.3334  0.0673 -0.2249
 8866SOL    HW138231   2.720   0.030  13.585 -1.0095  1.7994 -0.3375
 8866SOL    HW238232   2.572   0.017  13.553 -1.0053  1.2097  0.6960
 8867SOL     OW38233   2.334   3.865   8.302  0.0469 -0.5068  0.2159
 8867SOL    HW138234   2.356   3.814   8.380 -1.7975  0.6047  1.4708
 8867SOL    HW238235   2.312   3.795   8.241 -1.4017 -1.0106  1.3203
 8868SOL     OW38236   2.289   4.576   0.888 -0.3410 -0.3062 -0.2257
 8868SOL    HW138237   2.369   4.540   0.927 -0.2098 -1.0741 -1.1874
 8868SOL    HW238238   2.220   4.535   0.941 -0.1222  1.6344  1.5414
 8869SOL     OW38239   1.647   0.126   6.042 -0.1953 -0.0622 -0.1994
 8869SOL    HW138240   1.659   0.181   5.965 -0.6669 -0.1463 -0.3341
 8869SOL    HW238241   1.735   0.097   6.066 -0.1551 -0.1046 -0.3979
 8870SOL     OW38242   4.050   0.328   3.695 -0.0838  0.1167  0.0828
 8870SOL    HW138243   4.088   0.315   3.782  1.0496  0.2220 -0.3930
 8870SOL    HW238244   4.126   0.365   3.649 -0.9378  0.2705 -1.1897
 8871SOL     OW38245   4.240   2.651  12.080  0.4993 -0.0103  0.0970
 8871SOL    HW138246   4.190   2.569  12.084  2.6378 -1.2713  0.7243
 8871SOL    HW238247   4.318   2.610  12.117  0.6487  0.0422 -0.1627
 8872SOL     OW38248   1.323   2.852   6.479  0.2507 -0.6866 -0.1046
 8872SOL    HW138249   1.349   2.761   6.487  0.7106 -0.5122  0.3475
 8872SOL    HW238250   1.315   2.867   6.573 -3.2875 -0.7645 -0.3778
 8873SOL     OW38251   2.431   3.417   3.074  0.4498 -0.2543 -0.2671
 8873SOL    HW138252   2.477   3.370   3.006  0.2306  0.8617 -1.1860
 8873SOL    HW238253   2.363   3.456   3.019  3.1429  1.9996 -1.9470
 8874SOL     OW38254   4.590   4.136   4.406  0.4496 -0.2327  0.5869
 8874SOL    HW138255   4.653   4.090   4.350 -3.5392 -3.4373 -1.2815
 8874SOL    HW238256   4.538   4.195   4.350  0.2324 -0.2373  0.7838
 8875SOL     OW38257   3.500   4.037   4.652 -0.5061 -0.1633 -0.1824
 8875SOL    HW138258   3.549   3.980   4.593 -0.5215  1.0020 -1.3078
 8875SOL    HW238259   3.574   4.079   4.696 -0.5688  0.1558 -0.3804
 8876SOL     OW38260   4.628   3.394   3.444  0.1137 -0.1988  0.4712
 8876SOL    HW138261   4.640   3.485   3.470 -2.1335  0.0085  0.7921
 8876SOL    HW238262   4.715   3.374   3.410 -0.1146 -2.4698  1.2191
 8877SOL     OW38263   2.265   2.128   6.290  0.2925  0.1072 -0.0361
 8877SOL    HW138264   2.249   2.143   6.383 -0.1282 -0.2465 -0.0569
 8877SOL    HW238265   2.191   2.077   6.259  0.4037 -0.6969  1.0433
 8878SOL     OW38266   4.080   4.064  12.288 -0.1744  0.7097  0.4498
 8878SOL    HW138267   4.126   3.989  12.326 -0.9859 -1.2692 -2.4989
 8878SOL    HW238268   3.993   4.025  12.280 -0.3522  1.5002 -1.4082
 8879SOL     OW38269   3.613   0.405  16.515 -0.2022 -0.1267 -0.2283
 8879SOL    HW138270   3.681   0.344  16.545  1.1330  1.3607 -0.2299
 8879SOL    HW238271   3.611   0.459  16.593 -1.2638 -0.2511 -0.1686
 8880SOL     OW38272   4.469   3.184   7.598  0.5326  0.3323  0.1845
 8880SOL    HW138273   4.441   3.275   7.603 -0.9241 -0.3457  4.3521
 8880SOL    HW238274   4.461   3.155   7.689 -0.2940 -1.9963 -0.6313
 8881SOL     OW38275   3.030   0.318  12.630 -0.1627  0.3012  0.2320
 8881SOL    HW138276   2.961   0.344  12.691  0.9175  0.0629  1.5534
 8881SOL    HW238277   3.036   0.225  12.654  0.9441  0.2078 -0.3873
 8882SOL     OW38278   3.378   3.881  11.764  0.2388 -0.5941  0.1001
 8882SOL    HW138279   3.400   3.965  11.805 -1.4979  0.9265 -2.0815
 8882SOL    HW238280   3.394   3.815  11.831  3.3329 -0.9530 -0.9708
 8883SOL     OW38281   1.732   2.410   2.030 -0.1944  0.3513 -0.2305
 8883SOL    HW138282   1.711   2.343   1.965 -0.0913 -0.0799  0.1774
 8883SOL    HW238283   1.681   2.385   2.107 -1.1455  1.1423 -0.6038
 8884SOL     OW38284   4.236   3.299  15.485  0.4728  0.5813  0.2029
 8884SOL    HW138285   4.160   3.327  15.536  0.3287  0.6926 -0.0702
 8884SOL    HW238286   4.198   3.331  15.403  0.7495  1.3406  0.3647
 8885SOL     OW38287   1.140   1.991  16.763 -0.0061 -0.5979 -0.2455
 8885SOL    HW138288   1.048   2.017  16.761 -0.2890 -1.2870  3.7447
 8885SOL    HW238289   1.146   1.932  16.688  1.3600 -1.2515  0.3829
 8886SOL     OW38290   0.507   0.761  10.075  0.0324  0.3681  0.5931
 8886SOL    HW138291   0.487   0.827  10.009 -0.1377 -0.0705  0.1962
 8886SOL    HW238292   0.524   0.824  10.144 -0.2734  2.1087 -0.9211
 8887SOL     OW38293   0.624   1.833   8.378  0.0320  0.0990 -0.1339
 8887SOL    HW138294   0.595   1.907   8.325  1.2750 -1.2278 -2.6231
 8887SOL    HW238295   0.645   1.866   8.466  1.9486 -0.2582 -0.4468
 8888SOL     OW38296   2.097   4.335   2.816 -0.4713 -0.0211  0.0320
 8888SOL    HW138297   2.189   4.346   2.840 -0.7552  0.3991  0.9592
 8888SOL    HW238298   2.095   4.281   2.737  3.3705  0.6903 -0.5734
 8889SOL     OW38299   0.640   0.528   2.396 -0.4826  0.1731  0.6698
 8889SOL    HW138300   0.560   0.475   2.392 -0.2276 -0.3734  2.7267
 8889SOL    HW238301   0.618   0.589   2.326  0.5272  0.2013  0.3733
 8890SOL     OW38302   3.810   2.800   3.638 -0.0912 -0.0967  0.5425
 8890SOL    HW138303   3.754   2.854   3.582  1.5199  1.3857  0.3542
 8890SOL    HW238304   3.849   2.736   3.579 -0.1248  0.1179  0.2870
 8891SOL     OW38305   1.243   3.668   7.474  0.2052  0.1052 -0.5320
 8891SOL    HW138306   1.290   3.730   7.419 -0.8801 -0.7832 -2.4356
 8891SOL    HW238307   1.270   3.703   7.559 -1.6730 -0.9967  0.5197
 8892SOL     OW38308   1.772   4.028   6.379  0.4092 -0.2819  0.8270
 8892SOL    HW138309   1.832   4.080   6.433 -0.1772  0.2783  0.9399
 8892SOL    HW238310   1.810   4.046   6.293  2.2005  0.0034  1.6652
 8893SOL     OW38311   1.850   2.091   4.293 -0.0128  0.6254 -0.1358
 8893SOL    HW138312   1.891   2.004   4.302 -2.5178 -0.4654  0.7117
 8893SOL    HW238313   1.924   2.148   4.313 -2.1441  3.9189 -1.7097
 8894SOL     OW38314   2.479   3.741   2.827 -0.0158 -0.0702  0.0075
 8894SOL    HW138315   2.463   3.834   2.811 -1.8045  0.0068  2.3356
 8894SOL    HW238316   2.522   3.711   2.746 -0.0989 -1.1512  0.3628
 8895SOL     OW38317   4.466   0.724  13.360 -0.4966 -0.5664  0.2273
 8895SOL    HW138318   4.421   0.711  13.443 -1.0715 -0.6005 -0.0933
 8895SOL    HW238319   4.405   0.774  13.306 -0.8140 -0.3396  0.7889
 8896SOL     OW38320   1.744   3.998  11.828 -0.2717 -0.1360  0.0523
 8896SOL    HW138321   1.765   3.968  11.740  0.2002  1.6814 -0.4647
 8896SOL    HW238322   1.649   4.002  11.840 -0.1087  3.2106  0.3712
 8897SOL     OW38323   3.411   4.148   5.398 -0.3443  0.1068  0.2034
 8897SOL    HW138324   3.455   4.073   5.437  0.5153  0.7714  0.5254
 8897SOL    HW238325   3.453   4.159   5.312  1.7469 -1.6162  1.0173
 8898SOL     OW38326   2.591   1.971   3.116 -0.2199  0.8608  0.2495
 8898SOL    HW138327   2.619   2.042   3.058 -0.9106  0.3818 -0.6631
 8898SOL    HW238328   2.544   1.914   3.056 -0.4602  1.6072 -0.2737
 8899SOL     OW38329   3.520   1.107   4.110  0.7636 -0.1029 -0.1239
 8899SOL    HW138330   3.448   1.133   4.167  0.0401 -1.4535 -0.4029
 8899SOL    HW238331   3.560   1.188   4.079 -1.2072  1.4176  1.3437
 8900SOL     OW38332   2.476   2.935  10.692 -0.2691  0.1791 -0.0101
 8900SOL    HW138333   2.448   2.995  10.761 -0.0916  0.2203  0.0261
 8900SOL    HW238334   2.489   2.857  10.747  1.1725 -0.5150 -1.3140
 8901SOL     OW38335   3.436   1.985   6.810 -0.3469 -0.0115 -0.2390
 8901SOL    HW138336   3.398   2.019   6.891  3.4643  0.2226  1.4306
 8901SOL    HW238337   3.384   1.904   6.802 -0.0784 -0.2091  0.0052
 8902SOL     OW38338   2.226   0.758   8.512 -0.2545 -0.5147  0.2252
 8902SOL    HW138339   2.177   0.679   8.489 -3.2540  1.1313  0.9556
 8902SOL    HW238340   2.287   0.725   8.578  0.3113  0.0645 -0.0062
 8903SOL     OW38341   2.626   0.839   2.327 -0.1192 -0.6732  0.4663
 8903SOL    HW138342   2.687   0.815   2.258  0.5600  1.0475  0.4749
 8903SOL    HW238343   2.550   0.869   2.277  0.0502 -2.7344 -1.0259
 8904SOL     OW38344   3.257   0.923   7.218 -0.1336 -1.0061  0.0266
 8904SOL    HW138345   3.215   1.008   7.229  1.4946 -0.0798 -0.8636
 8904SOL    HW238346   3.226   0.861   7.283 -0.1961 -0.2558  0.7037
 8905SOL     OW38347   3.943   0.503   2.605 -0.0592  0.1031 -0.0610
 8905SOL    HW138348   3.984   0.580   2.564  1.9575 -1.2638 -0.5832
 8905SOL    HW238349   3.854   0.506   2.568 -0.3278  0.7352  0.6112
 8906SOL     OW38350   4.359   4.708  14.978  0.2656 -0.9851  0.2676
 8906SOL    HW138351   4.298   4.685  14.907  0.9387 -0.5112 -0.4710
 8906SOL    HW238352   4.348   0.060  14.994  1.5931 -0.6844 -0.5401
 8907SOL     OW38353   1.188   2.633   9.314  0.4113 -0.1373 -0.2947
 8907SOL    HW138354   1.276   2.653   9.348  0.6573  0.2596 -1.1773
 8907SOL    HW238355   1.155   2.721   9.297  1.4210  0.2466 -0.2760
 8908SOL     OW38356   3.708   2.682   3.274  0.0957 -0.3116  0.0402
 8908SOL    HW138357   3.656   2.731   3.211 -1.8831 -0.3329  1.6470
 8908SOL    HW238358   3.780   2.741   3.297  1.1253 -1.5989  0.1391
 8909SOL     OW38359   0.136   1.103  10.878  0.2066 -0.2813 -0.5275
 8909SOL    HW138360   0.118   1.012  10.858  0.2954 -0.3874 -0.1270
 8909SOL    HW238361   0.197   1.101  10.952  1.4965  0.8735 -1.5554
 8910SOL     OW38362   4.509   4.074  15.641 -0.1253 -0.0371  0.0592
 8910SOL    HW138363   4.557   4.075  15.558  1.3439 -1.7796  0.8668
 8910SOL    HW238364   4.538   4.157  15.680  2.0473 -0.0781 -1.4531
 8911SOL     OW38365   0.647   4.477   8.497 -0.8825 -0.1079  0.0206
 8911SOL    HW138366   0.668   4.537   8.569 -0.8941 -1.7516  1.4132
 8911SOL    HW238367   0.553   4.489   8.493 -0.8080  0.5343  0.2273
 8912SOL     OW38368   2.875   4.122   9.302 -0.1973  0.1690 -0.5464
 8912SOL    HW138369   2.871   4.216   9.281 -3.7100  0.0589 -0.3239
 8912SOL    HW238370   2.954   4.121   9.356  0.9986  2.5246 -2.2132
 8913SOL     OW38371   4.576   1.535   8.562  0.1774 -0.2562 -0.4209
 8913SOL    HW138372   4.518   1.517   8.488 -2.4155 -1.7304  1.9873
 8913SOL    HW238373   4.575   1.630   8.574  1.6632 -0.1682 -0.9877
 8914SOL     OW38374   2.506   0.879   5.944  0.2403  0.5558 -0.1212
 8914SOL    HW138375   2.456   0.919   6.016  0.8766  0.0318  0.6059
 8914SOL    HW238376   2.508   0.786   5.967 -0.1212  1.1388  2.3498
 8915SOL     OW38377   1.456   1.295   8.009 -0.1549  0.4173  0.0564
 8915SOL    HW138378   1.505   1.217   8.034 -0.0604  0.2570 -0.6108
 8915SOL    HW238379   1.370   1.280   8.047  0.1728  1.3913  1.1480
 8916SOL     OW38380   0.073   4.128   7.374 -0.5667 -0.1288  0.5038
 8916SOL    HW138381   0.140   4.188   7.339 -0.1356  0.3699  2.1820
 8916SOL    HW238382   0.115   4.108   7.457 -0.5037  1.6955  0.9212
 8917SOL     OW38383   0.772   4.027   4.384  0.2779 -0.6562 -0.1318
 8917SOL    HW138384   0.838   4.043   4.450  0.0365 -0.6431  0.1063
 8917SOL    HW238385   0.824   3.985   4.315 -0.1497  0.6574 -1.2550
 8918SOL     OW38386   3.027   1.427   7.526 -0.5472  0.0828  0.6439
 8918SOL    HW138387   3.019   1.333   7.508  0.4197 -0.2598  1.9766
 8918SOL    HW238388   3.028   1.421   7.621 -0.6659  1.6566  0.7459
 8919SOL     OW38389   0.320   1.807   2.253 -0.4715 -0.0959  0.7989
 8919SOL    HW138390   0.307   1.857   2.334  1.6632  2.5880 -0.5449
 8919SOL    HW238391   0.244   1.832   2.201 -1.0125 -0.9909  1.1570
 8920SOL     OW38392   3.393   4.258  13.565  0.0301  0.1731 -0.5415
 8920SOL    HW138393   3.477   4.280  13.524  0.8983 -0.3101  1.0075
 8920SOL    HW238394   3.399   4.163  13.576 -3.4087 -0.0107 -0.3332
 8921SOL     OW38395   3.327   0.241   9.842 -0.5359  0.0117  0.3450
 8921SOL    HW138396   3.416   0.222   9.815 -0.8173 -1.4587  0.4540
 8921SOL    HW238397   3.319   0.331   9.811  1.9936  1.7520  4.7536
 8922SOL     OW38398   1.775   0.886   3.274 -0.4662  0.1852 -0.5524
 8922SOL    HW138399   1.751   0.977   3.258 -0.3762  0.2139 -0.5226
 8922SOL    HW238400   1.749   0.845   3.191  0.3974  1.5372 -1.4926
 8923SOL     OW38401   4.147   1.004   4.959  0.2196  0.0574 -0.3761
 8923SOL    HW138402   4.150   1.058   4.880  1.5364  0.6143  0.0574
 8923SOL    HW238403   4.110   0.925   4.919  1.0766 -0.7335  0.3961
 8924SOL     OW38404   2.402   1.631   9.266 -0.4378 -0.9063 -0.0588
 8924SOL    HW138405   2.447   1.551   9.240 -0.8499 -0.8391 -0.9759
 8924SOL    HW238406   2.314   1.602   9.243 -1.3668  1.5442  0.4172
 8925SOL     OW38407   1.285   0.018  10.481 -0.7642  0.6971  0.2250
 8925SOL    HW138408   1.362   0.026  10.426  0.4274  0.2108  1.8249
 8925SOL    HW238409   1.305   4.672  10.514  0.1896  0.9193  0.2331
 8926SOL     OW38410   4.060   3.538   4.955  0.1095 -0.3877  0.6295
 8926SOL    HW138411   4.015   3.576   5.031 -0.0844  2.0218 -0.6884
 8926SOL    HW238412   4.012   3.455   4.958 -0.7471  0.0619 -0.5962
 8927SOL     OW38413   0.902   0.503  15.140  0.3937 -0.9370  0.2524
 8927SOL    HW138414   0.811   0.475  15.150 -0.2716  1.4164  0.7505
 8927SOL    HW238415   0.917   0.451  15.061  1.0589  1.8215 -1.4406
 8928SOL     OW38416   0.380   1.169   8.003  0.0821  0.2626 -0.7045
 8928SOL    HW138417   0.323   1.112   7.950  1.4825 -0.2758 -1.6335
 8928SOL    HW238418   0.445   1.100   8.018  0.3792  1.4087  3.1774
 8929SOL     OW38419   3.754   4.227   8.194 -0.6661 -0.3377 -0.1745
 8929SOL    HW138420   3.693   4.153   8.195 -0.5591 -0.4133  1.7630
 8929SOL    HW238421   3.830   4.186   8.235 -0.5584 -1.2885 -1.3422
 8930SOL     OW38422   1.173   2.520  16.885 -1.0200  0.2981  0.2304
 8930SOL    HW138423   1.235   2.447  16.879 -0.4180  1.0090 -1.8640
 8930SOL    HW238424   1.219   2.573  16.821 -0.3444  0.2751  0.7037
 8931SOL     OW38425   1.519   4.436   1.207 -0.1217  0.2928 -0.6533
 8931SOL    HW138426   1.539   4.402   1.294 -1.8342 -0.0750 -0.4019
 8931SOL    HW238427   1.506   4.351   1.165 -0.3107  1.0689 -2.1981
 8932SOL     OW38428   1.932   4.251   4.025  0.0492  0.5635 -0.1725
 8932SOL    HW138429   1.878   4.327   4.000  0.6007  0.5078 -1.5536
 8932SOL    HW238430   1.999   4.302   4.070  1.5769 -1.8263  0.2642
 8933SOL     OW38431   1.923   0.268  13.404  0.1796 -0.0554 -0.3642
 8933SOL    HW138432   1.840   0.233  13.373 -1.7127  1.7228  2.8398
 8933SOL    HW238433   1.927   0.358  13.372  0.1659 -0.0821 -0.4408
 8934SOL     OW38434   3.128   1.441   4.672 -0.3715  0.3775 -0.0034
 8934SOL    HW138435   3.127   1.399   4.586 -0.0074  1.4419 -0.5276
 8934SOL    HW238436   3.191   1.386   4.718  1.0814  0.8604 -1.3998
 8935SOL     OW38437   2.198   3.291   4.097  0.5433  0.0723 -0.2497
 8935SOL    HW138438   2.233   3.378   4.114 -2.4862  0.9127  1.7440
 8935SOL    HW238439   2.262   3.242   4.149  2.0086  1.8337 -0.4137
 8936SOL     OW38440   2.566   3.666   5.574  0.9264  0.4151 -0.0838
 8936SOL    HW138441   2.580   3.580   5.535 -1.4569  1.3487 -3.0288
 8936SOL    HW238442   2.549   3.629   5.661  0.6888 -0.6002 -0.5623
 8937SOL     OW38443   2.864   0.293   9.471  0.7838 -0.4753  0.7361
 8937SOL    HW138444   2.904   0.247   9.397  1.6057  0.4040  0.6356
 8937SOL    HW238445   2.939   0.340   9.508  1.8459 -0.8006 -1.0095
 8938SOL     OW38446   0.665   1.842   4.416  0.0802 -0.1383 -0.3633
 8938SOL    HW138447   0.641   1.752   4.435 -0.1107  0.2848  1.4411
 8938SOL    HW238448   0.700   1.833   4.327  0.5489 -0.7905 -0.1059
 8939SOL     OW38449   4.554   2.244  13.947  0.5278  0.3435  0.1494
 8939SOL    HW138450   4.533   2.244  14.040 -2.0086  3.2257 -0.4441
 8939SOL    HW238451   4.512   2.328  13.928 -1.2913 -0.6644 -0.2623
 8940SOL     OW38452   3.033   1.672   5.881  0.0889 -0.1506  0.2074
 8940SOL    HW138453   3.043   1.764   5.858 -3.0534 -0.4889 -2.4778
 8940SOL    HW238454   2.950   1.650   5.839  0.5318 -0.1929 -0.6475
 8941SOL     OW38455   3.823   2.608   4.052  0.3133  0.1979 -0.1463
 8941SOL    HW138456   3.748   2.665   4.033  1.7732  1.3656 -2.4525
 8941SOL    HW238457   3.800   2.559   4.131  0.4799 -0.0642 -0.2606
 8942SOL     OW38458   2.210   3.714   6.731 -0.3847 -0.0800 -0.2491
 8942SOL    HW138459   2.145   3.776   6.698 -1.7020 -1.0336  0.5574
 8942SOL    HW238460   2.163   3.687   6.810  1.0875  0.4866  0.8110
 8943SOL     OW38461   0.316   1.516   4.633  0.1697 -0.7691  0.2251
 8943SOL    HW138462   0.394   1.565   4.608 -1.6567  1.6759 -0.7351
 8943SOL    HW238463   0.256   1.560   4.573  1.6220  0.2763 -0.4456
 8944SOL     OW38464   3.834   0.302   3.549 -0.4373 -0.4117  0.1732
 8944SOL    HW138465   3.770   0.318   3.619  1.6662 -0.0193  2.0307
 8944SOL    HW238466   3.913   0.296   3.604 -1.0362  1.3914  1.2550
 8945SOL     OW38467   1.196   2.082   6.864 -0.7080  0.0170 -0.4402
 8945SOL    HW138468   1.181   2.075   6.958  0.7416 -0.3987 -0.2276
 8945SOL    HW238469   1.168   2.172   6.848  0.0449  0.5947  1.5239
 8946SOL     OW38470   2.576   4.448   6.787  0.0554 -0.1531  0.0363
 8946SOL    HW138471   2.581   4.371   6.729 -2.7674 -0.4380  0.1327
 8946SOL    HW238472   2.598   4.517   6.725 -0.5578  0.3751  0.4014
 8947SOL     OW38473   3.322   0.857  17.320  0.3246 -0.4251 -0.6437
 8947SOL    HW138474   3.389   0.924  17.335 -0.5677  0.5102 -0.8927
 8947SOL    HW238475   3.238   0.901  17.318  1.2671  1.3673 -0.5835
 8948SOL     OW38476   2.488   0.113   9.390 -0.1550  0.4024  0.0788
 8948SOL    HW138477   2.480   0.152   9.477  0.7623 -1.6079  1.0910
 8948SOL    HW238478   2.496   0.018   9.402  0.0094  0.3681 -0.3298
 8949SOL     OW38479   1.014   3.939   4.561 -0.0378 -0.0383 -0.4329
 8949SOL    HW138480   1.020   3.934   4.656 -0.2266  0.7641 -0.3737
 8949SOL    HW238481   1.100   3.972   4.533 -0.0627 -0.5027 -1.0435
 8950SOL     OW38482   0.013   0.434   4.299  0.2385 -0.0430  0.4426
 8950SOL    HW138483   4.711   0.497   4.357  0.4117  1.0892 -0.6593
 8950SOL    HW238484   4.683   0.390   4.253  1.1830 -0.8579 -0.2479
 8951SOL     OW38485   2.926   3.680   7.735 -0.6177 -0.6135  0.2081
 8951SOL    HW138486   2.836   3.712   7.739 -0.1167  0.7004  0.8370
 8951SOL    HW238487   2.953   3.690   7.826 -0.4110  3.3161 -0.3046
 8952SOL     OW38488   4.197   4.015   7.303  0.4065  0.3852 -0.4065
 8952SOL    HW138489   4.104   4.036   7.313  0.3086  0.1439 -0.8216
 8952SOL    HW238490   4.237   4.102   7.296 -0.2092  0.5362 -2.0803
 8953SOL     OW38491   2.475   2.680   7.009 -0.0427  0.3205 -0.3847
 8953SOL    HW138492   2.480   2.586   6.994 -0.2873  0.3015 -0.3397
 8953SOL    HW238493   2.544   2.694   7.073  1.4324  0.5568 -2.0244
 8954SOL     OW38494   2.376   3.111   1.896  0.1813  0.6114 -0.1126
 8954SOL    HW138495   2.366   3.196   1.939  1.8282  0.1386  1.2161
 8954SOL    HW238496   2.287   3.074   1.892 -0.1621  1.4224 -0.0833
 8955SOL     OW38497   1.823   0.095  11.294 -0.0885 -0.1421 -0.4342
 8955SOL    HW138498   1.780   0.170  11.335  0.1325  0.6748 -1.7261
 8955SOL    HW238499   1.811   0.026  11.360 -0.1250  0.2762 -0.0041
 8956SOL     OW38500   3.960   0.877   9.649  0.1557 -0.5357 -0.6670
 8956SOL    HW138501   3.993   0.788   9.638  0.7487 -0.6409  2.0502
 8956SOL    HW238502   4.041   0.924   9.626 -1.6527  2.1251 -1.6516
 8957SOL     OW38503   0.607   3.077  13.580  0.6626 -0.6472  0.4828
 8957SOL    HW138504   0.688   3.068  13.531 -0.1732 -0.4585 -0.9378
 8957SOL    HW238505   0.536   3.048  13.522 -0.5146  0.1490  1.5160
 8958SOL     OW38506   1.104   1.281   9.575 -0.2713 -0.0071 -0.4777
 8958SOL    HW138507   1.181   1.248   9.620 -1.2562 -1.3547  0.2331
 8958SOL    HW238508   1.098   1.371   9.606  2.0649 -0.5188  1.3841
 8959SOL     OW38509   1.736   3.731   8.409 -0.7732  0.4830 -0.6669
 8959SOL    HW138510   1.810   3.747   8.467 -0.9342 -0.6368 -0.1440
 8959SOL    HW238511   1.687   3.813   8.405 -1.5769  0.0510  0.1346
 8960SOL     OW38512   1.086   4.228   3.709 -0.5176 -0.5113  0.2273
 8960SOL    HW138513   1.143   4.157   3.739 -0.8015 -0.6249  0.4923
 8960SOL    HW238514   1.012   4.222   3.770  0.7349 -1.3417  1.6705
 8961SOL     OW38515   3.056   1.609   1.708  0.3975 -0.1781  0.3167
 8961SOL    HW138516   2.960   1.607   1.704  0.4193 -2.0926  0.6297
 8961SOL    HW238517   3.079   1.576   1.621 -0.9606  0.1408 -0.1634
 8962SOL     OW38518   4.067   2.945  10.584 -0.8911 -0.0145 -0.3961
 8962SOL    HW138519   4.145   2.958  10.639 -0.0806 -0.8287 -1.3605
 8962SOL    HW238520   4.010   2.888  10.635  0.4343  0.2192  1.3581
 8963SOL     OW38521   1.348   2.447   4.930 -0.0262  0.0057 -0.4096
 8963SOL    HW138522   1.421   2.447   4.869 -0.0677 -1.1245 -0.4598
 8963SOL    HW238523   1.336   2.352   4.927 -1.6395  0.2224 -0.5773
 8964SOL     OW38524   0.430   2.567   9.480 -0.3332  0.9142 -0.1617
 8964SOL    HW138525   0.362   2.590   9.543 -0.9968 -0.2581 -0.4611
 8964SOL    HW238526   0.429   2.642   9.420  0.4344  1.0750  0.0235
 8965SOL     OW38527   0.656   0.738  13.841 -0.1983  0.3188  0.0055
 8965SOL    HW138528   0.726   0.676  13.819 -0.6166  0.6591 -2.2710
 8965SOL    HW238529   0.624   0.755  13.753 -2.4193  4.0220  1.5342
 8966SOL     OW38530   2.348   2.870   4.950 -0.2112  0.2565 -0.5061
 8966SOL    HW138531   2.285   2.808   4.912  0.6365 -1.1124  0.3010
 8966SOL    HW238532   2.371   2.835   5.036 -0.3252 -0.8553 -0.9235
 8967SOL     OW38533   4.575   4.227  10.056 -0.0747 -0.0416 -0.4001
 8967SOL    HW138534   4.522   4.148  10.053 -1.9677  1.1893  0.4149
 8967SOL    HW238535   4.577   4.252  10.148  0.4835  1.2921 -0.7754
 8968SOL     OW38536   3.711   0.712   8.476 -0.7105  0.8265 -0.4305
 8968SOL    HW138537   3.698   0.620   8.451  1.4168  0.3550  0.1366
 8968SOL    HW238538   3.795   0.708   8.521 -1.5449  1.4067  1.1576
 8969SOL     OW38539   3.391   0.020   4.083 -0.0557 -0.1363 -0.0493
 8969SOL    HW138540   3.370   0.039   3.992 -0.3994 -0.9359 -0.1384
 8969SOL    HW238541   3.367   4.673   4.109 -2.3312  0.4991  0.0125
 8970SOL     OW38542   2.381   0.367   5.891  0.0868  0.4194  0.9256
 8970SOL    HW138543   2.472   0.395   5.883 -0.0651  0.7421  0.2995
 8970SOL    HW238544   2.384   0.328   5.978  0.6845  1.2436  1.2744
 8971SOL     OW38545   1.411   1.905   4.892 -0.1799 -0.5518  0.0692
 8971SOL    HW138546   1.487   1.944   4.936  0.0334 -0.2609 -0.5568
 8971SOL    HW238547   1.422   1.810   4.897  0.9680 -0.4195  0.2601
 8972SOL     OW38548   2.009   1.325   9.856 -0.1347  0.1669 -0.2666
 8972SOL    HW138549   2.044   1.237   9.838 -0.7726  0.2094 -1.7757
 8972SOL    HW238550   2.050   1.331   9.942  2.1009  1.7505 -1.4445
 8973SOL     OW38551   1.049   2.468   1.797 -0.0625  0.2869  0.3900
 8973SOL    HW138552   1.138   2.497   1.819  0.8864 -1.8030 -0.6677
 8973SOL    HW238553   1.031   2.524   1.721 -1.0403 -1.3781 -0.5870
 8974SOL     OW38554   0.554   0.585  13.144 -0.2069  0.3489  0.3646
 8974SOL    HW138555   0.504   0.546  13.215  1.0649  2.2199  2.2786
 8974SOL    HW238556   0.559   0.677  13.172 -0.9184 -0.5862  3.5438
 8975SOL     OW38557   4.654   1.470  14.757  0.0345 -0.3233  0.3486
 8975SOL    HW138558   4.682   1.555  14.724  1.2486 -0.9261 -0.1832
 8975SOL    HW238559   4.704   1.450  14.836  1.2617  0.0153 -0.3409
 8976SOL     OW38560   3.634   3.201   4.296 -0.2466 -0.2349  0.3702
 8976SOL    HW138561   3.612   3.269   4.360  0.7732  0.1197  0.3458
 8976SOL    HW238562   3.624   3.124   4.352  1.0487 -1.2087 -0.7239
 8977SOL     OW38563   1.278   2.437  15.365  0.4157 -0.5698  0.1130
 8977SOL    HW138564   1.235   2.423  15.281  0.7277 -1.7254  0.1522
 8977SOL    HW238565   1.291   2.532  15.363  1.8439 -0.7585  0.1700
 8978SOL     OW38566   3.053   2.530   6.844 -0.0355  0.1118  0.4288
 8978SOL    HW138567   3.128   2.580   6.811  1.1107 -1.2591  0.9901
 8978SOL    HW238568   3.081   2.445   6.813  2.1728  1.1819 -0.5086
 8979SOL     OW38569   0.619   1.255   0.143  0.5749  0.0043  0.3943
 8979SOL    HW138570   0.544   1.196   0.136 -0.7311  1.2205  4.4898
 8979SOL    HW238571   0.585   1.324   0.199  0.1732  0.0400  0.1088
 8980SOL     OW38572   0.073   1.980   2.069 -0.0390 -0.1600  0.1341
 8980SOL    HW138573   0.016   1.986   2.146 -0.9174 -0.7684 -0.4662
 8980SOL    HW238574   0.091   1.886   2.069  2.4982  0.3469  2.3034
 8981SOL     OW38575   0.760   1.872  10.458 -0.4415  0.2316  0.0818
 8981SOL    HW138576   0.732   1.944  10.515  0.9815  0.9862 -0.1905
 8981SOL    HW238577   0.692   1.813  10.490  1.9362 -1.0465  2.7464
 8982SOL     OW38578   0.135   3.359   6.536  0.4660 -0.1415 -0.0241
 8982SOL    HW138579   0.153   3.318   6.621  1.0720 -1.0566 -0.5917
 8982SOL    HW238580   0.214   3.409   6.518 -0.6185  0.8504 -2.0046
 8983SOL     OW38581   1.394   1.879  16.238  0.0449 -0.3322 -0.2676
 8983SOL    HW138582   1.407   1.846  16.149  2.3002 -2.0491  0.6832
 8983SOL    HW238583   1.341   1.809  16.276 -0.4503 -1.4102 -2.9748
 8984SOL     OW38584   1.743   0.914  14.543  0.1309  0.2684  0.1388
 8984SOL    HW138585   1.730   0.949  14.630 -1.6287 -1.8960  0.7562
 8984SOL    HW238586   1.709   0.990  14.496 -0.4632 -0.4791 -0.6399
 8985SOL     OW38587   3.199   4.455   1.422  0.7598 -0.1260 -0.4294
 8985SOL    HW138588   3.115   4.501   1.415 -0.6866 -2.3809  2.0742
 8985SOL    HW238589   3.218   4.470   1.514 -2.3859  1.1924  0.0015
 8986SOL     OW38590   1.335   1.596   7.479  0.0181  0.2544 -0.4387
 8986SOL    HW138591   1.309   1.575   7.569 -2.4741  1.6422 -0.8185
 8986SOL    HW238592   1.375   1.515   7.449  0.1774  0.6375 -1.2523
 8987SOL     OW38593   1.077   2.384   5.243  0.1363 -0.6865  0.2985
 8987SOL    HW138594   1.153   2.335   5.212  0.2377  1.6446 -3.1492
 8987SOL    HW238595   1.128   2.457   5.280  3.3014 -1.6914 -2.0590
 8988SOL     OW38596   2.242   4.050   7.973 -0.4511 -0.4811  0.7376
 8988SOL    HW138597   2.181   4.067   7.902  2.1824  0.9856 -1.1755
 8988SOL    HW238598   2.213   3.963   8.001  0.1904 -0.4745  1.4341
 8989SOL     OW38599   1.684   2.895  12.508  0.0255  0.6656  0.5753
 8989SOL    HW138600   1.766   2.889  12.458 -0.4671 -4.0272  0.3264
 8989SOL    HW238601   1.669   2.803  12.528  0.1944  0.5095 -0.0203
 8990SOL     OW38602   2.435   1.985   7.999  0.1324  0.3296  0.2561
 8990SOL    HW138603   2.339   1.981   8.000  0.1635 -0.0989  2.1880
 8990SOL    HW238604   2.450   2.079   7.994  0.8135  0.1740 -0.6347
 8991SOL     OW38605   0.715   2.099   5.004  0.2729  0.1839 -0.1336
 8991SOL    HW138606   0.737   2.013   5.040  2.6331  0.3607 -1.1680
 8991SOL    HW238607   0.787   2.150   5.040 -0.7288  0.2418  1.8141
 8992SOL     OW38608   4.666   0.567   3.883 -0.1448  0.1195  0.6483
 8992SOL    HW138609   4.705   0.584   3.798 -1.6199 -1.9204 -0.4433
 8992SOL    HW238610   4.600   0.636   3.891  0.5573  0.5506  2.8353
 8993SOL     OW38611   3.906   2.582   1.620 -0.0876 -0.0162 -0.3449
 8993SOL    HW138612   3.868   2.494   1.622  2.4485 -1.0756  1.8578
 8993SOL    HW238613   3.957   2.579   1.539  2.7311 -0.8519  1.4705
 8994SOL     OW38614   0.130   4.299   9.168  0.4838  0.0962  0.0698
 8994SOL    HW138615   0.075   4.377   9.172 -2.6581 -2.0224 -1.9850
 8994SOL    HW238616   0.193   4.308   9.240  1.7331  0.7675 -1.1098
 8995SOL     OW38617   3.238   0.610   2.720 -0.5222  0.1574  0.0042
 8995SOL    HW138618   3.193   0.564   2.791  0.9345  0.1657  0.9196
 8995SOL    HW238619   3.192   0.693   2.725  2.1170  1.5698  0.5925
 8996SOL     OW38620   0.867   3.111   4.186  0.2750  0.1965  0.0008
 8996SOL    HW138621   0.921   3.181   4.222  0.8594 -0.9797  1.3734
 8996SOL    HW238622   0.812   3.106   4.264  0.4598 -1.3927  0.0103
 8997SOL     OW38623   0.305   3.390   5.849  0.0327 -0.1564  0.4853
 8997SOL    HW138624   0.229   3.448   5.858  0.0821 -0.3741  2.1705
 8997SOL    HW238625   0.375   3.452   5.868  0.3496 -0.1336 -0.7612
 8998SOL     OW38626   1.674   2.114   8.518  0.5537  0.1972 -0.4379
 8998SOL    HW138627   1.610   2.043   8.523  0.0850  0.5218 -1.6204
 8998SOL    HW238628   1.631   2.179   8.573 -1.0792 -0.9064 -0.4119
 8999SOL     OW38629   3.736   4.046   9.851 -0.1848 -0.3430  0.2302
 8999SOL    HW138630   3.689   4.127   9.831  0.4770  0.2879  1.2674
 8999SOL    HW238631   3.825   4.071   9.828 -0.8348  1.1022 -0.7138
 9000SOL     OW38632   1.960   2.010  14.535 -1.3046 -0.0719  0.6996
 9000SOL    HW138633   1.957   2.100  14.503 -1.9079  0.1370  1.3613
 9000SOL    HW238634   2.011   1.966  14.467  0.1517  0.2814  1.5616
 9001SOL     OW38635   2.088   3.643   3.451 -0.0633  0.3352  0.6415
 9001SOL    HW138636   2.070   3.556   3.416 -1.3898  0.3494  1.2927
 9001SOL    HW238637   2.143   3.629   3.528 -0.1747  0.2661  0.7086
 9002SOL     OW38638   1.643   1.944  13.235 -0.1442 -0.7126 -0.5959
 9002SOL    HW138639   1.704   1.889  13.187  0.2789  0.0754 -0.9491
 9002SOL    HW238640   1.685   1.950  13.321 -1.1202 -2.0475 -0.0205
 9003SOL     OW38641   0.194   2.320   7.399  0.6849 -0.0864  0.2553
 9003SOL    HW138642   0.139   2.242   7.393  0.2007  0.4390 -2.0348
 9003SOL    HW238643   0.138   2.374   7.454  1.8380 -0.2975  1.6603
 9004SOL     OW38644   2.194   2.744  15.594  0.3087 -0.5561 -0.0374
 9004SOL    HW138645   2.219   2.658  15.560  1.8380  0.3202 -1.1521
 9004SOL    HW238646   2.252   2.807  15.551  0.1019 -1.4696 -1.6964
 9005SOL     OW38647   0.792   0.394   1.941 -0.1184  0.3755 -0.3638
 9005SOL    HW138648   0.704   0.362   1.923  0.1418 -0.8956  0.5756
 9005SOL    HW238649   0.814   0.335   2.014  0.9210  2.0740  0.7117
 9006SOL     OW38650   3.066   1.924   4.547  0.0577 -0.3285  0.2801
 9006SOL    HW138651   3.157   1.947   4.564 -1.0940  1.4937  4.0695
 9006SOL    HW238652   3.026   1.950   4.630 -1.6816  2.0780 -1.3213
 9007SOL     OW38653   0.050   4.433   3.222 -0.3514  0.0514  0.2679
 9007SOL    HW138654   4.726   4.442   3.154 -0.7325  1.1787  0.7818
 9007SOL    HW238655   0.102   4.513   3.208  0.8075 -0.8415 -0.5838
 9008SOL     OW38656   3.596   4.175   4.106  0.6697  0.2213  0.4264
 9008SOL    HW138657   3.651   4.105   4.070  0.4935  0.2904  0.0193
 9008SOL    HW238658   3.555   4.127   4.178 -1.7134  0.8659 -0.5012
 9009SOL     OW38659   3.070   2.324   3.298  0.7184  0.4571  0.1376
 9009SOL    HW138660   3.153   2.277   3.308  0.5588  0.5181  1.6722
 9009SOL    HW238661   3.013   2.279   3.236 -1.3232  2.1867  0.7781
 9010SOL     OW38662   4.387   2.124   1.926 -0.2774  0.3004 -0.5209
 9010SOL    HW138663   4.347   2.058   1.983  1.6400  0.2111  0.7366
 9010SOL    HW238664   4.474   2.131   1.965  0.3801  0.7451 -2.0876
 9011SOL     OW38665   2.924   3.195  10.757 -0.6880  0.3683  0.4855
 9011SOL    HW138666   2.999   3.251  10.780  1.2467 -1.8259 -0.4360
 9011SOL    HW238667   2.957   3.125  10.699  0.3482  0.5300  0.8857
 9012SOL     OW38668   2.360   3.470   4.438 -0.2389  0.3535 -0.3001
 9012SOL    HW138669   2.265   3.480   4.424 -0.4122 -1.5388 -0.5105
 9012SOL    HW238670   2.357   3.478   4.533 -1.4932  1.1090 -0.3889
 9013SOL     OW38671   3.747   3.429   6.628  0.3925  0.0563  0.1424
 9013SOL    HW138672   3.653   3.446   6.624  0.0856 -1.3918  1.3125
 9013SOL    HW238673   3.760   3.346   6.581 -2.1804  0.6175 -1.5664
 9014SOL     OW38674   0.459   2.816   6.443 -1.0765  0.3052  0.1967
 9014SOL    HW138675   0.506   2.795   6.362 -3.0885  1.2539 -1.2236
 9014SOL    HW238676   0.531   2.830   6.504  0.3402  0.4774 -1.5169
 9015SOL     OW38677   3.251   4.565   5.069 -0.0865 -0.0844 -0.1167
 9015SOL    HW138678   3.234   4.527   5.155  2.1812  0.9285  0.7647
 9015SOL    HW238679   3.305   4.642   5.083 -1.6912  0.5456  2.7489
 9016SOL     OW38680   2.826   2.812   5.751 -0.0399 -0.4160 -0.4065
 9016SOL    HW138681   2.796   2.841   5.665  0.6390 -0.5989 -0.7052
 9016SOL    HW238682   2.917   2.843   5.750 -0.5518  1.1396  0.1107
 9017SOL     OW38683   2.228   3.396  10.006  0.1784  0.4811  0.7497
 9017SOL    HW138684   2.138   3.369  10.019 -0.0864  0.9417 -0.1140
 9017SOL    HW238685   2.261   3.341   9.935 -0.6012 -0.5862  1.2282
 9018SOL     OW38686   3.738   4.133   4.733 -0.4400  0.4954  0.0894
 9018SOL    HW138687   3.816   4.080   4.749 -0.4811 -0.2229 -2.0473
 9018SOL    HW238688   3.767   4.224   4.738  0.6170  0.1197  0.7624
 9019SOL     OW38689   3.545   1.447   7.362  0.4563 -0.1405 -0.0767
 9019SOL    HW138690   3.523   1.379   7.299 -1.4296 -0.3606  0.8049
 9019SOL    HW238691   3.526   1.529   7.316 -2.3281 -0.2603  0.8478
 9020SOL     OW38692   2.179   1.651  16.268  0.0426 -0.3275  0.0076
 9020SOL    HW138693   2.148   1.739  16.289  1.4589  0.1709 -0.0333
 9020SOL    HW238694   2.237   1.662  16.193  1.2449 -1.0496  0.8230
 9021SOL     OW38695   0.884   0.750  10.650 -0.2426  0.6360 -0.3749
 9021SOL    HW138696   0.908   0.778  10.738  1.5618 -0.0264 -0.6471
 9021SOL    HW238697   0.957   0.690  10.632 -0.5771  1.3560 -4.2091
 9022SOL     OW38698   0.384   1.228   6.166 -0.1141  0.1571  0.4464
 9022SOL    HW138699   0.424   1.151   6.207 -1.1174 -0.0261  1.0663
 9022SOL    HW238700   0.294   1.196   6.166  0.2046 -0.7693 -1.5327
 9023SOL     OW38701   2.936   1.356   5.172 -0.4043 -0.7691 -0.1918
 9023SOL    HW138702   3.013   1.307   5.201  0.5398 -0.0672 -1.4532
 9023SOL    HW238703   2.978   1.408   5.103 -1.4675  0.5660  0.1793
 9024SOL     OW38704   1.321   3.486   9.478 -0.3970  0.0137 -0.2916
 9024SOL    HW138705   1.414   3.496   9.499 -0.2445 -1.2555 -0.3173
 9024SOL    HW238706   1.283   3.538   9.548  0.3115  0.1460 -0.0040
 9025SOL     OW38707   2.339   3.774   2.514  0.0884  0.6014  0.4998
 9025SOL    HW138708   2.299   3.820   2.589  0.4107  2.1515 -0.2726
 9025SOL    HW238709   2.364   3.855   2.469 -1.0062  0.2270 -0.7900
 9026SOL     OW38710   4.223   3.837   5.066 -0.3511  0.2415 -0.0521
 9026SOL    HW138711   4.225   3.806   5.156 -0.3076  0.3998  0.0014
 9026SOL    HW238712   4.305   3.885   5.054 -0.0931 -0.4294 -0.9878
 9027SOL     OW38713   3.643   3.976  16.226 -0.2168  0.1765 -0.1645
 9027SOL    HW138714   3.600   4.038  16.168 -1.3909 -2.3580 -1.9722
 9027SOL    HW238715   3.643   3.896  16.175 -0.1235  0.5894 -0.8070
 9028SOL     OW38716   1.528   2.546   0.816  0.1759  0.6695 -0.2349
 9028SOL    HW138717   1.512   2.474   0.878 -0.6982  1.6185  0.6585
 9028SOL    HW238718   1.623   2.540   0.805  0.3455  0.1489  1.4453
 9029SOL     OW38719   1.892   1.382   9.418  0.2941  0.1892 -0.5332
 9029SOL    HW138720   1.922   1.334   9.341  0.8261  0.7921 -0.6931
 9029SOL    HW238721   1.846   1.312   9.465  1.6512  0.0763  0.6406
 9030SOL     OW38722   0.772   3.706   2.883  0.9400 -0.4205 -0.0426
 9030SOL    HW138723   0.788   3.626   2.834  0.9362 -0.1618 -0.4629
 9030SOL    HW238724   0.800   3.678   2.970 -2.0223 -1.4163  0.6123
 9031SOL     OW38725   0.356   2.720   7.745 -0.2870 -0.0036 -0.2679
 9031SOL    HW138726   0.448   2.739   7.729 -0.6078  0.4197 -1.6322
 9031SOL    HW238727   0.332   2.796   7.798 -0.0376  1.5873 -2.3924
 9032SOL     OW38728   4.290   2.870   7.707 -0.2980 -0.0142  0.3103
 9032SOL    HW138729   4.303   2.816   7.629 -2.5280 -0.3778  0.1862
 9032SOL    HW238730   4.314   2.956   7.673 -1.1863  0.2353  0.3192
 9033SOL     OW38731   3.434   0.305   6.970 -0.3921  0.3712  0.0345
 9033SOL    HW138732   3.442   0.377   7.033 -0.2869 -0.7879  1.3539
 9033SOL    HW238733   3.464   0.345   6.889 -0.7195  0.8081  0.1281
 9034SOL     OW38734   2.823   1.513   9.236 -0.5037  0.2808  0.2631
 9034SOL    HW138735   2.906   1.550   9.267 -1.7780  1.8562  1.7156
 9034SOL    HW238736   2.775   1.593   9.220  0.2409  1.1789  2.5631
 9035SOL     OW38737   1.954   2.027   5.760 -0.0158 -0.6267 -0.1794
 9035SOL    HW138738   2.032   2.076   5.786  1.0064 -0.4033 -3.6314
 9035SOL    HW238739   1.942   2.057   5.669 -1.2713  0.0250  0.1903
 9036SOL     OW38740   1.989   0.999   3.629 -0.3563  0.5066  0.5067
 9036SOL    HW138741   1.918   0.947   3.591 -1.0141  0.9246  1.1790
 9036SOL    HW238742   1.982   0.978   3.722  0.2854  0.1653  0.4764
 9037SOL     OW38743   1.348   4.393   2.991  0.0053 -0.2417  0.1780
 9037SOL    HW138744   1.364   4.442   3.072 -1.2603  0.9215 -0.2835
 9037SOL    HW238745   1.296   4.321   3.027  0.1687 -0.9643 -1.0483
 9038SOL     OW38746   1.623   1.225   2.826  0.6175 -0.4456 -0.4058
 9038SOL    HW138747   1.688   1.295   2.837 -0.1377  0.3813 -1.1109
 9038SOL    HW238748   1.679   1.150   2.808  0.6897 -0.0910 -1.6890
 9039SOL     OW38749   2.468   3.216  10.065 -0.0809  0.7190 -0.1472
 9039SOL    HW138750   2.551   3.249  10.100  0.9373 -0.6171 -1.3034
 9039SOL    HW238751   2.436   3.273   9.995  0.7190  1.7931  0.3639
 9040SOL     OW38752   4.514   2.771   4.316  0.0160 -0.2188 -0.1769
 9040SOL    HW138753   4.440   2.715   4.293  1.6548 -0.9062 -3.9151
 9040SOL    HW238754   4.501   2.847   4.260 -0.1969  0.9347  1.4462
 9041SOL     OW38755   3.603   2.416   4.151 -0.3526 -0.0944 -0.4938
 9041SOL    HW138756   3.643   2.382   4.071 -2.8750 -0.3102 -1.6280
 9041SOL    HW238757   3.542   2.347   4.176  0.4266 -0.1503  1.2851
 9042SOL     OW38758   0.499   3.755   8.240 -0.2483 -0.1760  0.3946
 9042SOL    HW138759   0.489   3.836   8.290 -0.0263 -0.2939  0.6262
 9042SOL    HW238760   0.554   3.700   8.296  0.7957 -0.2393 -0.6734
 9043SOL     OW38761   3.564   2.537   3.883 -0.5002 -0.3358  0.1275
 9043SOL    HW138762   3.515   2.470   3.931 -0.3979 -0.1656  0.4729
 9043SOL    HW238763   3.561   2.623   3.925  0.3421 -0.0654 -0.3787
 9044SOL     OW38764   1.025   3.839  16.750  0.2413  0.0436 -0.6130
 9044SOL    HW138765   0.972   3.919  16.754  0.0724 -0.1794  1.3621
 9044SOL    HW238766   0.985   3.784  16.817  0.7950 -2.7665 -2.5657
 9045SOL     OW38767   3.678   1.494  10.875  0.0859 -0.5235  0.4905
 9045SOL    HW138768   3.603   1.466  10.926  0.2199  0.8978  1.4782
 9045SOL    HW238769   3.744   1.425  10.882  1.2789  0.5196 -0.3637
 9046SOL     OW38770   2.703   4.100  13.314 -0.3499  0.5970 -0.1381
 9046SOL    HW138771   2.797   4.084  13.313 -0.0822  1.9811  1.6276
 9046SOL    HW238772   2.674   4.043  13.243  0.0669 -1.0639  1.0401
 9047SOL     OW38773   2.664   2.812   2.229  0.3760 -0.1089  0.3810
 9047SOL    HW138774   2.671   2.793   2.135 -1.6113 -0.3532  0.2806
 9047SOL    HW238775   2.582   2.862   2.222  0.3073 -0.3985 -0.9319
 9048SOL     OW38776   3.662   2.850   6.615  0.3465  0.3374 -0.3029
 9048SOL    HW138777   3.719   2.787   6.660  0.1046  0.2254 -0.1516
 9048SOL    HW238778   3.720   2.892   6.551 -0.8342 -0.1151 -1.6593
 9049SOL     OW38779   2.981   2.874   7.356 -0.3702 -0.0485 -0.4614
 9049SOL    HW138780   2.983   2.969   7.364 -2.4298  0.1335 -2.0772
 9049SOL    HW238781   2.887   2.855   7.349 -0.5487 -0.2390  2.5963
 9050SOL     OW38782   1.658   0.385   5.233  0.2325 -0.2792  0.3262
 9050SOL    HW138783   1.639   0.479   5.231  1.8366  0.0921  2.0943
 9050SOL    HW238784   1.676   0.366   5.325 -0.7729  0.3607  0.6612
 9051SOL     OW38785   1.450   1.877   9.254 -0.2543  0.5937 -0.2456
 9051SOL    HW138786   1.439   1.955   9.200 -0.8419  0.6991  0.0258
 9051SOL    HW238787   1.428   1.809   9.191  0.4184  1.0894 -1.0108
 9052SOL     OW38788   2.779   3.914   9.155 -0.2448  0.0044  0.0662
 9052SOL    HW138789   2.774   4.009   9.146 -1.0289  0.0794  1.3536
 9052SOL    HW238790   2.850   3.909   9.219 -0.8526 -2.0129  0.5760
 9053SOL     OW38791   0.053   1.244   7.732 -0.3190  0.0227  0.3941
 9053SOL    HW138792   0.048   1.149   7.720  1.4829 -0.3243  2.4518
 9053SOL    HW238793   0.077   1.263   7.823 -1.2090  2.5581  0.0956
 9054SOL     OW38794   3.539   1.666   9.968  0.1802  0.5298  0.0952
 9054SOL    HW138795   3.609   1.730   9.987 -1.4319  1.8737  1.4634
 9054SOL    HW238796   3.532   1.671   9.872  3.6153  0.8354 -0.1564
 9055SOL     OW38797   2.294   0.488   4.006 -0.3971  0.0090  0.5157
 9055SOL    HW138798   2.319   0.482   4.098 -1.4981  0.8301  0.8720
 9055SOL    HW238799   2.370   0.525   3.962  0.3138  0.3241  1.9892
 9056SOL     OW38800   1.079   2.674   6.387  0.7152 -0.0767  0.0110
 9056SOL    HW138801   1.101   2.766   6.401  0.3027 -0.0874  0.6962
 9056SOL    HW238802   1.061   2.678   6.293  3.8977 -0.9058 -0.6230
 9057SOL     OW38803   3.811   1.527  14.969 -0.0265  0.0351 -0.0674
 9057SOL    HW138804   3.787   1.552  15.058 -0.2446 -1.6929  0.3726
 9057SOL    HW238805   3.772   1.439  14.973 -1.3278  0.7043  1.7572
 9058SOL     OW38806   2.188   1.948   3.828 -0.0683 -0.1502  0.0204
 9058SOL    HW138807   2.276   1.933   3.792 -0.4038 -1.5546 -0.2068
 9058SOL    HW238808   2.145   2.003   3.763 -2.3068 -0.5604  1.1685
 9059SOL     OW38809   3.622   0.680  10.418 -0.1210 -0.4802 -1.0104
 9059SOL    HW138810   3.533   0.697  10.449  0.1086 -1.4658  0.1907
 9059SOL    HW238811   3.665   0.649  10.497 -0.6415  1.8561  0.2183
 9060SOL     OW38812   1.120   2.003   4.206 -0.2190 -0.5833 -0.1304
 9060SOL    HW138813   1.214   2.021   4.193 -0.2808 -1.7617 -2.2977
 9060SOL    HW238814   1.115   2.024   4.299 -1.5466 -0.1768 -0.2998
 9061SOL     OW38815   2.837   0.022  10.357 -0.6577  0.1669 -0.2062
 9061SOL    HW138816   2.744   0.022  10.380 -0.5842  0.2266  0.0872
 9061SOL    HW238817   2.883   0.008  10.440 -1.5374  0.3080  0.3059
 9062SOL     OW38818   3.687   3.758   1.897 -0.1313  0.1468  0.1740
 9062SOL    HW138819   3.648   3.717   1.819 -0.2171 -0.0171  0.3042
 9062SOL    HW238820   3.743   3.688   1.929 -0.1537 -0.1783 -0.5030
 9063SOL     OW38821   3.909   2.693   7.002 -0.1053 -0.3645 -0.5709
 9063SOL    HW138822   3.907   2.673   7.095 -1.5906  1.9744 -0.1024
 9063SOL    HW238823   3.987   2.645   6.973 -0.2321 -1.2221  0.5274
 9064SOL     OW38824   2.833   0.917   8.241 -0.3923  0.4718 -0.1549
 9064SOL    HW138825   2.914   0.915   8.191 -0.5300 -2.9247 -0.2395
 9064SOL    HW238826   2.766   0.945   8.178 -0.2041 -0.6259 -0.8518
 9065SOL     OW38827   3.152   1.995   6.079 -0.1873 -0.6216  0.2274
 9065SOL    HW138828   3.125   1.972   5.990  1.5556 -0.8110 -0.2521
 9065SOL    HW238829   3.079   1.956   6.128  1.2713 -1.4104  1.7754
 9066SOL     OW38830   4.645   2.087   3.072 -0.4173  0.6157 -0.2340
 9066SOL    HW138831   4.601   2.168   3.099 -0.3666 -0.3531  2.6712
 9066SOL    HW238832   4.710   2.089   3.142  1.7156 -0.5288 -2.1895
 9067SOL     OW38833   2.981   0.518   7.486 -0.6508  0.1645  0.6995
 9067SOL    HW138834   3.044   0.584   7.460 -2.0322  1.0756 -0.3002
 9067SOL    HW238835   3.039   0.442   7.491  0.4151  1.0263  1.4409
 9068SOL     OW38836   1.141   4.400   2.151 -0.2309 -0.5584  0.1798
 9068SOL    HW138837   1.080   4.336   2.113  0.3660 -1.0997  0.1355
 9068SOL    HW238838   1.103   4.475   2.104 -1.5449 -1.2772  0.0915
 9069SOL     OW38839   2.688   4.328   7.836 -0.3880 -0.5841  0.2875
 9069SOL    HW138840   2.674   4.250   7.782 -0.7694  0.8641 -1.6848
 9069SOL    HW238841   2.777   4.314   7.870 -0.5361 -1.7982  0.1839
 9070SOL     OW38842   2.761   4.529   2.700  0.6027  0.0405  0.0314
 9070SOL    HW138843   2.797   4.549   2.613  1.5962  1.6999  0.8479
 9070SOL    HW238844   2.714   4.611   2.715  0.3167 -0.1018 -0.0739
 9071SOL     OW38845   4.273   2.350   8.781  0.4917 -0.1313 -0.1193
 9071SOL    HW138846   4.264   2.262   8.817  0.3926  0.0379  0.2647
 9071SOL    HW238847   4.218   2.331   8.705 -0.1349 -3.2107  1.1111
 9072SOL     OW38848   1.490   4.548  11.941  0.4322 -0.3634 -0.6388
 9072SOL    HW138849   1.472   4.642  11.939  0.9952 -0.2833 -1.7620
 9072SOL    HW238850   1.582   4.549  11.967  0.4451  1.5506 -0.7492
 9073SOL     OW38851   0.323   0.678   5.325  0.1288  0.2140 -0.5102
 9073SOL    HW138852   0.248   0.719   5.282  0.8288  1.3898 -0.6295
 9073SOL    HW238853   0.322   0.727   5.408  1.0198 -0.4063 -0.1287
 9074SOL     OW38854   1.267   1.698   6.947  0.1052  0.6877 -0.2055
 9074SOL    HW138855   1.234   1.764   7.007 -0.3190 -0.2454  0.5880
 9074SOL    HW238856   1.362   1.694   6.959  0.0158 -1.0313 -0.0319
 9075SOL     OW38857   2.577   1.582  14.038  0.5129 -0.1855 -0.2221
 9075SOL    HW138858   2.514   1.607  14.106  0.4010  1.5245 -0.9478
 9075SOL    HW238859   2.607   1.496  14.065  1.0632  0.3424  0.8138
 9076SOL     OW38860   3.597   2.802   7.163 -0.0072 -0.2277  0.5636
 9076SOL    HW138861   3.606   2.817   7.069 -0.5082 -0.2522  0.5147
 9076SOL    HW238862   3.573   2.710   7.170  1.2303 -0.4610  1.8596
 9077SOL     OW38863   2.255   1.460   5.476 -0.5227 -0.4564  0.0394
 9077SOL    HW138864   2.252   1.458   5.381  0.0192  1.1685 -0.0237
 9077SOL    HW238865   2.279   1.552   5.488  0.0221 -0.8418  1.8940
 9078SOL     OW38866   3.092   1.768   9.833 -0.2278 -0.3681  0.3382
 9078SOL    HW138867   3.012   1.718   9.848  0.5371 -1.9961 -0.9838
 9078SOL    HW238868   3.051   1.837   9.781  1.1472  0.7664  0.7365
 9079SOL     OW38869   2.682   2.269   2.653  0.5588  0.1944 -0.3890
 9079SOL    HW138870   2.642   2.280   2.567 -0.4666  3.7112  0.5114
 9079SOL    HW238871   2.775   2.251   2.641  0.4765 -1.3719  1.3379
 9080SOL     OW38872   3.251   3.701   7.012 -0.0262  0.1722  1.0844
 9080SOL    HW138873   3.215   3.616   7.037  1.8477 -1.5397 -2.0309
 9080SOL    HW238874   3.264   3.761   7.086 -0.4468 -0.2881  1.5333
 9081SOL     OW38875   0.880   3.681   5.503 -0.0611  0.4046 -0.1032
 9081SOL    HW138876   0.824   3.610   5.471 -0.5733 -0.0464  1.7872
 9081SOL    HW238877   0.820   3.746   5.466 -0.3111  0.6487  0.7538
 9082SOL     OW38878   1.182   4.448   9.760  0.4245 -0.2387  0.7247
 9082SOL    HW138879   1.121   4.375   9.750 -1.3735  1.5635 -1.5108
 9082SOL    HW238880   1.176   4.457   9.855  0.0272  0.4385  0.6327
 9083SOL     OW38881   1.069   2.260  17.743  0.5616  0.7583 -0.7483
 9083SOL    HW138882   1.150   2.220  17.711  0.8272  0.5485  0.1799
 9083SOL    HW238883   1.065   2.223   0.068 -0.6823  0.1422 -1.0629
 9084SOL     OW38884   3.124   1.951  12.657  0.2439  0.5510 -0.4496
 9084SOL    HW138885   3.088   1.948  12.745  3.2628  0.2206  0.7482
 9084SOL    HW238886   3.162   1.863  12.651 -0.0191  0.3227  1.3294
 9085SOL     OW38887   0.079   3.033  16.757 -0.1747 -0.5188 -0.0968
 9085SOL    HW138888   0.084   3.123  16.790 -0.2556  0.1341 -1.8422
 9085SOL    HW238889   0.009   3.000  16.812 -1.5975 -0.6693 -1.9947
 9086SOL     OW38890   0.814   3.987   3.645  0.4512 -0.3085 -0.2892
 9086SOL    HW138891   0.778   4.076   3.654  0.7693 -0.2065 -0.0180
 9086SOL    HW238892   0.740   3.930   3.626  0.0639  0.2439 -0.4284
 9087SOL     OW38893   1.220   2.256  16.568 -0.3988  0.1885 -0.8744
 9087SOL    HW138894   1.170   2.321  16.519 -0.8676 -0.6977 -1.5944
 9087SOL    HW238895   1.144   2.200  16.587  0.0343 -0.4250 -0.9379
 9088SOL     OW38896   2.778   4.740  10.093 -0.2957  0.3876 -0.2449
 9088SOL    HW138897   2.795   0.017  10.186 -0.0969  0.9522 -0.3934
 9088SOL    HW238898   2.786   0.088  10.061  0.4971  0.0838 -0.8900
 9089SOL     OW38899   4.263   2.209   9.629 -0.1313 -0.1700 -0.0751
 9089SOL    HW138900   4.291   2.207   9.537  0.4618  2.1264  0.0440
 9089SOL    HW238901   4.276   2.300   9.658  0.9120 -0.4596  0.3730
 9090SOL     OW38902   3.936   4.172   9.680  0.4244 -0.5866 -0.3703
 9090SOL    HW138903   3.860   4.230   9.673 -0.7627 -2.0382  0.6045
 9090SOL    HW238904   3.940   4.134   9.592  1.4061 -0.4557 -0.3869
 9091SOL     OW38905   2.435   1.791   6.714 -0.2402  0.2075  0.1182
 9091SOL    HW138906   2.425   1.886   6.705 -0.7076 -0.0170 -1.7021
 9091SOL    HW238907   2.507   1.802   6.776 -0.2905 -0.3301  0.2688
 9092SOL     OW38908   2.758   4.021   8.129  0.0271  0.0608  0.3145
 9092SOL    HW138909   2.714   4.077   8.192 -1.9659 -1.7437  0.5297
 9092SOL    HW238910   2.783   3.948   8.185  0.3924 -0.4303 -0.4858
 9093SOL     OW38911   2.931   3.960   7.082 -0.2877  0.4386 -0.7947
 9093SOL    HW138912   2.862   3.952   7.016  0.0335 -1.2145 -0.9330
 9093SOL    HW238913   3.011   3.962   7.030 -1.5537  0.4890 -2.7157
 9094SOL     OW38914   0.264   1.512   0.097 -0.1702  0.6782  0.0304
 9094SOL    HW138915   0.283   1.531   0.005  3.4921 -0.2600  0.5836
 9094SOL    HW238916   0.309   1.583   0.143  0.7962 -0.0910  0.2771
 9095SOL     OW38917   4.496   0.356   8.311  0.5191  0.2701 -0.1238
 9095SOL    HW138918   4.522   0.264   8.315  0.4706  0.2006 -1.2525
 9095SOL    HW238919   4.405   0.341   8.335  0.5918  0.5466  0.3203
 9096SOL     OW38920   0.432   4.293   5.867  0.2886  0.3896  0.7402
 9096SOL    HW138921   0.496   4.305   5.797  0.1001 -0.9109  0.3427
 9096SOL    HW238922   0.421   4.381   5.903  2.7708  2.0829 -2.6066
 9097SOL     OW38923   3.266   2.754   2.953  0.1644  0.6727 -0.3099
 9097SOL    HW138924   3.332   2.781   2.889 -1.0463  3.2635 -0.4698
 9097SOL    HW238925   3.312   2.676   2.984 -1.1461 -0.0934 -0.3181
 9098SOL     OW38926   4.691   2.156   3.485  0.5528 -0.2039  0.5226
 9098SOL    HW138927   4.730   2.217   3.548  0.1173 -1.7833  2.3038
 9098SOL    HW238928   4.597   2.152   3.504  0.3095  0.9786 -0.4102
 9099SOL     OW38929   0.999   0.319   8.861  0.5887 -0.4104 -0.0667
 9099SOL    HW138930   1.076   0.318   8.803 -0.3377  0.5311 -1.2937
 9099SOL    HW238931   1.045   0.361   8.934 -1.5616  1.2692  0.2981
 9100SOL     OW38932   4.632   3.667   7.421 -0.3358  0.8739  0.3630
 9100SOL    HW138933   4.654   3.678   7.514  0.3914  0.1322  0.2824
 9100SOL    HW238934   4.551   3.716   7.411 -0.1938  0.8451 -0.8566
 9101SOL     OW38935   0.373   0.957  13.474  0.0068  0.3979  0.6538
 9101SOL    HW138936   0.385   1.038  13.425  0.5139 -0.6698 -0.9923
 9101SOL    HW238937   0.322   0.903  13.414  0.4248  2.3278 -1.4366
 9102SOL     OW38938   0.081   1.815  11.438 -0.2253  0.2563  0.4256
 9102SOL    HW138939   0.053   1.881  11.502 -4.2802  1.8055 -2.9215
 9102SOL    HW238940   0.162   1.858  11.409  0.2223 -0.5532  0.4839
 9103SOL     OW38941   4.668   0.972   7.954  0.3595 -0.3572  0.4274
 9103SOL    HW138942   4.741   0.916   7.981  0.7709  0.6889  1.4992
 9103SOL    HW238943   4.679   0.964   7.859 -1.0141 -0.0589  0.2449
 9104SOL     OW38944   1.799   1.602   8.891 -0.4569 -0.1602  0.5321
 9104SOL    HW138945   1.827   1.587   8.801 -0.0437  0.6637  0.5219
 9104SOL    HW238946   1.716   1.555   8.893 -0.4916 -0.1375 -0.3343
 9105SOL     OW38947   0.323   1.302   8.830 -0.0812 -0.5353 -0.2670
 9105SOL    HW138948   0.320   1.239   8.757 -1.2384 -1.2170  0.3731
 9105SOL    HW238949   0.399   1.353   8.802 -2.0187  1.8438 -1.2048
 9106SOL     OW38950   3.297   3.937  10.818 -0.9966  0.1200  0.3950
 9106SOL    HW138951   3.244   3.869  10.775  0.3944 -1.2127  0.8300
 9106SOL    HW238952   3.244   3.962  10.893 -2.1910 -1.4722  0.0900
 9107SOL     OW38953   3.841   1.812   5.199 -0.0187 -0.3175 -0.0668
 9107SOL    HW138954   3.862   1.793   5.107 -2.3603  2.4998 -1.1727
 9107SOL    HW238955   3.916   1.865   5.228  0.8668 -0.4294 -2.0796
 9108SOL     OW38956   0.964   0.184   7.855 -0.0564  0.1903  0.1395
 9108SOL    HW138957   0.899   0.147   7.795 -1.8115 -0.0212  2.1740
 9108SOL    HW238958   1.048   0.140   7.837  0.1108  0.6116 -0.1219
 9109SOL     OW38959   3.453   0.217  16.383 -0.0784  0.2265  0.2934
 9109SOL    HW138960   3.364   0.247  16.401 -0.5535 -0.6498 -0.6005
 9109SOL    HW238961   3.506   0.296  16.394  0.5538 -0.2266  0.5215
 9110SOL     OW38962   1.153   1.975  12.743  0.3694 -0.5416 -0.4713
 9110SOL    HW138963   1.181   2.024  12.821 -1.3797 -0.4593  0.1111
 9110SOL    HW238964   1.101   2.044  12.703  0.4519 -0.7247 -0.8869
 9111SOL     OW38965   1.046   0.580   6.531  0.1839 -0.0403  0.0260
 9111SOL    HW138966   1.086   0.534   6.456 -3.6354 -0.5697 -1.7051
 9111SOL    HW238967   1.120   0.579   6.592  0.7788 -0.8500 -0.6965
 9112SOL     OW38968   0.321   3.515   4.384 -0.2507  0.0382 -0.0179
 9112SOL    HW138969   0.240   3.480   4.421 -0.2587  0.4278  0.3340
 9112SOL    HW238970   0.323   3.480   4.295  1.7747 -0.4870  0.2260
 9113SOL     OW38971   1.663   4.029   3.928  0.6804  0.1373 -0.0102
 9113SOL    HW138972   1.677   4.039   3.834 -0.4087  0.2668 -0.1612
 9113SOL    HW238973   1.752   4.006   3.956  0.0900 -0.4216  1.3848
 9114SOL     OW38974   2.652   1.241   2.371  0.0509 -0.3282 -0.1120
 9114SOL    HW138975   2.564   1.269   2.396  0.9225 -0.8845  3.6234
 9114SOL    HW238976   2.688   1.193   2.445  0.9338 -0.8351 -0.8726
 9115SOL     OW38977   3.556   4.180  12.444  0.5328  0.0773  0.4785
 9115SOL    HW138978   3.633   4.127  12.464  0.9210  0.1515 -0.7788
 9115SOL    HW238979   3.541   4.180  12.349  1.3850  0.2540  0.3429
 9116SOL     OW38980   1.122   3.175   6.263  0.0985 -0.7026  0.0671
 9116SOL    HW138981   1.117   3.126   6.181  2.1572  0.9861 -1.0662
 9116SOL    HW238982   1.047   3.234   6.262 -0.7435 -1.7342  2.1125
 9117SOL     OW38983   3.263   0.692  14.887 -0.0404  0.6796 -0.1432
 9117SOL    HW138984   3.297   0.727  14.969 -0.8164 -0.5598  0.7151
 9117SOL    HW238985   3.339   0.636  14.870  0.1834  0.8119  0.4322
 9118SOL     OW38986   1.545   3.706   3.434  0.3262 -0.6197  0.0529
 9118SOL    HW138987   1.527   3.782   3.490  3.3319  0.4485 -0.4458
 9118SOL    HW238988   1.498   3.647   3.492  0.0255  0.2199  0.6664
 9119SOL     OW38989   0.585   3.959   7.918 -0.3880 -0.3618 -0.3427
 9119SOL    HW138990   0.617   3.910   7.994 -1.5740  0.7689  0.8883
 9119SOL    HW238991   0.602   4.053   7.929  1.6614 -0.8333  0.6285
 9120SOL     OW38992   0.851   3.113  14.439 -0.2249  0.1517 -0.0660
 9120SOL    HW138993   0.914   3.174  14.477 -1.2759  0.5392  1.0464
 9120SOL    HW238994   0.899   3.033  14.417 -0.6771 -0.4994  1.3265
 9121SOL     OW38995   0.814   0.919   3.069 -0.1307 -0.2152  0.6355
 9121SOL    HW138996   0.798   0.924   3.164 -2.0073  0.7762  0.2625
 9121SOL    HW238997   0.908   0.902   3.073 -0.2154 -0.6552  0.7941
 9122SOL     OW38998   1.526   1.752   7.329  0.6676 -0.1190  0.4051
 9122SOL    HW138999   1.554   1.807   7.402 -0.9864 -1.1408  1.8110
 9122SOL    HW239000   1.448   1.712   7.367  0.1295  0.0694 -0.5048
 9123SOL     OW39001   3.788   0.208  16.579 -0.1941  0.6583 -0.0084
 9123SOL    HW139002   3.851   0.220  16.650 -0.5763  2.9722 -0.0442
 9123SOL    HW239003   3.754   0.119  16.590 -0.1184  0.6829  0.4431
 9124SOL     OW39004   4.588   2.257   2.781  0.4450 -0.3386  0.2644
 9124SOL    HW139005   4.579   2.329   2.843  1.4090 -0.4289  0.5005
 9124SOL    HW239006   4.630   2.302   2.708 -0.2354  2.3155  1.5316
 9125SOL     OW39007   1.015   0.824   3.905 -0.1249  0.1838  0.2898
 9125SOL    HW139008   1.008   0.807   3.811  1.3324 -1.6965  0.5266
 9125SOL    HW239009   0.954   0.898   3.914 -0.0428  0.0680  1.8728
 9126SOL     OW39010   0.485   4.578   7.211  0.4770  0.1771 -0.0274
 9126SOL    HW139011   0.556   4.546   7.155  2.0302 -0.0196  2.0192
 9126SOL    HW239012   0.416   4.589   7.147  0.5086 -1.9637 -0.4158
 9127SOL     OW39013   2.555   1.768   6.033  0.0636 -0.1183  0.0093
 9127SOL    HW139014   2.500   1.843   6.058  1.5584  1.4612 -1.4631
 9127SOL    HW239015   2.643   1.805   6.037  0.4292 -0.9351 -0.5851
 9128SOL     OW39016   4.211   3.249   9.858 -0.3896 -0.0707  0.5997
 9128SOL    HW139017   4.287   3.193   9.872 -0.1289 -0.4099 -2.2554
 9128SOL    HW239018   4.183   3.220   9.771  1.2128  1.9765 -0.6140
 9129SOL     OW39019   0.478   4.510   3.715 -0.1000 -0.1179  0.3633
 9129SOL    HW139020   0.486   4.458   3.794 -1.0511 -1.6467 -0.5556
 9129SOL    HW239021   0.392   4.551   3.718 -0.1098 -0.1022 -0.0355
 9130SOL     OW39022   3.249   0.203  10.923 -0.2047 -1.0263  0.1452
 9130SOL    HW139023   3.284   0.281  10.967  0.3163 -2.3553  2.0751
 9130SOL    HW239024   3.315   0.201  10.853 -0.6099  0.0790 -0.2694
 9131SOL     OW39025   4.604   3.753   9.588  0.2876 -0.3435  0.2186
 9131SOL    HW139026   4.572   3.687   9.526  2.6959 -0.1624 -1.2051
 9131SOL    HW239027   4.698   3.742   9.601 -0.0677 -1.1622  2.0982
 9132SOL     OW39028   0.329   2.453   3.205 -0.5291 -0.5333  0.0370
 9132SOL    HW139029   0.398   2.388   3.220 -2.0277 -1.5513  2.5455
 9132SOL    HW239030   0.267   2.424   3.272 -0.5255 -0.3916  0.1018
 9133SOL     OW39031   3.503   1.125   7.378 -0.3072  0.5311  0.6674
 9133SOL    HW139032   3.494   1.191   7.446  0.9436  0.8392  0.5241
 9133SOL    HW239033   3.427   1.068   7.394 -0.4232  0.4672 -0.0934
 9134SOL     OW39034   3.415   0.369  17.644 -0.1170  0.2744 -0.1409
 9134SOL    HW139035   3.444   0.411  17.725  1.1304 -1.3940  0.2796
 9134SOL    HW239036   3.320   0.362  17.654  0.0608  1.1596  2.1302
 9135SOL     OW39037   0.981   2.143   2.068 -0.3827 -0.0489 -0.0648
 9135SOL    HW139038   0.986   2.115   2.159 -1.4534  0.7283  0.2393
 9135SOL    HW239039   0.916   2.085   2.029  0.1950 -0.2602 -0.7233
 9136SOL     OW39040   1.078   3.092  13.710 -0.1330 -0.0276  0.1815
 9136SOL    HW139041   1.124   3.175  13.724  0.1495  0.4999 -4.0240
 9136SOL    HW239042   1.151   3.032  13.698 -0.8618 -1.2439  1.8810
 9137SOL     OW39043   0.662   4.110   0.397  0.4466 -0.0716  0.0839
 9137SOL    HW139044   0.737   4.153   0.438  0.9862 -0.4325 -0.5380
 9137SOL    HW239045   0.706   4.080   0.318  1.1899  0.0427  0.4539
 9138SOL     OW39046   2.617   0.867  14.749  0.7562 -0.4354 -0.2243
 9138SOL    HW139047   2.530   0.907  14.741  0.9884  0.3446  1.1519
 9138SOL    HW239048   2.676   0.934  14.784 -1.4015  1.0074  0.6861
 9139SOL     OW39049   2.830   4.271   7.214  0.8001 -0.3024  0.2405
 9139SOL    HW139050   2.905   4.229   7.257  0.6759  0.5273  1.2801
 9139SOL    HW239051   2.863   4.346   7.164  0.1995 -0.3002 -0.1467
 9140SOL     OW39052   4.077   1.101   3.037  0.4430 -0.0171  0.5695
 9140SOL    HW139053   4.166   1.123   3.066  0.9534 -0.2284 -0.8066
 9140SOL    HW239054   4.087   1.007   3.021 -1.0674 -0.3533  1.6496
 9141SOL     OW39055   3.010   2.021   9.739 -0.3111 -0.3848 -0.0766
 9141SOL    HW139056   2.956   2.098   9.754  3.0840  2.2227 -1.2833
 9141SOL    HW239057   3.091   2.058   9.704 -0.9699  0.6264 -0.5213
 9142SOL     OW39058   3.598   2.862   3.443 -0.2637  0.1526 -0.1536
 9142SOL    HW139059   3.557   2.815   3.515 -0.6223  0.7667  0.0360
 9142SOL    HW239060   3.625   2.781   3.398 -2.2820 -0.5838  0.0009
 9143SOL     OW39061   0.210   3.741   3.127 -0.4465 -0.1472  0.4324
 9143SOL    HW139062   0.246   3.652   3.130 -1.5911 -0.6369 -0.6725
 9143SOL    HW239063   0.190   3.751   3.034  0.9354  2.0096  0.3461
 9144SOL     OW39064   0.942   2.194   4.777 -0.1058 -0.4284  0.2448
 9144SOL    HW139065   0.897   2.124   4.731 -1.4140  0.7036 -0.1964
 9144SOL    HW239066   0.998   2.150   4.841  0.3107 -1.8674 -1.1085
 9145SOL     OW39067   0.396   3.216  13.679  0.2614 -0.0832  0.6479
 9145SOL    HW139068   0.448   3.295  13.695  0.8208 -0.5691  1.2497
 9145SOL    HW239069   0.466   3.159  13.646 -1.4737 -0.7184 -1.9242
 9146SOL     OW39070   3.263   0.917  13.673  0.2459 -0.5412 -0.1821
 9146SOL    HW139071   3.303   0.998  13.642  0.4375 -0.5877 -0.0533
 9146SOL    HW239072   3.201   0.900  13.602 -0.8468  1.1720  0.3653
 9147SOL     OW39073   0.021   2.057  16.069 -0.9298 -0.4808 -0.4117
 9147SOL    HW139074   4.720   2.114  16.133 -1.3024 -1.7617  0.4819
 9147SOL    HW239075   0.087   2.114  16.030  0.7426 -2.5881 -0.6449
 9148SOL     OW39076   0.599   3.849   5.920 -0.2529  0.7377  0.2445
 9148SOL    HW139077   0.578   3.933   5.960 -0.6954  0.6042  0.2913
 9148SOL    HW239078   0.651   3.817   5.994  0.7881  0.0316 -0.7996
 9149SOL     OW39079   0.364   4.045   7.083  0.1242  0.2189 -0.2649
 9149SOL    HW139080   0.364   4.007   6.995 -0.7934 -0.3214 -0.0285
 9149SOL    HW239081   0.396   3.971   7.135 -0.8899  0.8827  1.3057
 9150SOL     OW39082   2.350   2.554   7.998  0.0921 -0.2427 -0.0074
 9150SOL    HW139083   2.259   2.580   7.985 -0.0273 -1.1192 -0.9003
 9150SOL    HW239084   2.346   2.513   8.084  1.2501 -0.3561 -0.0065
 9151SOL     OW39085   2.715   3.215   5.551 -1.1871  0.4275 -0.2157
 9151SOL    HW139086   2.749   3.219   5.641 -0.5228 -1.6447 -0.3897
 9151SOL    HW239087   2.720   3.121   5.536 -2.9367  0.3385 -0.1743
 9152SOL     OW39088   1.865   4.398   9.311  0.3409 -0.5056 -0.0200
 9152SOL    HW139089   1.856   4.313   9.355 -1.3225  0.5659  1.7625
 9152SOL    HW239090   1.827   4.456   9.378  0.2470  0.2067 -0.6870
 9153SOL     OW39091   4.025   0.774  13.273  0.4341  0.1888 -0.6307
 9153SOL    HW139092   4.002   0.682  13.257  2.6954 -0.7370  1.4879
 9153SOL    HW239093   3.978   0.790  13.355  1.2555  0.8082 -0.2881
 9154SOL     OW39094   4.452   4.193   6.788 -0.1950  0.2439 -0.1166
 9154SOL    HW139095   4.528   4.159   6.834 -0.4152 -0.4463 -0.2532
 9154SOL    HW239096   4.400   4.222   6.862  0.7736  1.3070  0.1496
 9155SOL     OW39097   2.517   2.526   4.164 -0.2673  0.0209  0.0226
 9155SOL    HW139098   2.552   2.574   4.088 -1.0659  1.4428  0.5447
 9155SOL    HW239099   2.593   2.493   4.211  0.1498 -0.4141 -0.9440
 9156SOL     OW39100   0.824   2.604  12.762  0.0368  0.1459 -0.4610
 9156SOL    HW139101   0.846   2.608  12.855 -0.0951  0.9145 -0.4654
 9156SOL    HW239102   0.761   2.532  12.767  0.4252 -0.1270  0.5069
 9157SOL     OW39103   0.921   3.299   4.714  0.5392  0.7224  0.0872
 9157SOL    HW139104   0.918   3.212   4.754 -1.7239  0.5286 -0.4531
 9157SOL    HW239105   1.006   3.289   4.672  0.5724 -0.1416  0.3558
 9158SOL     OW39106   3.626   1.447   3.179 -0.0693  0.1634  0.2441
 9158SOL    HW139107   3.696   1.395   3.139 -0.7053 -1.7682  1.6594
 9158SOL    HW239108   3.581   1.378   3.227  0.1580 -0.4335 -0.3957
 9159SOL     OW39109   0.396   2.748   3.213 -0.8591 -0.0413  0.2354
 9159SOL    HW139110   0.433   2.728   3.299 -0.8760  1.8175  0.6719
 9159SOL    HW239111   0.404   2.665   3.165  0.7462 -0.0998  0.6181
 9160SOL     OW39112   1.707   4.469   1.010  0.1804 -0.4373 -0.0188
 9160SOL    HW139113   1.645   4.520   0.958 -0.3240  1.0777  2.0545
 9160SOL    HW239114   1.659   4.453   1.092 -1.3222  1.0130 -0.5950
 9161SOL     OW39115   3.179   1.922   6.444  0.7673  0.1632  0.0873
 9161SOL    HW139116   3.098   1.954   6.485 -0.1435 -2.0388  0.0694
 9161SOL    HW239117   3.242   1.975   6.492  0.7805  0.6793 -0.5040
 9162SOL     OW39118   0.907   3.038   4.783  0.4976 -0.5319  0.3116
 9162SOL    HW139119   0.869   2.986   4.712 -0.5386  1.7210 -0.7850
 9162SOL    HW239120   0.938   2.971   4.844  0.1503 -0.1936  0.8520
 9163SOL     OW39121   1.500   3.538   1.887 -0.3845 -0.6520  0.1969
 9163SOL    HW139122   1.482   3.632   1.893  1.0840 -0.3215 -0.4117
 9163SOL    HW239123   1.525   3.533   1.979 -0.9772 -0.0320  0.3940
 9164SOL     OW39124   1.738   1.964   3.444  0.2614  0.3690 -0.4140
 9164SOL    HW139125   1.724   1.898   3.512  1.2522  1.4305  0.8240
 9164SOL    HW239126   1.762   2.045   3.489  0.1036 -0.2814  0.8423
 9165SOL     OW39127   0.450   0.086   2.985 -0.1866  0.1751  0.4107
 9165SOL    HW139128   0.416   0.010   3.032 -0.4198  0.2497  0.3652
 9165SOL    HW239129   0.541   0.084   3.014  0.2133 -0.1701 -0.8556
 9166SOL     OW39130   4.395   2.429   2.438 -0.1582 -0.3403  0.2644
 9166SOL    HW139131   4.404   2.387   2.353 -0.9033  0.8252 -0.3990
 9166SOL    HW239132   4.411   2.518   2.407  0.1321  0.8579  3.8637
 9167SOL     OW39133   1.340   2.911   6.738  0.2393  1.0171  0.0162
 9167SOL    HW139134   1.331   2.867   6.823  0.7350  0.6989 -0.0954
 9167SOL    HW239135   1.356   2.995   6.781 -0.3115  0.6130  1.0163
 9168SOL     OW39136   0.741   2.089   3.646  0.2532 -0.0596  0.3866
 9168SOL    HW139137   0.738   2.004   3.689  3.4388  0.0168  0.7921
 9168SOL    HW239138   0.833   2.115   3.658  0.6854  0.1049 -3.5581
 9169SOL     OW39139   3.460   4.318   6.350 -0.6764 -0.2638 -0.2100
 9169SOL    HW139140   3.471   4.234   6.305  1.8937  0.1551 -0.3648
 9169SOL    HW239141   3.548   4.326   6.388 -0.6206  2.1611 -0.8314
 9170SOL     OW39142   0.411   3.065   5.384 -0.3615  0.1229 -0.1920
 9170SOL    HW139143   0.501   3.079   5.353 -0.4337  0.4493 -0.2433
 9170SOL    HW239144   0.391   2.977   5.353  2.7029 -0.6376 -0.0438
 9171SOL     OW39145   4.495   3.587   4.820 -0.8232  0.5686  0.1671
 9171SOL    HW139146   4.403   3.561   4.813 -0.0853 -1.8589 -0.5144
 9171SOL    HW239147   4.526   3.617   4.734 -0.9897  1.9467  0.5909
 9172SOL     OW39148   3.012   3.023  17.606 -0.2806  0.3114  0.0158
 9172SOL    HW139149   2.929   3.057  17.573  0.5337  0.3393 -2.0023
 9172SOL    HW239150   2.990   3.041  17.698  2.1047  3.1878  0.0392
 9173SOL     OW39151   3.981   2.896   0.240  0.4176  0.1819 -0.6203
 9173SOL    HW139152   4.074   2.875   0.237  0.3405 -0.2762  0.3318
 9173SOL    HW239153   3.947   2.808   0.223  1.1340 -0.1074 -0.5665
 9174SOL     OW39154   1.723   0.671  10.888  0.6783 -0.0406  0.0698
 9174SOL    HW139155   1.816   0.684  10.904  0.5454  0.6528  0.2609
 9174SOL    HW239156   1.713   0.734  10.817  0.6425  1.6242  1.5562
 9175SOL     OW39157   1.961   3.709   0.325 -0.4209 -0.7396 -0.0099
 9175SOL    HW139158   1.945   3.792   0.370 -0.7453 -1.1360  0.6069
 9175SOL    HW239159   1.958   3.647   0.398  1.8039 -0.2803  0.4807
 9176SOL     OW39160   4.155   4.305   2.692 -0.0623 -0.3964 -0.4856
 9176SOL    HW139161   4.177   4.278   2.603 -1.4416 -2.6666 -0.1442
 9176SOL    HW239162   4.239   4.330   2.732 -1.7006  2.2093  1.3394
 9177SOL     OW39163   1.241   2.234   8.742 -0.2995 -0.1805  0.3891
 9177SOL    HW139164   1.211   2.306   8.797 -0.9522 -0.9936  1.0974
 9177SOL    HW239165   1.220   2.157   8.795 -0.4778  0.0896  0.7125
 9178SOL     OW39166   0.360   3.160   4.493 -0.1378  0.1331  0.0179
 9178SOL    HW139167   0.410   3.087   4.455 -0.1246 -0.3677  0.9978
 9178SOL    HW239168   0.383   3.236   4.440  1.2428 -1.0529 -1.0763
 9179SOL     OW39169   3.167   2.099   8.652  0.2407 -0.5387 -0.0812
 9179SOL    HW139170   3.202   2.187   8.638  1.2457 -0.8911  0.2502
 9179SOL    HW239171   3.180   2.065   8.564  1.7477  0.9255 -0.4348
 9180SOL     OW39172   3.952   1.844   6.363 -0.3863  0.0580  0.4730
 9180SOL    HW139173   4.016   1.915   6.358 -1.9559  1.4240 -0.0292
 9180SOL    HW239174   4.018   1.775   6.363  2.0204  2.3717  0.0330
 9181SOL     OW39175   1.649   4.345   7.498  0.3179  0.3125 -0.0288
 9181SOL    HW139176   1.711   4.333   7.570 -0.1659 -1.1292  0.1286
 9181SOL    HW239177   1.698   4.406   7.442 -1.5646  1.7205 -0.1241
 9182SOL     OW39178   1.028   1.217   1.922 -0.2352  0.0866  0.1971
 9182SOL    HW139179   1.010   1.310   1.908  0.7310  0.2242 -0.1351
 9182SOL    HW239180   0.949   1.171   1.950 -1.5346  0.9054 -2.1437
 9183SOL     OW39181   1.883   0.384  14.923 -0.1880 -0.2804 -0.3419
 9183SOL    HW139182   1.852   0.391  14.833 -1.4966 -0.0115  0.1379
 9183SOL    HW239183   1.972   0.419  14.921 -0.9251  1.5008 -1.6412
 9184SOL     OW39184   0.579   4.006   3.420  0.3988 -0.3907  0.5586
 9184SOL    HW139185   0.598   3.976   3.331 -0.7928 -0.0104  0.1692
 9184SOL    HW239186   0.606   4.096   3.400 -0.3663 -0.3166 -0.1753
 9185SOL     OW39187   0.807   4.295   1.343 -0.3143 -0.0852 -0.5028
 9185SOL    HW139188   0.792   4.358   1.272 -1.3331 -3.3917 -3.2271
 9185SOL    HW239189   0.762   4.345   1.412  0.7288  2.7004 -1.8169
 9186SOL     OW39190   4.638   1.621  16.045  0.2746 -0.0580  0.0934
 9186SOL    HW139191   4.687   1.576  15.976 -1.8361 -0.0192 -1.4377
 9186SOL    HW239192   4.697   1.693  16.066  0.6037 -0.0276 -0.9106
 9187SOL     OW39193   1.806   0.679   7.703 -0.2414  0.1999  0.1324
 9187SOL    HW139194   1.722   0.634   7.698 -0.8497  1.3880 -0.3720
 9187SOL    HW239195   1.786   0.756   7.756 -0.7817 -0.0763  0.3283
 9188SOL     OW39196   0.609   0.922  10.276  0.1738  0.1174 -0.0849
 9188SOL    HW139197   0.642   1.011  10.270 -1.9644  0.9652  0.8700
 9188SOL    HW239198   0.659   0.898  10.354  1.0605 -0.5565 -0.8504
 9189SOL     OW39199   4.388   2.975   2.072  0.2217  0.1294 -0.1939
 9189SOL    HW139200   4.475   2.944   2.099 -0.5358 -1.8260  0.0121
 9189SOL    HW239201   4.414   3.043   2.010 -2.0442  1.0900 -0.0886
 9190SOL     OW39202   3.718   0.167   5.039  0.1908 -1.1968 -0.6072
 9190SOL    HW139203   3.795   0.211   5.003  1.5497 -2.0125  1.2941
 9190SOL    HW239204   3.689   0.115   4.964 -0.3793 -0.1558 -1.0985
 9191SOL     OW39205   1.731   2.765   6.369  0.9010  0.0896 -0.1590
 9191SOL    HW139206   1.679   2.778   6.448 -1.0052 -0.2417 -1.3580
 9191SOL    HW239207   1.710   2.838   6.311 -2.1651  0.6830  1.7008
 9192SOL     OW39208   2.592   4.640   6.222 -0.0852  0.0614 -0.2184
 9192SOL    HW139209   2.529   4.612   6.288  1.2022 -2.4078 -0.0650
 9192SOL    HW239210   2.576   4.735   6.221 -0.0078  0.0700 -1.2905
 9193SOL     OW39211   0.735   4.055  10.117  0.6432  0.2506  0.6446
 9193SOL    HW139212   0.689   4.131  10.153  1.0173  1.2288 -0.9298
 9193SOL    HW239213   0.782   4.027  10.196  1.6093 -2.1326 -0.7983
 9194SOL     OW39214   2.774   3.435   2.322 -0.4156  0.2488 -0.2912
 9194SOL    HW139215   2.766   3.519   2.367 -1.8796  1.0574 -2.0321
 9194SOL    HW239216   2.726   3.372   2.375  1.2274  1.1612  2.2389
 9195SOL     OW39217   4.217   4.435  11.801 -0.3516  0.2358 -0.0970
 9195SOL    HW139218   4.155   4.462  11.870  0.2973 -0.1596  0.6310
 9195SOL    HW239219   4.196   4.345  11.776  1.6439 -0.4648  0.7576
 9196SOL     OW39220   0.923   0.037   1.744  0.7845  0.4482 -0.0568
 9196SOL    HW139221   0.876   0.111   1.704 -2.4797 -1.5764  0.0574
 9196SOL    HW239222   1.013   0.052   1.713  0.7998  2.0111  0.7033
 9197SOL     OW39223   0.926   0.197   6.414 -0.1707  0.1033 -0.2842
 9197SOL    HW139224   0.869   0.238   6.479 -0.8394  0.5371 -1.1473
 9197SOL    HW239225   0.936   0.270   6.352  0.5608  0.4987  0.2902
 9198SOL     OW39226   4.718   0.549   3.605  0.2368 -0.2329 -0.4280
 9198SOL    HW139227   4.635   0.529   3.562  0.1339  3.3006 -1.9701
 9198SOL    HW239228   0.006   0.617   3.544  0.2153 -0.1956 -0.3969
 9199SOL     OW39229   3.939   0.089  10.963  0.3263 -0.8581 -0.0762
 9199SOL    HW139230   3.959   0.022  11.028 -0.2666  0.2581  1.2692
 9199SOL    HW239231   3.942   0.163  11.023 -3.2898 -0.5383 -0.3031
 9200SOL     OW39232   2.761   4.250  16.559  0.1365 -0.0709  0.3950
 9200SOL    HW139233   2.683   4.291  16.521  0.3033  0.0837  0.2245
 9200SOL    HW239234   2.715   4.187  16.615 -0.1142 -0.2637 -0.0312
 9201SOL     OW39235   1.791   0.240   5.052  0.1645 -0.4060 -0.1414
 9201SOL    HW139236   1.750   0.305   5.110  2.2699 -0.3285  1.2340
 9201SOL    HW239237   1.726   0.169   5.046  1.1463 -1.5650  3.4230
 9202SOL     OW39238   4.549   0.506  14.095 -0.1787 -0.1259 -0.0691
 9202SOL    HW139239   4.457   0.533  14.090  0.1187  0.7667 -0.6447
 9202SOL    HW239240   4.572   0.517  14.188 -1.3002 -0.7537  0.2780
 9203SOL     OW39241   2.440   0.347   1.718  0.6716 -0.1044 -0.0764
 9203SOL    HW139242   2.508   0.361   1.784  2.0230  0.7252 -1.6288
 9203SOL    HW239243   2.421   0.438   1.696  3.3219  1.2451  3.3004
 9204SOL     OW39244   3.662   1.476  15.543 -0.2531  0.4689 -0.0152
 9204SOL    HW139245   3.587   1.506  15.594 -2.2584 -1.6195 -1.7017
 9204SOL    HW239246   3.716   1.553  15.559  0.9742 -0.3435 -0.2791
 9205SOL     OW39247   0.459   2.397   2.643 -0.0022  0.5695  0.0830
 9205SOL    HW139248   0.392   2.357   2.699  0.4672 -1.5776 -0.8732
 9205SOL    HW239249   0.531   2.339   2.666  0.0038  0.6146  0.1784
 9206SOL     OW39250   1.295   0.448   5.300 -0.0876  0.1325  0.0614
 9206SOL    HW139251   1.324   0.509   5.233  2.5922 -0.3065  0.8178
 9206SOL    HW239252   1.217   0.495   5.328 -0.7775 -0.3782 -1.0094
 9207SOL     OW39253   1.113   0.472   5.022 -0.2259  0.0639  0.1008
 9207SOL    HW139254   1.176   0.543   5.008 -0.0367  0.0114  0.6689
 9207SOL    HW239255   1.050   0.523   5.073 -2.0793 -2.3787  0.2108
 9208SOL     OW39256   3.052   0.803   9.301 -0.3878  0.2980  0.0443
 9208SOL    HW139257   3.110   0.878   9.291 -1.0728  0.5733 -1.8983
 9208SOL    HW239258   2.977   0.834   9.353 -0.7212 -1.1791  0.4668
 9209SOL     OW39259   1.819   2.701   3.945  0.0303 -0.6887 -0.8097
 9209SOL    HW139260   1.913   2.714   3.958 -0.6012  1.9635  1.1433
 9209SOL    HW239261   1.820   2.649   3.864 -0.2724 -2.1342  0.1103
 9210SOL     OW39262   2.723   1.861   5.131  0.4048 -0.0672  0.5351
 9210SOL    HW139263   2.762   1.778   5.158 -1.5777 -1.0937  0.2500
 9210SOL    HW239264   2.688   1.842   5.043 -2.5002  1.8001  1.2937
 9211SOL     OW39265   3.917   1.818  12.230  0.6763 -0.1110 -0.0118
 9211SOL    HW139266   3.834   1.865  12.230 -0.2704 -1.8136  0.3018
 9211SOL    HW239267   3.967   1.896  12.255 -1.5453  1.2016  0.2904
 9212SOL     OW39268   2.800   1.545   1.647 -0.0782  0.1156 -0.2560
 9212SOL    HW139269   2.760   1.482   1.708 -1.1067 -2.1035 -3.2382
 9212SOL    HW239270   2.741   1.538   1.572  0.0272 -0.7088 -0.2607
 9213SOL     OW39271   2.480   1.104   3.761  0.7107  0.6482 -0.2927
 9213SOL    HW139272   2.549   1.081   3.699  0.3457 -1.0933 -0.0414
 9213SOL    HW239273   2.435   1.020   3.754  2.0157 -0.1188  0.4563
 9214SOL     OW39274   2.304   1.127   6.305 -0.1428 -0.1375 -0.3828
 9214SOL    HW139275   2.392   1.160   6.289  0.2695 -0.4695  1.2450
 9214SOL    HW239276   2.288   1.098   6.215  2.3539  0.3810 -1.0006
 9215SOL     OW39277   0.195   3.898  10.781  0.0843  0.3091 -0.2028
 9215SOL    HW139278   0.262   3.965  10.766  0.3230 -0.1157 -1.0413
 9215SOL    HW239279   0.261   3.833  10.806  0.3841 -0.4219 -2.9094
 9216SOL     OW39280   4.453   3.031   2.429  0.1791 -0.0927  0.1487
 9216SOL    HW139281   4.490   3.015   2.516 -0.9578  0.2475  0.6887
 9216SOL    HW239282   4.529   3.052   2.375 -0.7893  0.5984 -0.9619
 9217SOL     OW39283   3.578   1.721  16.600 -0.0644 -0.8168  0.5196
 9217SOL    HW139284   3.563   1.757  16.512 -3.4757 -2.1377  0.5358
 9217SOL    HW239285   3.527   1.640  16.597  2.1814 -2.2770  2.8582
 9218SOL     OW39286   2.447   2.551   7.456 -1.0292  0.0183  0.7424
 9218SOL    HW139287   2.422   2.564   7.548  2.0750 -1.8116  1.8378
 9218SOL    HW239288   2.367   2.501   7.441 -0.5490 -0.7560  0.7678
 9219SOL     OW39289   0.920   2.303   2.523  0.5336 -0.1610 -0.2136
 9219SOL    HW139290   0.833   2.315   2.486  0.2363 -2.4235 -0.2711
 9219SOL    HW239291   0.929   2.208   2.530 -1.0315 -0.2950 -0.1009
 9220SOL     OW39292   4.047   0.213   5.210  0.1421  0.1720  0.2560
 9220SOL    HW139293   4.069   0.121   5.227 -1.5854 -0.0392  1.4430
 9220SOL    HW239294   4.128   0.242   5.169 -1.0317  0.4063 -1.8792
 9221SOL     OW39295   0.363   1.576   0.741  0.1306  0.5074  0.3543
 9221SOL    HW139296   0.313   1.626   0.805 -1.0108 -0.4824  0.2223
 9221SOL    HW239297   0.432   1.639   0.719 -0.3883  1.1240  0.4845
 9222SOL     OW39298   0.372   0.816  11.311 -0.3895 -0.2519  0.8745
 9222SOL    HW139299   0.366   0.871  11.389 -0.9252  2.5983 -1.1561
 9222SOL    HW239300   0.277   0.816  11.300 -0.4645 -0.6143  1.5415
 9223SOL     OW39301   0.337   3.252   9.075  0.0363  0.2196  0.1628
 9223SOL    HW139302   0.333   3.221   8.984 -0.1480  0.9745 -0.0843
 9223SOL    HW239303   0.382   3.333   9.053  1.1700 -0.4050  0.1765
 9224SOL     OW39304   2.863   0.620   8.272  0.1114 -0.0674  0.1461
 9224SOL    HW139305   2.852   0.715   8.276  1.3169  0.0672  0.2046
 9224SOL    HW239306   2.849   0.611   8.178 -0.2379 -2.1064  0.3924
 9225SOL     OW39307   2.961   2.572   6.000 -0.2802  0.0931 -0.2354
 9225SOL    HW139308   3.054   2.588   6.014 -0.5391  0.4383  1.0653
 9225SOL    HW239309   2.919   2.623   6.069  1.6094  0.7602  0.4246
 9226SOL     OW39310   3.976   0.372   9.640  0.0739  0.1934  0.1172
 9226SOL    HW139311   3.997   0.465   9.643  0.4860  0.0909  0.3914
 9226SOL    HW239312   4.059   0.326   9.649 -0.2700  0.0146  2.3094
 9227SOL     OW39313   1.316   1.386  15.158 -0.3581  0.1213  0.0303
 9227SOL    HW139314   1.347   1.313  15.104  0.4885 -0.2907  1.0712
 9227SOL    HW239315   1.265   1.433  15.092  1.3104  0.8887 -0.7212
 9228SOL     OW39316   0.953   1.688   8.103 -0.1537 -0.0469 -0.2645
 9228SOL    HW139317   0.902   1.768   8.112 -0.9720 -0.6884  0.8888
 9228SOL    HW239318   0.937   1.669   8.010  3.3757 -0.6577 -0.7233
 9229SOL     OW39319   3.426   3.726  16.250 -0.5143  0.4258  0.0592
 9229SOL    HW139320   3.379   3.650  16.215  2.1066 -1.0615 -0.2765
 9229SOL    HW239321   3.471   3.687  16.325  0.0734 -0.3604 -0.6977
 9230SOL     OW39322   0.248   4.242   2.992  0.2964 -0.2361  0.0768
 9230SOL    HW139323   0.237   4.227   3.086 -0.0500 -0.2033  0.0391
 9230SOL    HW239324   0.162   4.276   2.969 -0.0670 -1.1267  0.0958
 9231SOL     OW39325   3.265   1.030   4.830 -0.7423 -0.0531  0.3384
 9231SOL    HW139326   3.211   0.954   4.808  0.2662  0.1521 -2.8424
 9231SOL    HW239327   3.296   1.002   4.916  3.3035  2.4163 -0.3039
 9232SOL     OW39328   3.128   0.443   6.878 -0.4193  0.1877  0.2449
 9232SOL    HW139329   3.129   0.538   6.865 -2.3018  0.1550 -0.1212
 9232SOL    HW239330   3.123   0.436   6.973 -0.2286  2.7091  0.4574
 9233SOL     OW39331   4.589   1.181   5.537 -0.5682 -0.0883 -0.9485
 9233SOL    HW139332   4.634   1.107   5.577 -3.2642 -1.6892 -0.9011
 9233SOL    HW239333   4.506   1.181   5.584 -1.1123  0.5504 -1.9078
 9234SOL     OW39334   4.148   1.059   1.354  0.2628 -0.1039  0.4303
 9234SOL    HW139335   4.133   1.146   1.391 -0.5879 -0.8346  1.7906
 9234SOL    HW239336   4.158   1.076   1.260  1.4485 -0.1251  0.5530
 9235SOL     OW39337   4.452   1.300  17.654 -0.5151 -0.1359 -0.0861
 9235SOL    HW139338   4.434   1.372  17.715  2.4719  1.9326 -1.6243
 9235SOL    HW239339   4.483   1.229  17.709 -0.3471  0.5272  0.6832
 9236SOL     OW39340   3.994   3.245   8.510  0.6934  0.1417  0.5097
 9236SOL    HW139341   4.067   3.274   8.565  0.8254  0.7848 -0.0027
 9236SOL    HW239342   4.036   3.210   8.432 -0.2007  0.9607 -0.3415
 9237SOL     OW39343   4.331   0.575  14.552  0.3988 -0.0480 -0.2402
 9237SOL    HW139344   4.309   0.517  14.479  2.3968 -2.4094  1.0204
 9237SOL    HW239345   4.345   0.510  14.621  0.3118 -1.3719 -1.4640
 9238SOL     OW39346   1.144   0.696   1.828  0.2928  0.3556 -0.0305
 9238SOL    HW139347   1.141   0.605   1.858 -1.7670  0.1002 -1.0212
 9238SOL    HW239348   1.220   0.690   1.771  0.3875 -2.7332  0.4049
 9239SOL     OW39349   4.300   1.204   2.720  0.0655  0.0232 -0.4943
 9239SOL    HW139350   4.271   1.185   2.810  0.8391  1.3236  0.0344
 9239SOL    HW239351   4.386   1.245   2.729 -0.1119  0.1132  0.8877
 9240SOL     OW39352   3.652   2.060  16.656  0.3057 -0.4166  0.3415
 9240SOL    HW139353   3.722   2.114  16.692  1.0430 -1.5505  0.6020
 9240SOL    HW239354   3.621   2.106  16.578  1.4463  1.2878  0.8978
 9241SOL     OW39355   3.853   4.381   4.764  0.5291  0.2018  0.0858
 9241SOL    HW139356   3.939   4.409   4.733  0.8440  0.2193  0.9781
 9241SOL    HW239357   3.880   4.382   4.856  2.1748  0.5737 -0.3916
 9242SOL     OW39358   3.424   0.936   5.889 -0.4947 -0.2752  0.3599
 9242SOL    HW139359   3.506   0.899   5.855 -1.1704 -2.7207  1.3456
 9242SOL    HW239360   3.464   0.984   5.962  0.2157  1.7192 -1.3383
 9243SOL     OW39361   1.717   3.577   4.048  0.1628  0.4150 -0.5284
 9243SOL    HW139362   1.758   3.500   4.085 -0.4135 -0.9674 -2.7914
 9243SOL    HW239363   1.750   3.647   4.105 -0.1978  0.9959 -1.0294
 9244SOL     OW39364   3.218   1.353   2.279  0.2915 -0.2859  0.9274
 9244SOL    HW139365   3.299   1.305   2.261 -0.6388 -0.7154 -1.9468
 9244SOL    HW239366   3.178   1.295   2.345 -0.4347  0.6164  1.2754
 9245SOL     OW39367   0.156   2.540   2.055  0.2122 -0.1951  0.5902
 9245SOL    HW139368   0.070   2.509   2.084  0.1751  0.3640  1.0851
 9245SOL    HW239369   0.143   2.635   2.052 -1.1621 -0.4733 -1.8593
 9246SOL     OW39370   2.992   4.636  14.757 -0.3184 -0.5719  0.2713
 9246SOL    HW139371   2.967   4.726  14.777 -1.4749 -0.3777 -2.0622
 9246SOL    HW239372   2.934   4.591  14.818 -0.6852  1.2255  1.2414
 9247SOL     OW39373   0.201   4.011   5.366  0.3405  0.7088 -0.1639
 9247SOL    HW139374   0.206   3.953   5.442 -0.1958  0.8761  0.0010
 9247SOL    HW239375   0.114   3.992   5.331  2.8848 -2.0275 -4.9192
 9248SOL     OW39376   2.472   0.635   2.926 -0.2983 -0.2987 -0.7313
 9248SOL    HW139377   2.511   0.584   2.998 -0.9383  0.5177  0.1865
 9248SOL    HW239378   2.514   0.720   2.937  0.3095 -0.5627 -0.9844
 9249SOL     OW39379   3.625   3.998  15.623 -0.6317  0.1002 -0.3027
 9249SOL    HW139380   3.646   3.966  15.535  2.0082  0.2528  0.2784
 9249SOL    HW239381   3.638   4.091  15.602  0.9799 -0.1115 -0.1759
 9250SOL     OW39382   3.727   2.068   8.079  0.2344 -0.7257  0.0291
 9250SOL    HW139383   3.706   2.030   8.165  1.0401  0.2641  0.6659
 9250SOL    HW239384   3.685   2.012   8.014  0.4738  0.1600 -0.8797
 9251SOL     OW39385   3.909   2.293   4.657 -0.0084 -0.2046  0.4154
 9251SOL    HW139386   3.907   2.197   4.656  1.8222 -0.2248 -1.4277
 9251SOL    HW239387   3.817   2.300   4.680  0.2660 -0.0305  1.4917
 9252SOL     OW39388   2.036   1.178   4.054 -0.1951 -0.4813 -0.0713
 9252SOL    HW139389   2.111   1.236   4.042  0.2179 -1.4971 -2.4881
 9252SOL    HW239390   2.013   1.158   3.963  2.9408 -0.2718 -0.8929
 9253SOL     OW39391   4.455   0.139   7.973  0.8118 -0.2642 -0.5409
 9253SOL    HW139392   4.443   0.180   8.058 -0.5829 -1.6565 -0.0771
 9253SOL    HW239393   4.448   0.215   7.914  0.0808 -1.2913 -1.7812
 9254SOL     OW39394   1.773   0.604  14.550 -0.1286 -0.4855 -0.0695
 9254SOL    HW139395   1.724   0.685  14.558  1.9460  0.6960  0.8273
 9254SOL    HW239396   1.734   0.586  14.464 -1.0080 -0.6551  0.3737
 9255SOL     OW39397   2.676   3.446   5.413  0.2567 -0.1662  0.2430
 9255SOL    HW139398   2.712   3.373   5.463  0.9695  0.7190  1.0008
 9255SOL    HW239399   2.739   3.515   5.433 -1.9691  1.5425  1.3357
 9256SOL     OW39400   2.414   1.076   3.339  0.5316 -0.0027  0.0463
 9256SOL    HW139401   2.404   1.124   3.421 -1.4715  0.0142 -0.2264
 9256SOL    HW239402   2.372   1.128   3.271 -1.9585 -2.2574 -0.1144
 9257SOL     OW39403   1.733   2.208   9.045 -0.2490 -0.0385  0.3711
 9257SOL    HW139404   1.641   2.207   9.018  0.2968  3.2026 -1.5528
 9257SOL    HW239405   1.730   2.184   9.138 -0.8191  1.0737  0.6477
 9258SOL     OW39406   2.147   1.722   5.338 -0.3631  0.3593  0.1790
 9258SOL    HW139407   2.204   1.774   5.281  0.3427  0.5722  1.0932
 9258SOL    HW239408   2.204   1.712   5.414 -1.6651 -0.3949  1.0500
 9259SOL     OW39409   0.801   3.038   7.786 -0.3140  0.0536 -0.3197
 9259SOL    HW139410   0.872   2.978   7.809  2.7938  3.5556 -0.7780
 9259SOL    HW239411   0.849   3.117   7.758 -1.4576  0.2657 -1.6822
 9260SOL     OW39412   0.043   2.775  11.174  0.2086 -0.6191  0.7707
 9260SOL    HW139413   0.061   2.867  11.155  1.3559 -0.9518  0.2262
 9260SOL    HW239414   0.104   2.759  11.245  0.4956 -1.1967  0.3927
 9261SOL     OW39415   2.822   4.164   2.297 -0.8848 -0.2185 -0.2692
 9261SOL    HW139416   2.887   4.096   2.315  1.3476  2.6739  2.5209
 9261SOL    HW239417   2.792   4.134   2.211  0.7246 -3.1920  0.2048
 9262SOL     OW39418   1.523   3.318  11.522 -0.2444  0.8331  0.1785
 9262SOL    HW139419   1.612   3.288  11.541 -0.1035  1.3944  0.4223
 9262SOL    HW239420   1.523   3.409  11.554 -1.0845  0.7906  0.2915
 9263SOL     OW39421   2.664   0.349   6.028  0.3330  0.1980  0.7267
 9263SOL    HW139422   2.649   0.319   6.117 -1.0858  2.5673  1.2836
 9263SOL    HW239423   2.700   0.438   6.032  1.8260 -0.2950 -1.1530
 9264SOL     OW39424   1.588   1.843   1.943  0.0977  0.6577  0.3018
 9264SOL    HW139425   1.640   1.904   1.996  0.0933  0.8312  0.1057
 9264SOL    HW239426   1.502   1.858   1.983 -0.2627 -1.7171  0.4471
 9265SOL     OW39427   0.163   0.782   4.140  0.4539 -0.0465  0.0244
 9265SOL    HW139428   0.205   0.788   4.054  0.7195 -1.8154  0.0266
 9265SOL    HW239429   0.105   0.858   4.139  0.2921 -0.1952 -1.4775
 9266SOL     OW39430   2.455   4.316   6.347 -0.0931  0.0477 -0.1474
 9266SOL    HW139431   2.361   4.333   6.342 -0.2687 -0.8986 -0.0872
 9266SOL    HW239432   2.466   4.269   6.265 -0.4456  0.1173 -0.2369
 9267SOL     OW39433   3.477   2.669   4.345  0.1626  0.0782  0.7963
 9267SOL    HW139434   3.445   2.605   4.408  0.5571 -1.0597 -0.1593
 9267SOL    HW239435   3.453   2.753   4.383  1.0424 -0.7606  3.2181
 9268SOL     OW39436   0.407   4.063  10.783 -0.0412  0.4804 -0.0949
 9268SOL    HW139437   0.366   4.055  10.869 -1.4948  0.8428 -0.7452
 9268SOL    HW239438   0.490   4.021  10.802 -0.5803 -1.2469 -1.5483
 9269SOL     OW39439   0.151   2.676   2.356  0.4065  0.2659 -0.2754
 9269SOL    HW139440   0.160   2.715   2.269 -1.1827 -1.1019 -1.0687
 9269SOL    HW239441   0.240   2.658   2.386  0.6081  1.0566 -0.3940
 9270SOL     OW39442   1.544   4.643   0.858  0.1733 -0.4388 -0.2505
 9270SOL    HW139443   1.563   4.653   0.765  0.1666  1.2721 -0.0552
 9270SOL    HW239444   1.545   4.735   0.884 -1.0883 -0.2471 -0.8925
 9271SOL     OW39445   2.311   3.611   5.794  0.4696 -0.0537 -0.9598
 9271SOL    HW139446   2.250   3.543   5.823  2.4559 -0.9905  0.9834
 9271SOL    HW239447   2.388   3.560   5.768  0.7383  0.5208 -1.2981
 9272SOL     OW39448   0.554   0.587   5.313  0.4067 -0.5721 -0.1097
 9272SOL    HW139449   0.464   0.619   5.309 -0.1805 -2.2129  0.0351
 9272SOL    HW239450   0.598   0.663   5.352  0.8889 -0.6780 -0.4508
 9273SOL     OW39451   3.939   2.431   8.254 -0.1880  0.2302 -0.3469
 9273SOL    HW139452   3.899   2.413   8.169  0.1895  0.1246 -0.5055
 9273SOL    HW239453   3.891   2.370   8.311 -0.3407  0.7192  0.0404
 9274SOL     OW39454   3.452   1.334   6.834  0.4110  0.5403  0.4817
 9274SOL    HW139455   3.405   1.258   6.801 -1.3063  1.2468  1.3234
 9274SOL    HW239456   3.462   1.302   6.923  3.5374  0.1259 -0.0069
 9275SOL     OW39457   3.229   1.636   8.593 -0.0341  0.8779 -0.6812
 9275SOL    HW139458   3.170   1.670   8.526 -0.3365  1.3628 -0.1694
 9275SOL    HW239459   3.307   1.613   8.544  0.4054  4.0072 -1.4484
 9276SOL     OW39460   3.618   4.356   8.600  0.3161 -0.3447  0.6631
 9276SOL    HW139461   3.532   4.398   8.596 -0.1128 -1.4537 -1.4040
 9276SOL    HW239462   3.613   4.275   8.652  0.3329 -0.8962 -0.2004
 9277SOL     OW39463   2.569   0.879  13.913  0.3514 -0.3221  0.3176
 9277SOL    HW139464   2.482   0.871  13.874  0.2009 -0.5762  0.7078
 9277SOL    HW239465   2.622   0.814  13.867  0.0894 -0.5218  0.3006
 9278SOL     OW39466   2.883   1.285  10.158 -0.0333  0.4353  0.1151
 9278SOL    HW139467   2.842   1.335  10.088 -2.4421 -0.0784  1.1739
 9278SOL    HW239468   2.968   1.329  10.167  0.1958 -0.0406  0.2925
 9279SOL     OW39469   2.141   3.898   0.813  0.0662  0.4079 -0.1835
 9279SOL    HW139470   2.135   3.970   0.752  0.7163 -0.5031 -1.3192
 9279SOL    HW239471   2.057   3.857   0.794 -0.7909  3.2585 -2.3472
 9280SOL     OW39472   3.857   1.529   8.000 -0.1289  0.0879  0.1736
 9280SOL    HW139473   3.772   1.513   7.958  0.2932 -1.2711 -0.1698
 9280SOL    HW239474   3.900   1.450   7.967 -1.3425 -0.6715  0.3886
 9281SOL     OW39475   0.721   0.744   4.661  0.1377 -0.1846  0.1325
 9281SOL    HW139476   0.749   0.718   4.749 -0.1889 -1.1133 -0.0320
 9281SOL    HW239477   0.635   0.703   4.660 -0.2894  0.7836 -2.4304
 9282SOL     OW39478   3.441   1.231   7.090 -0.5227 -0.5299 -0.1154
 9282SOL    HW139479   3.451   1.195   7.179 -1.3800 -2.4193 -0.7940
 9282SOL    HW239480   3.367   1.181   7.058 -0.6752  1.4600 -2.8367
 9283SOL     OW39481   1.858   2.834   7.257  0.4911  0.2743 -0.2390
 9283SOL    HW139482   1.849   2.739   7.260  1.6453  0.2238  2.2937
 9283SOL    HW239483   1.951   2.826   7.237  0.7187  2.0495  0.0508
 9284SOL     OW39484   4.070   4.327   5.741 -0.4931 -0.3251 -0.2941
 9284SOL    HW139485   3.997   4.324   5.679 -0.1565 -0.1346 -0.7028
 9284SOL    HW239486   4.139   4.300   5.681 -0.3543 -1.6427  0.4503
 9285SOL     OW39487   0.356   2.213   5.243  0.1995 -0.0932  0.5581
 9285SOL    HW139488   0.290   2.281   5.229  0.3010 -0.1170 -0.0217
 9285SOL    HW239489   0.307   2.138   5.211  0.9912  0.2452 -1.4261
 9286SOL     OW39490   1.895   0.265  15.788 -0.1318 -0.7262  0.2416
 9286SOL    HW139491   1.924   0.285  15.700 -1.5648  1.2766  0.2218
 9286SOL    HW239492   1.895   0.353  15.826 -1.4044  0.0922 -1.6616
 9287SOL     OW39493   3.891   3.586   8.089 -0.2323  0.6062  0.6957
 9287SOL    HW139494   3.873   3.674   8.057 -1.3125  0.0919 -0.1091
 9287SOL    HW239495   3.845   3.534   8.024 -1.0306 -0.6371  2.2501
 9288SOL     OW39496   4.063   0.083  12.617 -0.3680  0.3422  0.2462
 9288SOL    HW139497   3.987   0.043  12.577 -0.6082  2.2338 -1.1854
 9288SOL    HW239498   4.086   0.016  12.681  1.0105 -0.3576 -0.9810
 9289SOL     OW39499   0.835   0.883   8.849 -0.3827  0.0309  0.0497
 9289SOL    HW139500   0.887   0.962   8.862 -0.1000  0.1944 -2.0161
 9289SOL    HW239501   0.766   0.923   8.795 -3.2002 -4.0069  0.6310
 9290SOL     OW39502   3.774   3.354   0.008  0.0858  0.0533  0.5521
 9290SOL    HW139503   3.793   3.272   0.054 -1.8919  0.3884  1.9572
 9290SOL    HW239504   3.845   3.399   0.055  0.2025  0.4756 -0.0312
 9291SOL     OW39505   3.587   4.002  11.957  0.2558  0.0406  0.5629
 9291SOL    HW139506   3.569   4.048  12.039  0.1735  0.0848  0.5198
 9291SOL    HW239507   3.531   3.925  11.955 -1.3522  1.2213  0.1329
 9292SOL     OW39508   4.648   2.383   2.157 -0.0076 -0.0690 -0.7742
 9292SOL    HW139509   4.567   2.337   2.175 -0.0405  0.0636 -0.5857
 9292SOL    HW239510   4.690   2.382   2.243 -1.6878  0.0362  0.0472
 9293SOL     OW39511   1.554   3.921   1.687 -0.2673 -0.0536 -0.7436
 9293SOL    HW139512   1.574   4.009   1.720 -1.1328 -0.5415  1.0282
 9293SOL    HW239513   1.476   3.912   1.740 -0.5281 -1.7357 -1.4209
 9294SOL     OW39514   1.282   4.169  11.274  0.3190 -0.3346 -0.0414
 9294SOL    HW139515   1.345   4.205  11.213 -0.1128 -1.5107 -1.1844
 9294SOL    HW239516   1.310   4.211  11.355  0.2339  0.3030 -0.3451
 9295SOL     OW39517   2.692   1.182   4.802  0.4528 -0.0491  0.4685
 9295SOL    HW139518   2.715   1.145   4.717  2.0366  2.4600 -0.2129
 9295SOL    HW239519   2.776   1.159   4.843  0.4134 -0.8095  0.1239
 9296SOL     OW39520   1.549   2.340   4.770 -0.9644 -0.0489  0.0272
 9296SOL    HW139521   1.543   2.246   4.781 -0.3222 -0.1237 -0.2662
 9296SOL    HW239522   1.644   2.343   4.756 -0.8648  1.3385  0.9901
 9297SOL     OW39523   4.332   2.729   3.605 -0.5388  0.1674  0.0802
 9297SOL    HW139524   4.301   2.641   3.583  0.3970  0.0267 -0.7071
 9297SOL    HW239525   4.271   2.754   3.674 -0.5624  0.4061 -0.0253
 9298SOL     OW39526   1.031   1.751   8.379  0.5187 -0.2434  0.0580
 9298SOL    HW139527   0.987   1.731   8.297  0.5700  0.2701 -0.0963
 9298SOL    HW239528   1.116   1.712   8.362  0.1746 -1.7421  1.8459
 9299SOL     OW39529   1.075   1.984   5.426 -0.2296  0.0739 -0.4986
 9299SOL    HW139530   1.074   1.927   5.349 -0.2469 -1.8090  0.9006
 9299SOL    HW239531   1.160   2.027   5.423  0.5751 -1.5354 -0.2639
 9300SOL     OW39532   0.261   2.059  15.009  0.3491 -0.1412 -0.2981
 9300SOL    HW139533   0.187   2.040  14.952  1.7830 -0.9831 -1.8877
 9300SOL    HW239534   0.227   2.105  15.085  0.7068  0.5460 -0.5550
 9301SOL     OW39535   0.575   1.048   3.504 -0.1982  0.0384 -0.4153
 9301SOL    HW139536   0.629   1.010   3.573 -0.8993  0.6260  0.4563
 9301SOL    HW239537   0.484   1.040   3.534 -0.1803 -2.8104 -1.1423
 9302SOL     OW39538   1.514   1.112   8.326 -0.1547  0.1977 -0.2935
 9302SOL    HW139539   1.580   1.098   8.395 -2.7554 -0.7134  1.9984
 9302SOL    HW239540   1.451   1.158   8.380 -0.2142 -0.0329 -0.1670
 9303SOL     OW39541   4.678   3.028   0.995  0.1917 -0.0709  0.2809
 9303SOL    HW139542   0.022   3.067   1.012 -0.0498  0.3530  0.5257
 9303SOL    HW239543   4.641   3.033   1.083 -0.4556 -2.2471  0.1344
 9304SOL     OW39544   2.184   2.091   2.576  0.0846  0.0153 -0.1463
 9304SOL    HW139545   2.109   2.081   2.633  0.2956 -1.3745 -0.1132
 9304SOL    HW239546   2.224   2.004   2.579 -0.4594 -0.1976  0.7194
 9305SOL     OW39547   0.323   3.364   7.739 -0.2278  0.0177  0.3929
 9305SOL    HW139548   0.317   3.362   7.835  1.8203 -0.1547  0.5196
 9305SOL    HW239549   0.265   3.435   7.712  1.6617  1.6195  0.5398
 9306SOL     OW39550   1.711   2.522   7.937  0.6472  0.3049 -0.1528
 9306SOL    HW139551   1.651   2.524   8.011  2.0598  3.6633  0.8875
 9306SOL    HW239552   1.757   2.441   7.958  1.0686  0.3713 -0.8340
 9307SOL     OW39553   1.696   3.846   9.306  0.2362 -0.1315  0.0425
 9307SOL    HW139554   1.623   3.795   9.271  1.1524 -0.7014 -1.0473
 9307SOL    HW239555   1.738   3.788   9.370 -0.1954 -0.2176  0.2462
 9308SOL     OW39556   4.659   0.913   6.148  0.5109 -0.2237  0.3603
 9308SOL    HW139557   4.701   0.849   6.091  0.8703  1.6804 -1.5600
 9308SOL    HW239558   4.626   0.858   6.219  2.2999  0.2104  1.5326
 9309SOL     OW39559   4.630   1.226   8.090 -0.3657  0.3922  0.1308
 9309SOL    HW139560   4.615   1.181   8.007  0.9407  1.1399 -0.5080
 9309SOL    HW239561   4.714   1.271   8.079 -0.9907  1.1606 -1.5309
 9310SOL     OW39562   2.872   4.587   7.832 -0.3417  0.2147 -0.2279
 9310SOL    HW139563   2.910   4.607   7.747 -0.4947 -0.3480 -0.4272
 9310SOL    HW239564   2.823   4.509   7.805  0.4806 -0.1771 -0.5835
 9311SOL     OW39565   3.491   2.935  14.316  0.3540  0.4538 -0.0184
 9311SOL    HW139566   3.427   2.875  14.278 -0.1714  1.0010 -0.0017
 9311SOL    HW239567   3.494   2.896  14.403 -0.3917  1.6115  0.5389
 9312SOL     OW39568   3.514   3.237   8.004  0.1715 -0.4870 -0.7201
 9312SOL    HW139569   3.594   3.186   8.010  1.3935  1.7207  1.4510
 9312SOL    HW239570   3.498   3.225   8.098 -0.2494 -0.1123 -0.7434
 9313SOL     OW39571   2.466   4.080   0.519 -0.4875  0.1934  0.0705
 9313SOL    HW139572   2.475   4.126   0.436 -1.7954 -0.3915 -0.4047
 9313SOL    HW239573   2.466   3.990   0.488  1.5435  1.0760 -2.4135
 9314SOL     OW39574   1.501   3.762   7.915 -0.3441  0.0909  0.2591
 9314SOL    HW139575   1.578   3.755   7.859 -0.4767 -0.0912  0.0956
 9314SOL    HW239576   1.501   3.684   7.970 -1.5829  1.8272  2.6796
 9315SOL     OW39577   2.977   0.961  17.023 -0.4693 -0.1968 -0.5958
 9315SOL    HW139578   2.988   1.022  17.096  1.9579 -0.1037 -1.0331
 9315SOL    HW239579   2.969   1.018  16.947 -0.9129 -0.8635 -1.0470
 9316SOL     OW39580   1.404   3.839   7.303  0.3760 -0.1343  0.0708
 9316SOL    HW139581   1.389   3.919   7.354 -0.6907  0.9863 -1.9930
 9316SOL    HW239582   1.498   3.840   7.285  0.1325 -1.0378 -1.2415
 9317SOL     OW39583   2.173   4.043   1.518 -0.2366 -0.1736 -0.2272
 9317SOL    HW139584   2.210   3.971   1.467 -1.2257  0.0843 -1.2929
 9317SOL    HW239585   2.253   4.094   1.532 -0.8390  0.2539  1.6774
 9318SOL     OW39586   0.310   0.401   4.712 -0.0223  0.3871 -0.4056
 9318SOL    HW139587   0.282   0.327   4.658  0.7063  0.1551 -0.4614
 9318SOL    HW239588   0.242   0.465   4.691  0.2210  0.4963 -0.8501
 9319SOL     OW39589   1.393   0.208   8.256  0.0472  0.6559 -0.1233
 9319SOL    HW139590   1.365   0.243   8.172 -0.0023 -0.1311 -0.4347
 9319SOL    HW239591   1.436   0.131   8.218 -1.4625 -0.4582  0.4111
 9320SOL     OW39592   3.251   0.459   3.343 -0.1684  0.2721  0.4989
 9320SOL    HW139593   3.187   0.524   3.313 -1.3321 -0.3174  1.6920
 9320SOL    HW239594   3.319   0.463   3.276 -0.7096  1.2232  0.0117
 9321SOL     OW39595   3.741   1.280   8.521  0.2538 -0.2631 -0.6869
 9321SOL    HW139596   3.726   1.248   8.610  1.7577 -1.8595 -0.9989
 9321SOL    HW239597   3.827   1.242   8.505  0.1228  0.0823 -2.3016
 9322SOL     OW39598   2.472   3.209   5.400 -0.5326  0.0277  0.2249
 9322SOL    HW139599   2.533   3.197   5.327 -0.0689 -1.8716  0.9038
 9322SOL    HW239600   2.536   3.235   5.466  0.0716  1.5336 -0.9726
 9323SOL     OW39601   4.375   4.544   9.208 -0.6467 -0.3814  0.4186
 9323SOL    HW139602   4.369   4.629   9.163 -0.6078 -0.5335  0.1204
 9323SOL    HW239603   4.382   4.570   9.299 -1.2519  0.9802  0.0760
 9324SOL     OW39604   0.872   2.542   5.005  0.2589  0.3502  0.4546
 9324SOL    HW139605   0.955   2.537   4.958 -0.5457 -1.0521 -0.8049
 9324SOL    HW239606   0.823   2.475   4.957 -1.4842  0.5880  1.9091
 9325SOL     OW39607   0.297   0.771   3.894  0.5546 -0.4337 -0.6498
 9325SOL    HW139608   0.254   0.686   3.903  2.5583 -1.1278  2.1499
 9325SOL    HW239609   0.299   0.771   3.798 -0.8065  1.6385 -0.6869
 9326SOL     OW39610   0.449   0.387   4.371  1.0672 -0.4015  0.5131
 9326SOL    HW139611   0.470   0.352   4.285 -0.5024  0.1136 -0.0706
 9326SOL    HW239612   0.374   0.441   4.346 -0.1975 -0.6312  3.7511
 9327SOL     OW39613   3.711   0.503   7.342 -0.2734 -0.0386 -0.3234
 9327SOL    HW139614   3.781   0.553   7.300 -0.4266  0.1595 -0.3415
 9327SOL    HW239615   3.636   0.527   7.288  1.3758  0.9685 -2.2037
 9328SOL     OW39616   2.725   3.101   6.687 -0.8115 -0.3745  0.2257
 9328SOL    HW139617   2.697   3.131   6.773  0.3252  2.3378 -0.3544
 9328SOL    HW239618   2.642   3.109   6.640 -0.2554 -2.8957 -1.2044
 9329SOL     OW39619   1.749   3.270  10.969 -0.4627 -0.0776 -0.1656
 9329SOL    HW139620   1.841   3.294  10.975 -0.1013 -1.4700 -0.1173
 9329SOL    HW239621   1.717   3.299  10.884 -0.4550 -0.1160 -0.1816
 9330SOL     OW39622   0.378   3.002   4.714 -0.7290  0.0642  0.0218
 9330SOL    HW139623   0.459   3.017   4.763  0.6813  1.1584 -2.6818
 9330SOL    HW239624   0.392   3.051   4.633  2.5820 -0.1507  0.4523
 9331SOL     OW39625   0.845   3.701  16.581 -0.2920  0.1442  0.2515
 9331SOL    HW139626   0.891   3.785  16.587  0.1316 -0.0783  0.1026
 9331SOL    HW239627   0.790   3.706  16.503 -1.7556 -0.5502  1.2333
 9332SOL     OW39628   4.273   0.607   7.699 -0.3057  0.4213  0.1833
 9332SOL    HW139629   4.212   0.544   7.737  1.4507 -1.2780  0.2044
 9332SOL    HW239630   4.234   0.645   7.620 -0.4742  2.1585  1.1121
 9333SOL     OW39631   2.382   1.595  13.366 -0.4020  0.2608 -0.3395
 9333SOL    HW139632   2.374   1.587  13.461  0.8939  0.7516 -0.1839
 9333SOL    HW239633   2.309   1.655  13.353 -0.2327  0.6061  0.3076
 9334SOL     OW39634   2.765   0.918  16.701  1.0597  0.7267 -0.3519
 9334SOL    HW139635   2.704   0.955  16.637 -0.6739  2.2298  2.1566
 9334SOL    HW239636   2.764   0.826  16.673  0.6684  0.5571  0.2132
 9335SOL     OW39637   1.096   0.027   5.924  0.1348  0.1198 -0.3757
 9335SOL    HW139638   1.129   4.721   6.000  0.4304  0.5963 -0.2022
 9335SOL    HW239639   1.023   0.075   5.963  0.3451 -0.8494  1.1939
 9336SOL     OW39640   4.643   3.408   6.633  0.1003 -0.1977  0.5197
 9336SOL    HW139641   4.669   3.476   6.695  0.4727 -0.9798  1.2369
 9336SOL    HW239642   4.728   3.384   6.598  0.2893 -1.0003  1.5160
 9337SOL     OW39643   4.277   0.399   6.826  0.0749 -0.0641  0.7556
 9337SOL    HW139644   4.317   0.337   6.765  1.0747 -0.2526  1.6047
 9337SOL    HW239645   4.205   0.347   6.860  1.3780 -0.8519  2.3380
 9338SOL     OW39646   1.865   0.806  10.328  0.1337 -0.5122  0.0497
 9338SOL    HW139647   1.957   0.797  10.353 -0.1740  0.9225  1.7194
 9338SOL    HW239648   1.822   0.741  10.384  1.4060 -2.2420 -0.9976
 9339SOL     OW39649   4.724   3.954  13.378 -0.5051 -0.3035 -0.0982
 9339SOL    HW139650   4.689   3.983  13.462  2.1412 -0.3847  1.0531
 9339SOL    HW239651   0.006   3.866  13.405  2.7607  0.2474 -1.1041
 9340SOL     OW39652   1.971   2.075   5.486 -0.2738  0.5157 -0.3344
 9340SOL    HW139653   2.032   2.098   5.416 -1.3572  2.9926 -0.4541
 9340SOL    HW239654   1.902   2.137   5.462  1.1895  1.8876 -1.0257
 9341SOL     OW39655   4.000   2.154   6.805 -0.0437 -0.1573  0.5808
 9341SOL    HW139656   3.979   2.088   6.871  2.3687 -1.1218  0.4135
 9341SOL    HW239657   3.985   2.113   6.720 -2.1132  0.0622  0.8486
 9342SOL     OW39658   4.706   3.197   2.684  0.1266 -0.9721  0.1241
 9342SOL    HW139659   4.690   3.286   2.653  1.3105 -1.2185 -1.1917
 9342SOL    HW239660   4.739   3.218   2.772 -2.9400 -0.5493  1.1590
 9343SOL     OW39661   2.515   3.835   2.218  0.3414 -0.1094  0.0829
 9343SOL    HW139662   2.483   3.894   2.287 -0.3466  0.3964 -0.6630
 9343SOL    HW239663   2.588   3.882   2.179  0.5033 -0.5436 -0.1458
 9344SOL     OW39664   1.322   1.746   2.806  0.1564  0.3507 -0.3921
 9344SOL    HW139665   1.248   1.789   2.849 -1.4068 -0.3499 -2.3519
 9344SOL    HW239666   1.378   1.738   2.883  0.8390 -2.2390 -1.1478
 9345SOL     OW39667   0.293   3.115   5.900 -0.5274 -0.6327 -0.5184
 9345SOL    HW139668   0.290   3.211   5.897 -0.0354 -0.5932  0.0943
 9345SOL    HW239669   0.381   3.093   5.870  0.4774  0.6628  1.4621
 9346SOL     OW39670   0.201   4.145   5.926 -0.3345 -0.3685  0.0859
 9346SOL    HW139671   0.275   4.202   5.950 -0.2502  0.5933 -2.3360
 9346SOL    HW239672   0.192   4.148   5.830  1.3139  0.7155 -0.0405
 9347SOL     OW39673   1.755   0.104   7.154 -0.8915  0.2169 -0.1218
 9347SOL    HW139674   1.813   0.175   7.180 -0.9843 -0.0473  0.8017
 9347SOL    HW239675   1.671   0.150   7.156  0.0450  1.9805 -2.0887
 9348SOL     OW39676   0.566   1.154   8.553  0.1522  0.3783  0.2462
 9348SOL    HW139677   0.601   1.241   8.536  3.6737 -0.9914  0.6499
 9348SOL    HW239678   0.603   1.110   8.477 -1.1913  1.6839 -1.1570
 9349SOL     OW39679   1.848   0.380   7.482  0.0652 -0.8243 -0.0617
 9349SOL    HW139680   1.931   0.358   7.524  0.9269 -0.1825 -1.4049
 9349SOL    HW239681   1.794   0.306   7.509  1.0764 -0.6109  2.5154
 9350SOL     OW39682   0.231   3.127   7.577  0.5740 -0.1187 -0.5857
 9350SOL    HW139683   0.282   3.197   7.619  0.4941  0.2815 -1.1575
 9350SOL    HW239684   0.151   3.130   7.630 -0.0927 -1.7500 -1.4911
 9351SOL     OW39685   0.306   0.892  11.582 -0.3666 -0.1924  0.3588
 9351SOL    HW139686   0.240   0.835  11.621 -0.3518 -1.6679 -1.7461
 9351SOL    HW239687   0.386   0.869  11.630  0.1862 -0.6265 -0.7625
 9352SOL     OW39688   2.496   4.139   0.802  0.1007 -0.0691  0.6527
 9352SOL    HW139689   2.483   4.076   0.731  0.9696 -1.8182  2.0498
 9352SOL    HW239690   2.518   4.225   0.766 -0.7487  1.3275  3.4407
 9353SOL     OW39691   4.522   3.089   7.192 -0.5840 -0.6720  0.0235
 9353SOL    HW139692   4.427   3.086   7.191 -0.6573  2.2065 -0.6531
 9353SOL    HW239693   4.534   2.998   7.165  0.8220 -0.4666 -0.0401
 9354SOL     OW39694   2.924   0.703   1.762 -0.4789  0.1292  0.3412
 9354SOL    HW139695   2.989   0.635   1.748 -1.2873 -0.2103 -1.7099
 9354SOL    HW239696   2.892   0.673   1.848  0.3597 -2.1604 -0.1592
 9355SOL     OW39697   1.958   4.185   3.718  0.2363  0.4546  0.7863
 9355SOL    HW139698   1.984   4.095   3.734  1.1787  0.4078 -1.0983
 9355SOL    HW239699   2.013   4.222   3.649 -0.1984  1.2766  0.8781
 9356SOL     OW39700   0.307   1.864   6.361  0.3316  0.5031  0.1187
 9356SOL    HW139701   0.394   1.864   6.400 -0.0792 -1.9008  1.0216
 9356SOL    HW239702   0.256   1.813   6.424 -0.8381  2.5698  0.8313
 9357SOL     OW39703   0.889   2.525  14.503  0.4643  0.2554 -0.7388
 9357SOL    HW139704   0.826   2.482  14.445  0.9488 -0.5579 -0.6707
 9357SOL    HW239705   0.911   2.455  14.565 -0.4266  2.4332  2.0116
 9358SOL     OW39706   2.387   0.021  13.401 -0.1610  0.2700  0.6890
 9358SOL    HW139707   2.424   0.066  13.324 -0.5454  0.5035  0.6425
 9358SOL    HW239708   2.310   0.076  13.415  0.5328  2.4860 -4.0438
 9359SOL     OW39709   0.204   2.817   2.113 -0.6699  0.6350 -0.0273
 9359SOL    HW139710   0.156   2.898   2.131 -0.0637  1.1334 -0.6780
 9359SOL    HW239711   0.296   2.843   2.109 -0.3072 -0.9131 -1.8139
 9360SOL     OW39712   1.480   0.888  13.680  0.3585 -0.3432 -0.1287
 9360SOL    HW139713   1.532   0.808  13.678  0.0721 -0.5907  2.2292
 9360SOL    HW239714   1.542   0.941  13.630 -0.0750  0.4189  0.1338
 9361SOL     OW39715   2.826   2.775   4.128  0.1889 -0.2704  0.5274
 9361SOL    HW139716   2.739   2.790   4.092  0.9420  2.1171 -0.3661
 9361SOL    HW239717   2.825   2.688   4.167  1.9417 -0.5619 -0.0636
 9362SOL     OW39718   1.198   2.367  13.236  0.5377 -0.0416 -0.1917
 9362SOL    HW139719   1.234   2.452  13.259 -0.6803 -0.0829  1.8967
 9362SOL    HW239720   1.113   2.399  13.206  1.3090  1.0245 -1.2415
 9363SOL     OW39721   1.357   3.263   7.396  0.4863 -0.0057 -0.2228
 9363SOL    HW139722   1.365   3.328   7.326 -0.2783 -0.8309 -1.0763
 9363SOL    HW239723   1.301   3.321   7.448  0.6484  1.9494 -2.2386
 9364SOL     OW39724   3.425   3.781  12.243 -0.2034 -0.1208 -0.0987
 9364SOL    HW139725   3.501   3.812  12.292 -2.0894  3.6973  0.3711
 9364SOL    HW239726   3.359   3.804  12.308  1.2411 -1.4811  1.8641
 9365SOL     OW39727   1.054   3.750   8.414 -0.0631 -0.2449  0.3604
 9365SOL    HW139728   0.977   3.795   8.448  0.2684  1.5830 -1.3298
 9365SOL    HW239729   1.090   3.814   8.353  0.1091  2.1737  3.0389
 9366SOL     OW39730   0.389   0.629  10.307 -0.1200 -0.0886 -0.0434
 9366SOL    HW139731   0.440   0.549  10.317  2.7656  1.5789 -1.4610
 9366SOL    HW239732   0.429   0.650  10.223 -0.5768 -0.6367 -0.3982
 9367SOL     OW39733   1.185   1.991   2.613 -0.5980  0.0870  0.5414
 9367SOL    HW139734   1.096   1.988   2.648 -1.7020  0.0077 -2.2342
 9367SOL    HW239735   1.227   1.925   2.668 -1.7382 -1.8473 -0.9210
 9368SOL     OW39736   3.728   2.529   2.734 -0.0112  0.2329 -0.1554
 9368SOL    HW139737   3.801   2.472   2.710  0.4453  1.1539 -0.9747
 9368SOL    HW239738   3.676   2.532   2.654  0.0966 -0.9347 -0.2669
 9369SOL     OW39739   3.788   0.293   9.047 -0.6951 -0.4856 -1.2068
 9369SOL    HW139740   3.880   0.314   9.029 -0.2471 -1.4158  0.0354
 9369SOL    HW239741   3.742   0.377   9.053  1.6499  0.6715  0.4441
 9370SOL     OW39742   2.514   1.127   9.403  0.3383 -0.4435 -0.2509
 9370SOL    HW139743   2.581   1.196   9.413 -1.2967  1.0311  0.5138
 9370SOL    HW239744   2.479   1.106   9.489 -1.6245  0.9861 -0.6987
 9371SOL     OW39745   1.444   3.584  11.896  0.4625 -0.2273 -0.4382
 9371SOL    HW139746   1.439   3.585  11.800  0.5854  0.1792 -0.4375
 9371SOL    HW239747   1.498   3.508  11.919 -0.9247 -1.4691 -1.2471
 9372SOL     OW39748   4.179   3.419   3.141 -0.1064  0.1438  0.2264
 9372SOL    HW139749   4.249   3.429   3.206 -2.8232 -3.2636  3.7398
 9372SOL    HW239750   4.170   3.512   3.119  1.5639 -0.2664 -2.1447
 9373SOL     OW39751   4.417   2.913   8.978  0.8001 -0.1568  0.3428
 9373SOL    HW139752   4.452   2.824   8.991  0.8361 -0.0536  0.9446
 9373SOL    HW239753   4.330   2.909   9.018  0.8029  1.4265  0.5047
 9374SOL     OW39754   4.506   0.774   7.103  0.5553  0.1943  0.0990
 9374SOL    HW139755   4.446   0.739   7.169 -2.1944 -0.8216 -2.9107
 9374SOL    HW239756   4.492   0.866   7.122  2.6953  0.5111  0.1470
 9375SOL     OW39757   1.637   4.526   8.107  0.0792 -0.1635 -0.1601
 9375SOL    HW139758   1.656   4.544   8.199  1.2908 -1.7231 -0.0990
 9375SOL    HW239759   1.715   4.474   8.086  0.7930  1.3742 -1.2629
 9376SOL     OW39760   0.251   3.513   5.333 -0.5962  0.2690  0.2848
 9376SOL    HW139761   0.308   3.468   5.395 -0.2706 -1.1526 -1.0358
 9376SOL    HW239762   0.215   3.434   5.291  0.6651 -0.4711  0.6037
 9377SOL     OW39763   3.459   2.548  11.390  0.7238  0.1951  0.6865
 9377SOL    HW139764   3.430   2.520  11.304 -1.5313  1.3390  1.0727
 9377SOL    HW239765   3.545   2.509  11.377  0.8424  1.3937 -1.9909
 9378SOL     OW39766   0.004   2.500   2.682  0.9328 -0.0640  0.1747
 9378SOL    HW139767   4.701   2.579   2.654  0.5614 -0.3329 -0.0003
 9378SOL    HW239768   0.061   2.530   2.753  1.5317 -1.2971  0.2215
 9379SOL     OW39769   1.801   2.573   0.744  0.2416 -0.0605  0.1308
 9379SOL    HW139770   1.847   2.512   0.803 -0.4300 -0.2906  0.4138
 9379SOL    HW239771   1.839   2.545   0.660  2.2766 -0.7438  1.2776
 9380SOL     OW39772   3.088   2.854   5.533  0.0583 -0.2802  0.0339
 9380SOL    HW139773   3.088   2.759   5.525  0.9029 -0.3900  1.3678
 9380SOL    HW239774   3.180   2.882   5.541 -0.7981  2.4614  0.3658
 9381SOL     OW39775   4.378   3.493   8.716  0.2251 -0.3199  0.6566
 9381SOL    HW139776   4.473   3.493   8.706  0.1823 -1.0575  0.1868
 9381SOL    HW239777   4.367   3.537   8.800  0.3245 -0.0923  0.5489
 9382SOL     OW39778   1.690   1.085   0.392  0.4317 -0.2278 -0.0507
 9382SOL    HW139779   1.728   1.164   0.354  1.0909 -1.0998 -1.2280
 9382SOL    HW239780   1.774   1.047   0.419 -0.0503 -1.2436  0.0313
 9383SOL     OW39781   4.288   3.656   6.423  0.2509  0.7206  0.0720
 9383SOL    HW139782   4.355   3.705   6.375  1.6915 -2.5047 -1.1269
 9383SOL    HW239783   4.258   3.728   6.480 -0.1115  1.4956 -1.0961
 9384SOL     OW39784   4.685   1.361  10.428 -0.3152  0.1857  0.3331
 9384SOL    HW139785   4.678   1.326  10.517 -0.7215 -0.8839 -0.1280
 9384SOL    HW239786   4.730   1.285  10.391 -0.6023  0.0472  0.2671
 9385SOL     OW39787   0.855   3.178   9.953  0.5992  0.1734 -0.4693
 9385SOL    HW139788   0.897   3.232  10.019  1.4615  0.3355 -1.1435
 9385SOL    HW239789   0.928   3.161   9.892 -0.1086  0.6450 -1.4554
 9386SOL     OW39790   3.318   0.740   4.489 -0.6327 -0.5177  0.3444
 9386SOL    HW139791   3.398   0.750   4.436 -1.3306  0.5301 -0.5139
 9386SOL    HW239792   3.256   0.709   4.423  0.5862 -0.1485 -0.9893
 9387SOL     OW39793   1.075   2.909   7.507  0.7211  0.3834 -0.2568
 9387SOL    HW139794   1.034   2.847   7.568  0.4301 -0.0033 -0.8483
 9387SOL    HW239795   1.018   2.981   7.535  0.1267  0.2321 -1.0758
 9388SOL     OW39796   0.310   0.027   2.751 -0.1368  0.1764 -0.4118
 9388SOL    HW139797   0.375   0.059   2.813 -1.6942  0.2520  1.1592
 9388SOL    HW239798   0.372   0.007   2.681 -0.0856 -1.5816  0.1430
 9389SOL     OW39799   1.005   4.673  10.528  0.2490  0.1828 -0.5998
 9389SOL    HW139800   1.088   4.627  10.538  0.0058 -0.3948 -1.2560
 9389SOL    HW239801   0.973   4.619  10.456  0.3278 -1.4010  0.5296
 9390SOL     OW39802   4.062   4.079   1.949 -0.4182 -0.1760  0.4503
 9390SOL    HW139803   3.982   4.054   1.902 -0.2353 -0.4776  0.2977
 9390SOL    HW239804   4.098   3.993   1.968 -2.6346 -1.4236 -0.9104
 9391SOL     OW39805   2.403   1.614   8.019 -0.0045  0.9504  0.7142
 9391SOL    HW139806   2.475   1.662   8.059 -0.3040  1.6586  0.3989
 9391SOL    HW239807   2.452   1.553   7.964 -0.0024 -0.2258  2.0031
 9392SOL     OW39808   0.225   4.656   6.604 -0.4738  0.3686 -0.1849
 9392SOL    HW139809   0.175   4.629   6.681  1.5178  1.9219  1.6794
 9392SOL    HW239810   0.189   4.601   6.535 -1.7713  0.7780  0.1715
 9393SOL     OW39811   3.997   4.679   9.427  0.2705  0.7456  0.4193
 9393SOL    HW139812   4.003   4.602   9.371 -0.6961  0.2190  1.0326
 9393SOL    HW239813   3.991   4.640   9.514 -1.7316  1.2763  0.5439
 9394SOL     OW39814   3.312   0.414  15.833  0.4643 -0.0274 -0.4260
 9394SOL    HW139815   3.360   0.361  15.769  1.5187 -0.1541  0.4846
 9394SOL    HW239816   3.227   0.374  15.811 -0.3875  0.6938  1.5518
 9395SOL     OW39817   4.108   0.009   2.692 -0.2781 -0.1861  0.0051
 9395SOL    HW139818   4.062   0.086   2.659 -0.5208  0.1482  1.1296
 9395SOL    HW239819   4.052   4.676   2.671  0.9559 -1.4167  1.0763
 9396SOL     OW39820   0.426   2.229   9.161 -0.3066 -0.0092  0.4396
 9396SOL    HW139821   0.477   2.149   9.172 -1.1974 -0.7194 -0.5386
 9396SOL    HW239822   0.489   2.291   9.197 -3.1556  2.2523  1.4890
 9397SOL     OW39823   3.481   0.962   3.339  0.5619 -0.3135 -0.0020
 9397SOL    HW139824   3.509   0.950   3.248 -1.8490  0.0727 -0.8024
 9397SOL    HW239825   3.514   0.882   3.382  0.2841 -0.6045 -0.3259
 9398SOL     OW39826   2.271   2.185  14.179  0.5360  0.1153  0.0238
 9398SOL    HW139827   2.351   2.134  14.185  0.3803 -0.4371 -2.6092
 9398SOL    HW239828   2.211   2.123  14.137  0.4642 -0.1931  0.5877
 9399SOL     OW39829   2.665   0.558   2.355  0.0801 -0.1217 -0.4347
 9399SOL    HW139830   2.633   0.638   2.397  2.5211  0.7309 -0.2269
 9399SOL    HW239831   2.607   0.559   2.279 -0.4478  1.7888 -0.0137
 9400SOL     OW39832   3.433   3.957  12.846  0.5145  0.1028  0.1596
 9400SOL    HW139833   3.373   3.944  12.919  0.1931  1.5870  0.1576
 9400SOL    HW239834   3.491   3.883  12.863  0.1248 -0.5016 -1.1299
 9401SOL     OW39835   1.473   0.061   3.700 -0.7983 -0.6053  0.6469
 9401SOL    HW139836   1.452   4.733   3.637 -1.5239 -0.4754  0.7397
 9401SOL    HW239837   1.568   0.068   3.698 -0.8763 -0.0492 -1.7708
 9402SOL     OW39838   2.980   3.462   2.691  0.2778  0.0308  0.0816
 9402SOL    HW139839   3.041   3.535   2.705 -0.0539  0.1811  0.7361
 9402SOL    HW239840   3.027   3.415   2.622  0.8947 -0.6418  0.9658
 9403SOL     OW39841   4.080   3.317  13.932 -0.0540  0.1784  0.8016
 9403SOL    HW139842   4.027   3.371  13.991 -0.8376 -1.0985  1.2877
 9403SOL    HW239843   4.082   3.231  13.975  0.6177  0.0594  0.5288
 9404SOL     OW39844   0.555   4.686   7.449 -0.2817  0.2452 -0.6271
 9404SOL    HW139845   0.538   4.608   7.396  0.5621 -0.7406  0.5782
 9404SOL    HW239846   0.558   0.011   7.381 -0.0244  0.0136 -0.8423
 9405SOL     OW39847   0.322   2.421   4.537  0.2727 -0.1941  0.3943
 9405SOL    HW139848   0.286   2.506   4.563  0.5250 -0.1011  0.4459
 9405SOL    HW239849   0.254   2.369   4.581 -0.0531 -0.1083 -0.0077
 9406SOL     OW39850   0.676   1.845   6.702 -0.5197 -0.8967  0.3855
 9406SOL    HW139851   0.638   1.871   6.787 -0.7600 -1.8944  0.5768
 9406SOL    HW239852   0.707   1.758   6.724  0.0317 -0.9128 -0.4707
 9407SOL     OW39853   3.318   3.207   8.879  0.5048 -0.1050  0.3543
 9407SOL    HW139854   3.261   3.162   8.817  0.5084  1.8919 -1.0949
 9407SOL    HW239855   3.254   3.267   8.919  0.4743  0.5308 -0.6560
 9408SOL     OW39856   1.557   4.566   4.010 -0.0414 -0.1614 -0.1808
 9408SOL    HW139857   1.567   4.643   4.066 -0.3952  0.3814 -0.8640
 9408SOL    HW239858   1.645   4.554   3.975 -0.0066  2.4918 -0.9628
 9409SOL     OW39859   3.748   3.883   2.556  0.0899  0.1848 -0.6715
 9409SOL    HW139860   3.736   3.793   2.587 -3.4036  0.7702 -0.2457
 9409SOL    HW239861   3.681   3.883   2.487  0.3553  2.1160 -0.9161
 9410SOL     OW39862   3.008   3.951   1.105 -0.6563  0.2560 -0.1358
 9410SOL    HW139863   2.973   3.862   1.097  0.6703 -0.1305 -1.6153
 9410SOL    HW239864   2.969   3.980   1.022  1.7055  1.1964 -0.9024
 9411SOL     OW39865   3.682   1.553   1.776  0.4129 -0.6659  0.4414
 9411SOL    HW139866   3.758   1.553   1.835 -0.3424  1.8147  1.4298
 9411SOL    HW239867   3.695   1.633   1.725  1.9617  0.2007  2.1848
 9412SOL     OW39868   3.690   0.003   9.466 -0.5057 -0.2379 -0.2583
 9412SOL    HW139869   3.737   0.024   9.547 -0.4735 -1.1701 -0.0353
 9412SOL    HW239870   3.752   0.020   9.396 -0.7088 -0.6443 -0.5363
 9413SOL     OW39871   3.856   2.935   3.030  0.1145  0.0110  0.3604
 9413SOL    HW139872   3.873   2.877   2.956  1.0351  2.1775 -1.1096
 9413SOL    HW239873   3.927   2.910   3.089 -0.1809 -2.8817 -0.4843
 9414SOL     OW39874   3.862   0.790  11.317  0.1739  0.4313 -0.9120
 9414SOL    HW139875   3.783   0.738  11.301  0.0546  0.8566 -1.7058
 9414SOL    HW239876   3.843   0.872  11.272  2.7272  1.2017 -0.5829
 9415SOL     OW39877   1.820   2.876   2.153 -0.2259  0.1995 -0.2859
 9415SOL    HW139878   1.790   2.953   2.200 -0.3278 -0.7110  1.1252
 9415SOL    HW239879   1.818   2.912   2.064  0.3754 -0.5296 -0.5979
 9416SOL     OW39880   4.081   4.013   6.188 -0.3932  0.4393 -0.0621
 9416SOL    HW139881   4.091   4.085   6.126 -1.6230  0.0967 -0.6591
 9416SOL    HW239882   4.086   4.063   6.269 -2.5866 -2.2911  1.7688
 9417SOL     OW39883   0.496   2.547   2.936  0.5926 -0.3774  0.3125
 9417SOL    HW139884   0.429   2.480   2.949  1.8777 -1.5444  0.9341
 9417SOL    HW239885   0.572   2.498   2.906 -1.4339 -0.9907 -3.8741
 9418SOL     OW39886   1.205   1.524   2.679  0.5300 -0.3716 -0.0197
 9418SOL    HW139887   1.130   1.584   2.685  1.0498  0.3637 -0.7149
 9418SOL    HW239888   1.274   1.582   2.711  0.1944 -0.1069  0.2200
 9419SOL     OW39889   1.451   0.335   5.688  0.6771  0.3195  0.3595
 9419SOL    HW139890   1.547   0.334   5.687  0.6805  1.0272  0.0326
 9419SOL    HW239891   1.435   0.266   5.752 -0.9214  3.6291  3.5680
 9420SOL     OW39892   2.317   0.058   3.238  0.0599  0.3594 -0.1314
 9420SOL    HW139893   2.288   0.149   3.230  0.5355  0.4978 -0.3113
 9420SOL    HW239894   2.374   0.051   3.161 -0.3255 -0.2023 -0.3615
 9421SOL     OW39895   0.892   2.748   9.202 -0.0257  0.3234  0.7271
 9421SOL    HW139896   0.865   2.710   9.118  0.3920 -1.1069  1.2432
 9421SOL    HW239897   0.815   2.730   9.256  1.3651 -2.1768  1.8319
 9422SOL     OW39898   2.107   0.739   8.168  0.3352 -0.2590 -0.1667
 9422SOL    HW139899   2.176   0.756   8.232 -1.8951  0.5604  2.0244
 9422SOL    HW239900   2.132   0.655   8.129  1.2783 -0.5103  0.9975
 9423SOL     OW39901   2.751   3.840   6.935  0.2710  0.2630 -0.9689
 9423SOL    HW139902   2.695   3.892   6.879  0.2613 -0.2376 -1.4248
 9423SOL    HW239903   2.690   3.776   6.972  0.6536  1.1126  1.0915
 9424SOL     OW39904   2.890   4.440   5.128  0.1201  0.1423  0.0018
 9424SOL    HW139905   2.893   4.450   5.032 -0.5530  0.3071 -0.0024
 9424SOL    HW239906   2.940   4.360   5.143  0.3090  0.4123  0.8065
 9425SOL     OW39907   2.771   2.660   6.198  0.0022  0.3178  0.0450
 9425SOL    HW139908   2.691   2.660   6.146 -0.1464  0.3623  0.2715
 9425SOL    HW239909   2.738   2.656   6.288 -0.2679 -0.0536 -0.0705
 9426SOL     OW39910   4.393   0.573   9.308 -0.2905  0.0119 -0.3291
 9426SOL    HW139911   4.362   0.488   9.339 -0.5736  1.0722  2.2581
 9426SOL    HW239912   4.476   0.549   9.265 -0.7885  0.7457 -1.7020
 9427SOL     OW39913   3.360   4.393  14.125  0.3954 -0.2964  0.1835
 9427SOL    HW139914   3.390   4.305  14.145 -1.0117 -1.3458 -2.3582
 9427SOL    HW239915   3.307   4.411  14.202  0.8558  0.0606  0.4198
 9428SOL     OW39916   2.280   0.735   1.996  0.3616 -0.2477 -0.1710
 9428SOL    HW139917   2.201   0.706   2.042 -1.3732  0.6288 -2.5582
 9428SOL    HW239918   2.253   0.807   1.939 -0.7687 -1.1784 -0.8117
 9429SOL     OW39919   2.816   4.354  15.036 -0.0831 -0.1775 -0.2223
 9429SOL    HW139920   2.799   4.280  15.094  3.1484  0.5901  1.7167
 9429SOL    HW239921   2.909   4.336  15.024 -0.1783 -1.3128  0.7375
 9430SOL     OW39922   4.236   3.453  14.238 -1.0186  0.2013  0.0977
 9430SOL    HW139923   4.197   3.519  14.182 -1.0413  0.2416  0.1613
 9430SOL    HW239924   4.256   3.392  14.167 -0.8406  0.4545 -0.0686
 9431SOL     OW39925   0.599   3.340   4.242  0.1074 -0.8072  0.1269
 9431SOL    HW139926   0.582   3.425   4.202  1.6501 -0.3308  0.4794
 9431SOL    HW239927   0.601   3.362   4.335 -1.0696 -1.5711  0.3448
 9432SOL     OW39928   1.371   2.536   3.705 -0.0772 -0.0866 -0.2573
 9432SOL    HW139929   1.378   2.531   3.800  0.7526  0.3747 -0.2968
 9432SOL    HW239930   1.296   2.477   3.691 -0.1546 -0.2518  0.8480
 9433SOL     OW39931   3.145   0.962  17.583 -0.0563  0.5041 -0.3256
 9433SOL    HW139932   3.179   1.050  17.599  0.2461  0.3947 -0.3639
 9433SOL    HW239933   3.057   0.980  17.616 -0.5425 -1.6946 -0.4521
 9434SOL     OW39934   2.089   4.328   4.850 -0.0957  0.1516  0.7555
 9434SOL    HW139935   2.154   4.280   4.901 -0.5359 -1.2423  0.0045
 9434SOL    HW239936   2.108   4.411   4.892 -0.7908 -0.5471  2.4319
 9435SOL     OW39937   4.150   3.159   3.045 -0.0657  0.0027 -0.3365
 9435SOL    HW139938   4.172   3.237   3.096 -0.7241 -0.8027  1.1860
 9435SOL    HW239939   4.098   3.199   2.976  0.2785  0.3618 -0.3869
 9436SOL     OW39940   2.619   4.183   2.488 -0.4148 -0.5601  0.1772
 9436SOL    HW139941   2.602   4.273   2.460 -2.2904 -0.5178  1.4065
 9436SOL    HW239942   2.706   4.166   2.454  0.9448  0.6447  3.0497
 9437SOL     OW39943   2.201   4.443   7.429 -0.5934  0.4640  0.3279
 9437SOL    HW139944   2.279   4.487   7.395  0.3112 -3.2546 -2.3121
 9437SOL    HW239945   2.216   4.356   7.394  0.9478  0.3300  1.3004
 9438SOL     OW39946   3.611   4.479   2.316  0.2000  0.1375 -0.1522
 9438SOL    HW139947   3.562   4.538   2.258 -1.1163  0.6934  1.5117
 9438SOL    HW239948   3.702   4.505   2.304  0.5014 -0.5075  0.7816
 9439SOL     OW39949   0.162   3.069   0.313  0.3372 -0.2600 -0.0961
 9439SOL    HW139950   0.183   3.148   0.363  1.6171 -1.8415  1.8218
 9439SOL    HW239951   0.105   3.020   0.373  1.3960 -1.0280  0.2750
 9440SOL     OW39952   4.291   2.133   1.407 -0.0619 -0.3853 -0.1974
 9440SOL    HW139953   4.333   2.052   1.379 -0.6634 -0.5394 -0.6616
 9440SOL    HW239954   4.334   2.138   1.492 -1.3636 -2.7175  0.6009
 9441SOL     OW39955   1.499   4.346   9.509 -0.2001  0.1768 -0.1282
 9441SOL    HW139956   1.541   4.308   9.432 -2.0308 -1.1427 -0.4637
 9441SOL    HW239957   1.471   4.431   9.475 -2.9686  0.2100  2.2446
 9442SOL     OW39958   3.402   0.028  17.556  0.9174  0.2037 -1.1727
 9442SOL    HW139959   3.332   0.011  17.494 -1.9453 -1.6303  2.5924
 9442SOL    HW239960   3.365   0.053  17.640  1.8665 -3.7336  0.4519
 9443SOL     OW39961   0.899   0.363  17.350 -0.0246 -0.2382  0.2137
 9443SOL    HW139962   0.861   0.341  17.434  1.3960 -0.1754  0.8710
 9443SOL    HW239963   0.972   0.302  17.339 -1.4973 -2.2104  1.5235
 9444SOL     OW39964   2.080   2.245   1.849 -0.5024 -0.1030 -0.0067
 9444SOL    HW139965   2.121   2.253   1.763  3.2486 -1.0719  1.7123
 9444SOL    HW239966   2.038   2.331   1.856 -0.5993 -0.1984  0.6038
 9445SOL     OW39967   3.027   0.024   5.909 -0.1099 -0.3754  0.4139
 9445SOL    HW139968   2.954   4.715   5.947  1.6063 -2.1551  1.3461
 9445SOL    HW239969   3.103   4.734   5.957  0.9752  2.1286  0.3071
 9446SOL     OW39970   1.800   3.760   6.301  0.0976 -0.2835 -0.0330
 9446SOL    HW139971   1.784   3.836   6.357 -2.4477 -1.4446  0.8349
 9446SOL    HW239972   1.867   3.795   6.242 -0.8914  0.2130 -0.8559
 9447SOL     OW39973   2.490   2.739   0.213 -0.4746  0.2307 -0.0010
 9447SOL    HW139974   2.551   2.695   0.153 -1.8397 -0.3254 -0.9974
 9447SOL    HW239975   2.522   2.829   0.210  1.9859 -0.6310  0.2033
 9448SOL     OW39976   4.076   1.322   1.352 -0.0922 -0.2010  0.1247
 9448SOL    HW139977   4.010   1.370   1.402 -2.0143  0.1569 -2.7798
 9448SOL    HW239978   4.023   1.297   1.276 -0.5021 -0.9953  0.6781
 9449SOL     OW39979   1.935   0.387   3.777 -0.2267  0.1543 -0.1213
 9449SOL    HW139980   1.912   0.474   3.809 -0.3223  0.3611 -0.7525
 9449SOL    HW239981   1.971   0.350   3.857  0.8045 -0.4696 -0.8725
 9450SOL     OW39982   2.931   3.560   5.446 -0.1623  0.0203  0.1481
 9450SOL    HW139983   2.949   3.650   5.418  0.0150  0.2513  0.9964
 9450SOL    HW239984   3.002   3.536   5.506  0.3327  0.4109 -0.2792
 9451SOL     OW39985   3.987   3.232   2.819  0.2438 -0.0358 -0.2285
 9451SOL    HW139986   4.013   3.151   2.774  0.2379 -1.0739  1.6345
 9451SOL    HW239987   3.901   3.245   2.780  0.8631 -2.4058 -2.4156
 9452SOL     OW39988   1.022   2.120   4.456 -0.1140  0.1877 -0.0393
 9452SOL    HW139989   0.990   2.066   4.528  4.5653 -1.5371  0.7998
 9452SOL    HW239990   1.112   2.116   4.490 -0.1458  0.3316  0.0582
 9453SOL     OW39991   3.004   4.424  16.507  0.4369 -0.4092 -0.3268
 9453SOL    HW139992   2.920   4.378  16.504  0.0989  0.0777  1.4890
 9453SOL    HW239993   3.013   4.440  16.601 -2.7028 -1.7083  0.2007
 9454SOL     OW39994   3.947   4.625   6.542 -0.1187 -0.6700 -0.3160
 9454SOL    HW139995   3.995   4.549   6.508  0.0660 -0.0779 -1.3790
 9454SOL    HW239996   3.985   4.692   6.485  2.2414 -2.9120 -1.3792
 9455SOL     OW39997   3.392   2.600   0.242  0.1054 -0.1658  1.1028
 9455SOL    HW139998   3.360   2.689   0.226 -3.5453 -1.5686  0.5226
 9455SOL    HW239999   3.460   2.583   0.176 -2.0268  0.0026 -1.1470
 9456SOL     OW40000   1.399   1.748  15.989 -0.3400  0.6947  0.3594
 9456SOL    HW140001   1.487   1.740  15.952 -0.8040  2.2203 -1.0721
 9456SOL    HW240002   1.342   1.780  15.919 -1.2900 -0.5119  0.5883
 9457SOL     OW40003   1.372   1.445   5.240 -0.4132 -0.1773  0.0541
 9457SOL    HW140004   1.388   1.526   5.287 -1.2367  1.1184 -1.8954
 9457SOL    HW240005   1.415   1.462   5.156 -0.5253 -0.4831 -0.0640
 9458SOL     OW40006   1.092   3.035   8.764 -0.0790 -0.3391 -0.1595
 9458SOL    HW140007   1.020   2.973   8.775 -0.6975  0.3448 -0.3075
 9458SOL    HW240008   1.139   3.005   8.686  1.0511 -0.1831  0.4655
 9459SOL     OW40009   2.648   1.549   6.446  0.3649 -0.7507 -0.3700
 9459SOL    HW140010   2.570   1.580   6.401 -0.3094  2.0062  2.6810
 9459SOL    HW240011   2.707   1.529   6.373  0.8589 -0.5330 -0.0301
 9460SOL     OW40012   2.664   2.754   5.332 -0.8359 -0.2565 -0.2103
 9460SOL    HW140013   2.746   2.792   5.362 -0.4937 -0.6152 -0.6833
 9460SOL    HW240014   2.612   2.828   5.364  0.5947 -0.6682  3.0320
 9461SOL     OW40015   3.539   1.827   7.530 -0.0970 -0.2373  0.4003
 9461SOL    HW140016   3.489   1.904   7.555 -2.4662 -1.0837 -1.7901
 9461SOL    HW240017   3.514   1.824   7.438  0.1321 -0.6927  0.3513
 9462SOL     OW40018   1.065   3.123   9.804 -0.4706 -0.7462 -0.3217
 9462SOL    HW140019   1.066   3.115   9.709 -1.5252 -0.1242 -0.3762
 9462SOL    HW240020   1.157   3.147   9.816  0.0262 -2.6286 -0.3252
 9463SOL     OW40021   3.938   4.574   8.240  0.1239  0.0867 -0.3230
 9463SOL    HW140022   3.884   4.509   8.286  1.5886 -1.4306 -0.7613
 9463SOL    HW240023   4.007   4.590   8.305  1.9041  0.5853 -2.3611
 9464SOL     OW40024   1.735   1.103   8.146  0.2024 -0.1955 -0.4356
 9464SOL    HW140025   1.681   1.040   8.194 -0.8560  1.0753  0.0455
 9464SOL    HW240026   1.789   1.048   8.089  1.2676  0.8989 -0.4921
 9465SOL     OW40027   1.097   1.307   2.851 -0.4852 -0.2892  0.4387
 9465SOL    HW140028   1.186   1.271   2.848  0.0869  1.0982  1.0827
 9465SOL    HW240029   1.123   1.397   2.868  0.9337 -0.3047 -1.6522
 9466SOL     OW40030   2.291   4.698   1.564  0.2436 -0.5352  0.1003
 9466SOL    HW140031   2.265   4.729   1.651 -1.6083 -1.1516 -0.2431
 9466SOL    HW240032   2.367   0.013   1.550 -0.4439  0.1792 -0.6684
 9467SOL     OW40033   0.622   0.633   1.916  0.0842  0.2885 -0.0311
 9467SOL    HW140034   0.660   0.556   1.959  1.8925  0.7788 -0.7370
 9467SOL    HW240035   0.571   0.588   1.849 -0.0282 -1.5569  1.2969
 9468SOL     OW40036   3.371   2.553   8.251 -0.0506 -0.2215  0.4546
 9468SOL    HW140037   3.454   2.506   8.255 -1.4190 -2.4792  2.3967
 9468SOL    HW240038   3.321   2.476   8.223  1.1882 -0.9255  0.2047
 9469SOL     OW40039   3.823   2.943   2.159 -0.1238 -0.2434 -0.1102
 9469SOL    HW140040   3.780   2.906   2.236  0.3833 -0.5095  0.0428
 9469SOL    HW240041   3.916   2.928   2.176 -0.6369 -1.2501  1.8538
 9470SOL     OW40042   2.337   4.121  15.661 -0.3383 -0.8248  0.0323
 9470SOL    HW140043   2.344   4.201  15.713  1.6320 -0.2617 -1.0902
 9470SOL    HW240044   2.368   4.153  15.576 -0.4982  1.4514  0.8141
 9471SOL     OW40045   3.890   1.564   8.292 -0.1998  0.7096  0.1616
 9471SOL    HW140046   3.943   1.563   8.213 -0.8549 -0.4115 -0.2773
 9471SOL    HW240047   3.944   1.587   8.368  1.7345  1.3017 -1.3993
 9472SOL     OW40048   0.517   0.733   5.629 -0.0171  0.4654 -0.3056
 9472SOL    HW140049   0.556   0.744   5.543  1.6603 -0.5124  0.3147
 9472SOL    HW240050   0.573   0.775   5.695  1.1043 -1.1587 -0.2232
 9473SOL     OW40051   2.654   2.404  13.322  0.6616  0.4531  0.3553
 9473SOL    HW140052   2.619   2.316  13.339  1.2966  0.0989 -0.2241
 9473SOL    HW240053   2.603   2.464  13.378 -1.9866  0.3601 -1.9577
 9474SOL     OW40054   0.327   1.709   6.727  0.9499  0.2440  0.3224
 9474SOL    HW140055   0.301   1.687   6.816 -1.5943 -2.6257 -1.1470
 9474SOL    HW240056   0.322   1.804   6.718 -0.6519  0.1084 -0.2420
 9475SOL     OW40057   3.316   2.873  15.554  0.2639 -0.2793 -0.2796
 9475SOL    HW140058   3.265   2.900  15.478 -0.1239  1.9748  0.7876
 9475SOL    HW240059   3.396   2.835  15.517  0.2302 -1.1367  0.5259
 9476SOL     OW40060   3.895   3.647  14.975 -0.5967 -0.0990  0.8305
 9476SOL    HW140061   3.911   3.553  14.966 -0.3997  0.0397 -0.1979
 9476SOL    HW240062   3.982   3.687  14.967  0.6944 -3.1353 -0.3586
 9477SOL     OW40063   2.999   2.714   2.995 -0.2488 -0.2163 -0.2656
 9477SOL    HW140064   3.089   2.746   2.982 -0.5573  1.0488  0.8148
 9477SOL    HW240065   3.026   2.656   3.067 -0.0119 -0.1012 -0.2620
 9478SOL     OW40066   4.015   2.610  11.879  0.0818  0.7825 -0.3118
 9478SOL    HW140067   4.055   2.538  11.927 -0.8790  0.2346 -0.3201
 9478SOL    HW240068   3.938   2.601  11.936  0.6642  1.4705  0.5702
 9479SOL     OW40069   2.380   2.862   3.826  0.0049  0.5425  0.4412
 9479SOL    HW140070   2.294   2.827   3.805  0.1694  0.1671  0.3863
 9479SOL    HW240071   2.388   2.828   3.915  0.7846  0.0492  0.1901
 9480SOL     OW40072   2.010   0.870   2.735  0.4593 -0.0995  0.0801
 9480SOL    HW140073   1.995   0.837   2.824  1.7645  1.5472  0.9089
 9480SOL    HW240074   1.931   0.922   2.721  1.1027  1.2232  1.3401
 9481SOL     OW40075   2.141   3.853   2.741  0.0691  0.0027  0.2081
 9481SOL    HW140076   2.117   3.768   2.777 -2.6044  0.4826 -0.3982
 9481SOL    HW240077   2.052   3.890   2.737  0.0554  0.0989  1.4343
 9482SOL     OW40078   1.830   0.494   5.833  0.9369 -0.0461 -0.6998
 9482SOL    HW140079   1.845   0.584   5.802 -1.5545  0.8147  0.5840
 9482SOL    HW240080   1.923   0.473   5.842  1.9208  3.9346 -1.5487
 9483SOL     OW40081   0.278   1.377  10.518 -0.5837 -0.4816 -0.2783
 9483SOL    HW140082   0.203   1.343  10.567 -0.8082 -0.3232 -0.5141
 9483SOL    HW240083   0.336   1.391  10.593  0.1643 -2.5073 -0.4564
 9484SOL     OW40084   3.452   1.403  10.973 -0.1101 -0.3584  0.3343
 9484SOL    HW140085   3.372   1.364  11.009 -0.7280  0.8512  0.2648
 9484SOL    HW240086   3.420   1.492  10.980 -0.6052 -0.5726  0.8378
 9485SOL     OW40087   0.130   0.929   6.629 -0.0657  0.0048  0.1065
 9485SOL    HW140088   0.108   0.956   6.718 -0.7105 -2.0252  0.5484
 9485SOL    HW240089   0.096   0.840   6.623  1.6862 -0.8058  2.4489
 9486SOL     OW40090   2.045   2.798   9.714 -1.1089 -0.2676 -0.5483
 9486SOL    HW140091   2.115   2.736   9.695  0.7535  1.7614 -0.2806
 9486SOL    HW240092   2.074   2.873   9.663  0.9859 -0.5197  0.2782
 9487SOL     OW40093   0.969   0.081   0.734 -0.6077 -0.2082 -0.5591
 9487SOL    HW140094   1.045   0.051   0.684  1.2088  1.9138  0.9254
 9487SOL    HW240095   0.913   0.004   0.729 -0.0999 -0.8368  3.7871
 9488SOL     OW40096   3.911   2.318   5.539  0.1347 -0.3564  0.1308
 9488SOL    HW140097   3.949   2.290   5.622  2.0305  1.7611 -0.0061
 9488SOL    HW240098   3.919   2.413   5.549 -0.2883 -0.2050 -0.9871
 9489SOL     OW40099   0.031   3.838   1.735 -0.0287  0.1038 -0.0572
 9489SOL    HW140100   0.083   3.813   1.811  0.5258 -0.4242 -0.6171
 9489SOL    HW240101   0.026   3.928   1.767  0.3452 -0.0146  0.3295
 9490SOL     OW40102   3.275   0.699   6.897 -0.6445  0.0684 -0.2573
 9490SOL    HW140103   3.324   0.684   6.978 -0.2780  2.1929 -0.1079
 9490SOL    HW240104   3.331   0.764   6.855  1.4326 -0.2343  2.0362
 9491SOL     OW40105   0.376   1.055  10.300 -0.3931 -0.3991  0.4292
 9491SOL    HW140106   0.424   1.133  10.274  1.8247 -1.5210  1.2025
 9491SOL    HW240107   0.452   0.998  10.308 -0.3775 -0.4528 -0.1266
 9492SOL     OW40108   2.234   4.436   1.952 -0.2497  0.1120 -0.1866
 9492SOL    HW140109   2.276   4.469   2.032  0.1231 -1.4723  0.2625
 9492SOL    HW240110   2.150   4.478   1.972  0.7072  1.6796  0.6462
 9493SOL     OW40111   2.911   2.768   0.551 -0.5389 -0.1957  0.4637
 9493SOL    HW140112   2.885   2.687   0.508 -0.8696  0.1014  0.0995
 9493SOL    HW240113   2.839   2.830   0.545  0.5832  1.0189 -0.6478
 9494SOL     OW40114   0.403   3.854   1.778 -0.7258 -0.3334  0.5740
 9494SOL    HW140115   0.459   3.928   1.757 -2.9211  0.9861 -0.6922
 9494SOL    HW240116   0.419   3.802   1.698  1.2929  1.2736 -0.0416
 9495SOL     OW40117   1.825   1.408   6.718  0.1965  0.7561 -0.3970
 9495SOL    HW140118   1.835   1.476   6.651  1.1410 -0.1335 -1.1532
 9495SOL    HW240119   1.831   1.472   6.789  1.0862  0.7225 -0.4539
 9496SOL     OW40120   4.122   1.010   4.188  0.1033 -0.2963 -0.3235
 9496SOL    HW140121   4.143   0.938   4.129  0.4998 -0.2500 -0.2348
 9496SOL    HW240122   4.037   0.991   4.228  0.1607  1.3487  0.5751
 9497SOL     OW40123   3.035   3.153   1.801 -0.0275 -0.4394  0.1170
 9497SOL    HW140124   3.039   3.223   1.866 -0.4313  0.1132 -0.4384
 9497SOL    HW240125   2.943   3.159   1.774  0.0363 -1.7766 -0.4002
 9498SOL     OW40126   4.201   1.097   7.352 -0.3088  0.1754  0.2930
 9498SOL    HW140127   4.156   1.141   7.280 -0.9557  0.3887  0.8279
 9498SOL    HW240128   4.139   1.034   7.389 -1.1206  1.2335  0.7127
 9499SOL     OW40129   0.614   1.129   3.893  0.3881 -0.1047 -0.6208
 9499SOL    HW140130   0.707   1.120   3.913  0.7611  0.6036 -2.0030
 9499SOL    HW240131   0.601   1.048   3.844 -0.6629  0.5950 -1.4774
 9500SOL     OW40132   0.501   1.248  15.474 -0.3031  0.2383  0.3111
 9500SOL    HW140133   0.519   1.236  15.568  0.1401 -0.7651  0.1019
 9500SOL    HW240134   0.418   1.297  15.466 -1.1677 -1.1966  0.4738
 9501SOL     OW40135   3.868   2.204  17.590 -0.4081 -0.2104  0.3921
 9501SOL    HW140136   3.944   2.190  17.535  0.0862 -0.8316  1.2376
 9501SOL    HW240137   3.872   2.119  17.633 -1.9464  0.0714  1.1246
 9502SOL     OW40138   1.762   0.337  11.413 -0.2128 -0.0751  0.8815
 9502SOL    HW140139   1.798   0.416  11.453  0.0970 -0.0457  0.5392
 9502SOL    HW240140   1.700   0.373  11.350 -1.2350 -1.0884  1.2945
 9503SOL     OW40141   1.309   2.113   2.383 -0.0694 -0.4114 -0.1997
 9503SOL    HW140142   1.267   2.198   2.398  0.1069 -0.2668 -0.5084
 9503SOL    HW240143   1.286   2.066   2.463  0.7099 -0.9904 -0.3218
 9504SOL     OW40144   0.850   2.006   7.262 -0.2070  0.3945  0.2579
 9504SOL    HW140145   0.834   2.084   7.209 -0.2130  0.8419  0.9209
 9504SOL    HW240146   0.925   2.041   7.310 -0.4139 -0.4156  1.1731
 9505SOL     OW40147   1.999   4.064   7.635 -0.1568  0.2852  0.4235
 9505SOL    HW140148   1.965   4.106   7.556 -1.5254  1.0516  1.4178
 9505SOL    HW240149   1.931   3.997   7.639 -0.8156  0.9131 -0.3141
 9506SOL     OW40150   0.609   1.199  10.213  0.6684  0.2077 -0.5232
 9506SOL    HW140151   0.683   1.248  10.249  0.8181 -0.5633  0.2051
 9506SOL    HW240152   0.619   1.215  10.119 -1.8928 -0.6560 -0.9251
 9507SOL     OW40153   1.205   3.860   5.300  0.1415 -0.2422 -0.5713
 9507SOL    HW140154   1.285   3.903   5.270  0.8768 -1.3536 -0.1989
 9507SOL    HW240155   1.234   3.796   5.366  3.2996  1.3912 -0.3809
 9508SOL     OW40156   0.410   0.247   7.953  0.3948  0.0365 -0.3703
 9508SOL    HW140157   0.368   0.164   7.976 -0.0247  0.9710  2.2241
 9508SOL    HW240158   0.350   0.308   7.996 -0.6208  0.5608 -2.4725
 9509SOL     OW40159   0.434   3.401   6.824 -0.1267 -0.3936 -0.2903
 9509SOL    HW140160   0.398   3.469   6.880 -1.8765 -1.4699 -0.0996
 9509SOL    HW240161   0.509   3.373   6.877 -1.7921  0.6102  2.6091
 9510SOL     OW40162   0.534   1.899   6.937 -0.0099 -0.2450  0.8753
 9510SOL    HW140163   0.569   1.879   7.023 -1.1671  2.0013  1.8718
 9510SOL    HW240164   0.460   1.839   6.929 -1.1438  1.4135 -1.0896
 9511SOL     OW40165   0.048   3.800   7.874  0.5899 -0.0553  0.1211
 9511SOL    HW140166   4.728   3.812   7.946  0.5279 -0.6875  0.1720
 9511SOL    HW240167   0.111   3.871   7.885  0.6476  0.2999 -2.3810
 9512SOL     OW40168   2.985   0.495   2.433  0.0887  0.2097 -0.2992
 9512SOL    HW140169   3.046   0.568   2.440  1.2566 -0.6963 -0.9817
 9512SOL    HW240170   3.028   0.418   2.470  0.3545  1.0069  1.0728
 9513SOL     OW40171   0.043   1.690  17.042 -0.1888 -0.3316 -0.0943
 9513SOL    HW140172   0.131   1.698  17.077  0.2997 -1.2903 -1.0747
 9513SOL    HW240173   0.020   1.600  17.067 -1.6295  0.4575  1.3897
 9514SOL     OW40174   3.572   0.024   3.523  0.2806 -0.2622 -0.0873
 9514SOL    HW140175   3.648   4.710   3.543  1.5182  1.4917  0.0196
 9514SOL    HW240176   3.504   4.707   3.491  0.0842  1.1043 -2.1475
 9515SOL     OW40177   3.243   3.915   4.617 -0.9164  0.1249  0.4339
 9515SOL    HW140178   3.331   3.943   4.643  0.9400 -2.6051 -2.8587
 9515SOL    HW240179   3.261   3.862   4.540  0.8584  0.8338  0.3439
 9516SOL     OW40180   4.105   2.953   6.976 -0.8401 -0.1887 -0.0265
 9516SOL    HW140181   4.063   2.870   7.000 -1.4566 -0.2418 -1.2882
 9516SOL    HW240182   4.159   2.985   7.048  2.9460 -1.0765 -2.4606
 9517SOL     OW40183   2.002   0.295   5.515  0.0741  0.4213  0.0597
 9517SOL    HW140184   2.043   0.262   5.435  0.6857  2.9115 -0.6345
 9517SOL    HW240185   2.075   0.313   5.573 -1.0449  1.5936  1.0925
 9518SOL     OW40186   3.553   3.042   0.226 -0.2731 -0.0026 -0.1813
 9518SOL    HW140187   3.486   3.002   0.170  1.8141 -3.7794  0.0416
 9518SOL    HW240188   3.528   3.134   0.226 -1.5185 -0.3257 -0.1196
 9519SOL     OW40189   4.614   4.702   4.113  0.0850  0.3503  0.4398
 9519SOL    HW140190   4.609   4.640   4.040 -2.1186 -1.2712  1.9416
 9519SOL    HW240191   4.697   0.001   4.088  0.8444 -1.7716 -0.4906
 9520SOL     OW40192   0.515   3.598   2.154  0.6955 -0.6550 -0.8553
 9520SOL    HW140193   0.501   3.537   2.082  0.3896 -0.7377 -0.7244
 9520SOL    HW240194   0.520   3.538   2.228  0.0103  2.3401  1.6132
 9521SOL     OW40195   4.183   2.244   8.535  1.0443 -0.0533 -0.2699
 9521SOL    HW140196   4.131   2.228   8.456  0.5744  2.4986 -0.4781
 9521SOL    HW240197   4.157   2.160   8.574  0.2703  0.3297  0.0601
 9522SOL     OW40198   2.861   3.085   4.410 -0.6605 -0.0659  0.4011
 9522SOL    HW140199   2.920   3.011   4.425 -2.0366 -1.9656 -3.5905
 9522SOL    HW240200   2.797   3.033   4.362  0.6254 -1.3994  0.1525
 9523SOL     OW40201   1.715   1.482   6.246  0.6248  0.3054  0.0769
 9523SOL    HW140202   1.737   1.407   6.192 -1.5793 -1.3097  1.4560
 9523SOL    HW240203   1.655   1.441   6.308  1.5675 -0.2235  0.6405
 9524SOL     OW40204   4.044   3.822   1.768  0.4164 -0.1862  0.0542
 9524SOL    HW140205   4.053   3.741   1.717 -0.6953 -0.8242  0.8577
 9524SOL    HW240206   4.121   3.874   1.746 -0.5915  1.8032  1.3146
 9525SOL     OW40207   1.287   0.112   0.895 -0.1860 -0.0904  0.2589
 9525SOL    HW140208   1.221   0.152   0.952  1.1359  0.6503  1.2653
 9525SOL    HW240209   1.275   0.019   0.912 -1.3706 -0.2697 -1.6312
 9526SOL     OW40210   2.174   1.697  14.555 -0.4210  0.0650 -0.1387
 9526SOL    HW140211   2.153   1.646  14.634 -0.6250 -1.6335 -1.2781
 9526SOL    HW240212   2.190   1.624  14.495  1.5848 -0.6526  1.2627
 9527SOL     OW40213   4.396   4.350   2.871  0.5733  0.0738  0.3425
 9527SOL    HW140214   4.481   4.335   2.830  0.4996 -0.4459  0.3691
 9527SOL    HW240215   4.392   4.445   2.867 -2.6602 -0.1447 -1.6751
 9528SOL     OW40216   3.191   2.570  14.319  0.1019 -0.1602  0.9478
 9528SOL    HW140217   3.269   2.537  14.364  0.4918 -2.0074 -1.0867
 9528SOL    HW240218   3.223   2.649  14.276  1.4839 -1.1607  0.1407
 9529SOL     OW40219   4.103   0.400   6.402 -0.2512  0.2017  0.0455
 9529SOL    HW140220   4.017   0.367   6.427  0.7129 -0.6871  2.2397
 9529SOL    HW240221   4.123   0.343   6.328 -1.5503 -0.6917  0.3772
 9530SOL     OW40222   1.935   3.347   7.256 -0.4082  0.1030  0.1955
 9530SOL    HW140223   2.016   3.324   7.302 -1.6382  0.9786  2.8140
 9530SOL    HW240224   1.879   3.278   7.291  0.2079 -0.2115  0.5694
 9531SOL     OW40225   0.999   3.495   4.497  0.0965  0.3278 -0.1591
 9531SOL    HW140226   0.987   3.579   4.452 -0.9030 -0.2414 -0.9353
 9531SOL    HW240227   0.924   3.476   4.553  0.3885 -0.2842  0.0146
 9532SOL     OW40228   1.633   1.629   6.727  0.0177  0.2331  0.4892
 9532SOL    HW140229   1.562   1.686   6.696  1.2365  2.4561  1.8375
 9532SOL    HW240230   1.578   1.560   6.764 -0.9799  0.0051 -1.4014
 9533SOL     OW40231   2.723   2.303   6.666  0.2403 -0.2880 -1.0161
 9533SOL    HW140232   2.743   2.291   6.574  1.7659 -0.5869 -0.6474
 9533SOL    HW240233   2.669   2.383   6.667 -0.0923 -0.5346  0.6222
 9534SOL     OW40234   2.279   3.049  11.810 -0.7383 -0.9948 -0.0009
 9534SOL    HW140235   2.292   2.963  11.768 -0.8031 -0.6501 -0.7279
 9534SOL    HW240236   2.325   3.033  11.893 -1.0498  0.4776  0.4410
 9535SOL     OW40237   3.315   2.249   6.071 -0.4803  0.0544 -0.2308
 9535SOL    HW140238   3.232   2.204   6.078 -0.0150 -0.5005  1.6217
 9535SOL    HW240239   3.348   2.242   6.160  0.0462 -1.1604 -0.5152
 9536SOL     OW40240   1.076   2.952   6.031 -0.3522  0.5118  0.7875
 9536SOL    HW140241   1.166   2.937   6.003 -0.8135 -1.0673  0.1033
 9536SOL    HW240242   1.050   2.860   6.022  0.6020  0.3713 -0.5477
 9537SOL     OW40243   2.827   0.474  16.808 -0.1921  0.1052  0.7236
 9537SOL    HW140244   2.751   0.484  16.867 -1.2309 -2.0559 -0.2484
 9537SOL    HW240245   2.835   0.560  16.767  0.7694 -0.1670  0.3471
 9538SOL     OW40246   2.709   0.310   8.446 -0.2570  0.2748  0.2911
 9538SOL    HW140247   2.628   0.339   8.406  0.7809  2.0727 -0.5199
 9538SOL    HW240248   2.763   0.320   8.368  1.2630  2.4308  1.6055
 9539SOL     OW40249   4.330   1.935   8.067 -0.3016 -0.0643  0.3800
 9539SOL    HW140250   4.259   1.941   8.130  0.4731  0.8321  1.1734
 9539SOL    HW240251   4.278   1.919   7.988  0.7344  0.7395 -0.4612
 9540SOL     OW40252   2.659   1.843   4.266  0.2020  0.3447 -0.3394
 9540SOL    HW140253   2.751   1.820   4.277 -0.4127 -0.7984  2.4197
 9540SOL    HW240254   2.627   1.753   4.271  0.0230  0.3231 -1.8441
 9541SOL     OW40255   4.501   1.886   6.758  0.5199 -0.8707  0.5640
 9541SOL    HW140256   4.453   1.855   6.681 -0.9122  0.7515  0.8026
 9541SOL    HW240257   4.497   1.981   6.744  1.1223 -1.0683 -0.9322
 9542SOL     OW40258   3.214   2.950   8.746  0.3674 -0.4199 -0.6986
 9542SOL    HW140259   3.163   3.013   8.696  1.3828  1.8542  1.1063
 9542SOL    HW240260   3.145   2.892   8.779 -0.8158  2.1434  1.3543
 9543SOL     OW40261   2.663   2.733   4.784  0.2125 -0.2754  0.3151
 9543SOL    HW140262   2.651   2.714   4.877  1.1996 -0.2771  0.4396
 9543SOL    HW240263   2.691   2.824   4.794 -0.6120  0.0552 -0.3794
 9544SOL     OW40264   1.763   1.054  10.399 -0.2980  0.2755 -0.0898
 9544SOL    HW140265   1.797   0.969  10.369  2.2744  1.0864  0.4556
 9544SOL    HW240266   1.702   1.068  10.327  0.5118 -0.1494 -0.8727
 9545SOL     OW40267   2.076   3.953   9.460 -0.2255  0.2257  0.1847
 9545SOL    HW140268   2.148   4.016   9.460  0.5647 -0.7111  2.1901
 9545SOL    HW240269   2.130   3.875   9.454 -1.4845 -0.6078 -0.3462
 9546SOL     OW40270   1.030   2.609   9.529 -0.5248  0.0956 -0.7992
 9546SOL    HW140271   1.060   2.608   9.438 -1.5875 -0.3627 -1.1407
 9546SOL    HW240272   1.008   2.702   9.534 -3.0424 -0.5847  1.1094
 9547SOL     OW40273   4.397   3.056   2.889 -0.2827 -0.1714 -0.1071
 9547SOL    HW140274   4.423   3.147   2.901 -0.0942 -0.0803 -1.2160
 9547SOL    HW240275   4.310   3.055   2.930 -0.4362 -2.1531 -0.4649
 9548SOL     OW40276   1.712   0.249   4.344  0.1125  0.4511 -0.0038
 9548SOL    HW140277   1.750   0.282   4.426  1.1209 -1.2497  0.2141
 9548SOL    HW240278   1.725   0.322   4.283  0.1788  0.4940  0.0614
 9549SOL     OW40279   3.275   2.703   1.278 -0.6576 -0.3752 -0.1782
 9549SOL    HW140280   3.255   2.756   1.201  0.9684  0.8351  0.2484
 9549SOL    HW240281   3.270   2.774   1.342 -0.3788 -1.5213  1.1154
 9550SOL     OW40282   3.056   4.696   7.618 -0.8109  0.4279 -0.0107
 9550SOL    HW140283   3.019   4.678   7.531 -0.4097  1.3154 -0.3652
 9550SOL    HW240284   3.124   0.021   7.606 -0.4722 -0.0779 -0.8978
 9551SOL     OW40285   3.268   2.673   6.771 -0.1984 -0.0610  0.4078
 9551SOL    HW140286   3.258   2.768   6.773  0.8703  0.0984 -1.5699
 9551SOL    HW240287   3.335   2.658   6.703 -1.4649  0.2453 -0.8953
 9552SOL     OW40288   2.308   4.245  14.300 -0.3628 -0.4833 -1.1653
 9552SOL    HW140289   2.239   4.247  14.233 -0.7097 -0.1506 -0.7966
 9552SOL    HW240290   2.274   4.261  14.388 -1.1245 -0.5319 -1.4560
 9553SOL     OW40291   2.477   4.514   0.159 -0.4600 -0.1967  0.2715
 9553SOL    HW140292   2.455   4.430   0.118  1.3176 -0.4402 -0.1766
 9553SOL    HW240293   2.428   4.514   0.242  1.5058 -3.8455  1.4229
 9554SOL     OW40294   2.215   3.047   9.163 -0.3375  0.3415  0.3143
 9554SOL    HW140295   2.249   3.065   9.076 -0.4896  0.0067  0.1835
 9554SOL    HW240296   2.213   3.128   9.213  0.5412  1.0195 -0.7642
 9555SOL     OW40297   1.447   0.067   2.016 -0.3464  0.4786 -0.2963
 9555SOL    HW140298   1.471   0.149   1.973 -0.3357 -0.0057 -1.2182
 9555SOL    HW240299   1.352   0.067   2.013 -0.3054 -1.8608 -1.1145
 9556SOL     OW40300   1.780   4.443   6.610  0.5432 -0.0510 -0.1727
 9556SOL    HW140301   1.735   4.477   6.687  1.8573 -0.4846  0.7909
 9556SOL    HW240302   1.707   4.405   6.562 -0.5135  0.9336  0.6489
 9557SOL     OW40303   0.237   1.090  11.128 -0.0233 -0.5123 -0.9231
 9557SOL    HW140304   0.328   1.060  11.135  1.2364  3.5727  0.2703
 9557SOL    HW240305   0.232   1.161  11.191  1.3647 -1.0219 -0.2208
 9558SOL     OW40306   1.035   2.100   7.412 -0.1593  0.2018  0.2607
 9558SOL    HW140307   1.097   2.041   7.453  1.9609  2.2883  0.0396
 9558SOL    HW240308   1.006   2.144   7.492  0.4833  1.0007  0.0534
 9559SOL     OW40309   2.712   2.572  11.374 -0.2586  0.3285 -0.1645
 9559SOL    HW140310   2.693   2.665  11.388 -0.5903 -0.0841  2.1643
 9559SOL    HW240311   2.805   2.581  11.396 -0.0345  0.3129 -1.0933
 9560SOL     OW40312   3.860   3.488   1.562  0.7090  0.1572  0.2815
 9560SOL    HW140313   3.896   3.411   1.518  3.1394  1.0649  0.6870
 9560SOL    HW240314   3.908   3.502   1.644 -0.9164 -0.5631  1.3656
 9561SOL     OW40315   2.192   4.247   5.888 -0.3760 -0.4425 -0.2137
 9561SOL    HW140316   2.176   4.310   5.817  4.9085  1.6286  0.4156
 9561SOL    HW240317   2.195   4.166   5.837 -1.9960 -0.7896  0.2491
 9562SOL     OW40318   4.542   2.529   8.482 -0.1807  0.6687  0.7940
 9562SOL    HW140319   4.457   2.527   8.524  0.2961 -1.1528  1.6462
 9562SOL    HW240320   4.509   2.573   8.404 -0.4454 -0.0282  0.5109
 9563SOL     OW40321   1.763   0.001   9.048  0.2501 -0.4841  0.0525
 9563SOL    HW140322   1.706   0.069   9.082 -0.5875 -1.3989  0.4863
 9563SOL    HW240323   1.720   4.661   9.075 -0.7900  0.1381  0.2645
 9564SOL     OW40324   3.089   0.482   1.794 -0.2070  0.2369  0.9602
 9564SOL    HW140325   3.037   0.405   1.816 -1.7564  0.4831 -1.8800
 9564SOL    HW240326   3.165   0.471   1.851 -1.5263 -1.3157  2.4175
 9565SOL     OW40327   1.842   3.458  10.149  0.1677  0.0042  0.3700
 9565SOL    HW140328   1.920   3.500  10.186  2.2536 -0.8994 -2.9005
 9565SOL    HW240329   1.885   3.385  10.103 -0.9820 -1.3995  1.5400
 9566SOL     OW40330   2.414   3.352   6.889 -0.3302  0.2607 -1.3054
 9566SOL    HW140331   2.360   3.351   6.810 -2.4030 -2.0039  0.1447
 9566SOL    HW240332   2.372   3.418   6.944  1.0688  1.0484 -1.1775
 9567SOL     OW40333   1.252   3.066   4.043  0.3694  0.1156  0.2116
 9567SOL    HW140334   1.181   3.045   3.982  1.2056 -0.2999 -0.6232
 9567SOL    HW240335   1.229   3.158   4.047  0.4808  0.1197  0.7321
 9568SOL     OW40336   3.062   0.097   5.083 -0.3604 -0.0668  0.2888
 9568SOL    HW140337   2.985   0.062   5.127 -0.6118  0.4691  0.2796
 9568SOL    HW240338   3.134   0.055   5.129  0.0581 -1.5342 -1.7203
 9569SOL     OW40339   0.701   2.274   2.394  0.6447 -0.3008 -0.3028
 9569SOL    HW140340   0.648   2.225   2.457  2.6271 -1.7420  0.2438
 9569SOL    HW240341   0.750   2.211   2.342 -2.3495 -0.3439 -3.0622
 9570SOL     OW40342   0.643   1.248   4.674  0.3683  0.6333  0.6286
 9570SOL    HW140343   0.548   1.258   4.661  0.5280  0.2707 -0.8053
 9570SOL    HW240344   0.649   1.179   4.609 -0.9188  1.5554 -0.4585
 9571SOL     OW40345   3.346   2.949   4.413 -0.6413  0.1142  0.3399
 9571SOL    HW140346   3.315   3.006   4.484  1.0842 -0.9973  1.9792
 9571SOL    HW240347   3.294   2.982   4.340  1.4782  1.9396 -0.3285
   4.74162   4.74162  17.76367
